Generated by trjconv : CNT in water t=  69.00000
33518
    1C        C    1   2.845   2.773   4.751
    1C        C    2   2.898   2.718   4.870
    1C        C    3   2.846   2.774   4.988
    1C        C    4   2.852   2.774   4.262
    1C        C    5   2.902   2.730   4.387
    1C        C    6   2.845   2.772   4.509
    1C        C    7   3.016   2.645   4.627
    1C        C    8   2.899   2.724   4.630
    1C        C    9   3.077   2.607   4.748
    1C        C   10   3.016   2.641   4.870
    1C        C   11   3.183   2.496   4.980
    1C        C   12   3.062   2.567   4.980
    1C        C   13   2.854   2.774   3.771
    1C        C   14   2.901   2.725   3.894
    1C        C   15   2.852   2.775   4.017
    1C        C   16   3.016   2.642   4.140
    1C        C   17   2.900   2.724   4.140
    1C        C   18   3.080   2.611   4.262
    1C        C   19   3.019   2.650   4.383
    1C        C   20   3.211   2.559   4.504
    1C        C   21   3.080   2.614   4.505
    1C        C   22   3.278   2.536   4.626
    1C        C   23   3.208   2.550   4.748
    1C        C   24   3.412   2.488   4.868
    1C        C   25   3.270   2.500   4.866
    1C        C   26   3.492   2.486   4.984
    1C        C   27   2.853   2.769   3.282
    1C        C   28   2.904   2.719   3.404
    1C        C   29   2.852   2.770   3.526
    1C        C   30   3.018   2.640   3.649
    1C        C   31   2.905   2.725   3.649
    1C        C   32   3.077   2.607   3.773
    1C        C   33   3.016   2.642   3.896
    1C        C   34   3.209   2.554   4.019
    1C        C   35   3.079   2.609   4.018
    1C        C   36   3.281   2.538   4.139
    1C        C   37   3.211   2.559   4.260
    1C        C   38   3.417   2.511   4.384
    1C        C   39   3.277   2.534   4.382
    1C        C   40   3.486   2.504   4.507
    1C        C   41   3.416   2.506   4.630
    1C        C   42   3.630   2.482   4.746
    1C        C   43   3.488   2.481   4.748
    1C        C   44   3.706   2.485   4.864
    1C        C   45   3.631   2.478   4.982
    1C        C   46   2.841   2.754   2.793
    1C        C   47   2.894   2.711   2.917
    1C        C   48   2.844   2.765   3.038
    1C        C   49   3.014   2.636   3.162
    1C        C   50   2.899   2.718   3.159
    1C        C   51   3.083   2.609   3.283
    1C        C   52   3.019   2.637   3.406
    1C        C   53   3.211   2.550   3.532
    1C        C   54   3.079   2.601   3.528
    1C        C   55   3.278   2.528   3.655
    1C        C   56   3.207   2.550   3.775
    1C        C   57   3.415   2.506   3.894
    1C        C   58   3.276   2.532   3.896
    1C        C   59   3.488   2.501   4.015
    1C        C   60   3.419   2.509   4.138
    1C        C   61   3.628   2.505   4.261
    1C        C   62   3.487   2.502   4.262
    1C        C   63   3.699   2.510   4.383
    1C        C   64   3.627   2.501   4.505
    1C        C   65   3.836   2.542   4.623
    1C        C   66   3.701   2.502   4.625
    1C        C   67   3.906   2.565   4.743
    1C        C   68   3.840   2.530   4.864
    1C        C   69   4.051   2.585   4.976
    1C        C   70   3.923   2.528   4.977
    1C        C   71   2.825   2.735   2.310
    1C        C   72   2.886   2.692   2.430
    1C        C   73   2.836   2.750   2.549
    1C        C   74   3.009   2.626   2.675
    1C        C   75   2.892   2.705   2.671
    1C        C   76   3.073   2.595   2.797
    1C        C   77   3.011   2.631   2.919
    1C        C   78   3.207   2.546   3.040
    1C        C   79   3.076   2.601   3.040
    1C        C   80   3.277   2.529   3.161
    1C        C   81   3.213   2.555   3.284
    1C        C   82   3.415   2.503   3.405
    1C        C   83   3.276   2.527   3.408
    1C        C   84   3.485   2.500   3.528
    1C        C   85   3.417   2.504   3.652
    1C        C   86   3.629   2.501   3.770
    1C        C   87   3.488   2.495   3.773
    1C        C   88   3.700   2.511   3.892
    1C        C   89   3.629   2.505   4.015
    1C        C   90   3.835   2.550   4.138
    1C        C   91   3.696   2.521   4.138
    1C        C   92   3.902   2.577   4.259
    1C        C   93   3.834   2.552   4.380
    1C        C   94   4.027   2.638   4.502
    1C        C   95   3.903   2.571   4.501
    1C        C   96   4.090   2.675   4.623
    1C        C   97   4.030   2.635   4.744
    1C        C   98   4.191   2.772   4.865
    1C        C   99   4.097   2.664   4.866
    1C        C  100   4.217   2.849   4.980
    1C        C  101   2.820   2.731   2.073
    1C        C  102   2.992   2.594   2.191
    1C        C  103   2.879   2.682   2.190
    1C        C  104   3.064   2.571   2.311
    1C        C  105   3.005   2.616   2.432
    1C        C  106   3.202   2.536   2.552
    1C        C  107   3.071   2.589   2.554
    1C        C  108   3.271   2.522   2.674
    1C        C  109   3.204   2.542   2.797
    1C        C  110   3.413   2.498   2.916
    1C        C  111   3.273   2.519   2.918
    1C        C  112   3.484   2.494   3.038
    1C        C  113   3.416   2.501   3.162
    1C        C  114   3.628   2.499   3.281
    1C        C  115   3.487   2.494   3.284
    1C        C  116   3.698   2.508   3.403
    1C        C  117   3.626   2.500   3.524
    1C        C  118   3.834   2.543   3.649
    1C        C  119   3.697   2.509   3.646
    1C        C  120   3.902   2.568   3.771
    1C        C  121   3.835   2.550   3.894
    1C        C  122   4.025   2.644   4.015
    1C        C  123   3.902   2.574   4.016
    1C        C  124   4.089   2.678   4.137
    1C        C  125   4.029   2.640   4.259
    1C        C  126   4.201   2.764   4.381
    1C        C  127   4.088   2.679   4.381
    1C        C  128   4.248   2.818   4.503
    1C        C  129   4.195   2.769   4.624
    1C        C  130   4.333   2.934   4.741
    1C        C  131   4.247   2.821   4.744
    1C        C  132   4.357   3.007   4.860
    1C        C  133   4.290   2.967   4.976
    1C        C  134   3.177   2.471   2.079
    1C        C  135   3.044   2.515   2.083
    1C        C  136   3.261   2.480   2.191
    1C        C  137   3.195   2.517   2.311
    1C        C  138   3.409   2.486   2.429
    1C        C  139   3.269   2.507   2.431
    1C        C  140   3.481   2.480   2.551
    1C        C  141   3.409   2.493   2.672
    1C        C  142   3.624   2.497   2.793
    1C        C  143   3.482   2.495   2.793
    1C        C  144   3.692   2.509   2.916
    1C        C  145   3.625   2.498   3.040
    1C        C  146   3.836   2.543   3.158
    1C        C  147   3.699   2.510   3.160
    1C        C  148   3.901   2.567   3.281
    1C        C  149   3.835   2.545   3.404
    1C        C  150   4.027   2.630   3.525
    1C        C  151   3.900   2.568   3.527
    1C        C  152   4.087   2.671   3.647
    1C        C  153   4.028   2.632   3.770
    1C        C  154   4.196   2.763   3.889
    1C        C  155   4.083   2.678   3.891
    1C        C  156   4.247   2.813   4.011
    1C        C  157   4.198   2.767   4.135
    1C        C  158   4.343   2.920   4.255
    1C        C  159   4.253   2.810   4.258
    1C        C  160   4.378   2.982   4.377
    1C        C  161   4.337   2.928   4.501
    1C        C  162   4.442   3.117   4.615
    1C        C  163   4.377   2.992   4.620
    1C        C  164   4.474   3.184   4.735
    1C        C  165   4.434   3.126   4.857
    1C        C  166   4.514   3.326   4.971
    1C        C  167   4.478   3.191   4.973
    1C        C  168   3.478   2.430   2.076
    1C        C  169   3.401   2.461   2.189
    1C        C  170   3.620   2.473   2.309
    1C        C  171   3.478   2.472   2.307
    1C        C  172   3.693   2.486   2.429
    1C        C  173   3.622   2.483   2.550
    1C        C  174   3.832   2.531   2.669
    1C        C  175   3.694   2.498   2.671
    1C        C  176   3.896   2.559   2.792
    1C        C  177   3.829   2.543   2.915
    1C        C  178   4.027   2.628   3.033
    1C        C  179   3.904   2.559   3.035
    1C        C  180   4.085   2.666   3.156
    1C        C  181   4.025   2.635   3.280
    1C        C  182   4.199   2.753   3.400
    1C        C  183   4.085   2.670   3.403
    1C        C  184   4.252   2.805   3.520
    1C        C  185   4.198   2.758   3.642
    1C        C  186   4.335   2.918   3.765
    1C        C  187   4.246   2.808   3.765
    1C        C  188   4.374   2.978   3.886
    1C        C  189   4.336   2.923   4.011
    1C        C  190   4.449   3.103   4.129
    1C        C  191   4.381   2.979   4.133
    1C        C  192   4.476   3.171   4.250
    1C        C  193   4.442   3.107   4.371
    1C        C  194   4.504   3.315   4.491
    1C        C  195   4.465   3.180   4.490
    1C        C  196   4.519   3.390   4.610
    1C        C  197   4.518   3.319   4.733
    1C        C  198   4.556   3.536   4.851
    1C        C  199   4.538   3.394   4.851
    1C        C  200   4.581   3.622   4.963
    1C        C  201   3.618   2.416   2.078
    1C        C  202   3.830   2.514   2.184
    1C        C  203   3.693   2.471   2.187
    1C        C  204   3.900   2.544   2.303
    1C        C  205   3.830   2.520   2.424
    1C        C  206   4.021   2.616   2.545
    1C        C  207   3.896   2.551   2.545
    1C        C  208   4.082   2.656   2.666
    1C        C  209   4.024   2.620   2.789
    1C        C  210   4.197   2.749   2.907
    1C        C  211   4.084   2.665   2.909
    1C        C  212   4.250   2.795   3.030
    1C        C  213   4.199   2.749   3.153
    1C        C  214   4.338   2.909   3.274
    1C        C  215   4.249   2.800   3.276
    1C        C  216   4.376   2.971   3.395
    1C        C  217   4.339   2.916   3.520
    1C        C  218   4.437   3.103   3.642
    1C        C  219   4.376   2.976   3.642
    1C        C  220   4.461   3.170   3.764
    1C        C  221   4.440   3.103   3.886
    1C        C  222   4.510   3.306   4.006
    1C        C  223   4.471   3.170   4.007
    1C        C  224   4.519   3.379   4.126
    1C        C  225   4.504   3.310   4.248
    1C        C  226   4.520   3.525   4.369
    1C        C  227   4.513   3.384   4.368
    1C        C  228   4.522   3.601   4.488
    1C        C  229   4.536   3.530   4.610
    1C        C  230   4.501   3.743   4.727
    1C        C  231   4.540   3.606   4.728
    1C        C  232   4.498   3.822   4.844
    1C        C  233   4.542   3.756   4.960
    1C        C  234   4.016   2.613   2.063
    1C        C  235   3.899   2.538   2.065
    1C        C  236   4.085   2.650   2.180
    1C        C  237   4.025   2.613   2.302
    1C        C  238   4.206   2.725   2.423
    1C        C  239   4.088   2.646   2.424
    1C        C  240   4.254   2.783   2.542
    1C        C  241   4.196   2.740   2.663
    1C        C  242   4.334   2.906   2.785
    1C        C  243   4.248   2.794   2.783
    1C        C  244   4.376   2.964   2.906
    1C        C  245   4.339   2.905   3.029
    1C        C  246   4.436   3.094   3.150
    1C        C  247   4.378   2.966   3.151
    1C        C  248   4.460   3.162   3.272
    1C        C  249   4.436   3.099   3.396
    1C        C  250   4.498   3.303   3.518
    1C        C  251   4.460   3.167   3.518
    1C        C  252   4.510   3.374   3.639
    1C        C  253   4.493   3.308   3.763
    1C        C  254   4.531   3.517   3.877
    1C        C  255   4.518   3.376   3.883
    1C        C  256   4.522   3.587   3.999
    1C        C  257   4.521   3.520   4.123
    1C        C  258   4.488   3.731   4.242
    1C        C  259   4.513   3.592   4.245
    1C        C  260   4.467   3.804   4.361
    1C        C  261   4.484   3.737   4.485
    1C        C  262   4.422   3.941   4.604
    1C        C  263   4.469   3.808   4.606
    1C        C  264   4.401   4.011   4.725
    1C        C  265   4.437   3.949   4.846
    1C        C  266   4.317   4.130   4.959
    1C        C  267   4.400   4.018   4.963
    1C        C  268   4.259   2.778   2.065
    1C        C  269   4.200   2.732   2.184
    1C        C  270   4.347   2.889   2.299
    1C        C  271   4.262   2.775   2.303
    1C        C  272   4.385   2.950   2.420
    1C        C  273   4.340   2.895   2.542
    1C        C  274   4.450   3.082   2.661
    1C        C  275   4.379   2.960   2.662
    1C        C  276   4.474   3.151   2.781
    1C        C  277   4.442   3.089   2.904
    1C        C  278   4.510   3.290   3.027
    1C        C  279   4.469   3.155   3.026
    1C        C  280   4.516   3.365   3.147
    1C        C  281   4.498   3.298   3.270
    1C        C  282   4.512   3.509   3.391
    1C        C  283   4.510   3.367   3.392
    1C        C  284   4.511   3.581   3.512
    1C        C  285   4.521   3.515   3.637
    1C        C  286   4.487   3.727   3.754
    1C        C  287   4.521   3.590   3.757
    1C        C  288   4.469   3.795   3.877
    1C        C  289   4.485   3.724   3.998
    1C        C  290   4.425   3.930   4.120
    1C        C  291   4.470   3.797   4.118
    1C        C  292   4.397   4.001   4.240
    1C        C  293   4.428   3.940   4.363
    1C        C  294   4.319   4.127   4.478
    1C        C  295   4.393   4.006   4.483
    1C        C  296   4.285   4.189   4.600
    1C        C  297   4.327   4.133   4.723
    1C        C  298   4.203   4.315   4.838
    1C        C  299   4.287   4.199   4.842
    1C        C  300   4.169   4.400   4.949
    1C        C  301   4.350   2.884   2.063
    1C        C  302   4.466   3.073   2.176
    1C        C  303   4.395   2.948   2.179
    1C        C  304   4.484   3.141   2.299
    1C        C  305   4.453   3.074   2.420
    1C        C  306   4.513   3.284   2.537
    1C        C  307   4.478   3.147   2.538
    1C        C  308   4.516   3.356   2.658
    1C        C  309   4.503   3.289   2.782
    1C        C  310   4.515   3.500   2.902
    1C        C  311   4.517   3.359   2.904
    1C        C  312   4.512   3.575   3.022
    1C        C  313   4.515   3.506   3.145
    1C        C  314   4.481   3.716   3.268
    1C        C  315   4.508   3.577   3.267
    1C        C  316   4.463   3.786   3.389
    1C        C  317   4.484   3.720   3.512
    1C        C  318   4.423   3.928   3.629
    1C        C  319   4.469   3.794   3.631
    1C        C  320   4.394   3.991   3.752
    1C        C  321   4.420   3.928   3.876
    1C        C  322   4.315   4.111   3.992
    1C        C  323   4.392   3.993   3.998
    1C        C  324   4.277   4.174   4.112
    1C        C  325   4.322   4.120   4.234
    1C        C  326   4.180   4.282   4.358
    1C        C  327   4.279   4.182   4.354
    1C        C  328   4.134   4.341   4.478
    1C        C  329   4.192   4.296   4.598
    1C        C  330   4.027   4.439   4.717
    1C        C  331   4.140   4.352   4.716
    1C        C  332   3.969   4.496   4.832
    1C        C  333   4.054   4.480   4.943
    1C        C  334   4.549   3.271   2.062
    1C        C  335   4.530   3.132   2.063
    1C        C  336   4.544   3.352   2.176
    1C        C  337   4.519   3.279   2.294
    1C        C  338   4.526   3.494   2.413
    1C        C  339   4.524   3.353   2.414
    1C        C  340   4.518   3.568   2.533
    1C        C  341   4.522   3.497   2.655
    1C        C  342   4.491   3.707   2.776
    1C        C  343   4.516   3.568   2.778
    1C        C  344   4.475   3.780   2.896
    1C        C  345   4.489   3.714   3.021
    1C        C  346   4.420   3.914   3.139
    1C        C  347   4.467   3.781   3.143
    1C        C  348   4.385   3.977   3.260
    1C        C  349   4.419   3.920   3.385
    1C        C  350   4.324   4.112   3.502
    1C        C  351   4.395   3.990   3.505
    1C        C  352   4.278   4.167   3.624
    1C        C  353   4.320   4.111   3.747
    1C        C  354   4.180   4.272   3.867
    1C        C  355   4.276   4.169   3.869
    1C        C  356   4.127   4.323   3.988
    1C        C  357   4.179   4.276   4.111
    1C        C  358   4.013   4.406   4.232
    1C        C  359   4.128   4.324   4.234
    1C        C  360   3.952   4.449   4.352
    1C        C  361   4.019   4.424   4.474
    1C        C  362   3.830   4.519   4.597
    1C        C  363   3.960   4.464   4.595
    1C        C  364   3.763   4.550   4.717
    1C        C  365   3.838   4.549   4.837
    1C        C  366   3.628   4.598   4.954
    1C        C  367   3.766   4.577   4.953
    1C        C  368   4.510   3.565   2.053
    1C        C  369   4.534   3.492   2.171
    1C        C  370   4.501   3.705   2.291
    1C        C  371   4.522   3.565   2.291
    1C        C  372   4.480   3.776   2.411
    1C        C  373   4.498   3.708   2.534
    1C        C  374   4.421   3.907   2.653
    1C        C  375   4.478   3.778   2.655
    1C        C  376   4.388   3.971   2.774
    1C        C  377   4.421   3.910   2.897
    1C        C  378   4.315   4.098   3.012
    1C        C  379   4.393   3.980   3.017
    1C        C  380   4.273   4.156   3.134
    1C        C  381   4.315   4.100   3.256
    1C        C  382   4.178   4.261   3.378
    1C        C  383   4.279   4.162   3.378
    1C        C  384   4.123   4.309   3.499
    1C        C  385   4.180   4.269   3.622
    1C        C  386   4.012   4.397   3.744
    1C        C  387   4.130   4.320   3.744
    1C        C  388   3.945   4.431   3.864
    1C        C  389   4.010   4.401   3.986
    1C        C  390   3.821   4.494   4.108
    1C        C  391   3.951   4.440   4.109
    1C        C  392   3.754   4.520   4.230
    1C        C  393   3.821   4.502   4.353
    1C        C  394   3.619   4.555   4.477
    1C        C  395   3.758   4.533   4.476
    1C        C  396   3.547   4.555   4.599
    1C        C  397   3.622   4.561   4.719
    1C        C  398   3.412   4.552   4.841
    1C        C  399   3.551   4.576   4.840
    1C        C  400   3.343   4.524   4.960
    1C        C  401   4.502   3.703   2.054
    1C        C  402   4.455   3.916   2.167
    1C        C  403   4.489   3.779   2.171
    1C        C  404   4.414   3.977   2.288
    1C        C  405   4.435   3.910   2.410
    1C        C  406   4.322   4.093   2.526
    1C        C  407   4.392   3.971   2.530
    1C        C  408   4.275   4.148   2.647
    1C        C  409   4.317   4.093   2.770
    1C        C  410   4.175   4.256   2.891
    1C        C  411   4.273   4.155   2.890
    1C        C  412   4.124   4.307   3.013
    1C        C  413   4.175   4.258   3.135
    1C        C  414   4.002   4.382   3.254
    1C        C  415   4.122   4.306   3.257
    1C        C  416   3.945   4.422   3.377
    1C        C  417   4.006   4.388   3.500
    1C        C  418   3.816   4.482   3.621
    1C        C  419   3.946   4.427   3.623
    1C        C  420   3.751   4.512   3.743
    1C        C  421   3.815   4.486   3.866
    1C        C  422   3.612   4.541   3.988
    1C        C  423   3.751   4.518   3.988
    1C        C  424   3.543   4.546   4.111
    1C        C  425   3.615   4.548   4.232
    1C        C  426   3.406   4.551   4.358
    1C        C  427   3.547   4.557   4.355
    1C        C  428   3.334   4.547   4.480
    1C        C  429   3.406   4.553   4.601
    1C        C  430   3.196   4.520   4.722
    1C        C  431   3.336   4.546   4.723
    1C        C  432   3.127   4.495   4.844
    1C        C  433   3.208   4.493   4.958
    1C        C  434   4.386   4.123   2.053
    1C        C  435   4.447   3.997   2.053
    1C        C  436   4.305   4.163   2.164
    1C        C  437   4.332   4.093   2.285
    1C        C  438   4.185   4.254   2.400
    1C        C  439   4.282   4.152   2.404
    1C        C  440   4.129   4.300   2.522
    1C        C  441   4.177   4.250   2.645
    1C        C  442   4.007   4.378   2.765
    1C        C  443   4.123   4.298   2.766
    1C        C  444   3.946   4.418   2.886
    1C        C  445   4.006   4.385   3.010
    1C        C  446   3.814   4.478   3.131
    1C        C  447   3.941   4.416   3.132
    1C        C  448   3.753   4.504   3.256
    1C        C  449   3.817   4.482   3.379
    1C        C  450   3.608   4.531   3.498
    1C        C  451   3.746   4.499   3.500
    1C        C  452   3.543   4.542   3.623
    1C        C  453   3.613   4.541   3.746
    1C        C  454   3.399   4.547   3.865
    1C        C  455   3.540   4.555   3.867
    1C        C  456   3.333   4.529   3.989
    1C        C  457   3.402   4.536   4.112
    1C        C  458   3.196   4.509   4.235
    1C        C  459   3.335   4.537   4.237
    1C        C  460   3.130   4.487   4.357
    1C        C  461   3.196   4.516   4.478
    1C        C  462   2.998   4.440   4.601
    1C        C  463   3.127   4.497   4.601
    1C        C  464   2.934   4.407   4.722
    1C        C  465   2.992   4.446   4.846
    1C        C  466   2.802   4.338   4.956
    1C        C  467   2.913   4.423   4.963
    1C        C  468   4.124   4.281   2.042
    1C        C  469   4.187   4.243   2.161
    1C        C  470   4.006   4.372   2.278
    1C        C  471   4.126   4.295   2.279
    1C        C  472   3.940   4.396   2.400
    1C        C  473   4.008   4.374   2.522
    1C        C  474   3.816   4.471   2.643
    1C        C  475   3.943   4.408   2.642
    1C        C  476   3.749   4.497   2.765
    1C        C  477   3.817   4.475   2.887
    1C        C  478   3.612   4.533   3.011
    1C        C  479   3.750   4.504   3.008
    1C        C  480   3.541   4.533   3.133
    1C        C  481   3.613   4.528   3.254
    1C        C  482   3.398   4.535   3.378
    1C        C  483   3.540   4.538   3.374
    1C        C  484   3.329   4.530   3.501
    1C        C  485   3.402   4.541   3.621
    1C        C  486   3.192   4.505   3.747
    1C        C  487   3.330   4.535   3.743
    1C        C  488   3.127   4.477   3.869
    1C        C  489   3.195   4.500   3.990
    1C        C  490   3.002   4.420   4.115
    1C        C  491   3.128   4.483   4.114
    1C        C  492   2.940   4.386   4.237
    1C        C  493   3.001   4.427   4.358
    1C        C  494   2.832   4.305   4.483
    1C        C  495   2.937   4.399   4.480
    1C        C  496   2.778   4.258   4.605
    1C        C  497   2.821   4.320   4.724
    1C        C  498   2.667   4.165   4.841
    1C        C  499   2.753   4.277   4.840
    1C        C  500   2.591   4.125   4.952
    1C        C  501   4.011   4.362   2.042
    1C        C  502   3.817   4.469   2.157
    1C        C  503   3.945   4.410   2.156
    1C        C  504   3.746   4.487   2.278
    1C        C  505   3.815   4.461   2.399
    1C        C  506   3.610   4.517   2.522
    1C        C  507   3.748   4.489   2.521
    1C        C  508   3.539   4.524   2.644
    1C        C  509   3.610   4.521   2.766
    1C        C  510   3.399   4.527   2.888
    1C        C  511   3.541   4.533   2.888
    1C        C  512   3.330   4.519   3.010
    1C        C  513   3.400   4.532   3.133
    1C        C  514   3.192   4.497   3.256
    1C        C  515   3.329   4.529   3.255
    1C        C  516   3.126   4.472   3.379
    1C        C  517   3.192   4.496   3.502
    1C        C  518   3.000   4.413   3.626
    1C        C  519   3.125   4.480   3.625
    1C        C  520   2.939   4.376   3.747
    1C        C  521   3.001   4.412   3.869
    1C        C  522   2.841   4.280   3.997
    1C        C  523   2.946   4.375   3.994
    1C        C  524   2.789   4.234   4.120
    1C        C  525   2.837   4.290   4.240
    1C        C  526   2.702   4.132   4.364
    1C        C  527   2.785   4.246   4.364
    1C        C  528   2.661   4.075   4.486
    1C        C  529   2.696   4.143   4.605
    1C        C  530   2.591   3.957   4.733
    1C        C  531   2.646   4.088   4.725
    1C        C  532   2.542   3.903   4.855
    1C        C  533   2.529   4.000   4.960
    1C        C  534   3.618   4.557   2.038
    1C        C  535   3.751   4.513   2.041
    1C        C  536   3.539   4.536   2.155
    1C        C  537   3.608   4.517   2.278
    1C        C  538   3.397   4.517   2.399
    1C        C  539   3.538   4.524   2.401
    1C        C  540   3.327   4.515   2.521
    1C        C  541   3.397   4.523   2.643
    1C        C  542   3.191   4.483   2.768
    1C        C  543   3.328   4.515   2.766
    1C        C  544   3.124   4.463   2.891
    1C        C  545   3.193   4.485   3.013
    1C        C  546   2.998   4.402   3.134
    1C        C  547   3.125   4.464   3.136
    1C        C  548   2.942   4.366   3.258
    1C        C  549   3.003   4.403   3.380
    1C        C  550   2.837   4.277   3.505
    1C        C  551   2.943   4.370   3.504
    1C        C  552   2.784   4.231   3.627
    1C        C  553   2.833   4.283   3.749
    1C        C  554   2.703   4.121   3.876
    1C        C  555   2.791   4.231   3.874
    1C        C  556   2.661   4.063   3.998
    1C        C  557   2.697   4.126   4.118
    1C        C  558   2.603   3.942   4.246
    1C        C  559   2.663   4.069   4.243
    1C        C  560   2.571   3.880   4.369
    1C        C  561   2.597   3.949   4.490
    1C        C  562   2.527   3.751   4.618
    1C        C  563   2.566   3.887   4.613
    1C        C  564   2.516   3.682   4.741
    1C        C  565   2.520   3.762   4.858
    1C        C  566   2.528   3.549   4.981
    1C        C  567   2.522   3.688   4.977
    1C        C  568   3.331   4.472   2.043
    1C        C  569   3.399   4.511   2.160
    1C        C  570   3.184   4.476   2.282
    1C        C  571   3.323   4.509   2.279
    1C        C  572   3.119   4.458   2.406
    1C        C  573   3.190   4.479   2.526
    1C        C  574   2.992   4.403   2.650
    1C        C  575   3.121   4.460   2.647
    1C        C  576   2.932   4.363   2.772
    1C        C  577   2.998   4.400   2.891
    1C        C  578   2.831   4.269   3.017
    1C        C  579   2.940   4.359   3.013
    1C        C  580   2.786   4.218   3.141
    1C        C  581   2.835   4.274   3.261
    1C        C  582   2.703   4.110   3.387
    1C        C  583   2.787   4.223   3.384
    1C        C  584   2.666   4.053   3.511
    1C        C  585   2.698   4.119   3.632
    1C        C  586   2.592   3.936   3.757
    1C        C  587   2.662   4.059   3.755
    1C        C  588   2.568   3.871   3.880
    1C        C  589   2.599   3.936   4.002
    1C        C  590   2.536   3.737   4.128
    1C        C  591   2.577   3.873   4.126
    1C        C  592   2.518   3.673   4.253
    1C        C  593   2.530   3.745   4.374
    1C        C  594   2.518   3.537   4.499
    1C        C  595   2.514   3.678   4.498
    1C        C  596   2.518   3.466   4.621
    1C        C  597   2.520   3.540   4.742
    1C        C  598   2.539   3.330   4.867
    1C        C  599   2.532   3.471   4.865
    1C        C  600   2.531   3.251   4.982
    1C        C  601   3.196   4.447   2.042
    1C        C  602   2.985   4.399   2.164
    1C        C  603   3.118   4.450   2.158
    1C        C  604   2.925   4.362   2.288
    1C        C  605   2.993   4.395   2.407
    1C        C  606   2.822   4.271   2.530
    1C        C  607   2.932   4.359   2.530
    1C        C  608   2.771   4.223   2.653
    1C        C  609   2.824   4.272   2.774
    1C        C  610   2.691   4.107   2.897
    1C        C  611   2.777   4.219   2.896
    1C        C  612   2.653   4.052   3.022
    1C        C  613   2.699   4.106   3.144
    1C        C  614   2.592   3.926   3.269
    1C        C  615   2.659   4.050   3.267
    1C        C  616   2.563   3.865   3.393
    1C        C  617   2.594   3.931   3.514
    1C        C  618   2.532   3.731   3.639
    1C        C  619   2.562   3.869   3.636
    1C        C  620   2.517   3.664   3.762
    1C        C  621   2.532   3.735   3.883
    1C        C  622   2.508   3.527   4.012
    1C        C  623   2.520   3.667   4.007
    1C        C  624   2.513   3.460   4.137
    1C        C  625   2.514   3.532   4.258
    1C        C  626   2.543   3.322   4.381
    1C        C  627   2.520   3.461   4.380
    1C        C  628   2.557   3.254   4.504
    1C        C  629   2.535   3.326   4.623
    1C        C  630   2.588   3.121   4.744
    1C        C  631   2.550   3.258   4.746
    1C        C  632   2.615   3.051   4.864
    1C        C  633   2.571   3.117   4.983
    1C        C  634   2.786   4.306   2.055
    1C        C  635   2.892   4.398   2.055
    1C        C  636   2.749   4.232   2.168
    1C        C  637   2.811   4.276   2.286
    1C        C  638   2.684   4.108   2.413
    1C        C  639   2.770   4.220   2.409
    1C        C  640   2.648   4.045   2.535
    1C        C  641   2.691   4.107   2.655
    1C        C  642   2.583   3.923   2.779
    1C        C  643   2.648   4.048   2.777
    1C        C  644   2.561   3.858   2.903
    1C        C  645   2.591   3.925   3.023
    1C        C  646   2.523   3.725   3.149
    1C        C  647   2.566   3.860   3.146
    1C        C  648   2.504   3.659   3.272
    1C        C  649   2.517   3.732   3.393
    1C        C  650   2.504   3.521   3.517
    1C        C  651   2.515   3.662   3.516
    1C        C  652   2.514   3.455   3.642
    1C        C  653   2.513   3.522   3.766
    1C        C  654   2.532   3.315   3.892
    1C        C  655   2.516   3.456   3.890
    1C        C  656   2.552   3.251   4.016
    1C        C  657   2.539   3.321   4.138
    1C        C  658   2.610   3.119   4.257
    1C        C  659   2.563   3.252   4.259
    1C        C  660   2.639   3.057   4.380
    1C        C  661   2.605   3.121   4.502
    1C        C  662   2.711   2.941   4.627
    1C        C  663   2.630   3.057   4.625
    1C        C  664   2.751   2.880   4.747
    1C        C  665   2.697   2.934   4.867
    1C        C  666   2.744   2.868   4.982
    1C        C  667   2.690   4.023   2.054
    1C        C  668   2.691   4.103   2.169
    1C        C  669   2.598   3.913   2.293
    1C        C  670   2.653   4.044   2.291
    1C        C  671   2.558   3.850   2.413
    1C        C  672   2.588   3.918   2.534
    1C        C  673   2.514   3.722   2.659
    1C        C  674   2.557   3.856   2.657
    1C        C  675   2.509   3.651   2.781
    1C        C  676   2.525   3.721   2.902
    1C        C  677   2.503   3.514   3.032
    1C        C  678   2.513   3.655   3.026
    1C        C  679   2.504   3.446   3.156
    1C        C  680   2.502   3.518   3.277
    1C        C  681   2.537   3.307   3.403
    1C        C  682   2.508   3.445   3.398
    1C        C  683   2.554   3.243   3.528
    1C        C  684   2.536   3.315   3.648
    1C        C  685   2.604   3.115   3.771
    1C        C  686   2.550   3.245   3.770
    1C        C  687   2.639   3.055   3.894
    1C        C  688   2.611   3.122   4.015
    1C        C  689   2.716   2.936   4.139
    1C        C  690   2.638   3.053   4.135
    1C        C  691   2.760   2.881   4.262
    1C        C  692   2.714   2.937   4.384
    1C        C  693   2.754   2.880   4.506
    1C        C  694   2.636   3.894   2.057
    1C        C  695   2.533   3.706   2.173
    1C        C  696   2.586   3.837   2.175
    1C        C  697   2.509   3.641   2.296
    1C        C  698   2.520   3.714   2.417
    1C        C  699   2.492   3.506   2.544
    1C        C  700   2.502   3.646   2.540
    1C        C  701   2.503   3.437   2.667
    1C        C  702   2.505   3.510   2.788
    1C        C  703   2.526   3.302   2.913
    1C        C  704   2.503   3.441   2.911
    1C        C  705   2.544   3.235   3.036
    1C        C  706   2.528   3.307   3.157
    1C        C  707   2.603   3.109   3.280
    1C        C  708   2.552   3.241   3.280
    1C        C  709   2.631   3.046   3.403
    1C        C  710   2.606   3.112   3.526
    1C        C  711   2.716   2.933   3.648
    1C        C  712   2.641   3.053   3.649
    1C        C  713   2.759   2.879   3.772
    1C        C  714   2.716   2.936   3.893
    1C        C  715   2.760   2.882   4.016
    1C        C  716   2.451   3.501   2.060
    1C        C  717   2.495   3.634   2.059
    1C        C  718   2.470   3.427   2.181
    1C        C  719   2.485   3.501   2.302
    1C        C  720   2.510   3.291   2.425
    1C        C  721   2.488   3.431   2.424
    1C        C  722   2.538   3.226   2.547
    1C        C  723   2.526   3.298   2.669
    1C        C  724   2.594   3.099   2.791
    1C        C  725   2.546   3.232   2.792
    1C        C  726   2.627   3.036   2.914
    1C        C  727   2.593   3.103   3.034
    1C        C  728   2.708   2.927   3.162
    1C        C  729   2.628   3.044   3.157
    1C        C  730   2.759   2.874   3.283
    1C        C  731   2.715   2.932   3.404
    1C        C  732   2.759   2.876   3.526
    1C        C  733   2.490   3.203   2.071
    1C        C  734   2.486   3.285   2.185
    1C        C  735   2.581   3.089   2.307
    1C        C  736   2.525   3.219   2.305
    1C        C  737   2.608   3.022   2.429
    1C        C  738   2.592   3.095   2.548
    1C        C  739   2.704   2.916   2.670
    1C        C  740   2.622   3.031   2.670
    1C        C  741   2.749   2.861   2.793
    1C        C  742   2.708   2.921   2.914
    1C        C  743   2.749   2.869   3.039
    1C        C  744   2.548   3.077   2.075
    1C        C  745   2.693   2.906   2.189
    1C        C  746   2.610   3.020   2.187
    1C        C  747   2.735   2.846   2.310
    1C        C  748   2.685   2.904   2.429
    1C        C  749   2.739   2.853   2.549
    1C        C  750   2.744   2.847   2.073
    1C        C  751   3.676   2.321   1.981
    1C        O  752   3.725   2.210   2.014
    1C        O  753   3.658   2.354   1.846
    1C        C  754   4.611   3.064   1.959
    1C        O  755   4.573   3.067   1.839
    1C        O  756   4.750   3.049   1.956
    1C        C  757   4.436   4.233   1.968
    1C        O  758   4.544   4.286   2.004
    1C        O  759   4.415   4.262   1.832
    1C        C  760   3.574   4.654   1.935
    1C        O  761   3.581   4.774   1.973
    1C        O  762   3.613   4.647   1.801
    1C        C  763   2.868   4.523   1.979
    1C        O  764   2.903   4.539   1.859
    1C        O  765   2.802   4.639   2.021
    1C        C  766   2.337   3.470   1.970
    1C        O  767   2.348   3.471   1.844
    1C        O  768   2.213   3.430   2.020
    1C        C  769   4.697   3.592   5.050
    1C        O  770   4.700   3.637   5.168
    1C        O  771   4.827   3.601   5.001
    1C        C  772   4.270   4.428   5.052
    1C        O  773   4.240   4.446   5.173
    1C        O  774   4.381   4.512   5.031
    1C        C  775   4.142   2.528   5.078
    1C        O  776   4.189   2.411   5.075
    1C        O  777   4.134   2.573   5.211
    1C        C  778   2.889   4.543   5.046
    1C        O  779   2.803   4.627   5.007
    1C        O  780   2.877   4.523   5.184
    1C        C  781   2.490   3.039   5.080
    1C        O  782   2.371   3.013   5.046
    1C        O  783   2.521   3.061   5.213
    1C        C  784   2.403   3.999   5.038
    1C        O  785   2.314   4.087   5.017
    1C        O  786   2.410   3.970   5.175
    1C        C  787   2.953   2.422   2.012
    1C        O  788   2.924   2.419   1.890
    1C        O  789   2.929   2.299   2.071
    1C        C  790   3.182   2.399   5.091
    1C        O  791   3.134   2.283   5.075
    1C        O  792   3.218   2.418   5.225
    1C        H  793   4.297   3.029   5.063
    1C        H  794   4.213   2.794   5.071
    1C        H  795   4.514   3.134   5.056
    1C        H  796   4.560   3.361   5.061
    1C        H  797   4.559   3.818   5.046
    1C        H  798   4.456   3.999   5.052
    1C        H  799   4.282   4.161   5.055
    1C        H  800   4.046   4.548   5.025
    1C        H  801   3.812   4.581   5.050
    1C        H  802   3.583   4.624   5.048
    1C        H  803   3.374   4.570   5.052
    1C        H  804   3.157   4.535   5.043
    1C        H  805   3.901   2.446   5.042
    1C        H  806   3.675   2.448   5.075
    1C        H  807   3.003   2.569   5.069
    1C        H  808   3.452   2.429   5.065
    1C        H  809   2.921   2.798   5.061
    1C        H  810   2.708   2.906   5.076
    1C        H  811   2.457   3.279   5.055
    1C        H  812   2.544   3.499   5.074
    1C        H  813   2.489   3.739   5.066
    1C        H  814   2.553   4.208   5.008
    1C        H  815   2.751   4.331   5.050
    1C        H  816   2.742   2.899   1.979
    1C        H  817   2.848   2.683   1.982
    1C        H  818   3.207   2.401   2.004
    1C        H  819   3.437   2.442   1.978
    1C        H  820   3.894   2.468   1.984
    1C        H  821   4.019   2.681   1.981
    1C        H  822   4.290   2.702   1.997
    1C        H  823   4.373   2.917   1.964
    1C        H  824   4.593   3.315   1.974
    1C        H  825   4.461   3.517   1.971
    1C        H  826   4.499   3.751   1.958
    1C        H  827   3.813   4.549   1.961
    1C        H  828   4.010   4.434   1.963
    1C        H  829   4.159   4.241   1.949
    1C        H  830   4.506   3.971   1.967
    1C        H  831   2.661   3.829   1.976
    1C        H  832   2.705   4.065   1.957
    1C        H  833   2.730   4.312   1.964
    1C        H  834   3.389   4.461   1.954
    1C        H  835   3.150   4.418   1.949
    1C        H  836   2.523   3.012   1.993
    1C        H  837   2.492   3.247   1.974
    1C        H  838   2.477   3.686   1.967
    2V3OU   H29  839   2.811   3.546   1.151
    2V3OU   C27  840   2.783   3.507   1.252
    2V3OU   H27  841   2.730   3.574   1.325
    2V3OU   H28  842   2.732   3.408   1.242
    2V3OU   O11  843   2.911   3.478   1.310
    2V3OU   C15  844   2.921   3.402   1.425
    2V3OU   C13  845   3.052   3.375   1.471
    2V3OU   C14  846   3.077   3.271   1.562
    2V3OU   C16  847   2.971   3.192   1.606
    2V3OU    H6  848   2.990   3.106   1.672
    2V3OU   C12  849   3.213   3.230   1.601
    2V3OU    O2  850   3.243   3.133   1.673
    2V3OU   C10  851   3.326   3.307   1.547
    2V3OU    C8  852   3.457   3.272   1.576
    2V3OU   O10  853   3.495   3.157   1.638
    2V3OU   H26  854   3.409   3.113   1.639
    2V3OU    C6  855   3.569   3.353   1.536
    2V3OU    C5  856   3.536   3.468   1.467
    2V3OU    C4  857   3.706   3.295   1.541
    2V3OU    H4  858   3.723   3.234   1.635
    2V3OU    H5  859   3.714   3.223   1.455
    2V3OU    C2  860   3.818   3.399   1.529
    2V3OU    O6  861   3.808   3.474   1.650
    2V3OU   H21  862   3.763   3.558   1.628
    2V3OU    C3  863   3.783   3.495   1.416
    2V3OU    H2  864   3.861   3.575   1.416
    2V3OU    H3  865   3.785   3.440   1.319
    2V3OU   C25  866   3.954   3.332   1.508
    2V3OU    O7  867   3.998   3.297   1.398
    2V3OU   C26  868   4.029   3.289   1.633
    2V3OU   H22  869   4.060   3.384   1.683
    2V3OU   H23  870   4.121   3.233   1.604
    2V3OU    O8  871   3.963   3.209   1.729
    2V3OU   H24  872   3.920   3.265   1.796
    2V3OU    C1  873   3.648   3.563   1.433
    2V3OU    H1  874   3.626   3.618   1.337
    2V3OU    O3  875   3.665   3.661   1.536
    2V3OU   C19  876   3.622   3.796   1.515
    2V3OU    H9  877   3.520   3.803   1.467
    2V3OU    O4  878   3.715   3.856   1.429
    2V3OU   C20  879   3.844   3.878   1.488
    2V3OU   H10  880   3.890   3.776   1.501
    2V3OU   C24  881   3.611   3.862   1.653
    2V3OU   H16  882   3.544   3.796   1.714
    2V3OU   H17  883   3.563   3.963   1.651
    2V3OU   C23  884   3.748   3.880   1.718
    2V3OU   H15  885   3.792   3.777   1.740
    2V3OU    N1  886   3.739   3.957   1.840
    2V3OU   H19  887   3.809   3.930   1.906
    2V3OU   H20  888   3.652   3.939   1.885
    2V3OU   C21  889   3.849   3.952   1.622
    2V3OU   H11  890   3.953   3.934   1.664
    2V3OU    O5  891   3.824   4.092   1.620
    2V3OU   H18  892   3.781   4.104   1.706
    2V3OU   C22  893   3.913   3.951   1.374
    2V3OU   H12  894   3.862   4.048   1.354
    2V3OU   H13  895   3.916   3.886   1.283
    2V3OU   H14  896   4.023   3.960   1.394
    2V3OU   C11  897   3.160   3.473   1.450
    2V3OU    O1  898   3.141   3.589   1.409
    2V3OU    C9  899   3.298   3.422   1.468
    2V3OU    C7  900   3.403   3.503   1.427
    2V3OU    O9  901   3.391   3.627   1.367
    2V3OU   H25  902   3.294   3.633   1.359
    2V3OU   C17  903   2.819   3.315   1.467
    2V3OU    H7  904   2.714   3.343   1.451
    2V3OU   C18  905   2.842   3.214   1.559
    2V3OU    H8  906   2.756   3.150   1.584
    3SOL     OW  907   1.113   3.020   0.772
    3SOL    HW1  908   1.033   3.079   0.779
    3SOL    HW2  909   1.175   3.055   0.701
    4SOL     OW  910   5.670   0.292   1.656
    4SOL    HW1  911   5.600   0.360   1.680
    4SOL    HW2  912   5.755   0.314   1.703
    5SOL     OW  913   3.553   2.663   1.281
    5SOL    HW1  914   3.598   2.576   1.301
    5SOL    HW2  915   3.555   2.721   1.363
    6SOL     OW  916   3.057   2.046   1.209
    6SOL    HW1  917   3.012   1.979   1.150
    6SOL    HW2  918   3.014   2.136   1.195
    7SOL     OW  919   5.894   1.203   1.797
    7SOL    HW1  920   5.796   1.212   1.779
    7SOL    HW2  921   5.942   1.187   1.710
    8SOL     OW  922   2.489   1.246   4.525
    8SOL    HW1  923   2.460   1.222   4.432
    8SOL    HW2  924   2.427   1.315   4.562
    9SOL     OW  925   1.299   3.670   5.780
    9SOL    HW1  926   1.246   3.707   5.704
    9SOL    HW2  927   1.382   3.627   5.744
   10SOL     OW  928   0.343   3.868   6.926
   10SOL    HW1  929   0.418   3.897   6.867
   10SOL    HW2  930   0.330   3.935   6.999
   11SOL     OW  931   3.905   6.673   0.122
   11SOL    HW1  932   3.850   6.590   0.131
   11SOL    HW2  933   3.847   6.748   0.092
   12SOL     OW  934   5.608   6.000   2.464
   12SOL    HW1  935   5.623   5.963   2.556
   12SOL    HW2  936   5.691   5.988   2.410
   13SOL     OW  937   2.456   6.457   3.543
   13SOL    HW1  938   2.430   6.424   3.452
   13SOL    HW2  939   2.425   6.552   3.553
   14SOL     OW  940   3.063   6.297   1.369
   14SOL    HW1  941   3.104   6.387   1.357
   14SOL    HW2  942   3.074   6.243   1.286
   15SOL     OW  943   1.824   5.915   6.568
   15SOL    HW1  944   1.922   5.930   6.568
   15SOL    HW2  945   1.788   5.923   6.475
   16SOL     OW  946   6.455   1.825   6.098
   16SOL    HW1  947   6.378   1.838   6.159
   16SOL    HW2  948   6.423   1.790   6.010
   17SOL     OW  949   5.301   6.596   4.563
   17SOL    HW1  950   5.326   6.500   4.575
   17SOL    HW2  951   5.247   6.627   4.642
   18SOL     OW  952   1.502   1.283   6.702
   18SOL    HW1  953   1.408   1.307   6.680
   18SOL    HW2  954   1.557   1.367   6.706
   19SOL     OW  955   0.558   0.019   1.908
   19SOL    HW1  956   0.590   7.003   1.823
   19SOL    HW2  957   0.459   0.008   1.916
   20SOL     OW  958   3.148   1.801   4.398
   20SOL    HW1  959   3.052   1.811   4.372
   20SOL    HW2  960   3.189   1.892   4.408
   21SOL     OW  961   3.043   2.794   0.965
   21SOL    HW1  962   3.010   2.761   1.053
   21SOL    HW2  963   2.966   2.824   0.909
   22SOL     OW  964   0.987   0.274   5.998
   22SOL    HW1  965   1.068   0.308   5.950
   22SOL    HW2  966   0.911   0.267   5.934
   23SOL     OW  967   3.496   6.563   4.673
   23SOL    HW1  968   3.491   6.634   4.743
   23SOL    HW2  969   3.527   6.604   4.586
   24SOL     OW  970   4.121   1.464   4.612
   24SOL    HW1  971   4.219   1.444   4.615
   24SOL    HW2  972   4.070   1.378   4.610
   25SOL     OW  973   3.543   5.719   0.897
   25SOL    HW1  974   3.525   5.622   0.913
   25SOL    HW2  975   3.512   5.772   0.976
   26SOL     OW  976   6.434   1.583   2.656
   26SOL    HW1  977   6.358   1.570   2.720
   26SOL    HW2  978   6.474   1.673   2.669
   27SOL     OW  979   6.236   6.352   2.240
   27SOL    HW1  980   6.252   6.448   2.215
   27SOL    HW2  981   6.142   6.327   2.218
   28SOL     OW  982   3.402   0.395   6.926
   28SOL    HW1  983   3.422   0.394   7.024
   28SOL    HW2  984   3.465   0.457   6.880
   29SOL     OW  985   4.132   2.334   1.801
   29SOL    HW1  986   4.178   2.370   1.881
   29SOL    HW2  987   4.166   2.380   1.719
   30SOL     OW  988   3.821   0.564   4.521
   30SOL    HW1  989   3.856   0.494   4.582
   30SOL    HW2  990   3.721   0.567   4.527
   31SOL     OW  991   0.105   0.832   5.594
   31SOL    HW1  992   0.116   0.910   5.532
   31SOL    HW2  993   0.154   0.851   5.679
   32SOL     OW  994   0.283   1.751   1.614
   32SOL    HW1  995   0.230   1.737   1.698
   32SOL    HW2  996   0.316   1.663   1.580
   33SOL     OW  997   1.703   2.047   5.649
   33SOL    HW1  998   1.767   1.976   5.679
   33SOL    HW2  999   1.689   2.113   5.722
   34SOL     OW 1000   1.166   0.641   4.796
   34SOL    HW1 1001   1.155   0.644   4.696
   34SOL    HW2 1002   1.188   0.547   4.824
   35SOL     OW 1003   4.095   1.371   6.353
   35SOL    HW1 1004   4.067   1.303   6.285
   35SOL    HW2 1005   4.177   1.419   6.321
   36SOL     OW 1006   1.507   2.164   5.871
   36SOL    HW1 1007   1.535   2.241   5.814
   36SOL    HW2 1008   1.581   2.142   5.935
   37SOL     OW 1009   2.695   6.677   1.791
   37SOL    HW1 1010   2.622   6.687   1.859
   37SOL    HW2 1011   2.771   6.737   1.815
   38SOL     OW 1012   0.096   6.119   3.008
   38SOL    HW1 1013   0.095   6.062   3.090
   38SOL    HW2 1014   0.010   6.108   2.959
   39SOL     OW 1015   0.115   3.337   5.020
   39SOL    HW1 1016   0.016   3.325   5.033
   39SOL    HW2 1017   0.164   3.286   5.090
   40SOL     OW 1018   6.812   0.733   1.643
   40SOL    HW1 1019   6.841   0.794   1.717
   40SOL    HW2 1020   6.814   0.638   1.675
   41SOL     OW 1021   1.118   6.726   5.733
   41SOL    HW1 1022   1.213   6.723   5.702
   41SOL    HW2 1023   1.099   6.815   5.773
   42SOL     OW 1024   3.385   0.741   7.007
   42SOL    HW1 1025   3.369   0.709   0.074
   42SOL    HW2 1026   3.373   0.840   7.003
   43SOL     OW 1027   5.373   5.500   5.121
   43SOL    HW1 1028   5.382   5.434   5.046
   43SOL    HW2 1029   5.319   5.460   5.195
   44SOL     OW 1030   0.716   3.131   6.405
   44SOL    HW1 1031   0.641   3.195   6.422
   44SOL    HW2 1032   0.709   3.094   6.313
   45SOL     OW 1033   2.879   0.468   2.177
   45SOL    HW1 1034   2.973   0.500   2.189
   45SOL    HW2 1035   2.878   0.369   2.165
   46SOL     OW 1036   1.711   4.044   4.014
   46SOL    HW1 1037   1.716   3.988   4.097
   46SOL    HW2 1038   1.670   4.132   4.036
   47SOL     OW 1039   6.417   4.664   3.204
   47SOL    HW1 1040   6.404   4.738   3.269
   47SOL    HW2 1041   6.376   4.688   3.116
   48SOL     OW 1042   0.920   2.768   5.349
   48SOL    HW1 1043   1.005   2.803   5.389
   48SOL    HW2 1044   0.871   2.714   5.417
   49SOL     OW 1045   4.772   2.231   0.828
   49SOL    HW1 1046   4.764   2.228   0.928
   49SOL    HW2 1047   4.680   2.233   0.787
   50SOL     OW 1048   6.806   3.998   4.372
   50SOL    HW1 1049   6.904   4.017   4.385
   50SOL    HW2 1050   6.758   4.085   4.359
   51SOL     OW 1051   3.772   5.384   2.706
   51SOL    HW1 1052   3.754   5.482   2.719
   51SOL    HW2 1053   3.697   5.343   2.654
   52SOL     OW 1054   1.540   2.383   1.724
   52SOL    HW1 1055   1.602   2.415   1.653
   52SOL    HW2 1056   1.544   2.445   1.803
   53SOL     OW 1057   4.824   0.379   3.953
   53SOL    HW1 1058   4.777   0.444   4.012
   53SOL    HW2 1059   4.923   0.390   3.962
   54SOL     OW 1060   3.694   5.350   5.599
   54SOL    HW1 1061   3.779   5.395   5.626
   54SOL    HW2 1062   3.616   5.406   5.629
   55SOL     OW 1063   4.442   2.072   0.582
   55SOL    HW1 1064   4.496   2.050   0.663
   55SOL    HW2 1065   4.483   2.150   0.535
   56SOL     OW 1066   1.147   0.364   1.837
   56SOL    HW1 1067   1.091   0.287   1.867
   56SOL    HW2 1068   1.113   0.448   1.878
   57SOL     OW 1069   5.802   0.462   0.192
   57SOL    HW1 1070   5.722   0.436   0.245
   57SOL    HW2 1071   5.871   0.503   0.253
   58SOL     OW 1072   7.023   6.398   0.043
   58SOL    HW1 1073   0.063   6.472   0.036
   58SOL    HW2 1074   6.934   6.429   0.008
   59SOL     OW 1075   1.113   0.151   5.154
   59SOL    HW1 1076   1.040   0.131   5.088
   59SOL    HW2 1077   1.201   0.126   5.113
   60SOL     OW 1078   4.687   6.842   4.702
   60SOL    HW1 1079   4.685   6.895   4.617
   60SOL    HW2 1080   4.594   6.816   4.727
   61SOL     OW 1081   4.081   0.205   4.453
   61SOL    HW1 1082   3.984   0.230   4.442
   61SOL    HW2 1083   4.093   0.109   4.430
   62SOL     OW 1084   1.697   0.955   4.584
   62SOL    HW1 1085   1.682   0.861   4.553
   62SOL    HW2 1086   1.609   0.997   4.605
   63SOL     OW 1087   0.115   3.399   3.072
   63SOL    HW1 1088   0.165   3.318   3.104
   63SOL    HW2 1089   0.048   3.372   3.003
   64SOL     OW 1090   6.880   3.502   5.617
   64SOL    HW1 1091   6.956   3.536   5.562
   64SOL    HW2 1092   6.849   3.414   5.580
   65SOL     OW 1093   6.698   4.347   5.769
   65SOL    HW1 1094   6.690   4.443   5.795
   65SOL    HW2 1095   6.642   4.329   5.688
   66SOL     OW 1096   2.649   1.266   0.710
   66SOL    HW1 1097   2.664   1.275   0.611
   66SOL    HW2 1098   2.596   1.345   0.743
   67SOL     OW 1099   5.513   5.913   4.363
   67SOL    HW1 1100   5.520   6.000   4.314
   67SOL    HW2 1101   5.439   5.859   4.323
   68SOL     OW 1102   5.396   2.039   5.514
   68SOL    HW1 1103   5.369   1.943   5.519
   68SOL    HW2 1104   5.376   2.084   5.601
   69SOL     OW 1105   2.768   3.316   6.433
   69SOL    HW1 1106   2.830   3.239   6.449
   69SOL    HW2 1107   2.779   3.382   6.507
   70SOL     OW 1108   0.289   4.953   1.881
   70SOL    HW1 1109   0.288   4.867   1.932
   70SOL    HW2 1110   0.275   4.936   1.784
   71SOL     OW 1111   1.355   2.316   3.126
   71SOL    HW1 1112   1.305   2.271   3.052
   71SOL    HW2 1113   1.378   2.410   3.099
   72SOL     OW 1114   3.249   5.554   3.962
   72SOL    HW1 1115   3.230   5.486   4.033
   72SOL    HW2 1116   3.348   5.568   3.955
   73SOL     OW 1117   4.470   2.553   0.211
   73SOL    HW1 1118   4.433   2.618   0.277
   73SOL    HW2 1119   4.487   2.600   0.124
   74SOL     OW 1120   5.234   5.740   5.733
   74SOL    HW1 1121   5.234   5.832   5.693
   74SOL    HW2 1122   5.182   5.741   5.818
   75SOL     OW 1123   3.960   5.411   5.918
   75SOL    HW1 1124   3.886   5.467   5.956
   75SOL    HW2 1125   3.943   5.395   5.821
   76SOL     OW 1126   2.500   2.971   1.378
   76SOL    HW1 1127   2.449   3.051   1.345
   76SOL    HW2 1128   2.474   2.952   1.473
   77SOL     OW 1129   5.610   5.475   6.754
   77SOL    HW1 1130   5.517   5.465   6.720
   77SOL    HW2 1131   5.655   5.551   6.707
   78SOL     OW 1132   6.564   6.410   6.179
   78SOL    HW1 1133   6.488   6.470   6.151
   78SOL    HW2 1134   6.588   6.349   6.104
   79SOL     OW 1135   2.764   0.049   6.801
   79SOL    HW1 1136   2.799   0.034   6.894
   79SOL    HW2 1137   2.818   0.121   6.756
   80SOL     OW 1138   0.118   1.762   4.087
   80SOL    HW1 1139   0.181   1.734   4.015
   80SOL    HW2 1140   0.069   1.682   4.121
   81SOL     OW 1141   1.330   0.586   3.506
   81SOL    HW1 1142   1.365   0.670   3.549
   81SOL    HW2 1143   1.401   0.515   3.509
   82SOL     OW 1144   0.011   4.938   5.283
   82SOL    HW1 1145   0.050   4.858   5.329
   82SOL    HW2 1146   0.070   4.965   5.207
   83SOL     OW 1147   0.219   6.942   0.367
   83SOL    HW1 1148   0.158   6.989   0.304
   83SOL    HW2 1149   0.168   6.913   0.448
   84SOL     OW 1150   5.860   4.013   1.666
   84SOL    HW1 1151   5.929   4.066   1.715
   84SOL    HW2 1152   5.860   3.919   1.700
   85SOL     OW 1153   0.378   2.977   5.251
   85SOL    HW1 1154   0.310   2.910   5.223
   85SOL    HW2 1155   0.437   2.937   5.322
   86SOL     OW 1156   0.904   1.015   5.709
   86SOL    HW1 1157   0.916   0.971   5.799
   86SOL    HW2 1158   0.958   0.965   5.641
   87SOL     OW 1159   3.869   0.884   0.932
   87SOL    HW1 1160   3.875   0.980   0.959
   87SOL    HW2 1161   3.960   0.848   0.914
   88SOL     OW 1162   5.391   0.374   0.512
   88SOL    HW1 1163   5.299   0.350   0.482
   88SOL    HW2 1164   5.390   0.391   0.610
   89SOL     OW 1165   1.718   2.694   6.089
   89SOL    HW1 1166   1.691   2.601   6.062
   89SOL    HW2 1167   1.698   2.757   6.014
   90SOL     OW 1168   5.766   6.700   3.768
   90SOL    HW1 1169   5.725   6.624   3.819
   90SOL    HW2 1170   5.804   6.666   3.682
   91SOL     OW 1171   4.640   4.837   4.852
   91SOL    HW1 1172   4.694   4.820   4.770
   91SOL    HW2 1173   4.552   4.790   4.845
   92SOL     OW 1174   3.241   4.966   1.722
   92SOL    HW1 1175   3.242   4.868   1.703
   92SOL    HW2 1176   3.246   5.017   1.637
   93SOL     OW 1177   3.355   5.308   5.621
   93SOL    HW1 1178   3.380   5.211   5.618
   93SOL    HW2 1179   3.261   5.318   5.652
   94SOL     OW 1180   2.440   5.920   0.143
   94SOL    HW1 1181   2.536   5.915   0.117
   94SOL    HW2 1182   2.421   6.009   0.186
   95SOL     OW 1183   6.726   0.581   5.017
   95SOL    HW1 1184   6.682   0.644   5.081
   95SOL    HW2 1185   6.662   0.509   4.990
   96SOL     OW 1186   1.734   0.005   5.340
   96SOL    HW1 1187   1.706   0.009   5.436
   96SOL    HW2 1188   1.696   0.083   5.290
   97SOL     OW 1189   6.363   3.067   5.038
   97SOL    HW1 1190   6.397   2.978   5.006
   97SOL    HW2 1191   6.307   3.053   5.120
   98SOL     OW 1192   6.165   2.425   5.957
   98SOL    HW1 1193   6.207   2.409   5.868
   98SOL    HW2 1194   6.144   2.522   5.968
   99SOL     OW 1195   4.494   2.117   1.124
   99SOL    HW1 1196   4.472   2.027   1.087
   99SOL    HW2 1197   4.476   2.187   1.056
  100SOL     OW 1198   6.584   5.246   6.155
  100SOL    HW1 1199   6.615   5.258   6.061
  100SOL    HW2 1200   6.648   5.291   6.217
  101SOL     OW 1201   1.184   6.516   4.028
  101SOL    HW1 1202   1.239   6.579   4.083
  101SOL    HW2 1203   1.196   6.536   3.931
  102SOL     OW 1204   4.600   0.059   3.688
  102SOL    HW1 1205   4.584   0.143   3.637
  102SOL    HW2 1206   4.625   0.082   3.782
  103SOL     OW 1207   4.029   1.564   1.395
  103SOL    HW1 1208   4.041   1.650   1.346
  103SOL    HW2 1209   3.990   1.583   1.486
  104SOL     OW 1210   0.184   5.770   2.325
  104SOL    HW1 1211   0.258   5.716   2.363
  104SOL    HW2 1212   0.218   5.826   2.250
  105SOL     OW 1213   4.922   0.972   5.832
  105SOL    HW1 1214   4.860   0.899   5.859
  105SOL    HW2 1215   5.006   0.966   5.886
  106SOL     OW 1216   2.539   6.504   6.446
  106SOL    HW1 1217   2.496   6.433   6.502
  106SOL    HW2 1218   2.558   6.468   6.355
  107SOL     OW 1219   2.551   3.407   0.884
  107SOL    HW1 1220   2.566   3.362   0.973
  107SOL    HW2 1221   2.512   3.498   0.900
  108SOL     OW 1222   4.991   4.420   5.610
  108SOL    HW1 1223   5.030   4.375   5.529
  108SOL    HW2 1224   5.036   4.508   5.625
  109SOL     OW 1225   6.288   1.001   1.055
  109SOL    HW1 1226   6.267   0.974   1.149
  109SOL    HW2 1227   6.212   0.975   0.995
  110SOL     OW 1228   3.850   5.650   5.136
  110SOL    HW1 1229   3.908   5.721   5.176
  110SOL    HW2 1230   3.836   5.576   5.202
  111SOL     OW 1231   3.554   0.927   3.422
  111SOL    HW1 1232   3.467   0.888   3.451
  111SOL    HW2 1233   3.583   0.997   3.487
  112SOL     OW 1234   0.393   0.157   6.577
  112SOL    HW1 1235   0.319   0.199   6.630
  112SOL    HW2 1236   0.367   0.064   6.553
  113SOL     OW 1237   0.185   5.270   3.313
  113SOL    HW1 1238   0.224   5.236   3.228
  113SOL    HW2 1239   0.239   5.347   3.346
  114SOL     OW 1240   0.770   6.865   0.184
  114SOL    HW1 1241   0.782   6.952   0.231
  114SOL    HW2 1242   0.711   6.876   0.104
  115SOL     OW 1243   4.888   1.376   4.692
  115SOL    HW1 1244   4.969   1.321   4.712
  115SOL    HW2 1245   4.807   1.317   4.694
  116SOL     OW 1246   6.306   4.565   2.226
  116SOL    HW1 1247   6.387   4.564   2.167
  116SOL    HW2 1248   6.334   4.580   2.321
  117SOL     OW 1249   1.573   6.998   6.949
  117SOL    HW1 1250   1.586   0.029   0.003
  117SOL    HW2 1251   1.550   0.029   6.870
  118SOL     OW 1252   1.059   0.381   2.641
  118SOL    HW1 1253   1.044   0.421   2.551
  118SOL    HW2 1254   0.994   0.420   2.707
  119SOL     OW 1255   6.919   3.233   6.415
  119SOL    HW1 1256   6.980   3.160   6.448
  119SOL    HW2 1257   6.838   3.237   6.473
  120SOL     OW 1258   5.706   6.499   0.929
  120SOL    HW1 1259   5.734   6.405   0.945
  120SOL    HW2 1260   5.743   6.530   0.841
  121SOL     OW 1261   2.680   3.065   6.001
  121SOL    HW1 1262   2.753   3.079   6.068
  121SOL    HW2 1263   2.660   3.152   5.955
  122SOL     OW 1264   0.840   3.195   4.313
  122SOL    HW1 1265   0.806   3.287   4.293
  122SOL    HW2 1266   0.929   3.201   4.358
  123SOL     OW 1267   0.779   1.907   1.506
  123SOL    HW1 1268   0.732   1.913   1.418
  123SOL    HW2 1269   0.714   1.923   1.580
  124SOL     OW 1270   4.769   3.010   0.764
  124SOL    HW1 1271   4.740   2.954   0.842
  124SOL    HW2 1272   4.772   3.106   0.792
  125SOL     OW 1273   2.040   3.534   1.691
  125SOL    HW1 1274   2.069   3.575   1.778
  125SOL    HW2 1275   2.075   3.441   1.685
  126SOL     OW 1276   3.349   4.758   1.310
  126SOL    HW1 1277   3.357   4.660   1.327
  126SOL    HW2 1278   3.438   4.802   1.326
  127SOL     OW 1279   0.230   6.263   6.427
  127SOL    HW1 1280   0.315   6.251   6.376
  127SOL    HW2 1281   0.194   6.174   6.453
  128SOL     OW 1282   4.690   2.601   1.584
  128SOL    HW1 1283   4.718   2.550   1.666
  128SOL    HW2 1284   4.661   2.693   1.611
  129SOL     OW 1285   2.739   3.888   6.677
  129SOL    HW1 1286   2.674   3.813   6.679
  129SOL    HW2 1287   2.704   3.962   6.619
  130SOL     OW 1288   1.381   1.909   4.376
  130SOL    HW1 1289   1.449   1.946   4.440
  130SOL    HW2 1290   1.336   1.984   4.328
  131SOL     OW 1291   5.272   1.566   3.012
  131SOL    HW1 1292   5.173   1.579   3.000
  131SOL    HW2 1293   5.321   1.613   2.939
  132SOL     OW 1294   0.706   2.673   0.721
  132SOL    HW1 1295   0.749   2.760   0.744
  132SOL    HW2 1296   0.705   2.614   0.802
  133SOL     OW 1297   6.755   5.521   2.336
  133SOL    HW1 1298   6.757   5.552   2.241
  133SOL    HW2 1299   6.849   5.509   2.369
  134SOL     OW 1300   0.298   3.510   2.888
  134SOL    HW1 1301   0.375   3.500   2.950
  134SOL    HW2 1302   0.216   3.469   2.930
  135SOL     OW 1303   4.820   1.168   4.239
  135SOL    HW1 1304   4.749   1.205   4.299
  135SOL    HW2 1305   4.873   1.100   4.290
  136SOL     OW 1306   5.644   4.912   5.066
  136SOL    HW1 1307   5.663   4.818   5.094
  136SOL    HW2 1308   5.640   4.971   5.147
  137SOL     OW 1309   4.020   7.002   5.682
  137SOL    HW1 1310   3.938   6.948   5.701
  137SOL    HW2 1311   3.995   0.052   5.623
  138SOL     OW 1312   6.781   5.194   4.905
  138SOL    HW1 1313   6.851   5.171   4.972
  138SOL    HW2 1314   6.719   5.262   4.943
  139SOL     OW 1315   3.736   5.087   5.685
  139SOL    HW1 1316   3.713   5.183   5.671
  139SOL    HW2 1317   3.654   5.036   5.711
  140SOL     OW 1318   6.357   4.371   4.628
  140SOL    HW1 1319   6.332   4.282   4.665
  140SOL    HW2 1320   6.426   4.414   4.686
  141SOL     OW 1321   1.480   2.077   4.079
  141SOL    HW1 1322   1.535   2.093   4.161
  141SOL    HW2 1323   1.540   2.065   4.000
  142SOL     OW 1324   1.828   5.445   1.499
  142SOL    HW1 1325   1.923   5.428   1.475
  142SOL    HW2 1326   1.769   5.378   1.453
  143SOL     OW 1327   5.734   4.219   1.918
  143SOL    HW1 1328   5.651   4.192   1.967
  143SOL    HW2 1329   5.737   4.172   1.830
  144SOL     OW 1330   2.550   6.883   0.133
  144SOL    HW1 1331   2.486   6.806   0.128
  144SOL    HW2 1332   2.598   6.892   0.046
  145SOL     OW 1333   0.362   5.393   0.512
  145SOL    HW1 1334   0.443   5.425   0.560
  145SOL    HW2 1335   0.281   5.440   0.549
  146SOL     OW 1336   5.767   5.194   0.827
  146SOL    HW1 1337   5.819   5.143   0.895
  146SOL    HW2 1338   5.787   5.292   0.837
  147SOL     OW 1339   6.276   2.360   1.132
  147SOL    HW1 1340   6.316   2.321   1.215
  147SOL    HW2 1341   6.201   2.302   1.101
  148SOL     OW 1342   1.169   5.421   5.545
  148SOL    HW1 1343   1.195   5.420   5.449
  148SOL    HW2 1344   1.071   5.441   5.553
  149SOL     OW 1345   3.222   1.031   5.043
  149SOL    HW1 1346   3.310   1.010   5.001
  149SOL    HW2 1347   3.178   0.947   5.073
  150SOL     OW 1348   0.281   5.297   6.860
  150SOL    HW1 1349   0.253   5.392   6.849
  150SOL    HW2 1350   0.330   5.286   6.947
  151SOL     OW 1351   3.953   1.670   1.653
  151SOL    HW1 1352   3.909   1.759   1.654
  151SOL    HW2 1353   3.885   1.599   1.670
  152SOL     OW 1354   3.083   0.670   4.388
  152SOL    HW1 1355   3.123   0.753   4.349
  152SOL    HW2 1356   2.983   0.674   4.379
  153SOL     OW 1357   2.169   1.658   3.425
  153SOL    HW1 1358   2.129   1.748   3.409
  153SOL    HW2 1359   2.213   1.656   3.515
  154SOL     OW 1360   6.862   2.031   2.202
  154SOL    HW1 1361   6.770   2.002   2.227
  154SOL    HW2 1362   6.893   1.976   2.124
  155SOL     OW 1363   0.006   1.177   3.306
  155SOL    HW1 1364   0.050   1.257   3.264
  155SOL    HW2 1365   7.004   1.199   3.399
  156SOL     OW 1366   6.488   2.481   1.003
  156SOL    HW1 1367   6.554   2.411   0.975
  156SOL    HW2 1368   6.404   2.438   1.034
  157SOL     OW 1369   5.860   3.765   2.638
  157SOL    HW1 1370   5.767   3.764   2.672
  157SOL    HW2 1371   5.902   3.854   2.656
  158SOL     OW 1372   1.884   1.054   3.090
  158SOL    HW1 1373   1.940   1.135   3.109
  158SOL    HW2 1374   1.798   1.061   3.140
  159SOL     OW 1375   4.801   3.951   2.272
  159SOL    HW1 1376   4.741   4.031   2.277
  159SOL    HW2 1377   4.894   3.979   2.249
  160SOL     OW 1378   6.464   4.180   5.594
  160SOL    HW1 1379   6.482   4.196   5.497
  160SOL    HW2 1380   6.374   4.218   5.618
  161SOL     OW 1381   2.736   4.966   4.813
  161SOL    HW1 1382   2.642   4.990   4.789
  161SOL    HW2 1383   2.752   4.869   4.791
  162SOL     OW 1384   4.408   5.748   1.604
  162SOL    HW1 1385   4.483   5.805   1.637
  162SOL    HW2 1386   4.321   5.798   1.613
  163SOL     OW 1387   4.265   0.885   2.256
  163SOL    HW1 1388   4.219   0.969   2.226
  163SOL    HW2 1389   4.306   0.901   2.346
  164SOL     OW 1390   5.765   3.209   1.064
  164SOL    HW1 1391   5.811   3.200   0.976
  164SOL    HW2 1392   5.667   3.220   1.049
  165SOL     OW 1393   4.941   3.443   6.629
  165SOL    HW1 1394   5.024   3.475   6.585
  165SOL    HW2 1395   4.962   3.411   6.721
  166SOL     OW 1396   1.226   0.479   2.367
  166SOL    HW1 1397   1.157   0.415   2.335
  166SOL    HW2 1398   1.184   0.567   2.388
  167SOL     OW 1399   6.490   2.825   0.065
  167SOL    HW1 1400   6.484   2.822   6.992
  167SOL    HW2 1401   6.492   2.732   0.101
  168SOL     OW 1402   2.132   5.275   0.866
  168SOL    HW1 1403   2.058   5.310   0.808
  168SOL    HW2 1404   2.210   5.250   0.809
  169SOL     OW 1405   1.980   6.482   1.829
  169SOL    HW1 1406   1.963   6.540   1.750
  169SOL    HW2 1407   2.057   6.518   1.882
  170SOL     OW 1408   0.273   1.509   3.034
  170SOL    HW1 1409   0.347   1.508   3.102
  170SOL    HW2 1410   0.266   1.600   2.994
  171SOL     OW 1411   3.505   3.678   0.101
  171SOL    HW1 1412   3.578   3.627   0.056
  171SOL    HW2 1413   3.433   3.699   0.035
  172SOL     OW 1414   0.385   2.846   5.999
  172SOL    HW1 1415   0.328   2.764   6.011
  172SOL    HW2 1416   0.466   2.822   5.946
  173SOL     OW 1417   0.092   6.642   5.742
  173SOL    HW1 1418   0.070   6.705   5.817
  173SOL    HW2 1419   0.091   6.548   5.776
  174SOL     OW 1420   2.781   5.241   3.884
  174SOL    HW1 1421   2.688   5.226   3.852
  174SOL    HW2 1422   2.808   5.335   3.864
  175SOL     OW 1423   1.156   5.684   2.886
  175SOL    HW1 1424   1.093   5.622   2.933
  175SOL    HW2 1425   1.246   5.678   2.927
  176SOL     OW 1426   2.373   4.771   1.075
  176SOL    HW1 1427   2.339   4.832   1.004
  176SOL    HW2 1428   2.296   4.725   1.119
  177SOL     OW 1429   4.698   1.961   2.691
  177SOL    HW1 1430   4.703   1.907   2.607
  177SOL    HW2 1431   4.606   1.954   2.730
  178SOL     OW 1432   5.303   5.124   6.487
  178SOL    HW1 1433   5.363   5.053   6.452
  178SOL    HW2 1434   5.264   5.095   6.574
  179SOL     OW 1435   3.060   0.301   0.392
  179SOL    HW1 1436   3.033   0.362   0.317
  179SOL    HW2 1437   3.067   0.354   0.477
  180SOL     OW 1438   0.599   2.291   6.645
  180SOL    HW1 1439   0.691   2.328   6.659
  180SOL    HW2 1440   0.532   2.347   6.695
  181SOL     OW 1441   3.295   3.000   5.652
  181SOL    HW1 1442   3.390   2.977   5.671
  181SOL    HW2 1443   3.262   2.946   5.575
  182SOL     OW 1444   4.245   2.311   4.840
  182SOL    HW1 1445   4.162   2.263   4.814
  182SOL    HW2 1446   4.227   2.368   4.921
  183SOL     OW 1447   5.107   1.329   2.057
  183SOL    HW1 1448   5.029   1.274   2.085
  183SOL    HW2 1449   5.187   1.304   2.112
  184SOL     OW 1450   0.044   4.591   2.778
  184SOL    HW1 1451   7.017   4.538   2.711
  184SOL    HW2 1452   0.137   4.556   2.781
  185SOL     OW 1453   1.924   3.882   6.515
  185SOL    HW1 1454   1.992   3.853   6.447
  185SOL    HW2 1455   1.936   3.979   6.534
  186SOL     OW 1456   5.599   6.925   3.090
  186SOL    HW1 1457   5.587   6.836   3.133
  186SOL    HW2 1458   5.612   6.995   3.160
  187SOL     OW 1459   5.652   1.112   3.894
  187SOL    HW1 1460   5.731   1.149   3.845
  187SOL    HW2 1461   5.644   1.156   3.983
  188SOL     OW 1462   6.477   2.299   3.518
  188SOL    HW1 1463   6.400   2.288   3.454
  188SOL    HW2 1464   6.549   2.233   3.495
  189SOL     OW 1465   2.523   4.528   2.768
  189SOL    HW1 1466   2.481   4.542   2.679
  189SOL    HW2 1467   2.456   4.490   2.832
  190SOL     OW 1468   3.489   0.896   5.726
  190SOL    HW1 1469   3.405   0.945   5.703
  190SOL    HW2 1470   3.555   0.960   5.766
  191SOL     OW 1471   5.065   6.046   6.330
  191SOL    HW1 1472   5.162   6.073   6.329
  191SOL    HW2 1473   5.058   5.947   6.321
  192SOL     OW 1474   6.810   0.921   1.412
  192SOL    HW1 1475   6.770   0.858   1.479
  192SOL    HW2 1476   6.884   0.876   1.364
  193SOL     OW 1477   5.532   4.207   7.014
  193SOL    HW1 1478   5.598   4.164   0.049
  193SOL    HW2 1479   5.473   4.137   6.975
  194SOL     OW 1480   3.420   0.294   3.497
  194SOL    HW1 1481   3.354   0.334   3.435
  194SOL    HW2 1482   3.505   0.272   3.448
  195SOL     OW 1483   0.459   5.601   3.495
  195SOL    HW1 1484   0.487   5.653   3.414
  195SOL    HW2 1485   0.501   5.640   3.577
  196SOL     OW 1486   0.667   1.763   0.382
  196SOL    HW1 1487   0.650   1.845   0.328
  196SOL    HW2 1488   0.746   1.714   0.344
  197SOL     OW 1489   1.631   0.765   1.047
  197SOL    HW1 1490   1.620   0.679   0.998
  197SOL    HW2 1491   1.680   0.831   0.989
  198SOL     OW 1492   3.427   2.122   3.995
  198SOL    HW1 1493   3.383   2.100   3.907
  198SOL    HW2 1494   3.503   2.060   4.010
  199SOL     OW 1495   1.320   2.492   4.131
  199SOL    HW1 1496   1.336   2.414   4.071
  199SOL    HW2 1497   1.259   2.557   4.085
  200SOL     OW 1498   6.853   2.569   0.138
  200SOL    HW1 1499   6.858   2.481   0.091
  200SOL    HW2 1500   6.894   2.639   0.080
  201SOL     OW 1501   0.866   0.923   6.802
  201SOL    HW1 1502   0.776   0.881   6.816
  201SOL    HW2 1503   0.907   0.945   6.890
  202SOL     OW 1504   4.489   6.749   0.186
  202SOL    HW1 1505   4.572   6.802   0.172
  202SOL    HW2 1506   4.512   6.653   0.201
  203SOL     OW 1507   6.053   2.677   5.898
  203SOL    HW1 1508   6.122   2.746   5.877
  203SOL    HW2 1509   5.992   2.711   5.970
  204SOL     OW 1510   6.388   1.605   5.909
  204SOL    HW1 1511   6.386   1.604   5.809
  204SOL    HW2 1512   6.444   1.530   5.943
  205SOL     OW 1513   1.338   3.032   2.701
  205SOL    HW1 1514   1.382   3.105   2.753
  205SOL    HW2 1515   1.387   2.946   2.715
  206SOL     OW 1516   0.522   3.677   0.374
  206SOL    HW1 1517   0.528   3.707   0.279
  206SOL    HW2 1518   0.575   3.737   0.433
  207SOL     OW 1519   5.789   2.129   4.554
  207SOL    HW1 1520   5.855   2.175   4.495
  207SOL    HW2 1521   5.720   2.194   4.584
  208SOL     OW 1522   1.492   4.384   4.263
  208SOL    HW1 1523   1.566   4.403   4.327
  208SOL    HW2 1524   1.428   4.319   4.304
  209SOL     OW 1525   6.348   4.322   2.557
  209SOL    HW1 1526   6.442   4.287   2.552
  209SOL    HW2 1527   6.348   4.420   2.535
  210SOL     OW 1528   4.810   2.755   6.770
  210SOL    HW1 1529   4.750   2.831   6.745
  210SOL    HW2 1530   4.808   2.742   6.869
  211SOL     OW 1531   0.080   1.632   2.700
  211SOL    HW1 1532   0.139   1.698   2.654
  211SOL    HW2 1533   0.002   1.680   2.741
  212SOL     OW 1534   2.148   3.472   2.914
  212SOL    HW1 1535   2.186   3.474   2.822
  212SOL    HW2 1536   2.060   3.520   2.914
  213SOL     OW 1537   1.511   5.498   1.402
  213SOL    HW1 1538   1.567   5.420   1.373
  213SOL    HW2 1539   1.430   5.465   1.451
  214SOL     OW 1540   5.027   6.309   1.933
  214SOL    HW1 1541   4.963   6.337   1.861
  214SOL    HW2 1542   5.105   6.263   1.891
  215SOL     OW 1543   2.600   5.014   3.079
  215SOL    HW1 1544   2.579   4.958   3.159
  215SOL    HW2 1545   2.516   5.032   3.028
  216SOL     OW 1546   0.870   6.991   2.483
  216SOL    HW1 1547   0.968   6.984   2.500
  216SOL    HW2 1548   0.843   0.061   2.482
  217SOL     OW 1549   1.324   4.523   6.250
  217SOL    HW1 1550   1.417   4.489   6.269
  217SOL    HW2 1551   1.295   4.490   6.160
  218SOL     OW 1552   1.341   1.895   4.894
  218SOL    HW1 1553   1.367   1.832   4.966
  218SOL    HW2 1554   1.385   1.984   4.910
  219SOL     OW 1555   4.376   1.750   0.892
  219SOL    HW1 1556   4.347   1.692   0.968
  219SOL    HW2 1557   4.306   1.820   0.875
  220SOL     OW 1558   2.944   6.948   0.489
  220SOL    HW1 1559   2.867   6.888   0.466
  220SOL    HW2 1560   2.986   6.981   0.404
  221SOL     OW 1561   4.745   5.621   1.995
  221SOL    HW1 1562   4.688   5.540   2.012
  221SOL    HW2 1563   4.832   5.612   2.042
  222SOL     OW 1564   2.349   4.908   6.526
  222SOL    HW1 1565   2.267   4.951   6.564
  222SOL    HW2 1566   2.332   4.882   6.431
  223SOL     OW 1567   6.307   2.964   5.274
  223SOL    HW1 1568   6.312   2.864   5.279
  223SOL    HW2 1569   6.391   3.003   5.311
  224SOL     OW 1570   2.498   1.400   6.369
  224SOL    HW1 1571   2.555   1.416   6.449
  224SOL    HW2 1572   2.457   1.487   6.339
  225SOL     OW 1573   4.402   5.673   5.585
  225SOL    HW1 1574   4.480   5.629   5.629
  225SOL    HW2 1575   4.433   5.756   5.540
  226SOL     OW 1576   0.828   2.414   6.704
  226SOL    HW1 1577   0.841   2.446   6.798
  226SOL    HW2 1578   0.912   2.430   6.652
  227SOL     OW 1579   1.140   3.683   1.699
  227SOL    HW1 1580   1.149   3.615   1.772
  227SOL    HW2 1581   1.230   3.717   1.674
  228SOL     OW 1582   1.466   6.947   2.763
  228SOL    HW1 1583   1.462   0.018   2.742
  228SOL    HW2 1584   1.552   6.909   2.730
  229SOL     OW 1585   4.388   5.843   6.137
  229SOL    HW1 1586   4.419   5.840   6.232
  229SOL    HW2 1587   4.336   5.927   6.122
  230SOL     OW 1588   4.952   5.757   4.755
  230SOL    HW1 1589   4.857   5.759   4.785
  230SOL    HW2 1590   4.999   5.680   4.799
  231SOL     OW 1591   5.446   1.690   6.958
  231SOL    HW1 1592   5.488   1.680   0.022
  231SOL    HW2 1593   5.504   1.747   6.901
  232SOL     OW 1594   1.575   2.385   5.710
  232SOL    HW1 1595   1.652   2.376   5.647
  232SOL    HW2 1596   1.500   2.433   5.664
  233SOL     OW 1597   3.047   1.420   2.960
  233SOL    HW1 1598   3.105   1.488   3.004
  233SOL    HW2 1599   3.014   1.354   3.027
  234SOL     OW 1600   4.634   1.078   0.130
  234SOL    HW1 1601   4.615   0.995   0.077
  234SOL    HW2 1602   4.732   1.080   0.153
  235SOL     OW 1603   4.797   2.821   3.302
  235SOL    HW1 1604   4.872   2.857   3.358
  235SOL    HW2 1605   4.832   2.797   3.212
  236SOL     OW 1606   4.662   4.727   5.950
  236SOL    HW1 1607   4.652   4.795   6.023
  236SOL    HW2 1608   4.602   4.649   5.969
  237SOL     OW 1609   6.463   3.580   2.971
  237SOL    HW1 1610   6.402   3.605   3.045
  237SOL    HW2 1611   6.463   3.653   2.902
  238SOL     OW 1612   6.617   1.653   1.031
  238SOL    HW1 1613   6.567   1.706   0.962
  238SOL    HW2 1614   6.574   1.664   1.120
  239SOL     OW 1615   1.688   3.612   0.338
  239SOL    HW1 1616   1.631   3.532   0.353
  239SOL    HW2 1617   1.763   3.589   0.276
  240SOL     OW 1618   5.379   3.149   3.345
  240SOL    HW1 1619   5.378   3.130   3.247
  240SOL    HW2 1620   5.294   3.196   3.371
  241SOL     OW 1621   3.423   1.760   3.935
  241SOL    HW1 1622   3.392   1.695   4.004
  241SOL    HW2 1623   3.466   1.710   3.860
  242SOL     OW 1624   3.311   3.734   2.925
  242SOL    HW1 1625   3.267   3.710   2.838
  242SOL    HW2 1626   3.244   3.724   2.999
  243SOL     OW 1627   4.427   2.590   6.091
  243SOL    HW1 1628   4.419   2.655   6.016
  243SOL    HW2 1629   4.506   2.613   6.147
  244SOL     OW 1630   4.956   3.572   5.260
  244SOL    HW1 1631   4.986   3.581   5.165
  244SOL    HW2 1632   4.861   3.602   5.268
  245SOL     OW 1633   3.314   1.630   2.917
  245SOL    HW1 1634   3.320   1.611   2.819
  245SOL    HW2 1635   3.406   1.649   2.953
  246SOL     OW 1636   6.656   1.255   2.413
  246SOL    HW1 1637   6.732   1.262   2.348
  246SOL    HW2 1638   6.619   1.162   2.412
  247SOL     OW 1639   1.886   1.174   1.285
  247SOL    HW1 1640   1.906   1.171   1.187
  247SOL    HW2 1641   1.964   1.213   1.334
  248SOL     OW 1642   1.729   2.430   2.464
  248SOL    HW1 1643   1.724   2.407   2.367
  248SOL    HW2 1644   1.818   2.400   2.501
  249SOL     OW 1645   5.560   6.481   4.874
  249SOL    HW1 1646   5.500   6.527   4.940
  249SOL    HW2 1647   5.610   6.408   4.920
  250SOL     OW 1648   4.531   2.650   1.097
  250SOL    HW1 1649   4.580   2.595   1.165
  250SOL    HW2 1650   4.561   2.746   1.103
  251SOL     OW 1651   4.227   3.752   5.519
  251SOL    HW1 1652   4.275   3.816   5.578
  251SOL    HW2 1653   4.236   3.781   5.424
  252SOL     OW 1654   6.117   6.337   5.448
  252SOL    HW1 1655   6.185   6.401   5.411
  252SOL    HW2 1656   6.054   6.310   5.376
  253SOL     OW 1657   3.750   6.305   6.228
  253SOL    HW1 1658   3.704   6.390   6.256
  253SOL    HW2 1659   3.819   6.281   6.296
  254SOL     OW 1660   5.941   2.835   5.190
  254SOL    HW1 1661   5.961   2.932   5.176
  254SOL    HW2 1662   5.911   2.821   5.284
  255SOL     OW 1663   1.834   3.941   6.090
  255SOL    HW1 1664   1.815   3.875   6.163
  255SOL    HW2 1665   1.750   3.960   6.039
  256SOL     OW 1666   4.914   2.503   5.089
  256SOL    HW1 1667   5.002   2.455   5.086
  256SOL    HW2 1668   4.849   2.457   5.028
  257SOL     OW 1669   5.181   6.661   2.580
  257SOL    HW1 1670   5.118   6.609   2.637
  257SOL    HW2 1671   5.211   6.743   2.629
  258SOL     OW 1672   1.704   3.348   5.729
  258SOL    HW1 1673   1.688   3.306   5.639
  258SOL    HW2 1674   1.803   3.354   5.745
  259SOL     OW 1675   3.380   6.806   3.943
  259SOL    HW1 1676   3.406   6.837   3.852
  259SOL    HW2 1677   3.294   6.849   3.969
  260SOL     OW 1678   3.521   5.722   3.716
  260SOL    HW1 1679   3.606   5.763   3.682
  260SOL    HW2 1680   3.445   5.751   3.658
  261SOL     OW 1681   4.109   4.845   0.143
  261SOL    HW1 1682   4.041   4.879   0.208
  261SOL    HW2 1683   4.062   4.801   0.066
  262SOL     OW 1684   1.974   3.391   6.609
  262SOL    HW1 1685   1.947   3.333   6.686
  262SOL    HW2 1686   1.956   3.487   6.633
  263SOL     OW 1687   0.960   5.801   4.252
  263SOL    HW1 1688   1.049   5.762   4.278
  263SOL    HW2 1689   0.972   5.860   4.172
  264SOL     OW 1690   0.054   3.843   6.442
  264SOL    HW1 1691   0.066   3.765   6.381
  264SOL    HW2 1692   0.010   3.918   6.391
  265SOL     OW 1693   6.684   0.077   4.260
  265SOL    HW1 1694   6.662   0.009   4.331
  265SOL    HW2 1695   6.755   0.041   4.200
  266SOL     OW 1696   3.812   0.788   5.947
  266SOL    HW1 1697   3.770   0.870   5.986
  266SOL    HW2 1698   3.767   0.765   5.861
  267SOL     OW 1699   1.173   0.976   4.532
  267SOL    HW1 1700   1.170   0.899   4.469
  267SOL    HW2 1701   1.105   0.963   4.604
  268SOL     OW 1702   3.343   1.122   1.370
  268SOL    HW1 1703   3.314   1.047   1.311
  268SOL    HW2 1704   3.272   1.140   1.439
  269SOL     OW 1705   3.963   1.764   0.113
  269SOL    HW1 1706   3.974   1.756   0.212
  269SOL    HW2 1707   3.969   1.860   0.085
  270SOL     OW 1708   6.402   6.833   0.612
  270SOL    HW1 1709   6.414   6.783   0.526
  270SOL    HW2 1710   6.491   6.864   0.645
  271SOL     OW 1711   1.330   2.984   6.334
  271SOL    HW1 1712   1.316   2.986   6.235
  271SOL    HW2 1713   1.385   2.903   6.358
  272SOL     OW 1714   2.365   6.539   3.848
  272SOL    HW1 1715   2.454   6.533   3.804
  272SOL    HW2 1716   2.293   6.521   3.781
  273SOL     OW 1717   1.780   4.872   6.211
  273SOL    HW1 1718   1.696   4.823   6.189
  273SOL    HW2 1719   1.811   4.922   6.130
  274SOL     OW 1720   4.335   1.817   3.811
  274SOL    HW1 1721   4.314   1.762   3.730
  274SOL    HW2 1722   4.399   1.890   3.787
  275SOL     OW 1723   6.806   6.458   1.916
  275SOL    HW1 1724   6.869   6.504   1.978
  275SOL    HW2 1725   6.753   6.526   1.866
  276SOL     OW 1726   0.531   0.990   4.614
  276SOL    HW1 1727   0.615   0.936   4.630
  276SOL    HW2 1728   0.528   1.066   4.679
  277SOL     OW 1729   2.132   3.711   0.751
  277SOL    HW1 1730   2.104   3.805   0.769
  277SOL    HW2 1731   2.149   3.665   0.839
  278SOL     OW 1732   0.361   2.569   1.847
  278SOL    HW1 1733   0.402   2.478   1.853
  278SOL    HW2 1734   0.262   2.561   1.832
  279SOL     OW 1735   6.240   2.233   4.225
  279SOL    HW1 1736   6.244   2.329   4.251
  279SOL    HW2 1737   6.204   2.225   4.132
  280SOL     OW 1738   1.679   4.567   2.137
  280SOL    HW1 1739   1.722   4.580   2.048
  280SOL    HW2 1740   1.628   4.649   2.162
  281SOL     OW 1741   2.623   4.444   1.009
  281SOL    HW1 1742   2.590   4.508   1.078
  281SOL    HW2 1743   2.568   4.453   0.926
  282SOL     OW 1744   3.110   2.299   5.935
  282SOL    HW1 1745   3.038   2.255   5.881
  282SOL    HW2 1746   3.113   2.257   6.026
  283SOL     OW 1747   4.527   2.507   5.675
  283SOL    HW1 1748   4.511   2.414   5.644
  283SOL    HW2 1749   4.621   2.515   5.710
  284SOL     OW 1750   1.564   3.497   4.101
  284SOL    HW1 1751   1.504   3.418   4.092
  284SOL    HW2 1752   1.605   3.497   4.192
  285SOL     OW 1753   5.338   4.531   4.487
  285SOL    HW1 1754   5.368   4.439   4.461
  285SOL    HW2 1755   5.418   4.585   4.512
  286SOL     OW 1756   2.914   3.640   6.462
  286SOL    HW1 1757   2.947   3.612   6.552
  286SOL    HW2 1758   2.966   3.719   6.431
  287SOL     OW 1759   1.852   3.311   6.884
  287SOL    HW1 1760   1.943   3.298   6.922
  287SOL    HW2 1761   1.790   3.343   6.957
  288SOL     OW 1762   4.909   2.981   6.977
  288SOL    HW1 1763   4.985   2.924   6.946
  288SOL    HW2 1764   4.823   2.933   6.962
  289SOL     OW 1765   3.118   4.723   6.399
  289SOL    HW1 1766   3.211   4.724   6.434
  289SOL    HW2 1767   3.112   4.661   6.320
  290SOL     OW 1768   0.484   2.204   5.246
  290SOL    HW1 1769   0.439   2.163   5.325
  290SOL    HW2 1770   0.419   2.261   5.196
  291SOL     OW 1771   0.362   2.348   2.404
  291SOL    HW1 1772   0.405   2.425   2.357
  291SOL    HW2 1773   0.289   2.381   2.463
  292SOL     OW 1774   1.912   6.920   4.112
  292SOL    HW1 1775   1.995   6.949   4.159
  292SOL    HW2 1776   1.834   6.923   4.174
  293SOL     OW 1777   3.773   5.257   3.604
  293SOL    HW1 1778   3.784   5.347   3.561
  293SOL    HW2 1779   3.863   5.217   3.621
  294SOL     OW 1780   4.474   6.680   6.578
  294SOL    HW1 1781   4.409   6.645   6.647
  294SOL    HW2 1782   4.426   6.693   6.491
  295SOL     OW 1783   5.091   0.379   4.002
  295SOL    HW1 1784   5.122   0.448   4.068
  295SOL    HW2 1785   5.131   0.291   4.026
  296SOL     OW 1786   2.515   1.726   3.724
  296SOL    HW1 1787   2.438   1.789   3.708
  296SOL    HW2 1788   2.535   1.676   3.640
  297SOL     OW 1789   2.360   4.425   2.953
  297SOL    HW1 1790   2.336   4.345   2.899
  297SOL    HW2 1791   2.277   4.466   2.990
  298SOL     OW 1792   6.004   5.078   0.876
  298SOL    HW1 1793   6.027   5.083   0.779
  298SOL    HW2 1794   6.062   5.008   0.920
  299SOL     OW 1795   6.685   2.664   4.676
  299SOL    HW1 1796   6.687   2.761   4.654
  299SOL    HW2 1797   6.741   2.647   4.757
  300SOL     OW 1798   6.122   0.112   2.463
  300SOL    HW1 1799   6.082   0.203   2.454
  300SOL    HW2 1800   6.220   0.121   2.479
  301SOL     OW 1801   5.276   3.780   5.985
  301SOL    HW1 1802   5.196   3.838   5.970
  301SOL    HW2 1803   5.261   3.692   5.940
  302SOL     OW 1804   1.256   0.081   3.653
  302SOL    HW1 1805   1.213   0.154   3.707
  302SOL    HW2 1806   1.255   0.107   3.556
  303SOL     OW 1807   5.991   6.821   3.522
  303SOL    HW1 1808   5.950   6.732   3.502
  303SOL    HW2 1809   5.925   6.893   3.504
  304SOL     OW 1810   3.150   0.114   3.193
  304SOL    HW1 1811   3.080   0.113   3.264
  304SOL    HW2 1812   3.120   0.173   3.118
  305SOL     OW 1813   1.140   3.452   1.515
  305SOL    HW1 1814   1.108   3.516   1.584
  305SOL    HW2 1815   1.236   3.430   1.532
  306SOL     OW 1816   2.293   0.431   3.334
  306SOL    HW1 1817   2.221   0.362   3.323
  306SOL    HW2 1818   2.252   0.517   3.363
  307SOL     OW 1819   3.531   0.525   1.122
  307SOL    HW1 1820   3.537   0.575   1.035
  307SOL    HW2 1821   3.561   0.585   1.197
  308SOL     OW 1822   0.648   5.091   4.179
  308SOL    HW1 1823   0.732   5.086   4.125
  308SOL    HW2 1824   0.605   5.180   4.165
  309SOL     OW 1825   3.942   5.254   5.212
  309SOL    HW1 1826   3.931   5.233   5.115
  309SOL    HW2 1827   3.964   5.351   5.223
  310SOL     OW 1828   0.851   6.764   6.198
  310SOL    HW1 1829   0.904   6.838   6.237
  310SOL    HW2 1830   0.863   6.681   6.253
  311SOL     OW 1831   0.550   0.268   1.567
  311SOL    HW1 1832   0.639   0.224   1.583
  311SOL    HW2 1833   0.532   0.273   1.469
  312SOL     OW 1834   3.718   1.838   4.823
  312SOL    HW1 1835   3.764   1.864   4.907
  312SOL    HW2 1836   3.772   1.768   4.776
  313SOL     OW 1837   0.499   4.811   1.495
  313SOL    HW1 1838   0.507   4.811   1.395
  313SOL    HW2 1839   0.535   4.897   1.531
  314SOL     OW 1840   2.905   6.291   1.586
  314SOL    HW1 1841   2.960   6.307   1.504
  314SOL    HW2 1842   2.910   6.195   1.611
  315SOL     OW 1843   1.206   2.936   3.157
  315SOL    HW1 1844   1.155   3.020   3.175
  315SOL    HW2 1845   1.190   2.872   3.232
  316SOL     OW 1846   2.119   2.533   4.083
  316SOL    HW1 1847   2.181   2.516   4.006
  316SOL    HW2 1848   2.043   2.469   4.079
  317SOL     OW 1849   6.594   1.610   0.239
  317SOL    HW1 1850   6.604   1.702   0.276
  317SOL    HW2 1851   6.533   1.557   0.299
  318SOL     OW 1852   2.374   5.226   1.249
  318SOL    HW1 1853   2.462   5.252   1.288
  318SOL    HW2 1854   2.334   5.305   1.202
  319SOL     OW 1855   1.288   7.005   0.594
  319SOL    HW1 1856   1.310   0.041   0.669
  319SOL    HW2 1857   1.212   6.945   0.622
  320SOL     OW 1858   5.158   3.999   0.720
  320SOL    HW1 1859   5.250   4.005   0.761
  320SOL    HW2 1860   5.163   3.945   0.636
  321SOL     OW 1861   2.130   1.386   1.131
  321SOL    HW1 1862   2.158   1.323   1.059
  321SOL    HW2 1863   2.157   1.348   1.220
  322SOL     OW 1864   3.635   2.853   4.804
  322SOL    HW1 1865   3.540   2.872   4.782
  322SOL    HW2 1866   3.641   2.795   4.886
  323SOL     OW 1867   0.428   4.165   2.028
  323SOL    HW1 1868   0.452   4.159   2.125
  323SOL    HW2 1869   0.404   4.073   1.994
  324SOL     OW 1870   0.702   2.971   4.255
  324SOL    HW1 1871   0.711   3.069   4.273
  324SOL    HW2 1872   0.610   2.952   4.221
  325SOL     OW 1873   2.830   2.238   3.134
  325SOL    HW1 1874   2.751   2.260   3.077
  325SOL    HW2 1875   2.910   2.222   3.075
  326SOL     OW 1876   2.453   4.603   6.181
  326SOL    HW1 1877   2.505   4.680   6.216
  326SOL    HW2 1878   2.500   4.517   6.202
  327SOL     OW 1879   6.233   5.340   5.739
  327SOL    HW1 1880   6.329   5.364   5.720
  327SOL    HW2 1881   6.227   5.242   5.761
  328SOL     OW 1882   2.655   5.877   1.987
  328SOL    HW1 1883   2.612   5.946   2.046
  328SOL    HW2 1884   2.627   5.893   1.892
  329SOL     OW 1885   3.474   3.505   2.538
  329SOL    HW1 1886   3.479   3.604   2.550
  329SOL    HW2 1887   3.380   3.479   2.515
  330SOL     OW 1888   3.707   1.043   1.972
  330SOL    HW1 1889   3.771   0.969   1.950
  330SOL    HW2 1890   3.757   1.116   2.019
  331SOL     OW 1891   5.415   4.908   6.339
  331SOL    HW1 1892   5.388   4.813   6.323
  331SOL    HW2 1893   5.511   4.911   6.370
  332SOL     OW 1894   3.978   2.010   3.588
  332SOL    HW1 1895   4.049   2.038   3.654
  332SOL    HW2 1896   3.991   1.914   3.565
  333SOL     OW 1897   3.778   6.401   0.099
  333SOL    HW1 1898   3.728   6.430   0.018
  333SOL    HW2 1899   3.852   6.340   0.073
  334SOL     OW 1900   4.635   6.446   2.667
  334SOL    HW1 1901   4.675   6.369   2.617
  334SOL    HW2 1902   4.541   6.459   2.638
  335SOL     OW 1903   3.025   6.913   3.052
  335SOL    HW1 1904   3.100   6.960   3.098
  335SOL    HW2 1905   2.940   6.928   3.102
  336SOL     OW 1906   2.935   0.920   4.963
  336SOL    HW1 1907   2.912   1.014   4.936
  336SOL    HW2 1908   2.854   0.862   4.956
  337SOL     OW 1909   0.501   4.179   1.327
  337SOL    HW1 1910   0.578   4.129   1.287
  337SOL    HW2 1911   0.472   4.134   1.412
  338SOL     OW 1912   3.222   2.627   1.690
  338SOL    HW1 1913   3.129   2.656   1.716
  338SOL    HW2 1914   3.276   2.708   1.667
  339SOL     OW 1915   4.460   0.245   2.782
  339SOL    HW1 1916   4.537   0.276   2.726
  339SOL    HW2 1917   4.384   0.310   2.772
  340SOL     OW 1918   5.036   3.974   4.628
  340SOL    HW1 1919   5.123   4.010   4.596
  340SOL    HW2 1920   5.033   3.875   4.613
  341SOL     OW 1921   5.444   5.197   5.221
  341SOL    HW1 1922   5.450   5.265   5.148
  341SOL    HW2 1923   5.530   5.193   5.271
  342SOL     OW 1924   5.706   3.473   7.018
  342SOL    HW1 1925   5.678   3.561   6.981
  342SOL    HW2 1926   5.646   3.449   0.068
  343SOL     OW 1927   2.520   0.521   3.167
  343SOL    HW1 1928   2.443   0.545   3.108
  343SOL    HW2 1929   2.502   0.433   3.211
  344SOL     OW 1930   3.437   5.205   0.510
  344SOL    HW1 1931   3.342   5.188   0.486
  344SOL    HW2 1932   3.483   5.118   0.528
  345SOL     OW 1933   0.823   6.420   6.078
  345SOL    HW1 1934   0.871   6.333   6.088
  345SOL    HW2 1935   0.879   6.483   6.024
  346SOL     OW 1936   2.436   6.951   3.922
  346SOL    HW1 1937   2.378   6.982   3.997
  346SOL    HW2 1938   2.526   6.993   3.928
  347SOL     OW 1939   5.056   6.301   6.211
  347SOL    HW1 1940   5.025   6.217   6.257
  347SOL    HW2 1941   5.147   6.287   6.174
  348SOL     OW 1942   3.217   5.769   3.014
  348SOL    HW1 1943   3.184   5.864   3.012
  348SOL    HW2 1944   3.237   5.739   2.921
  349SOL     OW 1945   2.226   4.617   1.964
  349SOL    HW1 1946   2.215   4.519   1.945
  349SOL    HW2 1947   2.274   4.660   1.888
  350SOL     OW 1948   4.752   2.752   1.302
  350SOL    HW1 1949   4.692   2.676   1.327
  350SOL    HW2 1950   4.795   2.789   1.384
  351SOL     OW 1951   3.565   1.712   0.304
  351SOL    HW1 1952   3.523   1.634   0.257
  351SOL    HW2 1953   3.534   1.713   0.399
  352SOL     OW 1954   3.731   1.084   6.366
  352SOL    HW1 1955   3.794   1.042   6.301
  352SOL    HW2 1956   3.717   1.023   6.444
  353SOL     OW 1957   1.792   6.933   1.052
  353SOL    HW1 1958   1.869   6.917   0.990
  353SOL    HW2 1959   1.813   7.011   1.112
  354SOL     OW 1960   4.583   1.496   1.854
  354SOL    HW1 1961   4.485   1.516   1.861
  354SOL    HW2 1962   4.635   1.560   1.910
  355SOL     OW 1963   1.834   1.588   2.146
  355SOL    HW1 1964   1.835   1.527   2.225
  355SOL    HW2 1965   1.828   1.534   2.062
  356SOL     OW 1966   3.689   6.014   3.062
  356SOL    HW1 1967   3.736   5.966   3.136
  356SOL    HW2 1968   3.750   6.023   2.984
  357SOL     OW 1969   1.406   4.544   5.500
  357SOL    HW1 1970   1.432   4.488   5.579
  357SOL    HW2 1971   1.488   4.587   5.462
  358SOL     OW 1972   4.926   1.531   2.157
  358SOL    HW1 1973   4.985   1.571   2.226
  358SOL    HW2 1974   4.965   1.445   2.125
  359SOL     OW 1975   1.333   1.783   1.469
  359SOL    HW1 1976   1.411   1.776   1.407
  359SOL    HW2 1977   1.334   1.706   1.533
  360SOL     OW 1978   4.280   6.173   1.097
  360SOL    HW1 1979   4.192   6.186   1.144
  360SOL    HW2 1980   4.303   6.256   1.045
  361SOL     OW 1981   3.784   0.659   3.167
  361SOL    HW1 1982   3.790   0.757   3.188
  361SOL    HW2 1983   3.689   0.629   3.179
  362SOL     OW 1984   2.781   3.694   0.977
  362SOL    HW1 1985   2.854   3.706   0.909
  362SOL    HW2 1986   2.693   3.695   0.931
  363SOL     OW 1987   4.343   4.873   3.978
  363SOL    HW1 1988   4.313   4.962   4.012
  363SOL    HW2 1989   4.407   4.833   4.043
  364SOL     OW 1990   1.723   5.986   5.685
  364SOL    HW1 1991   1.708   5.980   5.586
  364SOL    HW2 1992   1.746   5.896   5.721
  365SOL     OW 1993   4.772   6.548   2.898
  365SOL    HW1 1994   4.724   6.528   2.813
  365SOL    HW2 1995   4.716   6.518   2.976
  366SOL     OW 1996   4.930   6.494   0.270
  366SOL    HW1 1997   4.944   6.530   0.362
  366SOL    HW2 1998   5.018   6.471   0.229
  367SOL     OW 1999   5.066   1.894   1.648
  367SOL    HW1 2000   5.044   1.869   1.553
  367SOL    HW2 2001   5.162   1.922   1.653
  368SOL     OW 2002   1.488   4.871   5.425
  368SOL    HW1 2003   1.557   4.799   5.421
  368SOL    HW2 2004   1.529   4.958   5.401
  369SOL     OW 2005   0.751   3.633   1.520
  369SOL    HW1 2006   0.660   3.591   1.519
  369SOL    HW2 2007   0.817   3.569   1.481
  370SOL     OW 2008   3.371   1.243   6.353
  370SOL    HW1 2009   3.421   1.157   6.345
  370SOL    HW2 2010   3.308   1.252   6.276
  371SOL     OW 2011   4.069   2.869   6.550
  371SOL    HW1 2012   4.164   2.843   6.563
  371SOL    HW2 2013   4.046   2.863   6.453
  372SOL     OW 2014   1.768   5.080   6.677
  372SOL    HW1 2015   1.686   5.113   6.724
  372SOL    HW2 2016   1.742   5.023   6.600
  373SOL     OW 2017   6.653   6.901   0.741
  373SOL    HW1 2018   6.703   6.819   0.713
  373SOL    HW2 2019   6.717   6.970   0.774
  374SOL     OW 2020   4.138   1.237   0.895
  374SOL    HW1 2021   4.194   1.235   0.812
  374SOL    HW2 2022   4.134   1.146   0.935
  375SOL     OW 2023   6.616   4.254   1.846
  375SOL    HW1 2024   6.544   4.197   1.884
  375SOL    HW2 2025   6.577   4.340   1.813
  376SOL     OW 2026   2.168   2.910   4.575
  376SOL    HW1 2027   2.195   2.940   4.666
  376SOL    HW2 2028   2.069   2.895   4.573
  377SOL     OW 2029   4.850   1.607   4.566
  377SOL    HW1 2030   4.874   1.519   4.607
  377SOL    HW2 2031   4.798   1.591   4.482
  378SOL     OW 2032   4.627   2.722   4.349
  378SOL    HW1 2033   4.628   2.726   4.449
  378SOL    HW2 2034   4.572   2.645   4.319
  379SOL     OW 2035   0.043   3.147   1.665
  379SOL    HW1 2036   7.003   3.095   1.718
  379SOL    HW2 2037   7.024   3.221   1.616
  380SOL     OW 2038   1.381   2.041   0.123
  380SOL    HW1 2039   1.361   2.127   0.170
  380SOL    HW2 2040   1.363   2.052   0.025
  381SOL     OW 2041   3.339   4.008   0.166
  381SOL    HW1 2042   3.271   4.050   0.225
  381SOL    HW2 2043   3.430   4.044   0.189
  382SOL     OW 2044   2.148   5.135   1.095
  382SOL    HW1 2045   2.132   5.191   1.014
  382SOL    HW2 2046   2.236   5.159   1.136
  383SOL     OW 2047   6.570   2.239   6.967
  383SOL    HW1 2048   6.637   2.303   6.930
  383SOL    HW2 2049   6.584   2.149   6.927
  384SOL     OW 2050   2.140   5.427   5.151
  384SOL    HW1 2051   2.190   5.439   5.237
  384SOL    HW2 2052   2.186   5.358   5.095
  385SOL     OW 2053   5.006   5.195   1.448
  385SOL    HW1 2054   4.939   5.121   1.437
  385SOL    HW2 2055   5.013   5.245   1.362
  386SOL     OW 2056   2.871   6.961   4.962
  386SOL    HW1 2057   2.932   7.005   4.896
  386SOL    HW2 2058   2.785   7.013   4.967
  387SOL     OW 2059   0.108   0.388   6.031
  387SOL    HW1 2060   0.164   0.369   5.951
  387SOL    HW2 2061   0.014   0.403   6.003
  388SOL     OW 2062   0.494   2.595   5.040
  388SOL    HW1 2063   0.564   2.525   5.057
  388SOL    HW2 2064   0.418   2.555   4.989
  389SOL     OW 2065   4.798   4.460   1.592
  389SOL    HW1 2066   4.828   4.445   1.686
  389SOL    HW2 2067   4.707   4.421   1.580
  390SOL     OW 2068   3.676   2.403   0.646
  390SOL    HW1 2069   3.626   2.318   0.629
  390SOL    HW2 2070   3.765   2.399   0.600
  391SOL     OW 2071   3.500   4.178   4.022
  391SOL    HW1 2072   3.590   4.215   3.997
  391SOL    HW2 2073   3.489   4.184   4.122
  392SOL     OW 2074   1.551   3.956   1.267
  392SOL    HW1 2075   1.466   3.993   1.304
  392SOL    HW2 2076   1.601   3.908   1.338
  393SOL     OW 2077   1.271   5.445   1.536
  393SOL    HW1 2078   1.213   5.491   1.604
  393SOL    HW2 2079   1.225   5.446   1.447
  394SOL     OW 2080   6.263   1.315   6.533
  394SOL    HW1 2081   6.218   1.299   6.621
  394SOL    HW2 2082   6.360   1.332   6.548
  395SOL     OW 2083   6.015   4.539   0.738
  395SOL    HW1 2084   6.053   4.487   0.814
  395SOL    HW2 2085   5.962   4.616   0.773
  396SOL     OW 2086   1.446   7.008   1.274
  396SOL    HW1 2087   1.524   6.999   1.336
  396SOL    HW2 2088   1.363   6.980   1.322
  397SOL     OW 2089   3.929   1.885   5.011
  397SOL    HW1 2090   3.903   1.981   5.010
  397SOL    HW2 2091   4.027   1.877   5.029
  398SOL     OW 2092   0.863   0.660   3.212
  398SOL    HW1 2093   0.811   0.743   3.232
  398SOL    HW2 2094   0.942   0.655   3.273
  399SOL     OW 2095   5.609   5.851   3.963
  399SOL    HW1 2096   5.516   5.852   3.926
  399SOL    HW2 2097   5.612   5.794   4.044
  400SOL     OW 2098   6.157   6.977   3.748
  400SOL    HW1 2099   6.120   6.917   3.676
  400SOL    HW2 2100   6.255   6.991   3.732
  401SOL     OW 2101   0.319   5.902   5.321
  401SOL    HW1 2102   0.270   5.816   5.339
  401SOL    HW2 2103   0.257   5.979   5.334
  402SOL     OW 2104   5.480   1.727   4.035
  402SOL    HW1 2105   5.462   1.807   4.093
  402SOL    HW2 2106   5.447   1.645   4.081
  403SOL     OW 2107   2.863   1.820   5.475
  403SOL    HW1 2108   2.932   1.751   5.455
  403SOL    HW2 2109   2.840   1.870   5.391
  404SOL     OW 2110   3.286   5.763   3.594
  404SOL    HW1 2111   3.269   5.672   3.632
  404SOL    HW2 2112   3.209   5.790   3.537
  405SOL     OW 2113   2.555   5.097   4.336
  405SOL    HW1 2114   2.578   5.079   4.240
  405SOL    HW2 2115   2.511   5.186   4.344
  406SOL     OW 2116   0.431   0.099   6.035
  406SOL    HW1 2117   0.333   0.117   6.026
  406SOL    HW2 2118   0.473   0.096   5.944
  407SOL     OW 2119   2.349   2.812   4.250
  407SOL    HW1 2120   2.355   2.741   4.320
  407SOL    HW2 2121   2.435   2.816   4.199
  408SOL     OW 2122   2.241   2.210   3.081
  408SOL    HW1 2123   2.178   2.216   3.159
  408SOL    HW2 2124   2.228   2.123   3.034
  409SOL     OW 2125   0.623   3.243   2.172
  409SOL    HW1 2126   0.555   3.170   2.176
  409SOL    HW2 2127   0.656   3.252   2.078
  410SOL     OW 2128   1.747   2.436   1.538
  410SOL    HW1 2129   1.704   2.496   1.471
  410SOL    HW2 2130   1.821   2.385   1.495
  411SOL     OW 2131   6.675   1.928   0.881
  411SOL    HW1 2132   6.623   1.961   0.959
  411SOL    HW2 2133   6.761   1.887   0.913
  412SOL     OW 2134   1.531   4.815   2.693
  412SOL    HW1 2135   1.467   4.832   2.769
  412SOL    HW2 2136   1.621   4.793   2.731
  413SOL     OW 2137   6.249   5.255   1.851
  413SOL    HW1 2138   6.335   5.304   1.840
  413SOL    HW2 2139   6.195   5.298   1.924
  414SOL     OW 2140   2.013   0.073   3.127
  414SOL    HW1 2141   2.104   0.084   3.088
  414SOL    HW2 2142   1.955   0.021   3.064
  415SOL     OW 2143   5.553   1.367   6.746
  415SOL    HW1 2144   5.613   1.293   6.714
  415SOL    HW2 2145   5.584   1.397   6.836
  416SOL     OW 2146   5.800   3.434   5.651
  416SOL    HW1 2147   5.821   3.445   5.748
  416SOL    HW2 2148   5.718   3.378   5.641
  417SOL     OW 2149   1.831   2.044   6.349
  417SOL    HW1 2150   1.843   2.142   6.332
  417SOL    HW2 2151   1.772   2.032   6.428
  418SOL     OW 2152   3.713   6.932   5.146
  418SOL    HW1 2153   3.697   6.843   5.189
  418SOL    HW2 2154   3.638   6.951   5.083
  419SOL     OW 2155   6.444   0.258   0.310
  419SOL    HW1 2156   6.465   0.341   0.259
  419SOL    HW2 2157   6.526   0.201   0.317
  420SOL     OW 2158   3.628   0.157   0.717
  420SOL    HW1 2159   3.710   0.201   0.754
  420SOL    HW2 2160   3.653   0.075   0.667
  421SOL     OW 2161   4.804   4.012   2.831
  421SOL    HW1 2162   4.851   3.992   2.744
  421SOL    HW2 2163   4.729   4.076   2.814
  422SOL     OW 2164   5.003   2.627   1.617
  422SOL    HW1 2165   5.098   2.597   1.621
  422SOL    HW2 2166   4.970   2.648   1.709
  423SOL     OW 2167   2.960   1.088   6.185
  423SOL    HW1 2168   3.031   1.031   6.225
  423SOL    HW2 2169   2.913   1.140   6.257
  424SOL     OW 2170   1.736   3.816   3.883
  424SOL    HW1 2171   1.786   3.758   3.947
  424SOL    HW2 2172   1.706   3.900   3.929
  425SOL     OW 2173   3.859   0.952   0.133
  425SOL    HW1 2174   3.888   0.880   0.070
  425SOL    HW2 2175   3.878   1.041   0.092
  426SOL     OW 2176   2.868   2.333   4.351
  426SOL    HW1 2177   2.965   2.311   4.360
  426SOL    HW2 2178   2.820   2.306   4.434
  427SOL     OW 2179   4.935   1.908   3.421
  427SOL    HW1 2180   4.966   1.889   3.515
  427SOL    HW2 2181   5.013   1.939   3.366
  428SOL     OW 2182   2.840   2.653   6.602
  428SOL    HW1 2183   2.815   2.746   6.574
  428SOL    HW2 2184   2.856   2.597   6.521
  429SOL     OW 2185   0.007   5.821   4.286
  429SOL    HW1 2186   0.016   5.862   4.377
  429SOL    HW2 2187   0.089   5.841   4.233
  430SOL     OW 2188   1.519   0.130   4.272
  430SOL    HW1 2189   1.544   0.107   4.366
  430SOL    HW2 2190   1.564   0.066   4.209
  431SOL     OW 2191   2.981   1.881   1.005
  431SOL    HW1 2192   2.893   1.835   1.004
  431SOL    HW2 2193   3.052   1.817   0.975
  432SOL     OW 2194   4.595   1.559   1.230
  432SOL    HW1 2195   4.557   1.646   1.260
  432SOL    HW2 2196   4.532   1.515   1.167
  433SOL     OW 2197   1.903   4.520   0.992
  433SOL    HW1 2198   1.987   4.572   1.005
  433SOL    HW2 2199   1.908   4.434   1.043
  434SOL     OW 2200   4.651   5.310   3.266
  434SOL    HW1 2201   4.614   5.383   3.324
  434SOL    HW2 2202   4.715   5.255   3.319
  435SOL     OW 2203   3.825   2.841   5.855
  435SOL    HW1 2204   3.885   2.812   5.781
  435SOL    HW2 2205   3.767   2.764   5.882
  436SOL     OW 2206   5.180   6.433   1.660
  436SOL    HW1 2207   5.263   6.486   1.677
  436SOL    HW2 2208   5.181   6.351   1.716
  437SOL     OW 2209   6.310   1.731   5.205
  437SOL    HW1 2210   6.242   1.665   5.238
  437SOL    HW2 2211   6.302   1.816   5.258
  438SOL     OW 2212   0.660   4.714   2.546
  438SOL    HW1 2213   0.753   4.684   2.570
  438SOL    HW2 2214   0.611   4.738   2.629
  439SOL     OW 2215   0.152   0.988   5.373
  439SOL    HW1 2216   0.211   0.926   5.322
  439SOL    HW2 2217   0.091   1.036   5.309
  440SOL     OW 2218   4.342   1.810   0.503
  440SOL    HW1 2219   4.405   1.760   0.562
  440SOL    HW2 2220   4.362   1.908   0.510
  441SOL     OW 2221   0.698   4.717   2.025
  441SOL    HW1 2222   0.786   4.760   2.045
  441SOL    HW2 2223   0.680   4.646   2.093
  442SOL     OW 2224   4.569   3.546   5.367
  442SOL    HW1 2225   4.613   3.598   5.295
  442SOL    HW2 2226   4.617   3.459   5.380
  443SOL     OW 2227   4.923   2.735   3.075
  443SOL    HW1 2228   5.007   2.789   3.083
  443SOL    HW2 2229   4.895   2.731   2.979
  444SOL     OW 2230   4.126   1.938   1.616
  444SOL    HW1 2231   4.045   1.883   1.634
  444SOL    HW2 2232   4.099   2.024   1.572
  445SOL     OW 2233   1.770   4.871   2.982
  445SOL    HW1 2234   1.771   4.810   2.904
  445SOL    HW2 2235   1.832   4.948   2.966
  446SOL     OW 2236   6.476   6.943   1.626
  446SOL    HW1 2237   6.440   6.931   1.533
  446SOL    HW2 2238   6.504   6.854   1.663
  447SOL     OW 2239   5.750   3.945   0.750
  447SOL    HW1 2240   5.770   4.022   0.811
  447SOL    HW2 2241   5.811   3.869   0.772
  448SOL     OW 2242   3.275   6.512   3.936
  448SOL    HW1 2243   3.303   6.571   4.012
  448SOL    HW2 2244   3.333   6.530   3.857
  449SOL     OW 2245   1.603   4.229   4.662
  449SOL    HW1 2246   1.658   4.153   4.627
  449SOL    HW2 2247   1.637   4.256   4.752
  450SOL     OW 2248   6.800   4.436   3.030
  450SOL    HW1 2249   6.770   4.456   3.123
  450SOL    HW2 2250   6.786   4.516   2.972
  451SOL     OW 2251   1.147   1.868   0.715
  451SOL    HW1 2252   1.112   1.908   0.799
  451SOL    HW2 2253   1.149   1.768   0.723
  452SOL     OW 2254   4.540   5.338   2.792
  452SOL    HW1 2255   4.475   5.265   2.769
  452SOL    HW2 2256   4.546   5.403   2.717
  453SOL     OW 2257   3.995   1.199   0.115
  453SOL    HW1 2258   4.089   1.228   0.096
  453SOL    HW2 2259   3.954   1.263   0.181
  454SOL     OW 2260   0.289   3.776   4.768
  454SOL    HW1 2261   0.253   3.693   4.726
  454SOL    HW2 2262   0.388   3.775   4.764
  455SOL     OW 2263   5.261   5.425   6.086
  455SOL    HW1 2264   5.191   5.401   6.019
  455SOL    HW2 2265   5.273   5.350   6.151
  456SOL     OW 2266   2.618   0.858   2.564
  456SOL    HW1 2267   2.706   0.888   2.601
  456SOL    HW2 2268   2.620   0.861   2.465
  457SOL     OW 2269   2.412   6.515   6.904
  457SOL    HW1 2270   2.505   6.508   6.939
  457SOL    HW2 2271   2.376   6.424   6.883
  458SOL     OW 2272   3.510   1.157   3.071
  458SOL    HW1 2273   3.516   1.164   2.971
  458SOL    HW2 2274   3.485   1.245   3.110
  459SOL     OW 2275   3.143   0.714   3.258
  459SOL    HW1 2276   3.210   0.765   3.312
  459SOL    HW2 2277   3.124   0.765   3.174
  460SOL     OW 2278   0.476   1.412   6.188
  460SOL    HW1 2279   0.513   1.503   6.207
  460SOL    HW2 2280   0.502   1.350   6.262
  461SOL     OW 2281   1.171   6.145   5.846
  461SOL    HW1 2282   1.183   6.191   5.934
  461SOL    HW2 2283   1.080   6.167   5.810
  462SOL     OW 2284   3.033   3.931   4.972
  462SOL    HW1 2285   3.008   3.889   4.885
  462SOL    HW2 2286   2.969   3.902   5.043
  463SOL     OW 2287   5.830   6.312   3.777
  463SOL    HW1 2288   5.737   6.283   3.799
  463SOL    HW2 2289   5.851   6.290   3.682
  464SOL     OW 2290   4.416   5.329   5.523
  464SOL    HW1 2291   4.455   5.421   5.516
  464SOL    HW2 2292   4.442   5.275   5.444
  465SOL     OW 2293   0.612   4.301   0.100
  465SOL    HW1 2294   0.588   4.387   0.054
  465SOL    HW2 2295   0.574   4.224   0.049
  466SOL     OW 2296   3.883   5.167   3.923
  466SOL    HW1 2297   3.933   5.141   3.841
  466SOL    HW2 2298   3.835   5.254   3.907
  467SOL     OW 2299   6.291   0.445   2.064
  467SOL    HW1 2300   6.355   0.497   2.007
  467SOL    HW2 2301   6.317   0.453   2.160
  468SOL     OW 2302   2.563   5.929   6.248
  468SOL    HW1 2303   2.612   6.013   6.225
  468SOL    HW2 2304   2.468   5.951   6.270
  469SOL     OW 2305   2.849   4.859   5.106
  469SOL    HW1 2306   2.788   4.932   5.077
  469SOL    HW2 2307   2.825   4.775   5.058
  470SOL     OW 2308   2.136   4.858   3.075
  470SOL    HW1 2309   2.085   4.934   3.035
  470SOL    HW2 2310   2.188   4.891   3.154
  471SOL     OW 2311   2.014   1.895   4.362
  471SOL    HW1 2312   2.004   1.800   4.393
  471SOL    HW2 2313   2.063   1.896   4.275
  472SOL     OW 2314   5.383   3.947   6.370
  472SOL    HW1 2315   5.481   3.965   6.365
  472SOL    HW2 2316   5.333   4.014   6.314
  473SOL     OW 2317   5.296   3.390   2.490
  473SOL    HW1 2318   5.373   3.359   2.435
  473SOL    HW2 2319   5.236   3.313   2.511
  474SOL     OW 2320   4.866   5.637   3.927
  474SOL    HW1 2321   4.876   5.672   4.020
  474SOL    HW2 2322   4.909   5.547   3.920
  475SOL     OW 2323   5.898   1.301   1.134
  475SOL    HW1 2324   5.824   1.368   1.131
  475SOL    HW2 2325   5.868   1.220   1.185
  476SOL     OW 2326   1.388   4.046   6.513
  476SOL    HW1 2327   1.482   4.045   6.479
  476SOL    HW2 2328   1.353   4.139   6.511
  477SOL     OW 2329   1.184   5.252   3.217
  477SOL    HW1 2330   1.259   5.317   3.218
  477SOL    HW2 2331   1.200   5.182   3.287
  478SOL     OW 2332   6.082   6.326   3.262
  478SOL    HW1 2333   6.041   6.249   3.213
  478SOL    HW2 2334   6.164   6.295   3.310
  479SOL     OW 2335   2.993   3.387   2.712
  479SOL    HW1 2336   3.083   3.376   2.754
  479SOL    HW2 2337   2.923   3.385   2.784
  480SOL     OW 2338   0.927   1.002   2.680
  480SOL    HW1 2339   0.840   1.050   2.694
  480SOL    HW2 2340   0.910   0.911   2.643
  481SOL     OW 2341   5.857   6.838   1.074
  481SOL    HW1 2342   5.865   6.739   1.061
  481SOL    HW2 2343   5.879   6.885   0.989
  482SOL     OW 2344   4.276   5.097   2.896
  482SOL    HW1 2345   4.347   5.082   2.828
  482SOL    HW2 2346   4.206   5.026   2.887
  483SOL     OW 2347   5.683   1.374   4.122
  483SOL    HW1 2348   5.618   1.449   4.126
  483SOL    HW2 2349   5.647   1.296   4.174
  484SOL     OW 2350   1.794   5.034   3.704
  484SOL    HW1 2351   1.726   4.978   3.752
  484SOL    HW2 2352   1.748   5.090   3.635
  485SOL     OW 2353   5.425   1.844   1.298
  485SOL    HW1 2354   5.370   1.908   1.245
  485SOL    HW2 2355   5.417   1.753   1.259
  486SOL     OW 2356   6.044   6.761   5.968
  486SOL    HW1 2357   6.000   6.843   5.932
  486SOL    HW2 2358   6.136   6.752   5.928
  487SOL     OW 2359   0.351   0.799   6.797
  487SOL    HW1 2360   0.274   0.803   6.733
  487SOL    HW2 2361   0.318   0.822   6.889
  488SOL     OW 2362   1.842   6.028   3.393
  488SOL    HW1 2363   1.880   5.968   3.323
  488SOL    HW2 2364   1.913   6.090   3.427
  489SOL     OW 2365   2.520   5.601   5.241
  489SOL    HW1 2366   2.582   5.575   5.167
  489SOL    HW2 2367   2.499   5.698   5.234
  490SOL     OW 2368   1.538   3.351   4.596
  490SOL    HW1 2369   1.568   3.259   4.623
  490SOL    HW2 2370   1.560   3.416   4.669
  491SOL     OW 2371   6.119   2.988   0.835
  491SOL    HW1 2372   6.166   3.067   0.875
  491SOL    HW2 2373   6.110   2.916   0.903
  492SOL     OW 2374   1.378   2.549   5.575
  492SOL    HW1 2375   1.331   2.588   5.496
  492SOL    HW2 2376   1.359   2.605   5.656
  493SOL     OW 2377   1.551   5.527   4.339
  493SOL    HW1 2378   1.603   5.613   4.339
  493SOL    HW2 2379   1.519   5.507   4.246
  494SOL     OW 2380   2.565   0.888   4.567
  494SOL    HW1 2381   2.661   0.863   4.582
  494SOL    HW2 2382   2.559   0.987   4.551
  495SOL     OW 2383   3.585   4.122   6.784
  495SOL    HW1 2384   3.490   4.091   6.787
  495SOL    HW2 2385   3.639   4.073   6.853
  496SOL     OW 2386   5.101   1.071   3.208
  496SOL    HW1 2387   5.021   1.082   3.149
  496SOL    HW2 2388   5.156   1.155   3.206
  497SOL     OW 2389   4.573   1.969   0.806
  497SOL    HW1 2390   4.534   1.876   0.810
  497SOL    HW2 2391   4.619   1.989   0.893
  498SOL     OW 2392   0.252   0.513   1.050
  498SOL    HW1 2393   0.272   0.528   1.147
  498SOL    HW2 2394   0.301   0.580   0.995
  499SOL     OW 2395   2.867   6.212   0.374
  499SOL    HW1 2396   2.961   6.210   0.338
  499SOL    HW2 2397   2.865   6.268   0.456
  500SOL     OW 2398   5.474   1.953   6.393
  500SOL    HW1 2399   5.376   1.967   6.380
  500SOL    HW2 2400   5.512   2.033   6.439
  501SOL     OW 2401   1.324   1.654   5.272
  501SOL    HW1 2402   1.381   1.731   5.244
  501SOL    HW2 2403   1.381   1.586   5.319
  502SOL     OW 2404   2.236   4.129   6.831
  502SOL    HW1 2405   2.146   4.121   6.871
  502SOL    HW2 2406   2.281   4.040   6.830
  503SOL     OW 2407   3.383   5.615   1.426
  503SOL    HW1 2408   3.456   5.682   1.416
  503SOL    HW2 2409   3.303   5.659   1.468
  504SOL     OW 2410   6.134   6.029   1.229
  504SOL    HW1 2411   6.144   6.007   1.132
  504SOL    HW2 2412   6.042   6.006   1.260
  505SOL     OW 2413   5.779   5.127   5.220
  505SOL    HW1 2414   5.801   5.083   5.307
  505SOL    HW2 2415   5.788   5.226   5.230
  506SOL     OW 2416   3.100   5.084   3.014
  506SOL    HW1 2417   3.035   5.033   3.069
  506SOL    HW2 2418   3.063   5.174   2.993
  507SOL     OW 2419   3.249   0.591   2.110
  507SOL    HW1 2420   3.245   0.684   2.074
  507SOL    HW2 2421   3.248   0.525   2.034
  508SOL     OW 2422   6.966   4.892   3.412
  508SOL    HW1 2423   0.016   4.942   3.453
  508SOL    HW2 2424   6.902   4.863   3.483
  509SOL     OW 2425   4.228   6.889   6.215
  509SOL    HW1 2426   4.179   6.920   6.296
  509SOL    HW2 2427   4.280   6.807   6.237
  510SOL     OW 2428   6.560   4.030   0.421
  510SOL    HW1 2429   6.550   4.051   0.518
  510SOL    HW2 2430   6.548   3.931   0.407
  511SOL     OW 2431   0.671   1.351   6.818
  511SOL    HW1 2432   0.652   1.254   6.807
  511SOL    HW2 2433   0.734   1.364   6.895
  512SOL     OW 2434   0.507   2.494   3.892
  512SOL    HW1 2435   0.426   2.436   3.892
  512SOL    HW2 2436   0.490   2.576   3.837
  513SOL     OW 2437   5.397   6.916   2.864
  513SOL    HW1 2438   5.467   6.944   2.930
  513SOL    HW2 2439   5.319   6.878   2.913
  514SOL     OW 2440   4.739   1.325   5.169
  514SOL    HW1 2441   4.661   1.387   5.179
  514SOL    HW2 2442   4.806   1.344   5.241
  515SOL     OW 2443   3.337   0.702   0.274
  515SOL    HW1 2444   3.295   0.769   0.335
  515SOL    HW2 2445   3.379   0.629   0.328
  516SOL     OW 2446   1.841   5.951   2.355
  516SOL    HW1 2447   1.813   5.857   2.374
  516SOL    HW2 2448   1.919   5.950   2.292
  517SOL     OW 2449   3.668   5.448   1.867
  517SOL    HW1 2450   3.703   5.417   1.778
  517SOL    HW2 2451   3.568   5.449   1.865
  518SOL     OW 2452   1.711   5.247   4.257
  518SOL    HW1 2453   1.652   5.183   4.206
  518SOL    HW2 2454   1.668   5.268   4.345
  519SOL     OW 2455   6.685   6.878   2.056
  519SOL    HW1 2456   6.644   6.821   1.985
  519SOL    HW2 2457   6.782   6.890   2.037
  520SOL     OW 2458   2.291   4.523   0.220
  520SOL    HW1 2459   2.271   4.587   0.294
  520SOL    HW2 2460   2.374   4.471   0.241
  521SOL     OW 2461   6.126   5.607   5.672
  521SOL    HW1 2462   6.179   5.522   5.673
  521SOL    HW2 2463   6.062   5.605   5.596
  522SOL     OW 2464   3.845   4.240   0.166
  522SOL    HW1 2465   3.827   4.187   0.249
  522SOL    HW2 2466   3.870   4.177   0.092
  523SOL     OW 2467   1.502   6.678   6.490
  523SOL    HW1 2468   1.527   6.582   6.507
  523SOL    HW2 2469   1.525   6.733   6.571
  524SOL     OW 2470   0.040   1.215   0.846
  524SOL    HW1 2471   6.970   1.193   0.830
  524SOL    HW2 2472   0.081   1.248   0.761
  525SOL     OW 2473   0.742   3.152   3.758
  525SOL    HW1 2474   0.775   3.243   3.732
  525SOL    HW2 2475   0.811   3.083   3.733
  526SOL     OW 2476   4.407   0.361   3.841
  526SOL    HW1 2477   4.384   0.269   3.874
  526SOL    HW2 2478   4.329   0.422   3.856
  527SOL     OW 2479   0.543   1.621   1.214
  527SOL    HW1 2480   0.614   1.556   1.241
  527SOL    HW2 2481   0.453   1.580   1.231
  528SOL     OW 2482   0.102   2.791   4.111
  528SOL    HW1 2483   0.193   2.761   4.139
  528SOL    HW2 2484   0.033   2.742   4.164
  529SOL     OW 2485   1.479   0.285   6.341
  529SOL    HW1 2486   1.434   0.199   6.316
  529SOL    HW2 2487   1.417   0.339   6.398
  530SOL     OW 2488   3.333   4.449   1.283
  530SOL    HW1 2489   3.272   4.485   1.212
  530SOL    HW2 2490   3.378   4.366   1.250
  531SOL     OW 2491   1.477   0.124   6.727
  531SOL    HW1 2492   1.456   0.216   6.760
  531SOL    HW2 2493   1.413   0.101   6.654
  532SOL     OW 2494   2.364   1.226   5.819
  532SOL    HW1 2495   2.407   1.284   5.887
  532SOL    HW2 2496   2.264   1.239   5.823
  533SOL     OW 2497   3.900   0.454   3.918
  533SOL    HW1 2498   3.891   0.428   4.014
  533SOL    HW2 2499   3.913   0.553   3.912
  534SOL     OW 2500   1.622   4.022   1.824
  534SOL    HW1 2501   1.573   4.021   1.911
  534SOL    HW2 2502   1.677   3.940   1.816
  535SOL     OW 2503   5.123   3.738   4.475
  535SOL    HW1 2504   5.184   3.778   4.407
  535SOL    HW2 2505   5.144   3.641   4.486
  536SOL     OW 2506   6.204   6.446   1.615
  536SOL    HW1 2507   6.121   6.412   1.658
  536SOL    HW2 2508   6.198   6.545   1.604
  537SOL     OW 2509   3.024   1.474   2.358
  537SOL    HW1 2510   3.038   1.573   2.354
  537SOL    HW2 2511   2.975   1.451   2.442
  538SOL     OW 2512   3.750   5.030   4.778
  538SOL    HW1 2513   3.828   5.011   4.718
  538SOL    HW2 2514   3.665   5.006   4.732
  539SOL     OW 2515   1.973   0.179   6.669
  539SOL    HW1 2516   2.026   0.214   6.746
  539SOL    HW2 2517   2.011   0.215   6.584
  540SOL     OW 2518   1.830   0.939   5.289
  540SOL    HW1 2519   1.929   0.949   5.278
  540SOL    HW2 2520   1.785   0.966   5.204
  541SOL     OW 2521   5.198   6.426   3.825
  541SOL    HW1 2522   5.271   6.494   3.818
  541SOL    HW2 2523   5.235   6.340   3.861
  542SOL     OW 2524   3.878   6.917   6.166
  542SOL    HW1 2525   3.927   6.990   6.118
  542SOL    HW2 2526   3.856   6.844   6.102
  543SOL     OW 2527   5.955   2.707   3.670
  543SOL    HW1 2528   5.989   2.764   3.744
  543SOL    HW2 2529   6.032   2.658   3.628
  544SOL     OW 2530   1.372   3.264   1.052
  544SOL    HW1 2531   1.441   3.199   1.019
  544SOL    HW2 2532   1.295   3.214   1.090
  545SOL     OW 2533   6.809   5.614   0.824
  545SOL    HW1 2534   6.774   5.708   0.826
  545SOL    HW2 2535   6.732   5.551   0.836
  546SOL     OW 2536   0.563   3.901   1.696
  546SOL    HW1 2537   0.643   3.911   1.638
  546SOL    HW2 2538   0.569   3.965   1.773
  547SOL     OW 2539   4.824   0.038   6.475
  547SOL    HW1 2540   4.840   0.081   6.564
  547SOL    HW2 2541   4.725   0.031   6.459
  548SOL     OW 2542   4.021   3.212   0.268
  548SOL    HW1 2543   3.951   3.236   0.336
  548SOL    HW2 2544   4.103   3.266   0.284
  549SOL     OW 2545   5.410   1.638   2.246
  549SOL    HW1 2546   5.415   1.730   2.207
  549SOL    HW2 2547   5.479   1.580   2.203
  550SOL     OW 2548   0.030   5.949   3.224
  550SOL    HW1 2549   7.025   5.890   3.149
  550SOL    HW2 2550   0.095   5.898   3.281
  551SOL     OW 2551   5.905   0.243   0.055
  551SOL    HW1 2552   5.854   0.324   0.084
  551SOL    HW2 2553   5.893   0.229   6.983
  552SOL     OW 2554   0.868   0.026   5.057
  552SOL    HW1 2555   0.787   0.024   5.116
  552SOL    HW2 2556   0.920   6.968   5.070
  553SOL     OW 2557   3.537   2.703   6.611
  553SOL    HW1 2558   3.507   2.611   6.585
  553SOL    HW2 2559   3.630   2.719   6.577
  554SOL     OW 2560   6.572   5.490   0.515
  554SOL    HW1 2561   6.535   5.420   0.575
  554SOL    HW2 2562   6.664   5.515   0.545
  555SOL     OW 2563   2.625   3.619   5.428
  555SOL    HW1 2564   2.679   3.555   5.373
  555SOL    HW2 2565   2.664   3.711   5.419
  556SOL     OW 2566   6.075   6.837   3.265
  556SOL    HW1 2567   6.034   6.827   3.355
  556SOL    HW2 2568   6.168   6.799   3.266
  557SOL     OW 2569   5.507   4.233   6.448
  557SOL    HW1 2570   5.485   4.176   6.527
  557SOL    HW2 2571   5.596   4.206   6.411
  558SOL     OW 2572   3.354   3.783   2.396
  558SOL    HW1 2573   3.442   3.810   2.358
  558SOL    HW2 2574   3.360   3.781   2.496
  559SOL     OW 2575   6.744   0.531   6.724
  559SOL    HW1 2576   6.819   0.521   6.658
  559SOL    HW2 2577   6.763   0.475   6.804
  560SOL     OW 2578   6.622   2.960   4.307
  560SOL    HW1 2579   6.558   2.903   4.255
  560SOL    HW2 2580   6.578   3.047   4.330
  561SOL     OW 2581   0.417   3.486   0.562
  561SOL    HW1 2582   0.467   3.536   0.490
  561SOL    HW2 2583   0.482   3.443   0.624
  562SOL     OW 2584   4.135   6.577   3.877
  562SOL    HW1 2585   4.169   6.556   3.785
  562SOL    HW2 2586   4.212   6.602   3.936
  563SOL     OW 2587   1.519   0.837   4.102
  563SOL    HW1 2588   1.483   0.884   4.022
  563SOL    HW2 2589   1.609   0.798   4.081
  564SOL     OW 2590   6.195   2.089   6.370
  564SOL    HW1 2591   6.200   2.135   6.458
  564SOL    HW2 2592   6.263   2.127   6.308
  565SOL     OW 2593   3.499   3.369   3.403
  565SOL    HW1 2594   3.450   3.310   3.340
  565SOL    HW2 2595   3.435   3.410   3.468
  566SOL     OW 2596   3.040   1.200   3.808
  566SOL    HW1 2597   3.009   1.187   3.903
  566SOL    HW2 2598   2.960   1.204   3.748
  567SOL     OW 2599   2.839   2.431   5.442
  567SOL    HW1 2600   2.830   2.406   5.538
  567SOL    HW2 2601   2.916   2.494   5.431
  568SOL     OW 2602   0.685   6.198   0.171
  568SOL    HW1 2603   0.708   6.211   0.075
  568SOL    HW2 2604   0.618   6.125   0.180
  569SOL     OW 2605   5.813   3.238   6.922
  569SOL    HW1 2606   5.907   3.234   6.956
  569SOL    HW2 2607   5.771   3.324   6.952
  570SOL     OW 2608   3.211   0.530   5.662
  570SOL    HW1 2609   3.202   0.471   5.742
  570SOL    HW2 2610   3.135   0.512   5.600
  571SOL     OW 2611   2.474   4.505   1.597
  571SOL    HW1 2612   2.426   4.578   1.646
  571SOL    HW2 2613   2.564   4.491   1.639
  572SOL     OW 2614   2.368   1.070   4.770
  572SOL    HW1 2615   2.377   1.003   4.697
  572SOL    HW2 2616   2.376   1.162   4.733
  573SOL     OW 2617   0.670   1.066   5.248
  573SOL    HW1 2618   0.696   1.054   5.344
  573SOL    HW2 2619   0.734   1.016   5.190
  574SOL     OW 2620   2.089   1.263   5.844
  574SOL    HW1 2621   2.038   1.325   5.784
  574SOL    HW2 2622   2.026   1.203   5.892
  575SOL     OW 2623   3.986   4.158   6.897
  575SOL    HW1 2624   3.916   4.090   6.876
  575SOL    HW2 2625   4.056   4.117   6.954
  576SOL     OW 2626   1.748   1.362   2.995
  576SOL    HW1 2627   1.690   1.440   2.972
  576SOL    HW2 2628   1.699   1.277   2.973
  577SOL     OW 2629   0.181   1.049   1.831
  577SOL    HW1 2630   0.248   0.978   1.853
  577SOL    HW2 2631   0.206   1.134   1.879
  578SOL     OW 2632   3.491   6.896   7.013
  578SOL    HW1 2633   3.453   6.817   6.965
  578SOL    HW2 2634   3.584   6.876   0.016
  579SOL     OW 2635   1.597   3.531   1.757
  579SOL    HW1 2636   1.677   3.542   1.816
  579SOL    HW2 2637   1.583   3.433   1.738
  580SOL     OW 2638   4.578   5.138   4.801
  580SOL    HW1 2639   4.479   5.146   4.816
  580SOL    HW2 2640   4.609   5.049   4.836
  581SOL     OW 2641   1.933   2.531   4.407
  581SOL    HW1 2642   1.942   2.550   4.505
  581SOL    HW2 2643   2.024   2.531   4.365
  582SOL     OW 2644   5.918   4.958   4.298
  582SOL    HW1 2645   5.948   4.882   4.239
  582SOL    HW2 2646   5.989   5.028   4.301
  583SOL     OW 2647   3.754   6.134   5.808
  583SOL    HW1 2648   3.671   6.081   5.823
  583SOL    HW2 2649   3.834   6.077   5.826
  584SOL     OW 2650   3.925   0.504   5.193
  584SOL    HW1 2651   3.998   0.562   5.157
  584SOL    HW2 2652   3.895   0.538   5.282
  585SOL     OW 2653   3.721   6.857   1.532
  585SOL    HW1 2654   3.642   6.892   1.482
  585SOL    HW2 2655   3.783   6.812   1.468
  586SOL     OW 2656   3.861   0.285   0.787
  586SOL    HW1 2657   3.914   0.321   0.710
  586SOL    HW2 2658   3.856   0.354   0.859
  587SOL     OW 2659   4.645   1.630   2.287
  587SOL    HW1 2660   4.683   1.640   2.195
  587SOL    HW2 2661   4.687   1.552   2.332
  588SOL     OW 2662   1.803   4.431   2.840
  588SOL    HW1 2663   1.854   4.409   2.757
  588SOL    HW2 2664   1.802   4.351   2.901
  589SOL     OW 2665   3.230   5.501   0.621
  589SOL    HW1 2666   3.293   5.471   0.693
  589SOL    HW2 2667   3.282   5.539   0.545
  590SOL     OW 2668   3.027   2.003   0.153
  590SOL    HW1 2669   3.123   1.997   0.127
  590SOL    HW2 2670   2.969   1.989   0.072
  591SOL     OW 2671   2.836   6.314   3.840
  591SOL    HW1 2672   2.933   6.327   3.817
  591SOL    HW2 2673   2.796   6.247   3.778
  592SOL     OW 2674   4.048   2.124   4.785
  592SOL    HW1 2675   3.998   2.131   4.699
  592SOL    HW2 2676   3.993   2.073   4.851
  593SOL     OW 2677   2.091   1.749   6.750
  593SOL    HW1 2678   2.092   1.831   6.806
  593SOL    HW2 2679   2.157   1.683   6.785
  594SOL     OW 2680   4.285   0.957   2.825
  594SOL    HW1 2681   4.268   0.956   2.924
  594SOL    HW2 2682   4.322   0.869   2.796
  595SOL     OW 2683   6.385   5.026   3.027
  595SOL    HW1 2684   6.452   5.090   2.990
  595SOL    HW2 2685   6.292   5.062   3.013
  596SOL     OW 2686   6.479   4.964   4.276
  596SOL    HW1 2687   6.565   4.973   4.225
  596SOL    HW2 2688   6.489   4.892   4.344
  597SOL     OW 2689   3.354   1.350   6.667
  597SOL    HW1 2690   3.329   1.254   6.683
  597SOL    HW2 2691   3.449   1.355   6.637
  598SOL     OW 2692   3.162   4.045   3.597
  598SOL    HW1 2693   3.177   4.119   3.662
  598SOL    HW2 2694   3.134   3.962   3.646
  599SOL     OW 2695   1.770   5.167   1.595
  599SOL    HW1 2696   1.807   5.189   1.685
  599SOL    HW2 2697   1.677   5.202   1.587
  600SOL     OW 2698   6.993   3.487   5.285
  600SOL    HW1 2699   6.895   3.473   5.293
  600SOL    HW2 2700   0.014   3.399   5.288
  601SOL     OW 2701   0.402   6.367   5.848
  601SOL    HW1 2702   0.482   6.412   5.886
  601SOL    HW2 2703   0.428   6.277   5.812
  602SOL     OW 2704   1.483   0.385   3.569
  602SOL    HW1 2705   1.509   0.292   3.543
  602SOL    HW2 2706   1.561   0.429   3.614
  603SOL     OW 2707   1.949   1.509   4.257
  603SOL    HW1 2708   2.018   1.492   4.327
  603SOL    HW2 2709   1.874   1.444   4.267
  604SOL     OW 2710   5.935   3.225   0.856
  604SOL    HW1 2711   5.943   3.256   0.761
  604SOL    HW2 2712   5.954   3.127   0.861
  605SOL     OW 2713   6.394   6.559   1.384
  605SOL    HW1 2714   6.429   6.515   1.467
  605SOL    HW2 2715   6.349   6.491   1.327
  606SOL     OW 2716   4.147   6.657   5.070
  606SOL    HW1 2717   4.051   6.634   5.085
  606SOL    HW2 2718   4.153   6.740   5.014
  607SOL     OW 2719   1.953   3.093   5.902
  607SOL    HW1 2720   1.886   3.062   5.835
  607SOL    HW2 2721   2.006   3.015   5.936
  608SOL     OW 2722   3.212   1.052   5.937
  608SOL    HW1 2723   3.219   1.040   5.838
  608SOL    HW2 2724   3.301   1.033   5.980
  609SOL     OW 2725   3.789   3.001   2.228
  609SOL    HW1 2726   3.730   2.927   2.196
  609SOL    HW2 2727   3.881   2.987   2.193
  610SOL     OW 2728   4.598   3.564   1.643
  610SOL    HW1 2729   4.651   3.516   1.712
  610SOL    HW2 2730   4.620   3.526   1.553
  611SOL     OW 2731   4.064   1.313   3.332
  611SOL    HW1 2732   4.002   1.334   3.257
  611SOL    HW2 2733   4.011   1.277   3.410
  612SOL     OW 2734   4.885   4.931   3.527
  612SOL    HW1 2735   4.869   4.833   3.516
  612SOL    HW2 2736   4.958   4.945   3.595
  613SOL     OW 2737   3.649   4.608   5.934
  613SOL    HW1 2738   3.699   4.618   5.848
  613SOL    HW2 2739   3.710   4.628   6.011
  614SOL     OW 2740   2.609   6.137   5.937
  614SOL    HW1 2741   2.652   6.151   6.026
  614SOL    HW2 2742   2.521   6.186   5.934
  615SOL     OW 2743   0.315   4.576   2.749
  615SOL    HW1 2744   0.355   4.667   2.741
  615SOL    HW2 2745   0.385   4.512   2.782
  616SOL     OW 2746   6.168   3.053   3.751
  616SOL    HW1 2747   6.222   3.128   3.790
  616SOL    HW2 2748   6.180   2.971   3.807
  617SOL     OW 2749   3.227   6.707   5.996
  617SOL    HW1 2750   3.293   6.651   5.945
  617SOL    HW2 2751   3.152   6.650   6.027
  618SOL     OW 2752   1.642   1.105   3.174
  618SOL    HW1 2753   1.621   1.027   3.233
  618SOL    HW2 2754   1.576   1.109   3.099
  619SOL     OW 2755   1.002   2.107   6.969
  619SOL    HW1 2756   1.042   2.194   6.941
  619SOL    HW2 2757   1.039   2.034   6.913
  620SOL     OW 2758   4.296   3.485   1.358
  620SOL    HW1 2759   4.298   3.583   1.343
  620SOL    HW2 2760   4.242   3.441   1.287
  621SOL     OW 2761   0.442   5.533   1.184
  621SOL    HW1 2762   0.373   5.544   1.112
  621SOL    HW2 2763   0.528   5.574   1.154
  622SOL     OW 2764   0.823   0.883   6.408
  622SOL    HW1 2765   0.836   0.810   6.341
  622SOL    HW2 2766   0.912   0.907   6.448
  623SOL     OW 2767   0.445   5.030   5.393
  623SOL    HW1 2768   0.527   5.080   5.419
  623SOL    HW2 2769   0.377   5.037   5.466
  624SOL     OW 2770   1.222   1.633   1.096
  624SOL    HW1 2771   1.226   1.627   0.996
  624SOL    HW2 2772   1.292   1.574   1.136
  625SOL     OW 2773   1.761   1.604   2.828
  625SOL    HW1 2774   1.837   1.631   2.887
  625SOL    HW2 2775   1.753   1.669   2.752
  626SOL     OW 2776   3.172   6.794   4.689
  626SOL    HW1 2777   3.162   6.709   4.740
  626SOL    HW2 2778   3.229   6.779   4.608
  627SOL     OW 2779   5.223   0.103   0.215
  627SOL    HW1 2780   5.270   0.102   0.127
  627SOL    HW2 2781   5.124   0.103   0.200
  628SOL     OW 2782   5.469   4.111   3.537
  628SOL    HW1 2783   5.549   4.120   3.478
  628SOL    HW2 2784   5.498   4.111   3.633
  629SOL     OW 2785   1.598   6.692   0.845
  629SOL    HW1 2786   1.598   6.785   0.807
  629SOL    HW2 2787   1.513   6.646   0.820
  630SOL     OW 2788   3.558   2.017   1.357
  630SOL    HW1 2789   3.458   2.022   1.363
  630SOL    HW2 2790   3.590   2.065   1.275
  631SOL     OW 2791   2.421   0.133   4.930
  631SOL    HW1 2792   2.449   0.164   5.021
  631SOL    HW2 2793   2.473   0.051   4.905
  632SOL     OW 2794   2.823   0.559   0.927
  632SOL    HW1 2795   2.767   0.584   1.006
  632SOL    HW2 2796   2.909   0.520   0.959
  633SOL     OW 2797   2.461   6.498   5.242
  633SOL    HW1 2798   2.421   6.423   5.294
  633SOL    HW2 2799   2.559   6.504   5.262
  634SOL     OW 2800   2.729   5.635   2.072
  634SOL    HW1 2801   2.827   5.651   2.060
  634SOL    HW2 2802   2.678   5.715   2.042
  635SOL     OW 2803   2.691   0.585   2.690
  635SOL    HW1 2804   2.671   0.681   2.673
  635SOL    HW2 2805   2.761   0.554   2.625
  636SOL     OW 2806   4.991   5.490   0.065
  636SOL    HW1 2807   4.954   5.404   0.102
  636SOL    HW2 2808   5.089   5.480   0.049
  637SOL     OW 2809   5.885   4.318   6.980
  637SOL    HW1 2810   5.892   4.413   6.948
  637SOL    HW2 2811   5.846   4.261   6.907
  638SOL     OW 2812   5.267   1.105   2.639
  638SOL    HW1 2813   5.312   1.187   2.602
  638SOL    HW2 2814   5.278   1.030   2.573
  639SOL     OW 2815   4.870   3.999   2.541
  639SOL    HW1 2816   4.837   4.087   2.508
  639SOL    HW2 2817   4.845   3.927   2.476
  640SOL     OW 2818   2.608   3.278   5.867
  640SOL    HW1 2819   2.519   3.301   5.905
  640SOL    HW2 2820   2.603   3.281   5.767
  641SOL     OW 2821   0.354   5.914   5.953
  641SOL    HW1 2822   0.335   5.816   5.953
  641SOL    HW2 2823   0.281   5.962   5.903
  642SOL     OW 2824   1.302   4.881   6.128
  642SOL    HW1 2825   1.321   4.947   6.055
  642SOL    HW2 2826   1.234   4.815   6.097
  643SOL     OW 2827   6.157   6.043   4.945
  643SOL    HW1 2828   6.191   5.997   5.027
  643SOL    HW2 2829   6.211   6.126   4.929
  644SOL     OW 2830   2.667   5.743   2.358
  644SOL    HW1 2831   2.664   5.706   2.265
  644SOL    HW2 2832   2.581   5.724   2.405
  645SOL     OW 2833   6.811   2.891   2.905
  645SOL    HW1 2834   6.866   2.961   2.952
  645SOL    HW2 2835   6.871   2.819   2.871
  646SOL     OW 2836   1.223   2.262   4.553
  646SOL    HW1 2837   1.231   2.293   4.458
  646SOL    HW2 2838   1.150   2.194   4.559
  647SOL     OW 2839   5.498   2.832   0.260
  647SOL    HW1 2840   5.490   2.836   0.359
  647SOL    HW2 2841   5.407   2.841   0.218
  648SOL     OW 2842   4.675   2.135   3.761
  648SOL    HW1 2843   4.732   2.189   3.699
  648SOL    HW2 2844   4.688   2.166   3.855
  649SOL     OW 2845   4.464   4.494   2.254
  649SOL    HW1 2846   4.475   4.440   2.170
  649SOL    HW2 2847   4.543   4.478   2.314
  650SOL     OW 2848   5.193   3.581   0.608
  650SOL    HW1 2849   5.180   3.596   0.706
  650SOL    HW2 2850   5.291   3.569   0.589
  651SOL     OW 2851   0.799   6.533   6.428
  651SOL    HW1 2852   0.875   6.468   6.430
  651SOL    HW2 2853   0.721   6.491   6.381
  652SOL     OW 2854   5.120   1.639   2.339
  652SOL    HW1 2855   5.118   1.733   2.374
  652SOL    HW2 2856   5.211   1.619   2.303
  653SOL     OW 2857   3.502   4.954   2.943
  653SOL    HW1 2858   3.561   4.873   2.950
  653SOL    HW2 2859   3.439   4.955   3.021
  654SOL     OW 2860   6.592   5.550   6.678
  654SOL    HW1 2861   6.572   5.455   6.701
  654SOL    HW2 2862   6.604   5.559   6.580
  655SOL     OW 2863   7.021   1.111   7.012
  655SOL    HW1 2864   0.060   1.061   6.956
  655SOL    HW2 2865   6.969   1.174   6.955
  656SOL     OW 2866   2.120   5.972   1.666
  656SOL    HW1 2867   2.059   5.893   1.664
  656SOL    HW2 2868   2.084   6.040   1.730
  657SOL     OW 2869   3.666   1.293   6.690
  657SOL    HW1 2870   3.609   1.323   6.613
  657SOL    HW2 2871   3.649   1.352   6.769
  658SOL     OW 2872   4.048   5.187   6.103
  658SOL    HW1 2873   4.086   5.112   6.049
  658SOL    HW2 2874   4.031   5.266   6.043
  659SOL     OW 2875   3.308   0.117   5.877
  659SOL    HW1 2876   3.258   0.155   5.799
  659SOL    HW2 2877   3.277   0.161   5.961
  660SOL     OW 2878   3.676   5.804   3.453
  660SOL    HW1 2879   3.736   5.817   3.374
  660SOL    HW2 2880   3.586   5.774   3.422
  661SOL     OW 2881   6.122   5.963   2.675
  661SOL    HW1 2882   6.213   5.948   2.636
  661SOL    HW2 2883   6.131   6.007   2.764
  662SOL     OW 2884   3.816   1.371   0.718
  662SOL    HW1 2885   3.906   1.413   0.712
  662SOL    HW2 2886   3.826   1.271   0.720
  663SOL     OW 2887   1.855   4.732   4.692
  663SOL    HW1 2888   1.916   4.811   4.682
  663SOL    HW2 2889   1.889   4.672   4.765
  664SOL     OW 2890   5.464   0.624   6.703
  664SOL    HW1 2891   5.563   0.617   6.715
  664SOL    HW2 2892   5.432   0.713   6.734
  665SOL     OW 2893   1.520   4.333   2.178
  665SOL    HW1 2894   1.551   4.401   2.111
  665SOL    HW2 2895   1.420   4.335   2.184
  666SOL     OW 2896   4.379   1.347   1.102
  666SOL    HW1 2897   4.339   1.432   1.135
  666SOL    HW2 2898   4.317   1.271   1.122
  667SOL     OW 2899   1.071   0.059   2.297
  667SOL    HW1 2900   1.138   0.007   2.349
  667SOL    HW2 2901   1.065   0.022   2.204
  668SOL     OW 2902   5.501   3.770   0.786
  668SOL    HW1 2903   5.443   3.832   0.839
  668SOL    HW2 2904   5.583   3.818   0.757
  669SOL     OW 2905   4.858   1.913   2.305
  669SOL    HW1 2906   4.772   1.881   2.345
  669SOL    HW2 2907   4.860   1.891   2.207
  670SOL     OW 2908   3.416   2.114   3.304
  670SOL    HW1 2909   3.409   2.126   3.403
  670SOL    HW2 2910   3.508   2.136   3.274
  671SOL     OW 2911   2.488   6.209   1.563
  671SOL    HW1 2912   2.535   6.276   1.620
  671SOL    HW2 2913   2.389   6.223   1.571
  672SOL     OW 2914   1.126   6.943   2.568
  672SOL    HW1 2915   1.118   7.003   2.648
  672SOL    HW2 2916   1.093   6.852   2.591
  673SOL     OW 2917   5.822   6.698   6.959
  673SOL    HW1 2918   5.901   6.653   7.001
  673SOL    HW2 2919   5.852   6.778   6.906
  674SOL     OW 2920   5.343   0.706   3.998
  674SOL    HW1 2921   5.442   0.714   3.989
  674SOL    HW2 2922   5.302   0.702   3.907
  675SOL     OW 2923   0.398   4.029   3.378
  675SOL    HW1 2924   0.309   3.984   3.381
  675SOL    HW2 2925   0.411   4.081   3.463
  676SOL     OW 2926   2.388   6.643   5.906
  676SOL    HW1 2927   2.455   6.584   5.862
  676SOL    HW2 2928   2.296   6.616   5.877
  677SOL     OW 2929   5.547   1.704   1.030
  677SOL    HW1 2930   5.486   1.769   0.985
  677SOL    HW2 2931   5.494   1.648   1.094
  678SOL     OW 2932   0.739   4.989   3.718
  678SOL    HW1 2933   0.834   4.968   3.695
  678SOL    HW2 2934   0.694   4.907   3.752
  679SOL     OW 2935   4.605   1.938   5.425
  679SOL    HW1 2936   4.569   2.004   5.359
  679SOL    HW2 2937   4.576   1.845   5.399
  680SOL     OW 2938   6.421   6.224   4.133
  680SOL    HW1 2939   6.502   6.205   4.188
  680SOL    HW2 2940   6.350   6.265   4.191
  681SOL     OW 2941   4.852   4.512   3.057
  681SOL    HW1 2942   4.813   4.501   2.965
  681SOL    HW2 2943   4.802   4.453   3.121
  682SOL     OW 2944   0.052   1.338   2.811
  682SOL    HW1 2945   0.101   1.423   2.831
  682SOL    HW2 2946   6.983   1.348   2.838
  683SOL     OW 2947   3.476   4.260   1.139
  683SOL    HW1 2948   3.422   4.177   1.146
  683SOL    HW2 2949   3.572   4.236   1.123
  684SOL     OW 2950   6.366   1.263   5.478
  684SOL    HW1 2951   6.458   1.225   5.487
  684SOL    HW2 2952   6.316   1.214   5.407
  685SOL     OW 2953   2.718   6.775   2.787
  685SOL    HW1 2954   2.636   6.759   2.732
  685SOL    HW2 2955   2.746   6.689   2.830
  686SOL     OW 2956   3.781   0.536   4.964
  686SOL    HW1 2957   3.829   0.498   5.043
  686SOL    HW2 2958   3.767   0.634   4.977
  687SOL     OW 2959   0.042   1.608   3.383
  687SOL    HW1 2960   6.998   1.572   3.444
  687SOL    HW2 2961   0.131   1.568   3.407
  688SOL     OW 2962   5.918   1.475   6.945
  688SOL    HW1 2963   6.006   1.502   6.907
  688SOL    HW2 2964   5.922   1.480   0.018
  689SOL     OW 2965   1.734   5.624   6.828
  689SOL    HW1 2966   1.833   5.633   6.820
  689SOL    HW2 2967   1.692   5.640   6.738
  690SOL     OW 2968   5.579   3.679   3.426
  690SOL    HW1 2969   5.528   3.755   3.387
  690SOL    HW2 2970   5.560   3.672   3.524
  691SOL     OW 2971   5.927   1.423   1.414
  691SOL    HW1 2972   5.844   1.380   1.449
  691SOL    HW2 2973   5.926   1.422   1.314
  692SOL     OW 2974   1.776   0.203   4.921
  692SOL    HW1 2975   1.754   0.280   4.980
  692SOL    HW2 2976   1.873   0.205   4.897
  693SOL     OW 2977   5.888   5.578   3.103
  693SOL    HW1 2978   5.882   5.611   3.197
  693SOL    HW2 2979   5.817   5.621   3.047
  694SOL     OW 2980   4.423   5.894   5.142
  694SOL    HW1 2981   4.447   5.809   5.096
  694SOL    HW2 2982   4.482   5.907   5.222
  695SOL     OW 2983   4.494   6.967   3.935
  695SOL    HW1 2984   4.585   6.997   3.906
  695SOL    HW2 2985   4.492   6.868   3.942
  696SOL     OW 2986   5.657   4.096   2.733
  696SOL    HW1 2987   5.600   4.083   2.652
  696SOL    HW2 2988   5.754   4.085   2.708
  697SOL     OW 2989   1.049   6.203   2.240
  697SOL    HW1 2990   1.071   6.129   2.304
  697SOL    HW2 2991   1.040   6.165   2.148
  698SOL     OW 2992   5.667   6.253   6.648
  698SOL    HW1 2993   5.736   6.180   6.654
  698SOL    HW2 2994   5.577   6.213   6.634
  699SOL     OW 2995   3.172   3.316   1.164
  699SOL    HW1 2996   3.125   3.229   1.154
  699SOL    HW2 2997   3.119   3.388   1.118
  700SOL     OW 2998   4.008   0.034   4.712
  700SOL    HW1 2999   4.019   0.133   4.721
  700SOL    HW2 3000   3.920   0.014   4.668
  701SOL     OW 3001   4.868   5.327   1.644
  701SOL    HW1 3002   4.918   5.313   1.559
  701SOL    HW2 3003   4.770   5.329   1.624
  702SOL     OW 3004   3.882   0.935   4.619
  702SOL    HW1 3005   3.977   0.935   4.588
  702SOL    HW2 3006   3.821   0.943   4.540
  703SOL     OW 3007   2.608   2.532   6.762
  703SOL    HW1 3008   2.524   2.569   6.722
  703SOL    HW2 3009   2.687   2.568   6.712
  704SOL     OW 3010   3.436   1.906   5.567
  704SOL    HW1 3011   3.473   1.994   5.538
  704SOL    HW2 3012   3.512   1.844   5.590
  705SOL     OW 3013   0.197   6.873   5.048
  705SOL    HW1 3014   0.268   6.910   4.988
  705SOL    HW2 3015   0.222   6.781   5.076
  706SOL     OW 3016   3.788   1.344   4.358
  706SOL    HW1 3017   3.783   1.253   4.399
  706SOL    HW2 3018   3.697   1.385   4.356
  707SOL     OW 3019   2.948   5.172   4.332
  707SOL    HW1 3020   3.032   5.197   4.285
  707SOL    HW2 3021   2.934   5.234   4.410
  708SOL     OW 3022   5.276   6.168   3.916
  708SOL    HW1 3023   5.273   6.128   4.007
  708SOL    HW2 3024   5.210   6.120   3.857
  709SOL     OW 3025   2.317   0.490   1.092
  709SOL    HW1 3026   2.357   0.425   1.027
  709SOL    HW2 3027   2.230   0.455   1.125
  710SOL     OW 3028   5.011   3.338   1.910
  710SOL    HW1 3029   4.957   3.375   1.835
  710SOL    HW2 3030   4.964   3.259   1.949
  711SOL     OW 3031   0.221   1.590   0.447
  711SOL    HW1 3032   0.221   1.569   0.545
  711SOL    HW2 3033   0.133   1.565   0.407
  712SOL     OW 3034   4.765   4.112   6.909
  712SOL    HW1 3035   4.707   4.184   6.947
  712SOL    HW2 3036   4.776   4.039   6.976
  713SOL     OW 3037   4.554   3.420   5.660
  713SOL    HW1 3038   4.549   3.392   5.565
  713SOL    HW2 3039   4.648   3.411   5.693
  714SOL     OW 3040   5.487   5.847   3.362
  714SOL    HW1 3041   5.577   5.833   3.404
  714SOL    HW2 3042   5.476   5.784   3.286
  715SOL     OW 3043   6.346   4.583   5.262
  715SOL    HW1 3044   6.406   4.659   5.286
  715SOL    HW2 3045   6.369   4.549   5.171
  716SOL     OW 3046   2.969   2.248   3.455
  716SOL    HW1 3047   2.955   2.203   3.543
  716SOL    HW2 3048   2.885   2.244   3.401
  717SOL     OW 3049   5.114   4.894   4.170
  717SOL    HW1 3050   5.125   4.992   4.152
  717SOL    HW2 3051   5.058   4.882   4.253
  718SOL     OW 3052   5.147   2.372   5.216
  718SOL    HW1 3053   5.115   2.409   5.303
  718SOL    HW2 3054   5.231   2.319   5.232
  719SOL     OW 3055   5.082   6.842   3.907
  719SOL    HW1 3056   5.014   6.915   3.917
  719SOL    HW2 3057   5.043   6.769   3.851
  720SOL     OW 3058   2.672   0.990   1.043
  720SOL    HW1 3059   2.750   1.038   1.002
  720SOL    HW2 3060   2.593   0.997   0.983
  721SOL     OW 3061   6.849   2.390   2.010
  721SOL    HW1 3062   6.891   2.443   2.083
  721SOL    HW2 3063   6.752   2.413   2.004
  722SOL     OW 3064   4.857   5.898   0.484
  722SOL    HW1 3065   4.894   5.954   0.558
  722SOL    HW2 3066   4.932   5.869   0.424
  723SOL     OW 3067   2.268   0.523   4.650
  723SOL    HW1 3068   2.220   0.564   4.728
  723SOL    HW2 3069   2.341   0.463   4.685
  724SOL     OW 3070   0.918   2.047   4.157
  724SOL    HW1 3071   0.844   1.993   4.198
  724SOL    HW2 3072   0.893   2.070   4.062
  725SOL     OW 3073   1.838   4.197   2.967
  725SOL    HW1 3074   1.880   4.167   3.052
  725SOL    HW2 3075   1.739   4.186   2.974
  726SOL     OW 3076   1.685   3.630   1.010
  726SOL    HW1 3077   1.708   3.619   1.107
  726SOL    HW2 3078   1.715   3.550   0.959
  727SOL     OW 3079   3.725   5.445   4.784
  727SOL    HW1 3080   3.665   5.381   4.831
  727SOL    HW2 3081   3.740   5.414   4.690
  728SOL     OW 3082   6.596   3.330   3.772
  728SOL    HW1 3083   6.596   3.372   3.681
  728SOL    HW2 3084   6.674   3.268   3.781
  729SOL     OW 3085   0.220   4.186   0.758
  729SOL    HW1 3086   0.231   4.246   0.838
  729SOL    HW2 3087   0.250   4.093   0.782
  730SOL     OW 3088   3.760   0.925   3.235
  730SOL    HW1 3089   3.775   1.019   3.205
  730SOL    HW2 3090   3.670   0.916   3.276
  731SOL     OW 3091   4.283   5.025   4.616
  731SOL    HW1 3092   4.255   5.018   4.712
  731SOL    HW2 3093   4.325   5.114   4.599
  732SOL     OW 3094   3.736   1.118   5.294
  732SOL    HW1 3095   3.746   1.211   5.257
  732SOL    HW2 3096   3.817   1.064   5.269
  733SOL     OW 3097   6.468   5.624   3.161
  733SOL    HW1 3098   6.504   5.532   3.174
  733SOL    HW2 3099   6.368   5.621   3.155
  734SOL     OW 3100   6.339   6.927   2.651
  734SOL    HW1 3101   6.252   6.888   2.684
  734SOL    HW2 3102   6.415   6.872   2.684
  735SOL     OW 3103   4.792   0.166   2.080
  735SOL    HW1 3104   4.734   0.087   2.101
  735SOL    HW2 3105   4.734   0.243   2.053
  736SOL     OW 3106   2.034   1.288   3.885
  736SOL    HW1 3107   2.074   1.272   3.795
  736SOL    HW2 3108   2.041   1.385   3.909
  737SOL     OW 3109   3.433   0.922   6.332
  737SOL    HW1 3110   3.429   0.887   6.426
  737SOL    HW2 3111   3.495   0.864   6.278
  738SOL     OW 3112   2.370   4.667   0.455
  738SOL    HW1 3113   2.380   4.733   0.530
  738SOL    HW2 3114   2.434   4.591   0.469
  739SOL     OW 3115   2.412   6.728   3.485
  739SOL    HW1 3116   2.491   6.777   3.521
  739SOL    HW2 3117   2.336   6.793   3.472
  740SOL     OW 3118   5.052   3.220   2.968
  740SOL    HW1 3119   4.993   3.184   2.896
  740SOL    HW2 3120   5.121   3.281   2.928
  741SOL     OW 3121   2.896   0.646   2.922
  741SOL    HW1 3122   2.843   0.680   3.000
  741SOL    HW2 3123   2.881   0.547   2.913
  742SOL     OW 3124   2.303   6.266   1.927
  742SOL    HW1 3125   2.230   6.222   1.875
  742SOL    HW2 3126   2.377   6.291   1.864
  743SOL     OW 3127   0.388   6.458   3.002
  743SOL    HW1 3128   0.412   6.376   2.950
  743SOL    HW2 3129   0.385   6.537   2.941
  744SOL     OW 3130   5.186   1.993   6.915
  744SOL    HW1 3131   5.255   2.028   6.978
  744SOL    HW2 3132   5.102   2.047   6.924
  745SOL     OW 3133   2.084   6.821   4.724
  745SOL    HW1 3134   2.123   6.754   4.788
  745SOL    HW2 3135   2.094   6.787   4.631
  746SOL     OW 3136   0.420   5.067   5.136
  746SOL    HW1 3137   0.426   5.165   5.155
  746SOL    HW2 3138   0.407   5.017   5.222
  747SOL     OW 3139   4.831   5.762   2.503
  747SOL    HW1 3140   4.813   5.678   2.451
  747SOL    HW2 3141   4.813   5.842   2.445
  748SOL     OW 3142   5.477   5.006   1.600
  748SOL    HW1 3143   5.546   5.049   1.658
  748SOL    HW2 3144   5.398   5.067   1.592
  749SOL     OW 3145   4.981   4.210   5.018
  749SOL    HW1 3146   4.981   4.122   4.970
  749SOL    HW2 3147   4.967   4.284   4.952
  750SOL     OW 3148   2.717   1.793   2.151
  750SOL    HW1 3149   2.665   1.878   2.164
  750SOL    HW2 3150   2.657   1.721   2.117
  751SOL     OW 3151   3.699   0.473   0.521
  751SOL    HW1 3152   3.715   0.515   0.432
  751SOL    HW2 3153   3.654   0.385   0.508
  752SOL     OW 3154   3.579   2.634   5.409
  752SOL    HW1 3155   3.519   2.642   5.330
  752SOL    HW2 3156   3.533   2.671   5.490
  753SOL     OW 3157   3.315   3.836   3.971
  753SOL    HW1 3158   3.248   3.766   3.993
  753SOL    HW2 3159   3.289   3.923   4.014
  754SOL     OW 3160   5.482   0.507   0.074
  754SOL    HW1 3161   5.530   0.468   0.153
  754SOL    HW2 3162   5.477   0.439   0.001
  755SOL     OW 3163   4.447   4.322   5.338
  755SOL    HW1 3164   4.376   4.367   5.285
  755SOL    HW2 3165   4.443   4.223   5.323
  756SOL     OW 3166   2.336   4.918   6.011
  756SOL    HW1 3167   2.311   4.964   6.096
  756SOL    HW2 3168   2.275   4.948   5.938
  757SOL     OW 3169   2.334   6.423   2.144
  757SOL    HW1 3170   2.323   6.398   2.048
  757SOL    HW2 3171   2.427   6.402   2.174
  758SOL     OW 3172   4.789   0.696   4.254
  758SOL    HW1 3173   4.879   0.739   4.253
  758SOL    HW2 3174   4.797   0.602   4.223
  759SOL     OW 3175   0.775   3.533   3.745
  759SOL    HW1 3176   0.728   3.608   3.793
  759SOL    HW2 3177   0.740   3.526   3.652
  760SOL     OW 3178   6.845   5.080   3.153
  760SOL    HW1 3179   6.866   5.078   3.251
  760SOL    HW2 3180   6.746   5.074   3.140
  761SOL     OW 3181   4.591   4.920   6.165
  761SOL    HW1 3182   4.670   4.973   6.131
  761SOL    HW2 3183   4.513   4.981   6.175
  762SOL     OW 3184   3.409   6.280   3.512
  762SOL    HW1 3185   3.385   6.352   3.446
  762SOL    HW2 3186   3.335   6.270   3.578
  763SOL     OW 3187   5.619   0.396   0.352
  763SOL    HW1 3188   5.528   0.407   0.392
  763SOL    HW2 3189   5.688   0.403   0.424
  764SOL     OW 3190   5.453   6.560   5.680
  764SOL    HW1 3191   5.370   6.540   5.627
  764SOL    HW2 3192   5.482   6.479   5.730
  765SOL     OW 3193   6.566   6.998   0.420
  765SOL    HW1 3194   6.557   6.903   0.450
  765SOL    HW2 3195   6.660   0.002   0.434
  766SOL     OW 3196   2.669   2.075   4.286
  766SOL    HW1 3197   2.725   2.108   4.362
  766SOL    HW2 3198   2.709   2.105   4.199
  767SOL     OW 3199   6.482   5.176   4.450
  767SOL    HW1 3200   6.429   5.113   4.395
  767SOL    HW2 3201   6.572   5.189   4.409
  768SOL     OW 3202   1.543   5.001   3.125
  768SOL    HW1 3203   1.562   5.034   3.218
  768SOL    HW2 3204   1.625   4.956   3.089
  769SOL     OW 3205   3.266   2.018   5.742
  769SOL    HW1 3206   3.181   2.032   5.691
  769SOL    HW2 3207   3.328   1.961   5.687
  770SOL     OW 3208   1.340   5.072   5.916
  770SOL    HW1 3209   1.371   5.011   5.843
  770SOL    HW2 3210   1.270   5.134   5.879
  771SOL     OW 3211   1.377   4.874   2.897
  771SOL    HW1 3212   1.338   4.953   2.943
  771SOL    HW2 3213   1.384   4.798   2.963
  772SOL     OW 3214   5.888   4.195   0.406
  772SOL    HW1 3215   5.884   4.239   0.496
  772SOL    HW2 3216   5.983   4.189   0.376
  773SOL     OW 3217   1.991   3.990   3.884
  773SOL    HW1 3218   2.011   3.991   3.982
  773SOL    HW2 3219   1.901   3.950   3.869
  774SOL     OW 3220   2.436   0.739   3.319
  774SOL    HW1 3221   2.522   0.788   3.331
  774SOL    HW2 3222   2.453   0.652   3.272
  775SOL     OW 3223   1.312   4.680   3.122
  775SOL    HW1 3224   1.336   4.711   3.213
  775SOL    HW2 3225   1.269   4.589   3.128
  776SOL     OW 3226   2.517   5.313   5.929
  776SOL    HW1 3227   2.480   5.318   6.021
  776SOL    HW2 3228   2.607   5.356   5.927
  777SOL     OW 3229   2.352   3.711   6.015
  777SOL    HW1 3230   2.300   3.788   6.052
  777SOL    HW2 3231   2.299   3.666   5.944
  778SOL     OW 3232   2.931   5.709   7.019
  778SOL    HW1 3233   2.860   5.652   6.978
  778SOL    HW2 3234   3.015   5.701   6.964
  779SOL     OW 3235   6.015   2.851   2.668
  779SOL    HW1 3236   6.066   2.854   2.582
  779SOL    HW2 3237   6.039   2.767   2.718
  780SOL     OW 3238   6.734   2.339   4.874
  780SOL    HW1 3239   6.713   2.324   4.777
  780SOL    HW2 3240   6.683   2.417   4.908
  781SOL     OW 3241   0.235   4.778   6.664
  781SOL    HW1 3242   0.296   4.753   6.589
  781SOL    HW2 3243   0.146   4.734   6.650
  782SOL     OW 3244   1.818   3.275   4.848
  782SOL    HW1 3245   1.855   3.267   4.755
  782SOL    HW2 3246   1.719   3.267   4.845
  783SOL     OW 3247   6.361   4.987   6.959
  783SOL    HW1 3248   6.317   4.945   6.879
  783SOL    HW2 3249   6.444   5.034   6.930
  784SOL     OW 3250   2.201   5.981   0.541
  784SOL    HW1 3251   2.123   6.026   0.497
  784SOL    HW2 3252   2.173   5.947   0.631
  785SOL     OW 3253   0.549   1.177   3.937
  785SOL    HW1 3254   0.513   1.095   3.894
  785SOL    HW2 3255   0.478   1.248   3.937
  786SOL     OW 3256   5.935   0.423   4.198
  786SOL    HW1 3257   5.882   0.340   4.213
  786SOL    HW2 3258   6.025   0.398   4.162
  787SOL     OW 3259   2.179   6.932   1.144
  787SOL    HW1 3260   2.178   6.833   1.142
  787SOL    HW2 3261   2.153   6.969   1.055
  788SOL     OW 3262   2.007   2.662   1.819
  788SOL    HW1 3263   2.066   2.732   1.859
  788SOL    HW2 3264   2.006   2.581   1.879
  789SOL     OW 3265   4.190   4.771   2.752
  789SOL    HW1 3266   4.248   4.732   2.824
  789SOL    HW2 3267   4.244   4.780   2.668
  790SOL     OW 3268   0.667   2.954   2.030
  790SOL    HW1 3269   0.609   2.914   2.101
  790SOL    HW2 3270   0.755   2.981   2.070
  791SOL     OW 3271   2.661   6.856   4.088
  791SOL    HW1 3272   2.710   6.908   4.017
  791SOL    HW2 3273   2.565   6.846   4.060
  792SOL     OW 3274   2.255   0.220   0.473
  792SOL    HW1 3275   2.188   0.285   0.507
  792SOL    HW2 3276   2.305   0.261   0.397
  793SOL     OW 3277   2.503   6.220   4.332
  793SOL    HW1 3278   2.583   6.277   4.346
  793SOL    HW2 3279   2.531   6.128   4.307
  794SOL     OW 3280   3.052   3.173   2.535
  794SOL    HW1 3281   3.098   3.104   2.591
  794SOL    HW2 3282   2.998   3.233   2.594
  795SOL     OW 3283   4.723   0.779   5.904
  795SOL    HW1 3284   4.671   0.722   5.840
  795SOL    HW2 3285   4.693   0.760   5.997
  796SOL     OW 3286   0.394   2.461   0.450
  796SOL    HW1 3287   0.337   2.504   0.380
  796SOL    HW2 3288   0.414   2.526   0.523
  797SOL     OW 3289   3.463   6.921   1.086
  797SOL    HW1 3290   3.467   6.999   1.024
  797SOL    HW2 3291   3.368   6.891   1.096
  798SOL     OW 3292   5.054   5.659   1.375
  798SOL    HW1 3293   4.974   5.605   1.351
  798SOL    HW2 3294   5.064   5.662   1.474
  799SOL     OW 3295   2.643   2.590   5.839
  799SOL    HW1 3296   2.692   2.676   5.851
  799SOL    HW2 3297   2.695   2.530   5.778
  800SOL     OW 3298   5.543   2.708   3.360
  800SOL    HW1 3299   5.637   2.676   3.374
  800SOL    HW2 3300   5.485   2.674   3.433
  801SOL     OW 3301   2.067   5.999   6.493
  801SOL    HW1 3302   2.090   6.092   6.519
  801SOL    HW2 3303   2.092   5.984   6.397
  802SOL     OW 3304   4.956   2.196   6.840
  802SOL    HW1 3305   4.923   2.166   6.929
  802SOL    HW2 3306   4.903   2.276   6.810
  803SOL     OW 3307   2.386   1.540   4.378
  803SOL    HW1 3308   2.376   1.629   4.333
  803SOL    HW2 3309   2.379   1.552   4.477
  804SOL     OW 3310   5.366   0.461   2.786
  804SOL    HW1 3311   5.285   0.510   2.820
  804SOL    HW2 3312   5.348   0.363   2.785
  805SOL     OW 3313   3.366   0.719   3.803
  805SOL    HW1 3314   3.374   0.816   3.828
  805SOL    HW2 3315   3.298   0.675   3.862
  806SOL     OW 3316   3.039   6.357   5.208
  806SOL    HW1 3317   3.033   6.399   5.299
  806SOL    HW2 3318   3.085   6.420   5.145
  807SOL     OW 3319   1.194   6.458   6.054
  807SOL    HW1 3320   1.277   6.499   6.017
  807SOL    HW2 3321   1.114   6.509   6.023
  808SOL     OW 3322   5.338   2.530   6.099
  808SOL    HW1 3323   5.359   2.437   6.068
  808SOL    HW2 3324   5.423   2.583   6.103
  809SOL     OW 3325   2.816   5.542   0.278
  809SOL    HW1 3326   2.863   5.627   0.300
  809SOL    HW2 3327   2.877   5.481   0.227
  810SOL     OW 3328   3.245   3.810   0.340
  810SOL    HW1 3329   3.297   3.726   0.330
  810SOL    HW2 3330   3.270   3.874   0.268
  811SOL     OW 3331   6.435   5.452   4.547
  811SOL    HW1 3332   6.462   5.361   4.514
  811SOL    HW2 3333   6.470   5.465   4.640
  812SOL     OW 3334   0.894   3.809   1.729
  812SOL    HW1 3335   0.806   3.794   1.683
  812SOL    HW2 3336   0.968   3.772   1.672
  813SOL     OW 3337   1.626   1.329   5.618
  813SOL    HW1 3338   1.549   1.340   5.555
  813SOL    HW2 3339   1.699   1.278   5.572
  814SOL     OW 3340   0.530   4.428   2.827
  814SOL    HW1 3341   0.630   4.429   2.824
  814SOL    HW2 3342   0.499   4.438   2.921
  815SOL     OW 3343   4.280   1.964   4.777
  815SOL    HW1 3344   4.189   2.003   4.761
  815SOL    HW2 3345   4.273   1.864   4.779
  816SOL     OW 3346   5.830   3.971   6.796
  816SOL    HW1 3347   5.915   3.942   6.752
  816SOL    HW2 3348   5.771   3.891   6.810
  817SOL     OW 3349   0.646   4.779   6.881
  817SOL    HW1 3350   0.548   4.787   6.900
  817SOL    HW2 3351   0.692   4.863   6.909
  818SOL     OW 3352   6.998   2.346   4.928
  818SOL    HW1 3353   7.024   2.277   4.860
  818SOL    HW2 3354   6.901   2.368   4.917
  819SOL     OW 3355   4.750   3.236   1.740
  819SOL    HW1 3356   4.760   3.331   1.769
  819SOL    HW2 3357   4.731   3.179   1.819
  820SOL     OW 3358   2.569   2.155   5.411
  820SOL    HW1 3359   2.608   2.131   5.500
  820SOL    HW2 3360   2.488   2.099   5.393
  821SOL     OW 3361   5.286   3.091   6.921
  821SOL    HW1 3362   5.338   3.137   6.994
  821SOL    HW2 3363   5.327   3.113   6.832
  822SOL     OW 3364   0.188   4.669   3.402
  822SOL    HW1 3365   0.127   4.748   3.386
  822SOL    HW2 3366   0.199   4.619   3.316
  823SOL     OW 3367   1.551   2.828   4.731
  823SOL    HW1 3368   1.607   2.835   4.648
  823SOL    HW2 3369   1.471   2.770   4.712
  824SOL     OW 3370   5.129   0.136   6.469
  824SOL    HW1 3371   5.146   0.225   6.427
  824SOL    HW2 3372   5.052   0.144   6.532
  825SOL     OW 3373   6.141   6.421   0.936
  825SOL    HW1 3374   6.094   6.354   0.879
  825SOL    HW2 3375   6.079   6.451   1.010
  826SOL     OW 3376   3.436   2.074   0.305
  826SOL    HW1 3377   3.509   2.070   0.374
  826SOL    HW2 3378   3.348   2.083   0.351
  827SOL     OW 3379   3.625   3.533   5.097
  827SOL    HW1 3380   3.587   3.566   5.011
  827SOL    HW2 3381   3.660   3.611   5.149
  828SOL     OW 3382   0.241   6.597   6.209
  828SOL    HW1 3383   0.172   6.526   6.206
  828SOL    HW2 3384   0.200   6.686   6.188
  829SOL     OW 3385   3.770   3.570   2.242
  829SOL    HW1 3386   3.693   3.596   2.299
  829SOL    HW2 3387   3.793   3.474   2.257
  830SOL     OW 3388   6.687   4.349   6.838
  830SOL    HW1 3389   6.593   4.342   6.874
  830SOL    HW2 3390   6.751   4.319   6.908
  831SOL     OW 3391   5.084   1.018   2.148
  831SOL    HW1 3392   5.088   1.040   2.246
  831SOL    HW2 3393   4.989   1.011   2.119
  832SOL     OW 3394   3.019   1.579   4.951
  832SOL    HW1 3395   2.989   1.541   5.039
  832SOL    HW2 3396   3.118   1.567   4.943
  833SOL     OW 3397   4.142   2.855   0.298
  833SOL    HW1 3398   4.136   2.767   0.345
  833SOL    HW2 3399   4.051   2.895   0.290
  834SOL     OW 3400   5.721   2.604   0.616
  834SOL    HW1 3401   5.815   2.630   0.642
  834SOL    HW2 3402   5.689   2.666   0.544
  835SOL     OW 3403   0.125   0.196   4.618
  835SOL    HW1 3404   0.158   0.287   4.593
  835SOL    HW2 3405   0.043   0.204   4.675
  836SOL     OW 3406   4.924   0.855   4.952
  836SOL    HW1 3407   4.987   0.836   4.876
  836SOL    HW2 3408   4.834   0.819   4.930
  837SOL     OW 3409   1.630   0.392   0.081
  837SOL    HW1 3410   1.677   0.476   0.056
  837SOL    HW2 3411   1.540   0.415   0.120
  838SOL     OW 3412   1.045   5.699   3.618
  838SOL    HW1 3413   0.961   5.743   3.650
  838SOL    HW2 3414   1.085   5.646   3.693
  839SOL     OW 3415   1.319   2.245   0.569
  839SOL    HW1 3416   1.403   2.200   0.599
  839SOL    HW2 3417   1.295   2.317   0.634
  840SOL     OW 3418   4.541   5.149   0.705
  840SOL    HW1 3419   4.625   5.112   0.665
  840SOL    HW2 3420   4.510   5.090   0.779
  841SOL     OW 3421   3.034   5.166   6.761
  841SOL    HW1 3422   3.001   5.215   6.681
  841SOL    HW2 3423   3.073   5.079   6.734
  842SOL     OW 3424   4.196   5.224   0.989
  842SOL    HW1 3425   4.256   5.194   1.063
  842SOL    HW2 3426   4.126   5.154   0.973
  843SOL     OW 3427   1.351   0.300   2.194
  843SOL    HW1 3428   1.315   0.378   2.245
  843SOL    HW2 3429   1.387   0.233   2.258
  844SOL     OW 3430   6.842   0.493   1.730
  844SOL    HW1 3431   6.904   0.493   1.809
  844SOL    HW2 3432   6.783   0.412   1.735
  845SOL     OW 3433   3.274   1.839   2.673
  845SOL    HW1 3434   3.188   1.793   2.648
  845SOL    HW2 3435   3.326   1.859   2.590
  846SOL     OW 3436   2.844   2.088   0.819
  846SOL    HW1 3437   2.931   2.134   0.832
  846SOL    HW2 3438   2.790   2.093   0.904
  847SOL     OW 3439   2.518   3.753   1.463
  847SOL    HW1 3440   2.421   3.765   1.440
  847SOL    HW2 3441   2.568   3.725   1.382
  848SOL     OW 3442   6.525   6.421   0.054
  848SOL    HW1 3443   6.471   6.394   0.134
  848SOL    HW2 3444   6.489   6.374   6.999
  849SOL     OW 3445   5.706   3.484   6.710
  849SOL    HW1 3446   5.741   3.494   6.617
  849SOL    HW2 3447   5.782   3.469   6.773
  850SOL     OW 3448   1.149   1.104   4.938
  850SOL    HW1 3449   1.109   1.191   4.912
  850SOL    HW2 3450   1.129   1.085   5.034
  851SOL     OW 3451   5.573   3.275   5.775
  851SOL    HW1 3452   5.597   3.202   5.839
  851SOL    HW2 3453   5.519   3.237   5.700
  852SOL     OW 3454   0.368   3.914   1.962
  852SOL    HW1 3455   0.448   3.862   1.993
  852SOL    HW2 3456   0.292   3.897   2.025
  853SOL     OW 3457   2.812   3.171   0.735
  853SOL    HW1 3458   2.779   3.239   0.670
  853SOL    HW2 3459   2.883   3.213   0.792
  854SOL     OW 3460   6.041   6.358   5.778
  854SOL    HW1 3461   6.064   6.340   5.683
  854SOL    HW2 3462   5.978   6.287   5.811
  855SOL     OW 3463   5.932   1.487   0.213
  855SOL    HW1 3464   5.913   1.502   0.310
  855SOL    HW2 3465   6.015   1.432   0.203
  856SOL     OW 3466   2.046   5.236   2.140
  856SOL    HW1 3467   2.044   5.333   2.167
  856SOL    HW2 3468   2.063   5.180   2.221
  857SOL     OW 3469   6.924   5.898   4.810
  857SOL    HW1 3470   6.886   5.972   4.866
  857SOL    HW2 3471   6.944   5.819   4.869
  858SOL     OW 3472   4.402   4.003   7.011
  858SOL    HW1 3473   4.424   3.938   0.057
  858SOL    HW2 3474   4.460   4.084   7.021
  859SOL     OW 3475   5.273   5.968   5.305
  859SOL    HW1 3476   5.193   6.028   5.297
  859SOL    HW2 3477   5.356   6.023   5.311
  860SOL     OW 3478   4.749   2.751   6.224
  860SOL    HW1 3479   4.687   2.689   6.272
  860SOL    HW2 3480   4.830   2.767   6.281
  861SOL     OW 3481   1.848   5.219   1.842
  861SOL    HW1 3482   1.835   5.291   1.910
  861SOL    HW2 3483   1.936   5.174   1.856
  862SOL     OW 3484   0.492   4.178   3.947
  862SOL    HW1 3485   0.559   4.117   3.906
  862SOL    HW2 3486   0.526   4.272   3.943
  863SOL     OW 3487   6.090   0.467   1.654
  863SOL    HW1 3488   6.049   0.424   1.734
  863SOL    HW2 3489   6.037   0.444   1.573
  864SOL     OW 3490   5.807   6.597   3.511
  864SOL    HW1 3491   5.728   6.604   3.450
  864SOL    HW2 3492   5.849   6.507   3.501
  865SOL     OW 3493   1.781   6.049   5.071
  865SOL    HW1 3494   1.869   6.060   5.117
  865SOL    HW2 3495   1.732   6.136   5.070
  866SOL     OW 3496   3.576   0.201   1.749
  866SOL    HW1 3497   3.535   0.113   1.726
  866SOL    HW2 3498   3.676   0.192   1.750
  867SOL     OW 3499   6.046   2.089   5.862
  867SOL    HW1 3500   5.973   2.145   5.823
  867SOL    HW2 3501   6.061   2.009   5.804
  868SOL     OW 3502   0.222   2.405   1.357
  868SOL    HW1 3503   0.192   2.461   1.435
  868SOL    HW2 3504   0.239   2.312   1.388
  869SOL     OW 3505   0.154   3.768   3.457
  869SOL    HW1 3506   0.098   3.694   3.494
  869SOL    HW2 3507   0.106   3.855   3.467
  870SOL     OW 3508   3.623   5.156   2.165
  870SOL    HW1 3509   3.533   5.198   2.180
  870SOL    HW2 3510   3.637   5.142   2.067
  871SOL     OW 3511   4.933   1.602   3.322
  871SOL    HW1 3512   4.887   1.687   3.349
  871SOL    HW2 3513   5.031   1.611   3.337
  872SOL     OW 3514   1.248   2.459   4.749
  872SOL    HW1 3515   1.238   2.375   4.696
  872SOL    HW2 3516   1.289   2.530   4.691
  873SOL     OW 3517   4.294   0.105   6.104
  873SOL    HW1 3518   4.380   0.126   6.057
  873SOL    HW2 3519   4.299   0.013   6.143
  874SOL     OW 3520   5.040   3.464   1.620
  874SOL    HW1 3521   5.022   3.560   1.639
  874SOL    HW2 3522   5.012   3.442   1.526
  875SOL     OW 3523   4.733   5.621   1.669
  875SOL    HW1 3524   4.754   5.586   1.760
  875SOL    HW2 3525   4.687   5.549   1.616
  876SOL     OW 3526   6.819   0.205   0.664
  876SOL    HW1 3527   6.857   0.168   0.749
  876SOL    HW2 3528   6.797   0.302   0.677
  877SOL     OW 3529   2.196   3.638   6.843
  877SOL    HW1 3530   2.230   3.560   6.791
  877SOL    HW2 3531   2.108   3.667   6.804
  878SOL     OW 3532   3.680   6.447   4.244
  878SOL    HW1 3533   3.612   6.375   4.230
  878SOL    HW2 3534   3.746   6.445   4.169
  879SOL     OW 3535   5.654   6.841   0.237
  879SOL    HW1 3536   5.701   6.758   0.209
  879SOL    HW2 3537   5.722   6.909   0.268
  880SOL     OW 3538   3.051   3.093   2.280
  880SOL    HW1 3539   3.025   3.152   2.356
  880SOL    HW2 3540   3.027   2.998   2.301
  881SOL     OW 3541   4.630   1.835   0.175
  881SOL    HW1 3542   4.707   1.831   0.111
  881SOL    HW2 3543   4.634   1.920   0.227
  882SOL     OW 3544   1.738   3.075   4.594
  882SOL    HW1 3545   1.779   2.984   4.596
  882SOL    HW2 3546   1.807   3.142   4.566
  883SOL     OW 3547   2.721   0.228   3.324
  883SOL    HW1 3548   2.803   0.270   3.362
  883SOL    HW2 3549   2.745   0.145   3.273
  884SOL     OW 3550   4.012   3.562   5.318
  884SOL    HW1 3551   3.993   3.525   5.227
  884SOL    HW2 3552   4.111   3.575   5.329
  885SOL     OW 3553   4.324   2.778   6.540
  885SOL    HW1 3554   4.308   2.702   6.476
  885SOL    HW2 3555   4.409   2.824   6.516
  886SOL     OW 3556   3.431   0.818   6.575
  886SOL    HW1 3557   3.482   0.838   6.658
  886SOL    HW2 3558   3.408   0.720   6.572
  887SOL     OW 3559   5.097   1.633   5.070
  887SOL    HW1 3560   5.143   1.673   4.990
  887SOL    HW2 3561   5.001   1.615   5.047
  888SOL     OW 3562   6.664   6.440   2.646
  888SOL    HW1 3563   6.641   6.529   2.605
  888SOL    HW2 3564   6.605   6.369   2.607
  889SOL     OW 3565   0.813   4.043   6.727
  889SOL    HW1 3566   0.895   4.028   6.672
  889SOL    HW2 3567   0.839   4.058   6.822
  890SOL     OW 3568   2.315   5.268   4.250
  890SOL    HW1 3569   2.233   5.222   4.214
  890SOL    HW2 3570   2.365   5.311   4.176
  891SOL     OW 3571   4.697   5.880   1.877
  891SOL    HW1 3572   4.708   5.791   1.921
  891SOL    HW2 3573   4.672   5.867   1.781
  892SOL     OW 3574   2.982   4.667   0.968
  892SOL    HW1 3575   3.019   4.753   0.934
  892SOL    HW2 3576   2.894   4.683   1.013
  893SOL     OW 3577   1.874   6.214   2.422
  893SOL    HW1 3578   1.948   6.266   2.466
  893SOL    HW2 3579   1.875   6.120   2.455
  894SOL     OW 3580   0.923   4.323   1.281
  894SOL    HW1 3581   1.008   4.366   1.311
  894SOL    HW2 3582   0.851   4.340   1.349
  895SOL     OW 3583   0.442   5.584   4.248
  895SOL    HW1 3584   0.497   5.658   4.286
  895SOL    HW2 3585   0.409   5.526   4.322
  896SOL     OW 3586   0.405   0.311   6.378
  896SOL    HW1 3587   0.401   0.262   6.465
  896SOL    HW2 3588   0.472   0.269   6.318
  897SOL     OW 3589   4.851   0.513   6.993
  897SOL    HW1 3590   4.771   0.455   6.979
  897SOL    HW2 3591   4.894   0.534   6.905
  898SOL     OW 3592   4.270   6.662   3.253
  898SOL    HW1 3593   4.332   6.713   3.194
  898SOL    HW2 3594   4.257   6.711   3.339
  899SOL     OW 3595   0.049   4.755   0.405
  899SOL    HW1 3596   0.134   4.769   0.455
  899SOL    HW2 3597   0.055   4.799   0.316
  900SOL     OW 3598   5.328   5.283   0.754
  900SOL    HW1 3599   5.360   5.367   0.711
  900SOL    HW2 3600   5.303   5.216   0.684
  901SOL     OW 3601   1.227   0.795   2.575
  901SOL    HW1 3602   1.312   0.743   2.566
  901SOL    HW2 3603   1.152   0.743   2.535
  902SOL     OW 3604   6.156   3.504   1.748
  902SOL    HW1 3605   6.115   3.439   1.684
  902SOL    HW2 3606   6.158   3.465   1.839
  903SOL     OW 3607   0.070   2.222   0.778
  903SOL    HW1 3608   0.044   2.161   0.703
  903SOL    HW2 3609   7.015   2.251   0.827
  904SOL     OW 3610   3.070   1.111   1.914
  904SOL    HW1 3611   3.065   1.141   1.819
  904SOL    HW2 3612   2.978   1.098   1.950
  905SOL     OW 3613   5.958   2.801   6.440
  905SOL    HW1 3614   6.054   2.798   6.469
  905SOL    HW2 3615   5.952   2.778   6.343
  906SOL     OW 3616   5.646   3.155   6.220
  906SOL    HW1 3617   5.690   3.092   6.284
  906SOL    HW2 3618   5.716   3.207   6.171
  907SOL     OW 3619   4.991   3.839   6.616
  907SOL    HW1 3620   4.920   3.812   6.681
  907SOL    HW2 3621   4.981   3.786   6.532
  908SOL     OW 3622   1.538   4.437   2.909
  908SOL    HW1 3623   1.479   4.482   2.841
  908SOL    HW2 3624   1.634   4.458   2.888
  909SOL     OW 3625   5.376   5.387   6.650
  909SOL    HW1 3626   5.342   5.327   6.579
  909SOL    HW2 3627   5.308   5.395   6.723
  910SOL     OW 3628   2.625   4.828   1.177
  910SOL    HW1 3629   2.535   4.789   1.157
  910SOL    HW2 3630   2.633   4.918   1.134
  911SOL     OW 3631   0.936   5.246   5.937
  911SOL    HW1 3632   0.975   5.291   6.017
  911SOL    HW2 3633   1.007   5.238   5.866
  912SOL     OW 3634   5.242   1.524   4.013
  912SOL    HW1 3635   5.180   1.460   3.967
  912SOL    HW2 3636   5.188   1.593   4.060
  913SOL     OW 3637   5.648   6.471   2.668
  913SOL    HW1 3638   5.590   6.492   2.589
  913SOL    HW2 3639   5.602   6.501   2.752
  914SOL     OW 3640   3.098   6.971   6.480
  914SOL    HW1 3641   3.150   6.897   6.437
  914SOL    HW2 3642   3.157   7.021   6.543
  915SOL     OW 3643   5.114   5.565   0.824
  915SOL    HW1 3644   5.037   5.505   0.804
  915SOL    HW2 3645   5.081   5.659   0.834
  916SOL     OW 3646   1.976   2.420   2.575
  916SOL    HW1 3647   2.044   2.362   2.621
  916SOL    HW2 3648   2.018   2.508   2.551
  917SOL     OW 3649   6.645   6.203   0.921
  917SOL    HW1 3650   6.666   6.256   1.003
  917SOL    HW2 3651   6.716   6.135   0.905
  918SOL     OW 3652   2.581   5.427   0.382
  918SOL    HW1 3653   2.654   5.485   0.345
  918SOL    HW2 3654   2.570   5.346   0.323
  919SOL     OW 3655   5.706   1.788   5.046
  919SOL    HW1 3656   5.672   1.878   5.020
  919SOL    HW2 3657   5.706   1.780   5.146
  920SOL     OW 3658   2.953   5.062   2.578
  920SOL    HW1 3659   2.976   4.967   2.598
  920SOL    HW2 3660   2.894   5.066   2.498
  921SOL     OW 3661   4.621   5.324   5.274
  921SOL    HW1 3662   4.600   5.407   5.325
  921SOL    HW2 3663   4.606   5.340   5.177
  922SOL     OW 3664   3.819   2.987   3.841
  922SOL    HW1 3665   3.890   3.025   3.901
  922SOL    HW2 3666   3.756   2.931   3.895
  923SOL     OW 3667   2.368   3.552   5.276
  923SOL    HW1 3668   2.372   3.650   5.297
  923SOL    HW2 3669   2.408   3.500   5.352
  924SOL     OW 3670   6.906   3.318   2.345
  924SOL    HW1 3671   6.825   3.313   2.287
  924SOL    HW2 3672   6.971   3.247   2.319
  925SOL     OW 3673   0.420   1.779   0.514
  925SOL    HW1 3674   0.354   1.711   0.482
  925SOL    HW2 3675   0.507   1.767   0.466
  926SOL     OW 3676   1.898   2.067   1.924
  926SOL    HW1 3677   1.828   2.080   1.853
  926SOL    HW2 3678   1.961   2.144   1.923
  927SOL     OW 3679   6.390   3.483   4.400
  927SOL    HW1 3680   6.406   3.420   4.476
  927SOL    HW2 3681   6.418   3.575   4.427
  928SOL     OW 3682   4.014   4.713   6.385
  928SOL    HW1 3683   3.979   4.768   6.310
  928SOL    HW2 3684   3.960   4.629   6.392
  929SOL     OW 3685   0.394   1.681   4.851
  929SOL    HW1 3686   0.310   1.712   4.807
  929SOL    HW2 3687   0.473   1.706   4.795
  930SOL     OW 3688   5.052   5.079   5.432
  930SOL    HW1 3689   4.979   5.049   5.494
  930SOL    HW2 3690   5.016   5.147   5.369
  931SOL     OW 3691   6.575   1.513   2.969
  931SOL    HW1 3692   6.478   1.489   2.967
  931SOL    HW2 3693   6.609   1.510   3.063
  932SOL     OW 3694   3.691   0.524   3.482
  932SOL    HW1 3695   3.625   0.512   3.556
  932SOL    HW2 3696   3.642   0.539   3.396
  933SOL     OW 3697   1.527   5.670   2.194
  933SOL    HW1 3698   1.615   5.678   2.240
  933SOL    HW2 3699   1.507   5.755   2.146
  934SOL     OW 3700   1.860   3.612   0.109
  934SOL    HW1 3701   1.952   3.648   0.093
  934SOL    HW2 3702   1.804   3.627   0.027
  935SOL     OW 3703   6.045   2.707   4.570
  935SOL    HW1 3704   6.009   2.777   4.509
  935SOL    HW2 3705   5.991   2.705   4.654
  936SOL     OW 3706   1.684   7.006   6.130
  936SOL    HW1 3707   1.719   6.950   6.205
  936SOL    HW2 3708   1.761   0.013   6.075
  937SOL     OW 3709   3.692   2.334   6.130
  937SOL    HW1 3710   3.776   2.379   6.159
  937SOL    HW2 3711   3.620   2.349   6.198
  938SOL     OW 3712   6.061   5.725   4.313
  938SOL    HW1 3713   5.985   5.733   4.378
  938SOL    HW2 3714   6.144   5.697   4.362
  939SOL     OW 3715   0.613   6.493   5.943
  939SOL    HW1 3716   0.609   6.591   5.961
  939SOL    HW2 3717   0.689   6.453   5.995
  940SOL     OW 3718   2.022   4.671   7.003
  940SOL    HW1 3719   2.092   4.599   6.996
  940SOL    HW2 3720   2.018   4.721   6.917
  941SOL     OW 3721   3.404   6.948   0.339
  941SOL    HW1 3722   3.348   0.004   0.352
  941SOL    HW2 3723   3.495   6.975   0.305
  942SOL     OW 3724   7.021   5.286   0.789
  942SOL    HW1 3725   0.033   5.203   0.829
  942SOL    HW2 3726   6.942   5.263   0.733
  943SOL     OW 3727   3.217   5.876   1.791
  943SOL    HW1 3728   3.121   5.886   1.818
  943SOL    HW2 3729   3.233   5.931   1.709
  944SOL     OW 3730   6.204   6.637   4.085
  944SOL    HW1 3731   6.156   6.671   4.004
  944SOL    HW2 3732   6.180   6.693   4.164
  945SOL     OW 3733   0.780   4.663   0.136
  945SOL    HW1 3734   0.807   4.744   0.084
  945SOL    HW2 3735   0.840   4.586   0.113
  946SOL     OW 3736   5.322   1.999   4.728
  946SOL    HW1 3737   5.259   1.992   4.651
  946SOL    HW2 3738   5.416   1.994   4.695
  947SOL     OW 3739   3.387   4.140   4.286
  947SOL    HW1 3740   3.315   4.132   4.355
  947SOL    HW2 3741   3.351   4.112   4.197
  948SOL     OW 3742   4.115   0.583   2.894
  948SOL    HW1 3743   4.034   0.576   2.835
  948SOL    HW2 3744   4.146   0.677   2.898
  949SOL     OW 3745   3.764   6.923   5.744
  949SOL    HW1 3746   3.714   6.861   5.803
  949SOL    HW2 3747   3.744   7.018   5.770
  950SOL     OW 3748   6.779   0.064   2.452
  950SOL    HW1 3749   6.844   0.117   2.397
  950SOL    HW2 3750   6.729   0.126   2.512
  951SOL     OW 3751   1.939   6.995   2.884
  951SOL    HW1 3752   1.846   7.015   2.913
  951SOL    HW2 3753   1.943   6.904   2.843
  952SOL     OW 3754   3.349   0.768   2.877
  952SOL    HW1 3755   3.358   0.803   2.970
  952SOL    HW2 3756   3.358   0.844   2.812
  953SOL     OW 3757   6.913   4.566   5.650
  953SOL    HW1 3758   6.954   4.570   5.741
  953SOL    HW2 3759   6.984   4.544   5.583
  954SOL     OW 3760   4.832   5.931   2.263
  954SOL    HW1 3761   4.896   5.910   2.189
  954SOL    HW2 3762   4.739   5.906   2.234
  955SOL     OW 3763   2.100   4.641   0.653
  955SOL    HW1 3764   2.093   4.736   0.683
  955SOL    HW2 3765   2.124   4.582   0.730
  956SOL     OW 3766   4.599   0.546   0.925
  956SOL    HW1 3767   4.662   0.471   0.942
  956SOL    HW2 3768   4.650   0.628   0.901
  957SOL     OW 3769   6.044   1.026   3.180
  957SOL    HW1 3770   5.991   0.945   3.154
  957SOL    HW2 3771   6.019   1.053   3.274
  958SOL     OW 3772   5.357   0.109   1.383
  958SOL    HW1 3773   5.312   0.078   1.467
  958SOL    HW2 3774   5.297   0.091   1.305
  959SOL     OW 3775   4.783   6.792   3.575
  959SOL    HW1 3776   4.744   6.700   3.587
  959SOL    HW2 3777   4.852   6.789   3.502
  960SOL     OW 3778   1.666   6.458   6.643
  960SOL    HW1 3779   1.689   6.446   6.740
  960SOL    HW2 3780   1.742   6.503   6.596
  961SOL     OW 3781   3.634   0.227   3.322
  961SOL    HW1 3782   3.664   0.277   3.241
  961SOL    HW2 3783   3.711   0.214   3.384
  962SOL     OW 3784   6.762   0.773   4.854
  962SOL    HW1 3785   6.757   0.698   4.920
  962SOL    HW2 3786   6.692   0.761   4.783
  963SOL     OW 3787   5.688   2.508   1.078
  963SOL    HW1 3788   5.614   2.513   1.145
  963SOL    HW2 3789   5.674   2.578   1.008
  964SOL     OW 3790   4.157   5.382   4.845
  964SOL    HW1 3791   4.113   5.472   4.838
  964SOL    HW2 3792   4.088   5.313   4.870
  965SOL     OW 3793   5.826   2.072   3.399
  965SOL    HW1 3794   5.779   1.984   3.408
  965SOL    HW2 3795   5.858   2.083   3.305
  966SOL     OW 3796   4.440   0.958   4.353
  966SOL    HW1 3797   4.510   0.891   4.375
  966SOL    HW2 3798   4.434   0.969   4.254
  967SOL     OW 3799   4.235   4.069   6.484
  967SOL    HW1 3800   4.319   4.046   6.436
  967SOL    HW2 3801   4.256   4.100   6.576
  968SOL     OW 3802   3.952   0.790   1.556
  968SOL    HW1 3803   3.916   0.868   1.507
  968SOL    HW2 3804   3.910   0.706   1.521
  969SOL     OW 3805   3.168   4.578   6.168
  969SOL    HW1 3806   3.153   4.480   6.156
  969SOL    HW2 3807   3.134   4.627   6.088
  970SOL     OW 3808   5.146   0.053   5.828
  970SOL    HW1 3809   5.169   0.054   5.925
  970SOL    HW2 3810   5.153   6.985   5.794
  971SOL     OW 3811   5.783   3.500   3.736
  971SOL    HW1 3812   5.779   3.415   3.789
  971SOL    HW2 3813   5.877   3.535   3.737
  972SOL     OW 3814   0.263   2.598   0.267
  972SOL    HW1 3815   0.273   2.590   0.168
  972SOL    HW2 3816   0.191   2.664   0.288
  973SOL     OW 3817   0.276   3.614   5.662
  973SOL    HW1 3818   0.359   3.670   5.660
  973SOL    HW2 3819   0.236   3.611   5.571
  974SOL     OW 3820   0.384   4.533   2.324
  974SOL    HW1 3821   0.378   4.613   2.383
  974SOL    HW2 3822   0.479   4.516   2.300
  975SOL     OW 3823   3.203   0.365   2.342
  975SOL    HW1 3824   3.253   0.451   2.352
  975SOL    HW2 3825   3.186   0.348   2.244
  976SOL     OW 3826   6.917   3.319   3.525
  976SOL    HW1 3827   6.924   3.310   3.624
  976SOL    HW2 3828   6.974   3.248   3.481
  977SOL     OW 3829   6.329   1.058   2.211
  977SOL    HW1 3830   6.277   1.138   2.180
  977SOL    HW2 3831   6.309   0.980   2.152
  978SOL     OW 3832   5.463   3.049   1.639
  978SOL    HW1 3833   5.391   2.979   1.641
  978SOL    HW2 3834   5.433   3.125   1.581
  979SOL     OW 3835   0.293   4.244   6.885
  979SOL    HW1 3836   0.302   4.189   6.968
  979SOL    HW2 3837   0.228   4.318   6.900
  980SOL     OW 3838   3.692   0.993   4.816
  980SOL    HW1 3839   3.642   1.078   4.798
  980SOL    HW2 3840   3.723   0.954   4.730
  981SOL     OW 3841   0.251   6.771   5.568
  981SOL    HW1 3842   0.213   6.714   5.641
  981SOL    HW2 3843   0.177   6.802   5.508
  982SOL     OW 3844   6.460   1.319   6.218
  982SOL    HW1 3845   6.490   1.225   6.207
  982SOL    HW2 3846   6.363   1.321   6.245
  983SOL     OW 3847   0.546   4.321   3.482
  983SOL    HW1 3848   0.530   4.412   3.519
  983SOL    HW2 3849   0.619   4.325   3.413
  984SOL     OW 3850   0.593   3.609   3.503
  984SOL    HW1 3851   0.514   3.571   3.550
  984SOL    HW2 3852   0.563   3.660   3.422
  985SOL     OW 3853   6.619   5.348   5.093
  985SOL    HW1 3854   6.590   5.338   5.188
  985SOL    HW2 3855   6.596   5.439   5.059
  986SOL     OW 3856   4.599   5.276   1.557
  986SOL    HW1 3857   4.561   5.368   1.541
  986SOL    HW2 3858   4.526   5.215   1.588
  987SOL     OW 3859   4.732   4.152   4.652
  987SOL    HW1 3860   4.759   4.098   4.732
  987SOL    HW2 3861   4.727   4.093   4.572
  988SOL     OW 3862   2.670   4.647   2.251
  988SOL    HW1 3863   2.716   4.701   2.323
  988SOL    HW2 3864   2.729   4.644   2.170
  989SOL     OW 3865   1.457   2.066   1.056
  989SOL    HW1 3866   1.418   2.118   1.132
  989SOL    HW2 3867   1.471   1.971   1.086
  990SOL     OW 3868   3.658   6.966   4.651
  990SOL    HW1 3869   3.683   6.931   4.741
  990SOL    HW2 3870   3.701   6.911   4.580
  991SOL     OW 3871   0.060   5.465   3.960
  991SOL    HW1 3872   0.131   5.501   3.900
  991SOL    HW2 3873   0.091   5.474   4.055
  992SOL     OW 3874   7.025   2.310   0.025
  992SOL    HW1 3875   0.074   2.360   7.009
  992SOL    HW2 3876   0.020   2.212   0.027
  993SOL     OW 3877   1.100   4.959   0.445
  993SOL    HW1 3878   1.026   4.996   0.502
  993SOL    HW2 3879   1.099   4.859   0.450
  994SOL     OW 3880   3.246   6.721   0.131
  994SOL    HW1 3881   3.324   6.671   0.170
  994SOL    HW2 3882   3.193   6.763   0.205
  995SOL     OW 3883   6.561   4.250   5.984
  995SOL    HW1 3884   6.605   4.279   5.899
  995SOL    HW2 3885   6.467   4.284   5.985
  996SOL     OW 3886   4.225   6.167   3.938
  996SOL    HW1 3887   4.137   6.132   3.970
  996SOL    HW2 3888   4.298   6.121   3.987
  997SOL     OW 3889   1.276   6.565   3.752
  997SOL    HW1 3890   1.268   6.508   3.670
  997SOL    HW2 3891   1.307   6.656   3.726
  998SOL     OW 3892   4.819   0.075   6.193
  998SOL    HW1 3893   4.749   0.031   6.137
  998SOL    HW2 3894   4.789   0.078   6.288
  999SOL     OW 3895   5.089   3.181   2.568
  999SOL    HW1 3896   5.044   3.137   2.646
  999SOL    HW2 3897   5.046   3.151   2.484
 1000SOL     OW 3898   5.147   2.344   1.810
 1000SOL    HW1 3899   5.102   2.314   1.895
 1000SOL    HW2 3900   5.246   2.349   1.825
 1001SOL     OW 3901   2.922   6.837   2.313
 1001SOL    HW1 3902   2.869   6.877   2.387
 1001SOL    HW2 3903   2.990   6.774   2.350
 1002SOL     OW 3904   4.602   2.522   1.342
 1002SOL    HW1 3905   4.555   2.434   1.337
 1002SOL    HW2 3906   4.641   2.534   1.434
 1003SOL     OW 3907   0.662   0.287   3.274
 1003SOL    HW1 3908   0.735   0.291   3.342
 1003SOL    HW2 3909   0.663   0.197   3.230
 1004SOL     OW 3910   5.140   1.360   4.400
 1004SOL    HW1 3911   5.115   1.267   4.425
 1004SOL    HW2 3912   5.235   1.377   4.426
 1005SOL     OW 3913   1.198   4.976   1.941
 1005SOL    HW1 3914   1.195   4.905   1.870
 1005SOL    HW2 3915   1.191   5.066   1.898
 1006SOL     OW 3916   2.546   4.004   1.651
 1006SOL    HW1 3917   2.453   3.992   1.686
 1006SOL    HW2 3918   2.567   3.930   1.586
 1007SOL     OW 3919   4.482   0.892   6.419
 1007SOL    HW1 3920   4.426   0.975   6.416
 1007SOL    HW2 3921   4.574   0.915   6.449
 1008SOL     OW 3922   0.737   5.074   5.199
 1008SOL    HW1 3923   0.733   5.002   5.130
 1008SOL    HW2 3924   0.665   5.141   5.181
 1009SOL     OW 3925   6.773   5.916   5.809
 1009SOL    HW1 3926   6.776   5.977   5.888
 1009SOL    HW2 3927   6.827   5.834   5.828
 1010SOL     OW 3928   3.025   3.740   0.508
 1010SOL    HW1 3929   3.100   3.785   0.459
 1010SOL    HW2 3930   2.981   3.674   0.448
 1011SOL     OW 3931   6.968   5.842   2.992
 1011SOL    HW1 3932   0.013   5.837   2.922
 1011SOL    HW2 3933   6.894   5.902   2.960
 1012SOL     OW 3934   5.284   6.554   3.035
 1012SOL    HW1 3935   5.224   6.474   3.042
 1012SOL    HW2 3936   5.230   6.634   3.007
 1013SOL     OW 3937   6.898   0.204   6.444
 1013SOL    HW1 3938   6.946   0.126   6.406
 1013SOL    HW2 3939   6.860   0.180   6.534
 1014SOL     OW 3940   1.046   4.433   5.271
 1014SOL    HW1 3941   1.063   4.470   5.362
 1014SOL    HW2 3942   0.952   4.453   5.244
 1015SOL     OW 3943   2.310   6.409   0.187
 1015SOL    HW1 3944   2.251   6.391   0.108
 1015SOL    HW2 3945   2.349   6.501   0.180
 1016SOL     OW 3946   6.472   4.010   1.090
 1016SOL    HW1 3947   6.506   3.994   0.998
 1016SOL    HW2 3948   6.550   4.023   1.152
 1017SOL     OW 3949   2.493   1.678   1.827
 1017SOL    HW1 3950   2.424   1.659   1.757
 1017SOL    HW2 3951   2.490   1.607   1.897
 1018SOL     OW 3952   6.219   6.296   4.666
 1018SOL    HW1 3953   6.202   6.321   4.571
 1018SOL    HW2 3954   6.263   6.206   4.669
 1019SOL     OW 3955   6.801   3.814   0.987
 1019SOL    HW1 3956   6.799   3.904   1.032
 1019SOL    HW2 3957   6.797   3.742   1.056
 1020SOL     OW 3958   5.273   1.360   0.507
 1020SOL    HW1 3959   5.289   1.330   0.601
 1020SOL    HW2 3960   5.346   1.422   0.479
 1021SOL     OW 3961   1.134   6.556   1.071
 1021SOL    HW1 3962   1.086   6.562   1.158
 1021SOL    HW2 3963   1.218   6.610   1.075
 1022SOL     OW 3964   2.560   5.624   6.426
 1022SOL    HW1 3965   2.488   5.564   6.461
 1022SOL    HW2 3966   2.629   5.639   6.497
 1023SOL     OW 3967   0.499   1.263   2.963
 1023SOL    HW1 3968   0.477   1.341   3.021
 1023SOL    HW2 3969   0.599   1.258   2.951
 1024SOL     OW 3970   1.627   1.723   4.032
 1024SOL    HW1 3971   1.611   1.732   4.130
 1024SOL    HW2 3972   1.543   1.742   3.982
 1025SOL     OW 3973   4.862   4.298   0.300
 1025SOL    HW1 3974   4.805   4.216   0.304
 1025SOL    HW2 3975   4.955   4.271   0.273
 1026SOL     OW 3976   2.963   2.863   1.523
 1026SOL    HW1 3977   3.020   2.914   1.459
 1026SOL    HW2 3978   2.956   2.767   1.493
 1027SOL     OW 3979   0.540   6.685   0.436
 1027SOL    HW1 3980   0.630   6.643   0.447
 1027SOL    HW2 3981   0.542   6.779   0.471
 1028SOL     OW 3982   1.510   6.215   2.901
 1028SOL    HW1 3983   1.566   6.222   2.819
 1028SOL    HW2 3984   1.568   6.192   2.980
 1029SOL     OW 3985   1.022   1.248   5.678
 1029SOL    HW1 3986   0.967   1.299   5.613
 1029SOL    HW2 3987   0.984   1.156   5.691
 1030SOL     OW 3988   3.769   3.416   1.028
 1030SOL    HW1 3989   3.757   3.378   0.936
 1030SOL    HW2 3990   3.692   3.476   1.049
 1031SOL     OW 3991   3.731   3.194   1.214
 1031SOL    HW1 3992   3.637   3.170   1.237
 1031SOL    HW2 3993   3.732   3.281   1.165
 1032SOL     OW 3994   1.920   1.550   0.102
 1032SOL    HW1 3995   1.958   1.514   0.017
 1032SOL    HW2 3996   1.865   1.480   0.147
 1033SOL     OW 3997   0.345   6.680   2.593
 1033SOL    HW1 3998   0.365   6.777   2.575
 1033SOL    HW2 3999   0.353   6.628   2.508
 1034SOL     OW 4000   3.150   0.570   4.816
 1034SOL    HW1 4001   3.165   0.577   4.915
 1034SOL    HW2 4002   3.098   0.650   4.785
 1035SOL     OW 4003   1.757   1.353   0.175
 1035SOL    HW1 4004   1.665   1.384   0.150
 1035SOL    HW2 4005   1.761   1.253   0.167
 1036SOL     OW 4006   4.889   1.095   1.200
 1036SOL    HW1 4007   4.860   1.182   1.239
 1036SOL    HW2 4008   4.843   1.081   1.112
 1037SOL     OW 4009   1.825   3.282   1.709
 1037SOL    HW1 4010   1.845   3.376   1.735
 1037SOL    HW2 4011   1.832   3.273   1.609
 1038SOL     OW 4012   2.279   6.009   6.957
 1038SOL    HW1 4013   2.333   5.979   0.009
 1038SOL    HW2 4014   2.186   5.973   6.965
 1039SOL     OW 4015   3.702   3.593   2.786
 1039SOL    HW1 4016   3.735   3.587   2.880
 1039SOL    HW2 4017   3.689   3.501   2.749
 1040SOL     OW 4018   3.671   2.054   3.679
 1040SOL    HW1 4019   3.707   2.012   3.595
 1040SOL    HW2 4020   3.747   2.077   3.740
 1041SOL     OW 4021   6.219   5.729   6.800
 1041SOL    HW1 4022   6.259   5.766   6.717
 1041SOL    HW2 4023   6.289   5.679   6.852
 1042SOL     OW 4024   5.349   4.556   3.502
 1042SOL    HW1 4025   5.439   4.557   3.458
 1042SOL    HW2 4026   5.320   4.461   3.513
 1043SOL     OW 4027   2.815   2.143   3.666
 1043SOL    HW1 4028   2.717   2.143   3.644
 1043SOL    HW2 4029   2.827   2.139   3.765
 1044SOL     OW 4030   6.106   4.848   1.484
 1044SOL    HW1 4031   6.155   4.773   1.528
 1044SOL    HW2 4032   6.034   4.810   1.425
 1045SOL     OW 4033   2.278   0.544   1.699
 1045SOL    HW1 4034   2.257   0.458   1.652
 1045SOL    HW2 4035   2.377   0.553   1.711
 1046SOL     OW 4036   3.279   1.957   1.348
 1046SOL    HW1 4037   3.264   2.008   1.433
 1046SOL    HW2 4038   3.212   1.985   1.280
 1047SOL     OW 4039   3.389   6.731   3.362
 1047SOL    HW1 4040   3.458   6.803   3.365
 1047SOL    HW2 4041   3.300   6.770   3.384
 1048SOL     OW 4042   1.176   6.682   2.488
 1048SOL    HW1 4043   1.106   6.686   2.417
 1048SOL    HW2 4044   1.257   6.634   2.454
 1049SOL     OW 4045   4.093   6.100   5.205
 1049SOL    HW1 4046   4.052   6.120   5.294
 1049SOL    HW2 4047   4.043   6.149   5.133
 1050SOL     OW 4048   2.646   6.517   3.738
 1050SOL    HW1 4049   2.683   6.427   3.762
 1050SOL    HW2 4050   2.616   6.516   3.643
 1051SOL     OW 4051   1.226   0.940   6.000
 1051SOL    HW1 4052   1.223   1.037   6.024
 1051SOL    HW2 4053   1.310   0.921   5.950
 1052SOL     OW 4054   3.379   1.041   7.017
 1052SOL    HW1 4055   3.440   1.062   0.067
 1052SOL    HW2 4056   3.286   1.068   0.013
 1053SOL     OW 4057   5.118   1.691   4.514
 1053SOL    HW1 4058   5.044   1.631   4.545
 1053SOL    HW2 4059   5.095   1.786   4.533
 1054SOL     OW 4060   4.197   5.153   6.339
 1054SOL    HW1 4061   4.143   5.133   6.257
 1054SOL    HW2 4062   4.150   5.222   6.394
 1055SOL     OW 4063   4.539   5.713   6.624
 1055SOL    HW1 4064   4.616   5.730   6.563
 1055SOL    HW2 4065   4.503   5.621   6.608
 1056SOL     OW 4066   2.929   3.672   0.134
 1056SOL    HW1 4067   2.925   3.607   0.209
 1056SOL    HW2 4068   2.896   3.761   0.165
 1057SOL     OW 4069   3.027   2.805   0.183
 1057SOL    HW1 4070   2.981   2.796   0.272
 1057SOL    HW2 4071   2.959   2.803   0.110
 1058SOL     OW 4072   2.949   2.192   2.352
 1058SOL    HW1 4073   2.919   2.102   2.319
 1058SOL    HW2 4074   2.963   2.253   2.275
 1059SOL     OW 4075   2.304   6.493   1.717
 1059SOL    HW1 4076   2.254   6.534   1.792
 1059SOL    HW2 4077   2.402   6.497   1.736
 1060SOL     OW 4078   6.369   0.758   5.977
 1060SOL    HW1 4079   6.438   0.826   5.952
 1060SOL    HW2 4080   6.278   0.798   5.965
 1061SOL     OW 4081   0.075   3.625   6.274
 1061SOL    HW1 4082   0.025   3.547   6.237
 1061SOL    HW2 4083   0.166   3.629   6.232
 1062SOL     OW 4084   3.369   6.073   4.541
 1062SOL    HW1 4085   3.294   6.070   4.475
 1062SOL    HW2 4086   3.408   6.165   4.544
 1063SOL     OW 4087   3.634   6.539   5.062
 1063SOL    HW1 4088   3.583   6.547   5.148
 1063SOL    HW2 4089   3.643   6.442   5.038
 1064SOL     OW 4090   1.666   3.365   0.185
 1064SOL    HW1 4091   1.602   3.394   0.256
 1064SOL    HW2 4092   1.659   3.426   0.107
 1065SOL     OW 4093   5.953   0.705   4.576
 1065SOL    HW1 4094   5.951   0.621   4.630
 1065SOL    HW2 4095   5.880   0.767   4.607
 1066SOL     OW 4096   5.191   6.535   0.941
 1066SOL    HW1 4097   5.286   6.548   0.970
 1066SOL    HW2 4098   5.159   6.445   0.971
 1067SOL     OW 4099   2.782   1.455   0.405
 1067SOL    HW1 4100   2.784   1.480   0.308
 1067SOL    HW2 4101   2.747   1.362   0.414
 1068SOL     OW 4102   6.827   2.729   1.442
 1068SOL    HW1 4103   6.731   2.736   1.469
 1068SOL    HW2 4104   6.885   2.728   1.523
 1069SOL     OW 4105   6.058   3.477   2.229
 1069SOL    HW1 4106   6.050   3.575   2.251
 1069SOL    HW2 4107   6.126   3.435   2.289
 1070SOL     OW 4108   0.998   0.296   2.368
 1070SOL    HW1 4109   1.036   0.216   2.322
 1070SOL    HW2 4110   0.925   0.267   2.430
 1071SOL     OW 4111   0.345   3.035   5.808
 1071SOL    HW1 4112   0.362   2.966   5.878
 1071SOL    HW2 4113   0.251   3.070   5.817
 1072SOL     OW 4114   1.580   1.734   2.110
 1072SOL    HW1 4115   1.507   1.683   2.155
 1072SOL    HW2 4116   1.659   1.674   2.097
 1073SOL     OW 4117   5.214   2.531   2.954
 1073SOL    HW1 4118   5.286   2.506   3.019
 1073SOL    HW2 4119   5.127   2.492   2.984
 1074SOL     OW 4120   2.955   5.005   1.672
 1074SOL    HW1 4121   3.040   4.992   1.724
 1074SOL    HW2 4122   2.883   4.946   1.711
 1075SOL     OW 4123   6.261   4.383   5.934
 1075SOL    HW1 4124   6.330   4.443   5.972
 1075SOL    HW2 4125   6.180   4.384   5.992
 1076SOL     OW 4126   1.664   4.520   5.043
 1076SOL    HW1 4127   1.666   4.503   5.141
 1076SOL    HW2 4128   1.755   4.546   5.012
 1077SOL     OW 4129   6.867   6.816   0.141
 1077SOL    HW1 4130   6.799   6.778   0.204
 1077SOL    HW2 4131   6.831   6.815   0.048
 1078SOL     OW 4132   6.452   6.791   4.920
 1078SOL    HW1 4133   6.530   6.775   4.860
 1078SOL    HW2 4134   6.367   6.782   4.867
 1079SOL     OW 4135   1.059   6.892   1.796
 1079SOL    HW1 4136   1.004   6.854   1.722
 1079SOL    HW2 4137   1.007   6.891   1.881
 1080SOL     OW 4138   3.783   6.253   6.836
 1080SOL    HW1 4139   3.742   6.344   6.843
 1080SOL    HW2 4140   3.877   6.256   6.870
 1081SOL     OW 4141   6.478   6.699   4.170
 1081SOL    HW1 4142   6.514   6.608   4.191
 1081SOL    HW2 4143   6.381   6.691   4.147
 1082SOL     OW 4144   4.443   6.859   6.921
 1082SOL    HW1 4145   4.438   6.945   6.971
 1082SOL    HW2 4146   4.437   6.782   6.984
 1083SOL     OW 4147   5.420   4.533   2.158
 1083SOL    HW1 4148   5.390   4.507   2.067
 1083SOL    HW2 4149   5.382   4.469   2.225
 1084SOL     OW 4150   6.288   0.801   5.414
 1084SOL    HW1 4151   6.362   0.861   5.442
 1084SOL    HW2 4152   6.305   0.769   5.321
 1085SOL     OW 4153   2.107   3.822   4.601
 1085SOL    HW1 4154   2.139   3.896   4.541
 1085SOL    HW2 4155   2.102   3.855   4.695
 1086SOL     OW 4156   5.945   5.427   0.780
 1086SOL    HW1 4157   5.946   5.488   0.859
 1086SOL    HW2 4158   5.894   5.470   0.705
 1087SOL     OW 4159   4.212   0.380   5.517
 1087SOL    HW1 4160   4.292   0.326   5.545
 1087SOL    HW2 4161   4.136   0.318   5.499
 1088SOL     OW 4162   6.571   5.099   3.251
 1088SOL    HW1 4163   6.579   5.199   3.251
 1088SOL    HW2 4164   6.505   5.071   3.182
 1089SOL     OW 4165   6.238   4.657   4.171
 1089SOL    HW1 4166   6.289   4.643   4.086
 1089SOL    HW2 4167   6.248   4.753   4.200
 1090SOL     OW 4168   5.057   2.110   5.342
 1090SOL    HW1 4169   5.141   2.165   5.340
 1090SOL    HW2 4170   5.005   2.133   5.425
 1091SOL     OW 4171   2.353   2.556   3.191
 1091SOL    HW1 4172   2.397   2.531   3.278
 1091SOL    HW2 4173   2.401   2.511   3.115
 1092SOL     OW 4174   0.100   5.445   0.608
 1092SOL    HW1 4175   0.007   5.470   0.581
 1092SOL    HW2 4176   0.097   5.378   0.682
 1093SOL     OW 4177   1.557   0.597   2.991
 1093SOL    HW1 4178   1.528   0.674   2.935
 1093SOL    HW2 4179   1.654   0.579   2.977
 1094SOL     OW 4180   0.297   0.539   3.203
 1094SOL    HW1 4181   0.327   0.462   3.260
 1094SOL    HW2 4182   0.215   0.580   3.243
 1095SOL     OW 4183   5.326   3.139   0.779
 1095SOL    HW1 4184   5.409   3.110   0.826
 1095SOL    HW2 4185   5.284   3.060   0.734
 1096SOL     OW 4186   2.389   6.022   2.046
 1096SOL    HW1 4187   2.357   5.955   1.980
 1096SOL    HW2 4188   2.354   6.113   2.021
 1097SOL     OW 4189   2.559   5.914   4.559
 1097SOL    HW1 4190   2.617   5.958   4.627
 1097SOL    HW2 4191   2.465   5.946   4.570
 1098SOL     OW 4192   6.175   3.940   0.554
 1098SOL    HW1 4193   6.156   4.003   0.478
 1098SOL    HW2 4194   6.176   3.991   0.640
 1099SOL     OW 4195   4.874   0.135   5.899
 1099SOL    HW1 4196   4.869   0.105   5.995
 1099SOL    HW2 4197   4.962   0.108   5.861
 1100SOL     OW 4198   4.060   1.744   4.484
 1100SOL    HW1 4199   4.017   1.739   4.574
 1100SOL    HW2 4200   4.005   1.691   4.419
 1101SOL     OW 4201   5.078   3.055   6.381
 1101SOL    HW1 4202   5.052   3.081   6.474
 1101SOL    HW2 4203   5.177   3.064   6.370
 1102SOL     OW 4204   2.730   0.705   3.131
 1102SOL    HW1 4205   2.666   0.628   3.133
 1102SOL    HW2 4206   2.714   0.764   3.209
 1103SOL     OW 4207   3.597   6.639   0.408
 1103SOL    HW1 4208   3.544   6.588   0.340
 1103SOL    HW2 4209   3.657   6.704   0.361
 1104SOL     OW 4210   0.668   2.691   3.595
 1104SOL    HW1 4211   0.585   2.723   3.639
 1104SOL    HW2 4212   0.746   2.701   3.657
 1105SOL     OW 4213   5.138   1.397   6.056
 1105SOL    HW1 4214   5.230   1.436   6.058
 1105SOL    HW2 4215   5.130   1.327   6.127
 1106SOL     OW 4216   6.627   1.371   0.701
 1106SOL    HW1 4217   6.695   1.396   0.770
 1106SOL    HW2 4218   6.665   1.301   0.641
 1107SOL     OW 4219   1.035   1.195   6.454
 1107SOL    HW1 4220   0.976   1.186   6.534
 1107SOL    HW2 4221   0.993   1.257   6.387
 1108SOL     OW 4222   2.256   0.540   4.191
 1108SOL    HW1 4223   2.340   0.590   4.212
 1108SOL    HW2 4224   2.255   0.515   4.094
 1109SOL     OW 4225   4.703   2.390   4.866
 1109SOL    HW1 4226   4.775   2.400   4.797
 1109SOL    HW2 4227   4.640   2.317   4.838
 1110SOL     OW 4228   2.351   0.628   2.336
 1110SOL    HW1 4229   2.424   0.697   2.334
 1110SOL    HW2 4230   2.266   0.671   2.366
 1111SOL     OW 4231   5.770   4.136   6.267
 1111SOL    HW1 4232   5.824   4.101   6.344
 1111SOL    HW2 4233   5.820   4.121   6.182
 1112SOL     OW 4234   5.553   0.840   2.205
 1112SOL    HW1 4235   5.471   0.876   2.160
 1112SOL    HW2 4236   5.544   0.741   2.217
 1113SOL     OW 4237   5.968   3.899   2.243
 1113SOL    HW1 4238   5.882   3.917   2.290
 1113SOL    HW2 4239   5.992   3.979   2.187
 1114SOL     OW 4240   3.331   3.832   4.464
 1114SOL    HW1 4241   3.297   3.918   4.500
 1114SOL    HW2 4242   3.425   3.845   4.431
 1115SOL     OW 4243   2.742   4.362   5.707
 1115SOL    HW1 4244   2.833   4.397   5.683
 1115SOL    HW2 4245   2.673   4.409   5.654
 1116SOL     OW 4246   4.649   6.844   6.711
 1116SOL    HW1 4247   4.586   6.836   6.788
 1116SOL    HW2 4248   4.613   6.794   6.633
 1117SOL     OW 4249   2.159   2.552   1.421
 1117SOL    HW1 4250   2.086   2.615   1.448
 1117SOL    HW2 4251   2.247   2.592   1.444
 1118SOL     OW 4252   4.175   6.128   0.229
 1118SOL    HW1 4253   4.272   6.116   0.207
 1118SOL    HW2 4254   4.145   6.052   0.287
 1119SOL     OW 4255   3.384   5.162   3.547
 1119SOL    HW1 4256   3.400   5.240   3.608
 1119SOL    HW2 4257   3.346   5.195   3.461
 1120SOL     OW 4258   6.365   3.460   1.209
 1120SOL    HW1 4259   6.336   3.449   1.304
 1120SOL    HW2 4260   6.378   3.558   1.190
 1121SOL     OW 4261   0.030   4.658   4.988
 1121SOL    HW1 4262   6.983   4.717   4.955
 1121SOL    HW2 4263   0.031   4.573   4.936
 1122SOL     OW 4264   5.391   2.366   1.938
 1122SOL    HW1 4265   5.354   2.339   2.027
 1122SOL    HW2 4266   5.490   2.348   1.936
 1123SOL     OW 4267   4.225   1.173   3.733
 1123SOL    HW1 4268   4.249   1.173   3.636
 1123SOL    HW2 4269   4.193   1.264   3.759
 1124SOL     OW 4270   1.911   2.171   4.429
 1124SOL    HW1 4271   1.979   2.241   4.408
 1124SOL    HW2 4272   1.942   2.083   4.392
 1125SOL     OW 4273   2.006   3.502   3.560
 1125SOL    HW1 4274   1.973   3.596   3.550
 1125SOL    HW2 4275   2.083   3.501   3.624
 1126SOL     OW 4276   3.928   5.091   4.558
 1126SOL    HW1 4277   3.967   5.001   4.539
 1126SOL    HW2 4278   3.998   5.161   4.543
 1127SOL     OW 4279   6.304   6.921   2.314
 1127SOL    HW1 4280   6.357   6.981   2.374
 1127SOL    HW2 4281   6.252   6.856   2.369
 1128SOL     OW 4282   4.963   1.004   4.417
 1128SOL    HW1 4283   5.021   1.028   4.495
 1128SOL    HW2 4284   5.007   0.933   4.362
 1129SOL     OW 4285   1.343   0.814   0.539
 1129SOL    HW1 4286   1.422   0.831   0.598
 1129SOL    HW2 4287   1.308   0.722   0.555
 1130SOL     OW 4288   2.174   4.711   2.207
 1130SOL    HW1 4289   2.233   4.662   2.272
 1130SOL    HW2 4290   2.184   4.670   2.116
 1131SOL     OW 4291   1.453   5.490   4.075
 1131SOL    HW1 4292   1.458   5.577   4.025
 1131SOL    HW2 4293   1.489   5.417   4.018
 1132SOL     OW 4294   2.142   1.459   2.561
 1132SOL    HW1 4295   2.192   1.378   2.591
 1132SOL    HW2 4296   2.171   1.484   2.469
 1133SOL     OW 4297   0.895   0.080   6.199
 1133SOL    HW1 4298   0.808   0.129   6.200
 1133SOL    HW2 4299   0.960   0.129   6.141
 1134SOL     OW 4300   3.393   6.447   1.890
 1134SOL    HW1 4301   3.481   6.492   1.905
 1134SOL    HW2 4302   3.397   6.392   1.807
 1135SOL     OW 4303   1.760   5.688   3.212
 1135SOL    HW1 4304   1.815   5.675   3.294
 1135SOL    HW2 4305   1.807   5.751   3.150
 1136SOL     OW 4306   1.707   5.230   2.244
 1136SOL    HW1 4307   1.760   5.150   2.216
 1136SOL    HW2 4308   1.753   5.276   2.320
 1137SOL     OW 4309   1.086   5.443   5.098
 1137SOL    HW1 4310   1.036   5.361   5.127
 1137SOL    HW2 4311   1.160   5.462   5.162
 1138SOL     OW 4312   2.178   3.220   4.755
 1138SOL    HW1 4313   2.197   3.131   4.797
 1138SOL    HW2 4314   2.154   3.286   4.826
 1139SOL     OW 4315   2.603   5.033   5.104
 1139SOL    HW1 4316   2.594   5.036   5.204
 1139SOL    HW2 4317   2.530   4.977   5.066
 1140SOL     OW 4318   2.136   2.140   1.224
 1140SOL    HW1 4319   2.175   2.090   1.301
 1140SOL    HW2 4320   2.182   2.113   1.139
 1141SOL     OW 4321   6.962   4.792   6.079
 1141SOL    HW1 4322   6.956   4.696   6.107
 1141SOL    HW2 4323   6.965   4.851   6.160
 1142SOL     OW 4324   1.799   6.236   2.145
 1142SOL    HW1 4325   1.807   6.226   2.244
 1142SOL    HW2 4326   1.805   6.333   2.121
 1143SOL     OW 4327   1.027   4.014   1.870
 1143SOL    HW1 4328   0.999   4.038   1.777
 1143SOL    HW2 4329   0.984   3.928   1.896
 1144SOL     OW 4330   5.851   4.530   0.508
 1144SOL    HW1 4331   5.907   4.534   0.591
 1144SOL    HW2 4332   5.847   4.620   0.465
 1145SOL     OW 4333   5.821   0.003   0.748
 1145SOL    HW1 4334   5.749   0.031   0.684
 1145SOL    HW2 4335   5.900   0.063   0.739
 1146SOL     OW 4336   1.036   1.095   1.412
 1146SOL    HW1 4337   1.069   1.050   1.495
 1146SOL    HW2 4338   1.103   1.085   1.339
 1147SOL     OW 4339   1.973   6.296   1.255
 1147SOL    HW1 4340   1.989   6.386   1.215
 1147SOL    HW2 4341   1.898   6.301   1.320
 1148SOL     OW 4342   4.107   6.131   3.327
 1148SOL    HW1 4343   4.196   6.120   3.372
 1148SOL    HW2 4344   4.114   6.203   3.257
 1149SOL     OW 4345   4.635   3.152   1.487
 1149SOL    HW1 4346   4.537   3.170   1.483
 1149SOL    HW2 4347   4.664   3.147   1.583
 1150SOL     OW 4348   1.565   3.710   0.773
 1150SOL    HW1 4349   1.477   3.746   0.803
 1150SOL    HW2 4350   1.619   3.684   0.853
 1151SOL     OW 4351   6.493   5.516   4.120
 1151SOL    HW1 4352   6.549   5.467   4.187
 1151SOL    HW2 4353   6.538   5.602   4.095
 1152SOL     OW 4354   3.400   6.465   6.214
 1152SOL    HW1 4355   3.480   6.473   6.273
 1152SOL    HW2 4356   3.349   6.383   6.238
 1153SOL     OW 4357   5.917   6.775   1.477
 1153SOL    HW1 4358   5.941   6.761   1.573
 1153SOL    HW2 4359   5.992   6.742   1.419
 1154SOL     OW 4360   2.043   2.958   1.053
 1154SOL    HW1 4361   2.002   2.933   0.965
 1154SOL    HW2 4362   2.027   2.885   1.119
 1155SOL     OW 4363   2.862   6.590   4.547
 1155SOL    HW1 4364   2.880   6.500   4.587
 1155SOL    HW2 4365   2.944   6.624   4.503
 1156SOL     OW 4366   2.816   1.996   3.443
 1156SOL    HW1 4367   2.838   2.024   3.537
 1156SOL    HW2 4368   2.901   1.977   3.394
 1157SOL     OW 4369   3.304   1.067   6.703
 1157SOL    HW1 4370   3.267   1.061   6.796
 1157SOL    HW2 4371   3.393   1.021   6.700
 1158SOL     OW 4372   5.810   4.304   2.925
 1158SOL    HW1 4373   5.719   4.318   2.885
 1158SOL    HW2 4374   5.879   4.321   2.855
 1159SOL     OW 4375   6.537   4.916   0.867
 1159SOL    HW1 4376   6.584   4.849   0.925
 1159SOL    HW2 4377   6.446   4.934   0.905
 1160SOL     OW 4378   5.602   1.863   0.477
 1160SOL    HW1 4379   5.534   1.895   0.411
 1160SOL    HW2 4380   5.620   1.936   0.544
 1161SOL     OW 4381   6.955   5.077   1.231
 1161SOL    HW1 4382   6.901   5.037   1.305
 1161SOL    HW2 4383   6.918   5.046   1.143
 1162SOL     OW 4384   3.215   2.016   4.995
 1162SOL    HW1 4385   3.302   2.014   4.946
 1162SOL    HW2 4386   3.191   2.111   5.016
 1163SOL     OW 4387   5.685   2.972   1.758
 1163SOL    HW1 4388   5.596   3.008   1.728
 1163SOL    HW2 4389   5.674   2.926   1.846
 1164SOL     OW 4390   4.055   2.588   5.806
 1164SOL    HW1 4391   4.084   2.680   5.832
 1164SOL    HW2 4392   4.126   2.546   5.749
 1165SOL     OW 4393   3.717   6.613   3.466
 1165SOL    HW1 4394   3.730   6.562   3.381
 1165SOL    HW2 4395   3.637   6.672   3.457
 1166SOL     OW 4396   3.385   4.752   6.162
 1166SOL    HW1 4397   3.305   4.692   6.167
 1166SOL    HW2 4398   3.360   4.838   6.118
 1167SOL     OW 4399   5.081   4.582   2.371
 1167SOL    HW1 4400   5.125   4.658   2.323
 1167SOL    HW2 4401   5.074   4.604   2.469
 1168SOL     OW 4402   6.109   0.506   2.744
 1168SOL    HW1 4403   6.089   0.590   2.794
 1168SOL    HW2 4404   6.207   0.485   2.752
 1169SOL     OW 4405   4.865   1.292   5.396
 1169SOL    HW1 4406   4.939   1.264   5.457
 1169SOL    HW2 4407   4.826   1.211   5.351
 1170SOL     OW 4408   5.127   5.954   3.317
 1170SOL    HW1 4409   5.035   5.964   3.355
 1170SOL    HW2 4410   5.193   5.947   3.392
 1171SOL     OW 4411   0.521   5.942   1.213
 1171SOL    HW1 4412   0.529   6.023   1.271
 1171SOL    HW2 4413   0.607   5.892   1.212
 1172SOL     OW 4414   6.749   3.338   6.871
 1172SOL    HW1 4415   6.668   3.359   6.925
 1172SOL    HW2 4416   6.778   3.420   6.822
 1173SOL     OW 4417   3.826   1.721   0.597
 1173SOL    HW1 4418   3.924   1.723   0.616
 1173SOL    HW2 4419   3.804   1.790   0.528
 1174SOL     OW 4420   2.604   4.172   0.704
 1174SOL    HW1 4421   2.631   4.177   0.800
 1174SOL    HW2 4422   2.681   4.198   0.646
 1175SOL     OW 4423   3.230   3.019   4.245
 1175SOL    HW1 4424   3.222   2.989   4.150
 1175SOL    HW2 4425   3.301   2.967   4.291
 1176SOL     OW 4426   5.650   3.515   5.884
 1176SOL    HW1 4427   5.725   3.482   5.941
 1176SOL    HW2 4428   5.621   3.443   5.822
 1177SOL     OW 4429   0.345   1.943   4.441
 1177SOL    HW1 4430   0.388   1.968   4.354
 1177SOL    HW2 4431   0.270   1.880   4.424
 1178SOL     OW 4432   3.893   5.652   0.511
 1178SOL    HW1 4433   3.958   5.596   0.563
 1178SOL    HW2 4434   3.802   5.645   0.553
 1179SOL     OW 4435   1.716   5.816   0.391
 1179SOL    HW1 4436   1.648   5.876   0.432
 1179SOL    HW2 4437   1.721   5.730   0.442
 1180SOL     OW 4438   3.213   6.337   0.654
 1180SOL    HW1 4439   3.157   6.419   0.649
 1180SOL    HW2 4440   3.261   6.324   0.568
 1181SOL     OW 4441   0.117   6.362   0.523
 1181SOL    HW1 4442   0.211   6.396   0.519
 1181SOL    HW2 4443   0.117   6.269   0.560
 1182SOL     OW 4444   4.322   4.608   2.950
 1182SOL    HW1 4445   4.379   4.565   3.020
 1182SOL    HW2 4446   4.261   4.675   2.994
 1183SOL     OW 4447   2.618   3.151   5.611
 1183SOL    HW1 4448   2.712   3.119   5.611
 1183SOL    HW2 4449   2.559   3.084   5.655
 1184SOL     OW 4450   0.710   6.800   5.610
 1184SOL    HW1 4451   0.725   6.874   5.676
 1184SOL    HW2 4452   0.684   6.839   5.522
 1185SOL     OW 4453   6.844   1.255   6.844
 1185SOL    HW1 4454   6.748   1.251   6.817
 1185SOL    HW2 4455   6.864   1.345   6.884
 1186SOL     OW 4456   5.711   6.236   4.558
 1186SOL    HW1 4457   5.651   6.284   4.623
 1186SOL    HW2 4458   5.761   6.164   4.606
 1187SOL     OW 4459   5.873   0.615   6.343
 1187SOL    HW1 4460   5.948   0.634   6.279
 1187SOL    HW2 4461   5.899   0.539   6.402
 1188SOL     OW 4462   2.421   0.308   6.309
 1188SOL    HW1 4463   2.488   0.301   6.236
 1188SOL    HW2 4464   2.405   0.217   6.348
 1189SOL     OW 4465   5.251   3.562   3.490
 1189SOL    HW1 4466   5.334   3.576   3.436
 1189SOL    HW2 4467   5.266   3.593   3.584
 1190SOL     OW 4468   2.009   5.908   3.207
 1190SOL    HW1 4469   2.035   5.857   3.125
 1190SOL    HW2 4470   2.087   5.961   3.240
 1191SOL     OW 4471   3.899   6.041   2.872
 1191SOL    HW1 4472   3.896   5.949   2.832
 1191SOL    HW2 4473   3.859   6.106   2.808
 1192SOL     OW 4474   5.787   6.084   3.531
 1192SOL    HW1 4475   5.812   6.174   3.497
 1192SOL    HW2 4476   5.787   6.018   3.456
 1193SOL     OW 4477   6.694   5.223   3.987
 1193SOL    HW1 4478   6.702   5.135   4.034
 1193SOL    HW2 4479   6.671   5.295   4.053
 1194SOL     OW 4480   3.645   0.703   0.936
 1194SOL    HW1 4481   3.611   0.738   1.023
 1194SOL    HW2 4482   3.721   0.759   0.904
 1195SOL     OW 4483   5.555   2.276   3.719
 1195SOL    HW1 4484   5.548   2.302   3.816
 1195SOL    HW2 4485   5.526   2.181   3.708
 1196SOL     OW 4486   6.312   6.248   5.160
 1196SOL    HW1 4487   6.327   6.295   5.246
 1196SOL    HW2 4488   6.243   6.296   5.106
 1197SOL     OW 4489   2.473   6.063   0.496
 1197SOL    HW1 4490   2.458   6.138   0.432
 1197SOL    HW2 4491   2.386   6.033   0.534
 1198SOL     OW 4492   1.308   2.980   6.983
 1198SOL    HW1 4493   1.236   2.919   7.016
 1198SOL    HW2 4494   1.350   3.026   0.035
 1199SOL     OW 4495   5.366   3.982   1.550
 1199SOL    HW1 4496   5.392   3.962   1.645
 1199SOL    HW2 4497   5.440   4.032   1.505
 1200SOL     OW 4498   3.113   3.075   1.959
 1200SOL    HW1 4499   3.101   3.094   2.056
 1200SOL    HW2 4500   3.163   3.150   1.916
 1201SOL     OW 4501   2.105   1.996   4.605
 1201SOL    HW1 4502   2.048   1.973   4.526
 1201SOL    HW2 4503   2.100   2.094   4.622
 1202SOL     OW 4504   0.545   5.405   5.747
 1202SOL    HW1 4505   0.589   5.477   5.801
 1202SOL    HW2 4506   0.451   5.391   5.780
 1203SOL     OW 4507   4.921   5.909   5.521
 1203SOL    HW1 4508   4.923   5.987   5.583
 1203SOL    HW2 4509   4.930   5.941   5.427
 1204SOL     OW 4510   2.089   6.790   2.980
 1204SOL    HW1 4511   2.017   6.765   2.915
 1204SOL    HW2 4512   2.134   6.873   2.948
 1205SOL     OW 4513   5.132   4.362   2.234
 1205SOL    HW1 4514   5.164   4.287   2.293
 1205SOL    HW2 4515   5.115   4.443   2.290
 1206SOL     OW 4516   3.117   3.020   4.862
 1206SOL    HW1 4517   3.063   3.052   4.785
 1206SOL    HW2 4518   3.106   3.083   4.939
 1207SOL     OW 4519   1.238   6.410   2.324
 1207SOL    HW1 4520   1.166   6.348   2.291
 1207SOL    HW2 4521   1.322   6.394   2.272
 1208SOL     OW 4522   3.378   4.193   5.960
 1208SOL    HW1 4523   3.285   4.219   5.932
 1208SOL    HW2 4524   3.424   4.147   5.884
 1209SOL     OW 4525   4.089   6.320   5.867
 1209SOL    HW1 4526   4.062   6.353   5.776
 1209SOL    HW2 4527   4.056   6.383   5.937
 1210SOL     OW 4528   3.494   0.549   2.952
 1210SOL    HW1 4529   3.585   0.547   2.911
 1210SOL    HW2 4530   3.446   0.631   2.922
 1211SOL     OW 4531   0.965   3.482   6.996
 1211SOL    HW1 4532   0.914   3.397   7.010
 1211SOL    HW2 4533   0.945   3.545   0.045
 1212SOL     OW 4534   1.587   6.711   0.367
 1212SOL    HW1 4535   1.550   6.641   0.306
 1212SOL    HW2 4536   1.515   6.776   0.391
 1213SOL     OW 4537   5.472   2.832   1.298
 1213SOL    HW1 4538   5.473   2.765   1.224
 1213SOL    HW2 4539   5.554   2.821   1.354
 1214SOL     OW 4540   6.812   2.031   1.377
 1214SOL    HW1 4541   6.769   2.080   1.453
 1214SOL    HW2 4542   6.895   2.080   1.349
 1215SOL     OW 4543   1.441   5.686   3.846
 1215SOL    HW1 4544   1.493   5.771   3.852
 1215SOL    HW2 4545   1.347   5.703   3.878
 1216SOL     OW 4546   4.475   6.083   1.271
 1216SOL    HW1 4547   4.393   6.106   1.219
 1216SOL    HW2 4548   4.544   6.153   1.257
 1217SOL     OW 4549   3.087   4.068   6.872
 1217SOL    HW1 4550   3.072   4.157   6.915
 1217SOL    HW2 4551   3.183   4.042   6.881
 1218SOL     OW 4552   1.822   4.655   3.779
 1218SOL    HW1 4553   1.749   4.601   3.735
 1218SOL    HW2 4554   1.905   4.600   3.783
 1219SOL     OW 4555   4.490   6.191   2.321
 1219SOL    HW1 4556   4.444   6.277   2.299
 1219SOL    HW2 4557   4.549   6.204   2.401
 1220SOL     OW 4558   0.935   4.638   2.617
 1220SOL    HW1 4559   1.004   4.674   2.554
 1220SOL    HW2 4560   0.957   4.542   2.638
 1221SOL     OW 4561   5.226   4.057   6.162
 1221SOL    HW1 4562   5.250   4.070   6.065
 1221SOL    HW2 4563   5.132   4.088   6.177
 1222SOL     OW 4564   6.373   0.071   6.496
 1222SOL    HW1 4565   6.317   0.095   6.417
 1222SOL    HW2 4566   6.392   0.153   6.550
 1223SOL     OW 4567   3.382   6.641   0.825
 1223SOL    HW1 4568   3.331   6.596   0.898
 1223SOL    HW2 4569   3.409   6.733   0.854
 1224SOL     OW 4570   3.453   0.279   2.164
 1224SOL    HW1 4571   3.498   0.367   2.150
 1224SOL    HW2 4572   3.365   0.279   2.117
 1225SOL     OW 4573   2.543   4.164   6.187
 1225SOL    HW1 4574   2.559   4.250   6.236
 1225SOL    HW2 4575   2.604   4.159   6.108
 1226SOL     OW 4576   1.831   4.892   1.029
 1226SOL    HW1 4577   1.787   4.805   1.048
 1226SOL    HW2 4578   1.894   4.915   1.103
 1227SOL     OW 4579   0.286   3.871   6.122
 1227SOL    HW1 4580   0.350   3.890   6.047
 1227SOL    HW2 4581   0.309   3.783   6.164
 1228SOL     OW 4582   3.504   1.483   6.158
 1228SOL    HW1 4583   3.407   1.472   6.137
 1228SOL    HW2 4584   3.543   1.394   6.184
 1229SOL     OW 4585   3.410   4.002   6.196
 1229SOL    HW1 4586   3.337   3.940   6.165
 1229SOL    HW2 4587   3.426   4.072   6.126
 1230SOL     OW 4588   4.612   6.519   3.520
 1230SOL    HW1 4589   4.555   6.586   3.568
 1230SOL    HW2 4590   4.553   6.453   3.473
 1231SOL     OW 4591   1.163   5.019   4.589
 1231SOL    HW1 4592   1.067   4.992   4.583
 1231SOL    HW2 4593   1.221   4.937   4.582
 1232SOL     OW 4594   1.780   2.331   4.634
 1232SOL    HW1 4595   1.792   2.268   4.557
 1232SOL    HW2 4596   1.683   2.343   4.654
 1233SOL     OW 4597   0.647   2.687   4.297
 1233SOL    HW1 4598   0.672   2.660   4.390
 1233SOL    HW2 4599   0.681   2.780   4.280
 1234SOL     OW 4600   6.565   4.171   4.394
 1234SOL    HW1 4601   6.475   4.187   4.436
 1234SOL    HW2 4602   6.571   4.222   4.308
 1235SOL     OW 4603   6.802   5.680   4.167
 1235SOL    HW1 4604   6.825   5.715   4.076
 1235SOL    HW2 4605   6.871   5.710   4.232
 1236SOL     OW 4606   5.041   1.123   6.705
 1236SOL    HW1 4607   5.044   1.028   6.674
 1236SOL    HW2 4608   5.080   1.183   6.636
 1237SOL     OW 4609   2.949   4.352   6.762
 1237SOL    HW1 4610   3.026   4.398   6.717
 1237SOL    HW2 4611   2.960   4.253   6.755
 1238SOL     OW 4612   1.559   1.343   1.503
 1238SOL    HW1 4613   1.482   1.296   1.461
 1238SOL    HW2 4614   1.629   1.361   1.434
 1239SOL     OW 4615   0.178   6.835   6.111
 1239SOL    HW1 4616   0.257   6.883   6.149
 1239SOL    HW2 4617   0.165   6.863   6.016
 1240SOL     OW 4618   4.199   6.013   2.057
 1240SOL    HW1 4619   4.169   6.088   2.116
 1240SOL    HW2 4620   4.299   6.009   2.056
 1241SOL     OW 4621   6.725   3.078   3.692
 1241SOL    HW1 4622   6.795   3.064   3.762
 1241SOL    HW2 4623   6.704   2.990   3.649
 1242SOL     OW 4624   2.544   3.576   6.152
 1242SOL    HW1 4625   2.618   3.550   6.090
 1242SOL    HW2 4626   2.460   3.591   6.100
 1243SOL     OW 4627   3.060   5.215   5.756
 1243SOL    HW1 4628   3.150   5.201   5.798
 1243SOL    HW2 4629   3.029   5.130   5.714
 1244SOL     OW 4630   0.706   0.995   2.913
 1244SOL    HW1 4631   0.749   1.040   2.991
 1244SOL    HW2 4632   0.706   1.057   2.835
 1245SOL     OW 4633   2.994   2.887   6.082
 1245SOL    HW1 4634   3.046   2.821   6.135
 1245SOL    HW2 4635   2.994   2.975   6.129
 1246SOL     OW 4636   1.290   6.741   2.111
 1246SOL    HW1 4637   1.252   6.709   2.025
 1246SOL    HW2 4638   1.251   6.689   2.187
 1247SOL     OW 4639   1.465   6.533   6.943
 1247SOL    HW1 4640   1.526   6.611   6.953
 1247SOL    HW2 4641   1.431   6.529   6.849
 1248SOL     OW 4642   1.928   6.438   3.418
 1248SOL    HW1 4643   1.907   6.535   3.419
 1248SOL    HW2 4644   1.884   6.395   3.339
 1249SOL     OW 4645   6.447   3.316   3.344
 1249SOL    HW1 4646   6.459   3.226   3.384
 1249SOL    HW2 4647   6.420   3.308   3.248
 1250SOL     OW 4648   0.765   3.955   4.466
 1250SOL    HW1 4649   0.786   3.863   4.497
 1250SOL    HW2 4650   0.845   4.014   4.479
 1251SOL     OW 4651   3.331   6.639   5.565
 1251SOL    HW1 4652   3.387   6.698   5.507
 1251SOL    HW2 4653   3.250   6.690   5.595
 1252SOL     OW 4654   3.285   3.484   6.556
 1252SOL    HW1 4655   3.265   3.421   6.481
 1252SOL    HW2 4656   3.201   3.505   6.605
 1253SOL     OW 4657   4.438   6.289   3.424
 1253SOL    HW1 4658   4.420   6.249   3.513
 1253SOL    HW2 4659   4.461   6.216   3.359
 1254SOL     OW 4660   6.407   2.141   2.595
 1254SOL    HW1 4661   6.428   2.232   2.628
 1254SOL    HW2 4662   6.308   2.125   2.598
 1255SOL     OW 4663   6.232   0.030   0.531
 1255SOL    HW1 4664   6.308   6.992   0.538
 1255SOL    HW2 4665   6.209   0.065   0.622
 1256SOL     OW 4666   4.325   1.860   4.097
 1256SOL    HW1 4667   4.319   1.865   3.998
 1256SOL    HW2 4668   4.282   1.941   4.137
 1257SOL     OW 4669   6.465   1.214   4.329
 1257SOL    HW1 4670   6.536   1.279   4.300
 1257SOL    HW2 4671   6.473   1.130   4.275
 1258SOL     OW 4672   0.109   6.359   3.907
 1258SOL    HW1 4673   0.010   6.347   3.900
 1258SOL    HW2 4674   0.155   6.297   3.843
 1259SOL     OW 4675   3.978   2.194   5.544
 1259SOL    HW1 4676   4.005   2.158   5.454
 1259SOL    HW2 4677   4.037   2.155   5.614
 1260SOL     OW 4678   0.342   1.772   5.518
 1260SOL    HW1 4679   0.432   1.772   5.475
 1260SOL    HW2 4680   0.271   1.770   5.447
 1261SOL     OW 4681   6.259   3.779   0.874
 1261SOL    HW1 4682   6.337   3.812   0.820
 1261SOL    HW2 4683   6.259   3.679   0.876
 1262SOL     OW 4684   4.992   6.417   2.768
 1262SOL    HW1 4685   4.938   6.469   2.835
 1262SOL    HW2 4686   4.934   6.351   2.722
 1263SOL     OW 4687   6.765   2.413   3.561
 1263SOL    HW1 4688   6.811   2.490   3.515
 1263SOL    HW2 4689   6.667   2.432   3.566
 1264SOL     OW 4690   0.882   2.897   5.110
 1264SOL    HW1 4691   0.880   2.835   5.188
 1264SOL    HW2 4692   0.800   2.883   5.054
 1265SOL     OW 4693   5.698   6.661   5.709
 1265SOL    HW1 4694   5.727   6.656   5.805
 1265SOL    HW2 4695   5.603   6.630   5.702
 1266SOL     OW 4696   2.015   1.590   5.926
 1266SOL    HW1 4697   1.995   1.668   5.866
 1266SOL    HW2 4698   2.000   1.505   5.877
 1267SOL     OW 4699   3.672   0.147   2.745
 1267SOL    HW1 4700   3.646   0.095   2.664
 1267SOL    HW2 4701   3.599   0.140   2.813
 1268SOL     OW 4702   4.166   2.840   5.809
 1268SOL    HW1 4703   4.120   2.929   5.814
 1268SOL    HW2 4704   4.262   2.851   5.837
 1269SOL     OW 4705   5.870   2.010   3.979
 1269SOL    HW1 4706   5.859   2.095   3.928
 1269SOL    HW2 4707   5.853   1.932   3.919
 1270SOL     OW 4708   6.377   5.473   2.890
 1270SOL    HW1 4709   6.332   5.512   2.970
 1270SOL    HW2 4710   6.413   5.383   2.913
 1271SOL     OW 4711   1.865   1.227   0.974
 1271SOL    HW1 4712   1.799   1.156   1.000
 1271SOL    HW2 4713   1.842   1.262   0.884
 1272SOL     OW 4714   6.219   2.762   6.503
 1272SOL    HW1 4715   6.290   2.703   6.465
 1272SOL    HW2 4716   6.224   2.760   6.603
 1273SOL     OW 4717   1.134   4.629   5.479
 1273SOL    HW1 4718   1.131   4.707   5.417
 1273SOL    HW2 4719   1.229   4.602   5.495
 1274SOL     OW 4720   6.910   5.105   2.875
 1274SOL    HW1 4721   6.873   5.092   2.967
 1274SOL    HW2 4722   6.966   5.026   2.850
 1275SOL     OW 4723   2.295   1.200   3.264
 1275SOL    HW1 4724   2.304   1.299   3.270
 1275SOL    HW2 4725   2.198   1.175   3.273
 1276SOL     OW 4726   5.409   4.842   3.683
 1276SOL    HW1 4727   5.338   4.794   3.733
 1276SOL    HW2 4728   5.497   4.797   3.698
 1277SOL     OW 4729   0.281   5.673   0.607
 1277SOL    HW1 4730   0.216   5.597   0.618
 1277SOL    HW2 4731   0.329   5.688   0.693
 1278SOL     OW 4732   1.288   5.861   3.142
 1278SOL    HW1 4733   1.304   5.935   3.208
 1278SOL    HW2 4734   1.367   5.800   3.142
 1279SOL     OW 4735   2.688   2.869   1.585
 1279SOL    HW1 4736   2.668   2.946   1.645
 1279SOL    HW2 4737   2.787   2.864   1.569
 1280SOL     OW 4738   2.346   1.735   4.171
 1280SOL    HW1 4739   2.291   1.815   4.150
 1280SOL    HW2 4740   2.443   1.760   4.172
 1281SOL     OW 4741   5.284   6.439   5.236
 1281SOL    HW1 4742   5.201   6.420   5.290
 1281SOL    HW2 4743   5.310   6.534   5.249
 1282SOL     OW 4744   0.780   2.977   1.406
 1282SOL    HW1 4745   0.801   3.026   1.322
 1282SOL    HW2 4746   0.749   2.885   1.385
 1283SOL     OW 4747   6.656   2.918   4.601
 1283SOL    HW1 4748   6.659   2.932   4.502
 1283SOL    HW2 4749   6.744   2.944   4.641
 1284SOL     OW 4750   3.985   2.176   1.981
 1284SOL    HW1 4751   4.027   2.224   1.904
 1284SOL    HW2 4752   3.887   2.192   1.982
 1285SOL     OW 4753   4.251   1.280   4.907
 1285SOL    HW1 4754   4.174   1.216   4.905
 1285SOL    HW2 4755   4.292   1.286   4.816
 1286SOL     OW 4756   5.310   1.313   0.761
 1286SOL    HW1 4757   5.376   1.240   0.778
 1286SOL    HW2 4758   5.337   1.395   0.812
 1287SOL     OW 4759   6.859   4.852   4.889
 1287SOL    HW1 4760   6.927   4.894   4.829
 1287SOL    HW2 4761   6.773   4.901   4.882
 1288SOL     OW 4762   4.818   4.846   6.866
 1288SOL    HW1 4763   4.722   4.873   6.865
 1288SOL    HW2 4764   4.876   4.928   6.873
 1289SOL     OW 4765   0.093   6.997   1.316
 1289SOL    HW1 4766   0.002   6.968   1.288
 1289SOL    HW2 4767   0.088   0.012   1.407
 1290SOL     OW 4768   1.109   6.287   5.381
 1290SOL    HW1 4769   1.190   6.239   5.348
 1290SOL    HW2 4770   1.061   6.328   5.304
 1291SOL     OW 4771   6.371   4.870   3.340
 1291SOL    HW1 4772   6.441   4.919   3.392
 1291SOL    HW2 4773   6.292   4.930   3.325
 1292SOL     OW 4774   0.811   6.708   1.884
 1292SOL    HW1 4775   0.832   6.699   1.786
 1292SOL    HW2 4776   0.713   6.723   1.896
 1293SOL     OW 4777   4.903   1.019   0.188
 1293SOL    HW1 4778   4.952   1.019   0.101
 1293SOL    HW2 4779   4.928   0.938   0.241
 1294SOL     OW 4780   2.084   4.412   5.079
 1294SOL    HW1 4781   2.032   4.331   5.053
 1294SOL    HW2 4782   2.172   4.384   5.117
 1295SOL     OW 4783   6.643   4.358   0.762
 1295SOL    HW1 4784   6.737   4.332   0.784
 1295SOL    HW2 4785   6.643   4.433   0.696
 1296SOL     OW 4786   5.216   0.334   5.824
 1296SOL    HW1 4787   5.306   0.318   5.783
 1296SOL    HW2 4788   5.189   0.254   5.878
 1297SOL     OW 4789   0.257   0.521   1.607
 1297SOL    HW1 4790   0.291   0.444   1.662
 1297SOL    HW2 4791   0.329   0.590   1.599
 1298SOL     OW 4792   5.080   0.697   2.547
 1298SOL    HW1 4793   5.102   0.762   2.620
 1298SOL    HW2 4794   5.163   0.648   2.520
 1299SOL     OW 4795   0.821   3.346   3.995
 1299SOL    HW1 4796   0.813   3.247   4.010
 1299SOL    HW2 4797   0.802   3.367   3.899
 1300SOL     OW 4798   0.491   5.762   1.518
 1300SOL    HW1 4799   0.415   5.716   1.473
 1300SOL    HW2 4800   0.485   5.747   1.617
 1301SOL     OW 4801   0.003   0.281   0.322
 1301SOL    HW1 4802   0.048   0.274   0.411
 1301SOL    HW2 4803   6.987   0.194   0.298
 1302SOL     OW 4804   6.375   6.752   5.392
 1302SOL    HW1 4805   6.283   6.772   5.424
 1302SOL    HW2 4806   6.405   6.824   5.329
 1303SOL     OW 4807   2.888   6.028   1.693
 1303SOL    HW1 4808   2.794   6.060   1.704
 1303SOL    HW2 4809   2.894   5.933   1.722
 1304SOL     OW 4810   0.313   0.490   0.616
 1304SOL    HW1 4811   0.355   0.466   0.704
 1304SOL    HW2 4812   0.215   0.475   0.621
 1305SOL     OW 4813   4.605   3.874   6.169
 1305SOL    HW1 4814   4.518   3.836   6.137
 1305SOL    HW2 4815   4.638   3.821   6.247
 1306SOL     OW 4816   3.315   5.941   4.012
 1306SOL    HW1 4817   3.390   5.885   4.049
 1306SOL    HW2 4818   3.320   5.941   3.912
 1307SOL     OW 4819   2.626   2.495   3.563
 1307SOL    HW1 4820   2.698   2.564   3.576
 1307SOL    HW2 4821   2.650   2.437   3.485
 1308SOL     OW 4822   0.130   4.197   6.373
 1308SOL    HW1 4823   0.217   4.172   6.331
 1308SOL    HW2 4824   0.055   4.157   6.320
 1309SOL     OW 4825   5.577   4.688   6.649
 1309SOL    HW1 4826   5.608   4.597   6.677
 1309SOL    HW2 4827   5.621   4.713   6.563
 1310SOL     OW 4828   1.653   4.617   3.357
 1310SOL    HW1 4829   1.679   4.521   3.359
 1310SOL    HW2 4830   1.585   4.632   3.286
 1311SOL     OW 4831   6.065   5.023   0.610
 1311SOL    HW1 4832   6.139   4.979   0.559
 1311SOL    HW2 4833   5.977   4.982   0.583
 1312SOL     OW 4834   2.983   1.219   5.830
 1312SOL    HW1 4835   2.917   1.220   5.904
 1312SOL    HW2 4836   3.062   1.164   5.856
 1313SOL     OW 4837   6.465   5.395   1.915
 1313SOL    HW1 4838   6.442   5.440   2.001
 1313SOL    HW2 4839   6.563   5.374   1.914
 1314SOL     OW 4840   2.473   2.051   5.023
 1314SOL    HW1 4841   2.558   2.001   5.040
 1314SOL    HW2 4842   2.461   2.063   4.924
 1315SOL     OW 4843   6.332   0.788   2.817
 1315SOL    HW1 4844   6.236   0.787   2.844
 1315SOL    HW2 4845   6.388   0.752   2.891
 1316SOL     OW 4846   5.272   0.454   6.628
 1316SOL    HW1 4847   5.333   0.533   6.638
 1316SOL    HW2 4848   5.303   0.380   6.687
 1317SOL     OW 4849   3.542   3.365   5.673
 1317SOL    HW1 4850   3.556   3.333   5.579
 1317SOL    HW2 4851   3.466   3.315   5.715
 1318SOL     OW 4852   1.731   1.753   6.377
 1318SOL    HW1 4853   1.793   1.830   6.359
 1318SOL    HW2 4854   1.639   1.787   6.394
 1319SOL     OW 4855   6.839   7.019   0.506
 1319SOL    HW1 4856   6.839   0.074   0.565
 1319SOL    HW2 4857   6.907   6.954   0.539
 1320SOL     OW 4858   3.613   3.175   5.995
 1320SOL    HW1 4859   3.582   3.216   6.081
 1320SOL    HW2 4860   3.614   3.244   5.923
 1321SOL     OW 4861   6.854   2.567   0.419
 1321SOL    HW1 4862   6.864   2.622   0.336
 1321SOL    HW2 4863   6.919   2.598   0.488
 1322SOL     OW 4864   3.213   2.253   6.980
 1322SOL    HW1 4865   3.269   2.332   7.004
 1322SOL    HW2 4866   3.191   2.255   6.883
 1323SOL     OW 4867   3.954   6.397   1.176
 1323SOL    HW1 4868   3.867   6.437   1.204
 1323SOL    HW2 4869   3.958   6.391   1.076
 1324SOL     OW 4870   2.281   4.191   6.390
 1324SOL    HW1 4871   2.363   4.201   6.446
 1324SOL    HW2 4872   2.245   4.282   6.367
 1325SOL     OW 4873   2.950   5.656   5.303
 1325SOL    HW1 4874   2.975   5.578   5.246
 1325SOL    HW2 4875   2.975   5.637   5.398
 1326SOL     OW 4876   4.915   2.071   4.704
 1326SOL    HW1 4877   4.937   2.112   4.792
 1326SOL    HW2 4878   4.850   2.130   4.655
 1327SOL     OW 4879   5.193   5.567   2.468
 1327SOL    HW1 4880   5.192   5.498   2.540
 1327SOL    HW2 4881   5.186   5.658   2.508
 1328SOL     OW 4882   1.864   2.741   5.766
 1328SOL    HW1 4883   1.855   2.762   5.669
 1328SOL    HW2 4884   1.943   2.788   5.804
 1329SOL     OW 4885   0.867   3.089   4.042
 1329SOL    HW1 4886   0.964   3.094   4.015
 1329SOL    HW2 4887   0.861   3.062   4.138
 1330SOL     OW 4888   5.548   3.260   2.777
 1330SOL    HW1 4889   5.643   3.292   2.772
 1330SOL    HW2 4890   5.531   3.192   2.707
 1331SOL     OW 4891   4.408   2.092   3.768
 1331SOL    HW1 4892   4.507   2.092   3.775
 1331SOL    HW2 4893   4.375   2.185   3.749
 1332SOL     OW 4894   2.322   5.510   0.261
 1332SOL    HW1 4895   2.289   5.597   0.297
 1332SOL    HW2 4896   2.397   5.476   0.318
 1333SOL     OW 4897   2.894   3.657   3.088
 1333SOL    HW1 4898   2.984   3.696   3.066
 1333SOL    HW2 4899   2.864   3.691   3.177
 1334SOL     OW 4900   6.767   3.487   1.692
 1334SOL    HW1 4901   6.694   3.449   1.748
 1334SOL    HW2 4902   6.791   3.579   1.724
 1335SOL     OW 4903   0.819   3.569   3.071
 1335SOL    HW1 4904   0.835   3.587   2.974
 1335SOL    HW2 4905   0.819   3.656   3.121
 1336SOL     OW 4906   2.054   0.109   5.625
 1336SOL    HW1 4907   1.998   0.191   5.638
 1336SOL    HW2 4908   2.126   0.128   5.559
 1337SOL     OW 4909   6.923   0.386   3.111
 1337SOL    HW1 4910   6.945   0.307   3.054
 1337SOL    HW2 4911   6.972   0.466   3.077
 1338SOL     OW 4912   6.769   4.152   4.859
 1338SOL    HW1 4913   6.717   4.071   4.832
 1338SOL    HW2 4914   6.866   4.130   4.860
 1339SOL     OW 4915   6.745   0.270   0.297
 1339SOL    HW1 4916   6.758   0.209   0.218
 1339SOL    HW2 4917   6.829   0.322   0.312
 1340SOL     OW 4918   4.108   2.680   1.393
 1340SOL    HW1 4919   4.108   2.779   1.399
 1340SOL    HW2 4920   4.054   2.651   1.314
 1341SOL     OW 4921   5.313   5.624   0.087
 1341SOL    HW1 4922   5.328   5.556   0.160
 1341SOL    HW2 4923   5.272   5.706   0.127
 1342SOL     OW 4924   2.040   6.182   1.824
 1342SOL    HW1 4925   1.963   6.147   1.877
 1342SOL    HW2 4926   2.032   6.281   1.815
 1343SOL     OW 4927   6.025   6.064   3.216
 1343SOL    HW1 4928   5.935   6.025   3.199
 1343SOL    HW2 4929   6.077   6.003   3.276
 1344SOL     OW 4930   0.739   0.817   4.647
 1344SOL    HW1 4931   0.808   0.847   4.581
 1344SOL    HW2 4932   0.781   0.757   4.715
 1345SOL     OW 4933   0.505   6.407   0.215
 1345SOL    HW1 4934   0.571   6.333   0.218
 1345SOL    HW2 4935   0.473   6.427   0.307
 1346SOL     OW 4936   3.329   4.961   4.887
 1346SOL    HW1 4937   3.359   4.938   4.979
 1346SOL    HW2 4938   3.271   5.042   4.889
 1347SOL     OW 4939   1.230   0.135   6.506
 1347SOL    HW1 4940   1.223   0.234   6.516
 1347SOL    HW2 4941   1.233   0.111   6.409
 1348SOL     OW 4942   0.363   6.504   5.343
 1348SOL    HW1 4943   0.419   6.446   5.402
 1348SOL    HW2 4944   0.267   6.491   5.366
 1349SOL     OW 4945   4.799   2.873   3.762
 1349SOL    HW1 4946   4.830   2.913   3.675
 1349SOL    HW2 4947   4.761   2.783   3.746
 1350SOL     OW 4948   4.337   4.372   6.507
 1350SOL    HW1 4949   4.356   4.469   6.524
 1350SOL    HW2 4950   4.417   4.318   6.535
 1351SOL     OW 4951   0.697   2.943   5.702
 1351SOL    HW1 4952   0.794   2.932   5.681
 1351SOL    HW2 4953   0.655   3.005   5.636
 1352SOL     OW 4954   0.139   0.536   2.274
 1352SOL    HW1 4955   0.112   0.592   2.353
 1352SOL    HW2 4956   0.237   0.550   2.256
 1353SOL     OW 4957   0.664   0.991   0.368
 1353SOL    HW1 4958   0.691   1.069   0.311
 1353SOL    HW2 4959   0.657   0.910   0.310
 1354SOL     OW 4960   4.822   5.347   2.683
 1354SOL    HW1 4961   4.783   5.337   2.774
 1354SOL    HW2 4962   4.817   5.259   2.635
 1355SOL     OW 4963   5.559   2.829   5.939
 1355SOL    HW1 4964   5.483   2.809   5.878
 1355SOL    HW2 4965   5.524   2.850   6.030
 1356SOL     OW 4966   2.412   3.222   0.327
 1356SOL    HW1 4967   2.361   3.290   0.380
 1356SOL    HW2 4968   2.456   3.157   0.388
 1357SOL     OW 4969   1.653   3.217   5.484
 1357SOL    HW1 4970   1.746   3.252   5.475
 1357SOL    HW2 4971   1.653   3.118   5.470
 1358SOL     OW 4972   2.482   6.970   0.480
 1358SOL    HW1 4973   2.401   6.966   0.421
 1358SOL    HW2 4974   2.522   0.035   0.476
 1359SOL     OW 4975   6.749   4.557   1.202
 1359SOL    HW1 4976   6.829   4.510   1.165
 1359SOL    HW2 4977   6.689   4.491   1.246
 1360SOL     OW 4978   1.965   2.642   7.016
 1360SOL    HW1 4979   1.922   2.598   0.068
 1360SOL    HW2 4980   2.059   2.608   7.006
 1361SOL     OW 4981   6.932   4.530   5.214
 1361SOL    HW1 4982   6.922   4.441   5.170
 1361SOL    HW2 4983   6.954   4.599   5.145
 1362SOL     OW 4984   3.649   3.423   3.110
 1362SOL    HW1 4985   3.583   3.497   3.124
 1362SOL    HW2 4986   3.739   3.462   3.091
 1363SOL     OW 4987   0.966   6.121   4.446
 1363SOL    HW1 4988   0.878   6.075   4.434
 1363SOL    HW2 4989   1.033   6.055   4.481
 1364SOL     OW 4990   4.600   4.285   0.849
 1364SOL    HW1 4991   4.697   4.308   0.855
 1364SOL    HW2 4992   4.584   4.193   0.885
 1365SOL     OW 4993   6.449   3.316   6.731
 1365SOL    HW1 4994   6.456   3.251   6.656
 1365SOL    HW2 4995   6.417   3.269   6.813
 1366SOL     OW 4996   3.171   6.834   5.274
 1366SOL    HW1 4997   3.089   6.844   5.217
 1366SOL    HW2 4998   3.150   6.863   5.368
 1367SOL     OW 4999   2.535   1.395   2.027
 1367SOL    HW1 5000   2.487   1.446   2.098
 1367SOL    HW2 5001   2.608   1.341   2.069
 1368SOL     OW 5002   5.603   6.319   3.357
 1368SOL    HW1 5003   5.533   6.350   3.422
 1368SOL    HW2 5004   5.573   6.233   3.315
 1369SOL     OW 5005   1.120   0.856   2.866
 1369SOL    HW1 5006   1.046   0.912   2.829
 1369SOL    HW2 5007   1.167   0.809   2.791
 1370SOL     OW 5008   2.225   0.323   1.550
 1370SOL    HW1 5009   2.220   0.281   1.459
 1370SOL    HW2 5010   2.274   0.262   1.612
 1371SOL     OW 5011   3.752   0.326   6.828
 1371SOL    HW1 5012   3.696   0.244   6.814
 1371SOL    HW2 5013   3.694   0.407   6.829
 1372SOL     OW 5014   3.110   2.114   1.976
 1372SOL    HW1 5015   3.190   2.152   1.929
 1372SOL    HW2 5016   3.059   2.189   2.019
 1373SOL     OW 5017   1.465   5.930   0.424
 1373SOL    HW1 5018   1.470   5.966   0.517
 1373SOL    HW2 5019   1.445   6.004   0.360
 1374SOL     OW 5020   5.104   3.863   0.056
 1374SOL    HW1 5021   5.149   3.805   7.014
 1374SOL    HW2 5022   5.137   3.839   0.147
 1375SOL     OW 5023   0.809   4.525   5.159
 1375SOL    HW1 5024   0.749   4.445   5.154
 1375SOL    HW2 5025   0.763   4.605   5.120
 1376SOL     OW 5026   4.196   1.498   2.535
 1376SOL    HW1 5027   4.148   1.419   2.498
 1376SOL    HW2 5028   4.284   1.508   2.488
 1377SOL     OW 5029   0.911   4.953   4.589
 1377SOL    HW1 5030   0.832   4.963   4.650
 1377SOL    HW2 5031   0.881   4.953   4.494
 1378SOL     OW 5032   1.667   2.750   6.673
 1378SOL    HW1 5033   1.731   2.678   6.700
 1378SOL    HW2 5034   1.699   2.838   6.708
 1379SOL     OW 5035   4.061   5.873   1.241
 1379SOL    HW1 5036   3.986   5.939   1.236
 1379SOL    HW2 5037   4.123   5.898   1.316
 1380SOL     OW 5038   6.282   6.382   2.521
 1380SOL    HW1 5039   6.246   6.378   2.428
 1380SOL    HW2 5040   6.216   6.427   2.581
 1381SOL     OW 5041   5.985   7.003   1.276
 1381SOL    HW1 5042   5.921   6.935   1.242
 1381SOL    HW2 5043   6.046   6.961   1.344
 1382SOL     OW 5044   0.244   5.039   6.525
 1382SOL    HW1 5045   0.328   5.082   6.494
 1382SOL    HW2 5046   0.266   4.951   6.568
 1383SOL     OW 5047   2.620   0.686   0.097
 1383SOL    HW1 5048   2.657   0.779   0.100
 1383SOL    HW2 5049   2.666   0.634   0.025
 1384SOL     OW 5050   2.563   2.048   2.159
 1384SOL    HW1 5051   2.502   2.050   2.080
 1384SOL    HW2 5052   2.624   2.127   2.156
 1385SOL     OW 5053   5.476   2.823   4.033
 1385SOL    HW1 5054   5.494   2.727   4.011
 1385SOL    HW2 5055   5.419   2.863   3.961
 1386SOL     OW 5056   2.049   2.762   3.767
 1386SOL    HW1 5057   2.035   2.785   3.863
 1386SOL    HW2 5058   2.131   2.809   3.733
 1387SOL     OW 5059   2.478   0.715   4.765
 1387SOL    HW1 5060   2.429   0.640   4.721
 1387SOL    HW2 5061   2.519   0.773   4.695
 1388SOL     OW 5062   6.277   1.253   4.561
 1388SOL    HW1 5063   6.309   1.220   4.472
 1388SOL    HW2 5064   6.187   1.294   4.550
 1389SOL     OW 5065   6.384   0.614   4.030
 1389SOL    HW1 5066   6.363   0.524   4.067
 1389SOL    HW2 5067   6.416   0.674   4.103
 1390SOL     OW 5068   4.442   2.448   2.247
 1390SOL    HW1 5069   4.432   2.438   2.346
 1390SOL    HW2 5070   4.474   2.541   2.226
 1391SOL     OW 5071   5.995   1.551   4.717
 1391SOL    HW1 5072   6.092   1.562   4.735
 1391SOL    HW2 5073   5.947   1.636   4.738
 1392SOL     OW 5074   4.354   6.148   5.317
 1392SOL    HW1 5075   4.441   6.101   5.326
 1392SOL    HW2 5076   4.304   6.111   5.238
 1393SOL     OW 5077   4.948   0.160   6.686
 1393SOL    HW1 5078   4.944   0.066   6.719
 1393SOL    HW2 5079   4.999   0.216   6.752
 1394SOL     OW 5080   4.102   0.394   3.718
 1394SOL    HW1 5081   4.044   0.437   3.787
 1394SOL    HW2 5082   4.092   0.295   3.723
 1395SOL     OW 5083   0.992   5.114   2.440
 1395SOL    HW1 5084   1.061   5.115   2.367
 1395SOL    HW2 5085   0.966   5.020   2.460
 1396SOL     OW 5086   1.357   1.530   3.781
 1396SOL    HW1 5087   1.390   1.453   3.835
 1396SOL    HW2 5088   1.269   1.507   3.739
 1397SOL     OW 5089   0.748   5.344   5.374
 1397SOL    HW1 5090   0.693   5.273   5.417
 1397SOL    HW2 5091   0.820   5.302   5.320
 1398SOL     OW 5092   1.856   6.599   6.488
 1398SOL    HW1 5093   1.837   6.582   6.392
 1398SOL    HW2 5094   1.801   6.677   6.519
 1399SOL     OW 5095   3.885   0.176   6.341
 1399SOL    HW1 5096   3.900   0.176   6.242
 1399SOL    HW2 5097   3.792   0.147   6.361
 1400SOL     OW 5098   0.094   1.273   4.945
 1400SOL    HW1 5099   0.057   1.361   4.975
 1400SOL    HW2 5100   0.053   1.247   4.857
 1401SOL     OW 5101   5.593   0.219   2.083
 1401SOL    HW1 5102   5.498   0.218   2.052
 1401SOL    HW2 5103   5.631   0.311   2.069
 1402SOL     OW 5104   6.755   4.812   2.070
 1402SOL    HW1 5105   6.842   4.767   2.090
 1402SOL    HW2 5106   6.684   4.776   2.131
 1403SOL     OW 5107   3.252   3.258   6.013
 1403SOL    HW1 5108   3.205   3.342   6.040
 1403SOL    HW2 5109   3.282   3.266   5.917
 1404SOL     OW 5110   4.169   6.831   0.590
 1404SOL    HW1 5111   4.112   6.768   0.539
 1404SOL    HW2 5112   4.261   6.792   0.601
 1405SOL     OW 5113   0.870   3.606   0.554
 1405SOL    HW1 5114   0.831   3.558   0.632
 1405SOL    HW2 5115   0.802   3.668   0.514
 1406SOL     OW 5116   2.136   2.904   0.065
 1406SOL    HW1 5117   2.113   2.845   0.142
 1406SOL    HW2 5118   2.053   2.924   0.013
 1407SOL     OW 5119   0.558   2.697   1.098
 1407SOL    HW1 5120   0.459   2.679   1.102
 1407SOL    HW2 5121   0.578   2.752   1.017
 1408SOL     OW 5122   5.183   6.419   0.563
 1408SOL    HW1 5123   5.244   6.385   0.492
 1408SOL    HW2 5124   5.234   6.427   0.649
 1409SOL     OW 5125   6.421   1.847   5.710
 1409SOL    HW1 5126   6.426   1.935   5.758
 1409SOL    HW2 5127   6.336   1.801   5.735
 1410SOL     OW 5128   3.086   0.238   6.968
 1410SOL    HW1 5129   3.085   0.154   6.914
 1410SOL    HW2 5130   3.122   0.218   0.033
 1411SOL     OW 5131   3.845   4.939   6.646
 1411SOL    HW1 5132   3.783   4.907   6.718
 1411SOL    HW2 5133   3.813   4.906   6.558
 1412SOL     OW 5134   2.697   2.183   0.064
 1412SOL    HW1 5135   2.652   2.094   0.075
 1412SOL    HW2 5136   2.760   2.198   0.140
 1413SOL     OW 5137   1.820   1.696   5.562
 1413SOL    HW1 5138   1.822   1.737   5.654
 1413SOL    HW2 5139   1.907   1.651   5.544
 1414SOL     OW 5140   0.907   4.836   1.804
 1414SOL    HW1 5141   0.867   4.925   1.823
 1414SOL    HW2 5142   0.999   4.832   1.843
 1415SOL     OW 5143   3.493   1.812   5.012
 1415SOL    HW1 5144   3.530   1.880   5.075
 1415SOL    HW2 5145   3.551   1.807   4.930
 1416SOL     OW 5146   4.097   0.499   4.935
 1416SOL    HW1 5147   4.015   0.526   4.885
 1416SOL    HW2 5148   4.161   0.455   4.872
 1417SOL     OW 5149   3.284   3.404   4.278
 1417SOL    HW1 5150   3.245   3.491   4.308
 1417SOL    HW2 5151   3.233   3.370   4.199
 1418SOL     OW 5152   3.380   3.714   5.900
 1418SOL    HW1 5153   3.332   3.738   5.816
 1418SOL    HW2 5154   3.417   3.621   5.892
 1419SOL     OW 5155   1.082   5.991   2.403
 1419SOL    HW1 5156   1.108   6.056   2.474
 1419SOL    HW2 5157   1.141   5.910   2.410
 1420SOL     OW 5158   2.998   5.949   3.304
 1420SOL    HW1 5159   3.074   5.998   3.262
 1420SOL    HW2 5160   2.928   5.932   3.235
 1421SOL     OW 5161   1.976   5.360   7.022
 1421SOL    HW1 5162   2.040   5.340   0.070
 1421SOL    HW2 5163   2.022   5.346   6.934
 1422SOL     OW 5164   1.529   3.257   6.751
 1422SOL    HW1 5165   1.433   3.257   6.781
 1422SOL    HW2 5166   1.535   3.220   6.658
 1423SOL     OW 5167   3.824   0.816   4.987
 1423SOL    HW1 5168   3.775   0.860   4.912
 1423SOL    HW2 5169   3.849   0.885   5.055
 1424SOL     OW 5170   6.598   2.631   1.193
 1424SOL    HW1 5171   6.644   2.712   1.158
 1424SOL    HW2 5172   6.562   2.577   1.117
 1425SOL     OW 5173   5.511   0.340   3.510
 1425SOL    HW1 5174   5.575   0.387   3.571
 1425SOL    HW2 5175   5.524   0.241   3.517
 1426SOL     OW 5176   4.352   0.501   0.082
 1426SOL    HW1 5177   4.351   0.573   0.012
 1426SOL    HW2 5178   4.382   0.415   0.041
 1427SOL     OW 5179   1.182   0.752   4.357
 1427SOL    HW1 5180   1.143   0.802   4.280
 1427SOL    HW2 5181   1.260   0.698   4.326
 1428SOL     OW 5182   2.153   3.739   3.953
 1428SOL    HW1 5183   2.106   3.813   3.906
 1428SOL    HW2 5184   2.109   3.720   4.040
 1429SOL     OW 5185   5.933   6.990   1.744
 1429SOL    HW1 5186   5.836   6.996   1.721
 1429SOL    HW2 5187   5.952   0.024   1.822
 1430SOL     OW 5188   2.185   4.024   4.413
 1430SOL    HW1 5189   2.238   3.941   4.395
 1430SOL    HW2 5190   2.238   4.087   4.469
 1431SOL     OW 5191   3.398   1.229   0.524
 1431SOL    HW1 5192   3.418   1.215   0.427
 1431SOL    HW2 5193   3.317   1.286   0.534
 1432SOL     OW 5194   4.490   6.673   2.825
 1432SOL    HW1 5195   4.496   6.628   2.737
 1432SOL    HW2 5196   4.503   6.606   2.898
 1433SOL     OW 5197   3.486   1.519   3.761
 1433SOL    HW1 5198   3.439   1.468   3.834
 1433SOL    HW2 5199   3.584   1.524   3.783
 1434SOL     OW 5200   5.384   4.324   0.551
 1434SOL    HW1 5201   5.378   4.276   0.463
 1434SOL    HW2 5202   5.474   4.368   0.559
 1435SOL     OW 5203   0.517   6.752   4.458
 1435SOL    HW1 5204   0.541   6.674   4.400
 1435SOL    HW2 5205   0.541   6.732   4.553
 1436SOL     OW 5206   5.739   0.826   0.261
 1436SOL    HW1 5207   5.756   0.766   0.339
 1436SOL    HW2 5208   5.642   0.849   0.256
 1437SOL     OW 5209   4.599   1.513   0.245
 1437SOL    HW1 5210   4.528   1.576   0.215
 1437SOL    HW2 5211   4.654   1.484   0.166
 1438SOL     OW 5212   2.491   7.016   2.456
 1438SOL    HW1 5213   2.551   0.066   2.480
 1438SOL    HW2 5214   2.400   0.007   2.494
 1439SOL     OW 5215   0.841   5.200   6.269
 1439SOL    HW1 5216   0.801   5.112   6.245
 1439SOL    HW2 5217   0.793   5.273   6.220
 1440SOL     OW 5218   4.048   3.319   2.398
 1440SOL    HW1 5219   4.086   3.339   2.308
 1440SOL    HW2 5220   4.056   3.221   2.416
 1441SOL     OW 5221   6.314   2.124   5.871
 1441SOL    HW1 5222   6.344   2.219   5.866
 1441SOL    HW2 5223   6.214   2.120   5.866
 1442SOL     OW 5224   5.437   6.070   0.276
 1442SOL    HW1 5225   5.492   6.044   0.355
 1442SOL    HW2 5226   5.361   6.005   0.266
 1443SOL     OW 5227   1.215   2.575   3.480
 1443SOL    HW1 5228   1.142   2.623   3.432
 1443SOL    HW2 5229   1.209   2.478   3.460
 1444SOL     OW 5230   5.186   6.247   5.022
 1444SOL    HW1 5231   5.262   6.193   4.985
 1444SOL    HW2 5232   5.223   6.320   5.080
 1445SOL     OW 5233   6.336   1.972   0.183
 1445SOL    HW1 5234   6.429   1.977   0.220
 1445SOL    HW2 5235   6.274   2.022   0.242
 1446SOL     OW 5236   3.799   5.717   1.246
 1446SOL    HW1 5237   3.775   5.803   1.202
 1446SOL    HW2 5238   3.844   5.657   1.180
 1447SOL     OW 5239   6.401   1.063   4.988
 1447SOL    HW1 5240   6.480   1.014   4.952
 1447SOL    HW2 5241   6.368   1.128   4.919
 1448SOL     OW 5242   5.729   0.598   6.745
 1448SOL    HW1 5243   5.787   0.630   6.820
 1448SOL    HW2 5244   5.755   0.505   6.719
 1449SOL     OW 5245   4.598   5.401   1.161
 1449SOL    HW1 5246   4.600   5.498   1.136
 1449SOL    HW2 5247   4.514   5.381   1.212
 1450SOL     OW 5248   6.237   1.842   3.630
 1450SOL    HW1 5249   6.248   1.750   3.667
 1450SOL    HW2 5250   6.141   1.869   3.638
 1451SOL     OW 5251   1.549   6.305   1.710
 1451SOL    HW1 5252   1.577   6.212   1.733
 1451SOL    HW2 5253   1.505   6.348   1.789
 1452SOL     OW 5254   3.353   0.556   5.383
 1452SOL    HW1 5255   3.394   0.465   5.379
 1452SOL    HW2 5256   3.293   0.562   5.463
 1453SOL     OW 5257   4.903   4.863   4.369
 1453SOL    HW1 5258   4.911   4.899   4.462
 1453SOL    HW2 5259   4.823   4.804   4.363
 1454SOL     OW 5260   4.923   4.428   0.847
 1454SOL    HW1 5261   4.920   4.527   0.835
 1454SOL    HW2 5262   4.921   4.384   0.758
 1455SOL     OW 5263   1.975   2.434   1.998
 1455SOL    HW1 5264   1.956   2.385   1.913
 1455SOL    HW2 5265   2.064   2.405   2.034
 1456SOL     OW 5266   6.004   5.034   5.082
 1456SOL    HW1 5267   6.013   4.935   5.075
 1456SOL    HW2 5268   5.912   5.058   5.113
 1457SOL     OW 5269   2.268   0.447   3.912
 1457SOL    HW1 5270   2.225   0.357   3.920
 1457SOL    HW2 5271   2.288   0.467   3.816
 1458SOL     OW 5272   6.978   5.584   0.353
 1458SOL    HW1 5273   0.039   5.630   0.367
 1458SOL    HW2 5274   6.933   5.571   0.441
 1459SOL     OW 5275   2.810   0.060   1.229
 1459SOL    HW1 5276   2.788   0.148   1.188
 1459SOL    HW2 5277   2.790   0.062   1.327
 1460SOL     OW 5278   1.020   6.774   6.825
 1460SOL    HW1 5279   0.923   6.754   6.814
 1460SOL    HW2 5280   1.071   6.688   6.833
 1461SOL     OW 5281   4.611   5.528   2.614
 1461SOL    HW1 5282   4.704   5.493   2.601
 1461SOL    HW2 5283   4.615   5.620   2.653
 1462SOL     OW 5284   5.335   0.302   5.212
 1462SOL    HW1 5285   5.372   0.215   5.179
 1462SOL    HW2 5286   5.379   0.325   5.299
 1463SOL     OW 5287   0.954   2.151   6.052
 1463SOL    HW1 5288   0.866   2.119   6.017
 1463SOL    HW2 5289   0.953   2.251   6.057
 1464SOL     OW 5290   0.823   1.149   1.657
 1464SOL    HW1 5291   0.879   1.125   1.578
 1464SOL    HW2 5292   0.845   1.089   1.733
 1465SOL     OW 5293   0.664   0.798   4.270
 1465SOL    HW1 5294   0.760   0.825   4.266
 1465SOL    HW2 5295   0.655   0.716   4.327
 1466SOL     OW 5296   5.912   5.150   4.843
 1466SOL    HW1 5297   5.911   5.088   4.764
 1466SOL    HW2 5298   5.961   5.107   4.919
 1467SOL     OW 5299   6.000   3.660   3.705
 1467SOL    HW1 5300   6.006   3.745   3.756
 1467SOL    HW2 5301   6.092   3.623   3.690
 1468SOL     OW 5302   5.042   0.078   2.250
 1468SOL    HW1 5303   4.951   0.086   2.210
 1468SOL    HW2 5304   5.110   0.113   2.186
 1469SOL     OW 5305   0.770   0.843   2.197
 1469SOL    HW1 5306   0.866   0.846   2.226
 1469SOL    HW2 5307   0.722   0.923   2.232
 1470SOL     OW 5308   6.780   0.634   3.269
 1470SOL    HW1 5309   6.731   0.547   3.273
 1470SOL    HW2 5310   6.865   0.622   3.218
 1471SOL     OW 5311   5.913   0.418   1.433
 1471SOL    HW1 5312   5.958   0.409   1.344
 1471SOL    HW2 5313   5.878   0.329   1.461
 1472SOL     OW 5314   4.777   5.494   4.555
 1472SOL    HW1 5315   4.701   5.431   4.543
 1472SOL    HW2 5316   4.860   5.443   4.578
 1473SOL     OW 5317   6.256   3.690   3.161
 1473SOL    HW1 5318   6.216   3.637   3.235
 1473SOL    HW2 5319   6.272   3.784   3.192
 1474SOL     OW 5320   5.052   5.376   3.227
 1474SOL    HW1 5321   5.134   5.406   3.275
 1474SOL    HW2 5322   5.021   5.449   3.166
 1475SOL     OW 5323   6.070   0.582   3.700
 1475SOL    HW1 5324   6.045   0.677   3.684
 1475SOL    HW2 5325   6.115   0.544   3.620
 1476SOL     OW 5326   0.228   2.491   0.927
 1476SOL    HW1 5327   0.251   2.395   0.912
 1476SOL    HW2 5328   0.166   2.522   0.856
 1477SOL     OW 5329   2.123   6.397   3.742
 1477SOL    HW1 5330   2.116   6.316   3.684
 1477SOL    HW2 5331   2.082   6.379   3.831
 1478SOL     OW 5332   0.097   3.915   1.576
 1478SOL    HW1 5333   0.088   3.992   1.639
 1478SOL    HW2 5334   0.132   3.835   1.625
 1479SOL     OW 5335   1.094   5.415   0.661
 1479SOL    HW1 5336   1.025   5.479   0.629
 1479SOL    HW2 5337   1.051   5.326   0.679
 1480SOL     OW 5338   2.639   1.050   0.176
 1480SOL    HW1 5339   2.705   1.119   0.204
 1480SOL    HW2 5340   2.632   1.047   0.077
 1481SOL     OW 5341   0.523   3.345   6.452
 1481SOL    HW1 5342   0.468   3.328   6.370
 1481SOL    HW2 5343   0.546   3.443   6.457
 1482SOL     OW 5344   5.206   0.725   6.174
 1482SOL    HW1 5345   5.293   0.682   6.151
 1482SOL    HW2 5346   5.133   0.683   6.119
 1483SOL     OW 5347   6.566   2.079   6.395
 1483SOL    HW1 5348   6.557   1.985   6.363
 1483SOL    HW2 5349   6.504   2.138   6.344
 1484SOL     OW 5350   6.376   0.036   3.263
 1484SOL    HW1 5351   6.330   6.973   3.266
 1484SOL    HW2 5352   6.326   0.097   3.202
 1485SOL     OW 5353   5.736   2.965   4.036
 1485SOL    HW1 5354   5.727   3.013   4.123
 1485SOL    HW2 5355   5.648   2.925   4.010
 1486SOL     OW 5356   5.680   2.311   1.943
 1486SOL    HW1 5357   5.743   2.346   2.012
 1486SOL    HW2 5358   5.672   2.211   1.953
 1487SOL     OW 5359   6.808   0.839   6.073
 1487SOL    HW1 5360   6.772   0.904   6.007
 1487SOL    HW2 5361   6.906   0.824   6.056
 1488SOL     OW 5362   5.369   1.914   4.199
 1488SOL    HW1 5363   5.293   1.979   4.196
 1488SOL    HW2 5364   5.333   1.822   4.217
 1489SOL     OW 5365   3.841   5.599   3.995
 1489SOL    HW1 5366   3.867   5.551   3.911
 1489SOL    HW2 5367   3.862   5.697   3.986
 1490SOL     OW 5368   2.422   2.638   1.553
 1490SOL    HW1 5369   2.475   2.716   1.587
 1490SOL    HW2 5370   2.358   2.608   1.623
 1491SOL     OW 5371   0.538   2.633   5.438
 1491SOL    HW1 5372   0.508   2.621   5.344
 1491SOL    HW2 5373   0.533   2.730   5.463
 1492SOL     OW 5374   5.735   2.747   1.384
 1492SOL    HW1 5375   5.707   2.652   1.401
 1492SOL    HW2 5376   5.833   2.750   1.363
 1493SOL     OW 5377   5.993   1.834   5.279
 1493SOL    HW1 5378   6.025   1.740   5.268
 1493SOL    HW2 5379   5.893   1.836   5.280
 1494SOL     OW 5380   6.048   1.378   4.493
 1494SOL    HW1 5381   6.051   1.464   4.543
 1494SOL    HW2 5382   6.059   1.397   4.395
 1495SOL     OW 5383   1.165   3.772   2.787
 1495SOL    HW1 5384   1.204   3.680   2.793
 1495SOL    HW2 5385   1.196   3.827   2.866
 1496SOL     OW 5386   1.133   1.070   2.435
 1496SOL    HW1 5387   1.212   1.129   2.421
 1496SOL    HW2 5388   1.157   0.997   2.499
 1497SOL     OW 5389   5.174   5.073   5.678
 1497SOL    HW1 5390   5.112   5.110   5.747
 1497SOL    HW2 5391   5.126   5.068   5.590
 1498SOL     OW 5392   2.231   5.249   0.501
 1498SOL    HW1 5393   2.147   5.296   0.527
 1498SOL    HW2 5394   2.209   5.169   0.445
 1499SOL     OW 5395   1.157   4.387   4.540
 1499SOL    HW1 5396   1.201   4.369   4.628
 1499SOL    HW2 5397   1.222   4.367   4.466
 1500SOL     OW 5398   4.239   6.435   5.323
 1500SOL    HW1 5399   4.149   6.421   5.282
 1500SOL    HW2 5400   4.299   6.359   5.297
 1501SOL     OW 5401   3.989   0.519   0.153
 1501SOL    HW1 5402   4.045   0.456   0.099
 1501SOL    HW2 5403   4.025   0.525   0.246
 1502SOL     OW 5404   6.941   6.063   6.877
 1502SOL    HW1 5405   6.914   5.985   6.820
 1502SOL    HW2 5406   6.897   6.055   6.966
 1503SOL     OW 5407   3.513   4.559   5.504
 1503SOL    HW1 5408   3.560   4.480   5.464
 1503SOL    HW2 5409   3.577   4.635   5.512
 1504SOL     OW 5410   2.428   6.492   4.423
 1504SOL    HW1 5411   2.522   6.521   4.403
 1504SOL    HW2 5412   2.422   6.392   4.413
 1505SOL     OW 5413   4.804   6.630   2.309
 1505SOL    HW1 5414   4.753   6.618   2.223
 1505SOL    HW2 5415   4.740   6.628   2.386
 1506SOL     OW 5416   0.953   6.621   3.377
 1506SOL    HW1 5417   1.002   6.540   3.344
 1506SOL    HW2 5418   0.864   6.626   3.332
 1507SOL     OW 5419   2.907   2.280   0.215
 1507SOL    HW1 5420   2.873   2.298   0.308
 1507SOL    HW2 5421   2.986   2.219   0.220
 1508SOL     OW 5422   4.626   6.808   0.907
 1508SOL    HW1 5423   4.634   6.831   1.004
 1508SOL    HW2 5424   4.620   6.892   0.853
 1509SOL     OW 5425   5.498   1.908   6.771
 1509SOL    HW1 5426   5.425   1.976   6.771
 1509SOL    HW2 5427   5.491   1.852   6.689
 1510SOL     OW 5428   6.865   2.111   2.742
 1510SOL    HW1 5429   6.848   2.100   2.840
 1510SOL    HW2 5430   6.830   2.031   2.693
 1511SOL     OW 5431   1.055   3.323   0.397
 1511SOL    HW1 5432   1.054   3.422   0.386
 1511SOL    HW2 5433   0.996   3.282   0.328
 1512SOL     OW 5434   6.387   1.182   1.857
 1512SOL    HW1 5435   6.292   1.168   1.887
 1512SOL    HW2 5436   6.436   1.094   1.861
 1513SOL     OW 5437   3.194   0.557   2.762
 1513SOL    HW1 5438   3.137   0.587   2.685
 1513SOL    HW2 5439   3.246   0.635   2.797
 1514SOL     OW 5440   4.709   0.394   6.023
 1514SOL    HW1 5441   4.794   0.345   6.040
 1514SOL    HW2 5442   4.662   0.409   6.110
 1515SOL     OW 5443   5.651   5.647   5.113
 1515SOL    HW1 5444   5.562   5.641   5.159
 1515SOL    HW2 5445   5.639   5.631   5.015
 1516SOL     OW 5446   0.630   1.034   0.780
 1516SOL    HW1 5447   0.651   1.122   0.738
 1516SOL    HW2 5448   0.702   1.009   0.845
 1517SOL     OW 5449   3.195   5.454   3.376
 1517SOL    HW1 5450   3.269   5.397   3.340
 1517SOL    HW2 5451   3.141   5.402   3.441
 1518SOL     OW 5452   0.712   4.453   0.849
 1518SOL    HW1 5453   0.812   4.459   0.851
 1518SOL    HW2 5454   0.682   4.439   0.754
 1519SOL     OW 5455   0.001   4.028   0.945
 1519SOL    HW1 5456   0.067   4.026   1.020
 1519SOL    HW2 5457   0.009   3.945   0.891
 1520SOL     OW 5458   1.466   2.559   3.066
 1520SOL    HW1 5459   1.487   2.607   3.151
 1520SOL    HW2 5460   1.417   2.621   3.004
 1521SOL     OW 5461   2.374   4.139   5.388
 1521SOL    HW1 5462   2.404   4.088   5.308
 1521SOL    HW2 5463   2.430   4.221   5.399
 1522SOL     OW 5464   0.902   2.473   6.148
 1522SOL    HW1 5465   0.857   2.556   6.179
 1522SOL    HW2 5466   0.867   2.394   6.200
 1523SOL     OW 5467   5.427   1.121   1.070
 1523SOL    HW1 5468   5.466   1.133   0.978
 1523SOL    HW2 5469   5.331   1.149   1.070
 1524SOL     OW 5470   6.544   0.646   2.079
 1524SOL    HW1 5471   6.506   0.627   1.988
 1524SOL    HW2 5472   6.628   0.594   2.091
 1525SOL     OW 5473   4.653   1.003   6.135
 1525SOL    HW1 5474   4.563   1.045   6.145
 1525SOL    HW2 5475   4.646   0.904   6.147
 1526SOL     OW 5476   6.563   1.102   0.002
 1526SOL    HW1 5477   6.482   1.152   6.999
 1526SOL    HW2 5478   6.615   1.072   6.948
 1527SOL     OW 5479   3.063   1.457   5.713
 1527SOL    HW1 5480   3.116   1.517   5.774
 1527SOL    HW2 5481   3.009   1.394   5.769
 1528SOL     OW 5482   5.927   5.270   3.783
 1528SOL    HW1 5483   5.985   5.346   3.815
 1528SOL    HW2 5484   5.846   5.262   3.841
 1529SOL     OW 5485   2.488   0.269   5.519
 1529SOL    HW1 5486   2.404   0.220   5.496
 1529SOL    HW2 5487   2.532   0.226   5.597
 1530SOL     OW 5488   2.436   6.691   1.316
 1530SOL    HW1 5489   2.377   6.684   1.397
 1530SOL    HW2 5490   2.465   6.599   1.288
 1531SOL     OW 5491   5.393   0.522   6.212
 1531SOL    HW1 5492   5.460   0.474   6.268
 1531SOL    HW2 5493   5.394   0.486   6.119
 1532SOL     OW 5494   3.079   2.568   5.398
 1532SOL    HW1 5495   3.113   2.505   5.328
 1532SOL    HW2 5496   3.143   2.570   5.474
 1533SOL     OW 5497   5.137   2.856   6.918
 1533SOL    HW1 5498   5.165   2.798   6.842
 1533SOL    HW2 5499   5.190   2.941   6.916
 1534SOL     OW 5500   6.715   0.328   2.087
 1534SOL    HW1 5501   6.655   0.263   2.133
 1534SOL    HW2 5502   6.725   0.303   1.991
 1535SOL     OW 5503   5.215   4.298   4.655
 1535SOL    HW1 5504   5.214   4.359   4.575
 1535SOL    HW2 5505   5.248   4.208   4.627
 1536SOL     OW 5506   2.828   5.632   3.166
 1536SOL    HW1 5507   2.926   5.614   3.169
 1536SOL    HW2 5508   2.812   5.726   3.136
 1537SOL     OW 5509   3.207   5.830   4.724
 1537SOL    HW1 5510   3.135   5.882   4.677
 1537SOL    HW2 5511   3.200   5.845   4.822
 1538SOL     OW 5512   3.745   5.378   6.584
 1538SOL    HW1 5513   3.704   5.372   6.493
 1538SOL    HW2 5514   3.762   5.474   6.607
 1539SOL     OW 5515   3.252   6.214   2.146
 1539SOL    HW1 5516   3.286   6.286   2.207
 1539SOL    HW2 5517   3.229   6.253   2.058
 1540SOL     OW 5518   5.924   0.021   5.236
 1540SOL    HW1 5519   5.853   0.019   5.306
 1540SOL    HW2 5520   5.917   0.106   5.183
 1541SOL     OW 5521   5.027   1.438   1.247
 1541SOL    HW1 5522   5.049   1.487   1.162
 1541SOL    HW2 5523   4.928   1.439   1.261
 1542SOL     OW 5524   0.384   5.839   0.976
 1542SOL    HW1 5525   0.405   5.883   1.063
 1542SOL    HW2 5526   0.468   5.810   0.931
 1543SOL     OW 5527   3.422   3.943   3.390
 1543SOL    HW1 5528   3.446   3.961   3.485
 1543SOL    HW2 5529   3.465   4.011   3.331
 1544SOL     OW 5530   3.241   3.385   2.499
 1544SOL    HW1 5531   3.234   3.335   2.585
 1544SOL    HW2 5532   3.150   3.400   2.461
 1545SOL     OW 5533   0.206   0.663   4.385
 1545SOL    HW1 5534   0.180   0.746   4.434
 1545SOL    HW2 5535   0.209   0.586   4.450
 1546SOL     OW 5536   6.300   6.334   6.351
 1546SOL    HW1 5537   6.246   6.412   6.319
 1546SOL    HW2 5538   6.354   6.361   6.430
 1547SOL     OW 5539   3.326   6.001   0.282
 1547SOL    HW1 5540   3.402   5.941   0.255
 1547SOL    HW2 5541   3.240   5.950   0.275
 1548SOL     OW 5542   6.002   3.933   3.787
 1548SOL    HW1 5543   6.049   3.971   3.707
 1548SOL    HW2 5544   5.906   3.962   3.786
 1549SOL     OW 5545   7.005   2.649   0.620
 1549SOL    HW1 5546   0.071   2.670   0.653
 1549SOL    HW2 5547   6.958   2.591   0.686
 1550SOL     OW 5548   2.363   5.323   2.799
 1550SOL    HW1 5549   2.311   5.400   2.839
 1550SOL    HW2 5550   2.423   5.358   2.727
 1551SOL     OW 5551   0.445   2.944   1.445
 1551SOL    HW1 5552   0.544   2.955   1.456
 1551SOL    HW2 5553   0.407   2.900   1.526
 1552SOL     OW 5554   0.996   6.754   2.305
 1552SOL    HW1 5555   0.960   6.847   2.312
 1552SOL    HW2 5556   1.000   6.727   2.209
 1553SOL     OW 5557   5.107   0.971   6.045
 1553SOL    HW1 5558   5.106   1.046   6.112
 1553SOL    HW2 5559   5.129   0.885   6.091
 1554SOL     OW 5560   2.711   2.406   1.001
 1554SOL    HW1 5561   2.695   2.308   1.014
 1554SOL    HW2 5562   2.804   2.420   0.967
 1555SOL     OW 5563   4.171   0.854   0.591
 1555SOL    HW1 5564   4.148   0.890   0.501
 1555SOL    HW2 5565   4.266   0.877   0.613
 1556SOL     OW 5566   3.807   2.157   0.271
 1556SOL    HW1 5567   3.748   2.236   0.288
 1556SOL    HW2 5568   3.851   2.167   0.182
 1557SOL     OW 5569   1.871   3.476   0.535
 1557SOL    HW1 5570   1.871   3.423   0.451
 1557SOL    HW2 5571   1.938   3.439   0.599
 1558SOL     OW 5572   5.271   2.860   6.552
 1558SOL    HW1 5573   5.227   2.812   6.627
 1558SOL    HW2 5574   5.216   2.939   6.526
 1559SOL     OW 5575   2.381   6.242   3.087
 1559SOL    HW1 5576   2.441   6.310   3.045
 1559SOL    HW2 5577   2.416   6.151   3.068
 1560SOL     OW 5578   3.952   2.570   1.165
 1560SOL    HW1 5579   4.001   2.529   1.088
 1560SOL    HW2 5580   3.858   2.536   1.167
 1561SOL     OW 5581   5.720   6.126   0.768
 1561SOL    HW1 5582   5.654   6.165   0.833
 1561SOL    HW2 5583   5.754   6.039   0.804
 1562SOL     OW 5584   3.595   0.496   2.215
 1562SOL    HW1 5585   3.576   0.593   2.233
 1562SOL    HW2 5586   3.660   0.461   2.282
 1563SOL     OW 5587   1.991   2.794   4.120
 1563SOL    HW1 5588   1.892   2.777   4.116
 1563SOL    HW2 5589   2.039   2.708   4.103
 1564SOL     OW 5590   0.609   1.662   2.868
 1564SOL    HW1 5591   0.567   1.618   2.788
 1564SOL    HW2 5592   0.541   1.721   2.912
 1565SOL     OW 5593   4.859   1.512   5.034
 1565SOL    HW1 5594   4.831   1.587   5.094
 1565SOL    HW2 5595   4.818   1.427   5.066
 1566SOL     OW 5596   6.811   3.982   3.821
 1566SOL    HW1 5597   6.782   3.993   3.916
 1566SOL    HW2 5598   6.903   4.018   3.810
 1567SOL     OW 5599   5.620   0.232   5.007
 1567SOL    HW1 5600   5.709   0.236   5.052
 1567SOL    HW2 5601   5.572   0.148   5.034
 1568SOL     OW 5602   2.669   5.105   1.316
 1568SOL    HW1 5603   2.601   5.032   1.313
 1568SOL    HW2 5604   2.737   5.090   1.244
 1569SOL     OW 5605   2.595   1.313   2.773
 1569SOL    HW1 5606   2.613   1.411   2.782
 1569SOL    HW2 5607   2.574   1.291   2.678
 1570SOL     OW 5608   2.725   5.893   6.469
 1570SOL    HW1 5609   2.670   5.932   6.395
 1570SOL    HW2 5610   2.822   5.903   6.447
 1571SOL     OW 5611   6.816   3.244   4.489
 1571SOL    HW1 5612   6.808   3.312   4.562
 1571SOL    HW2 5613   6.891   3.269   4.427
 1572SOL     OW 5614   2.174   5.904   2.995
 1572SOL    HW1 5615   2.223   5.911   3.082
 1572SOL    HW2 5616   2.225   5.953   2.924
 1573SOL     OW 5617   5.349   5.780   0.413
 1573SOL    HW1 5618   5.379   5.740   0.499
 1573SOL    HW2 5619   5.405   5.746   0.338
 1574SOL     OW 5620   1.263   4.431   2.777
 1574SOL    HW1 5621   1.282   4.334   2.792
 1574SOL    HW2 5622   1.280   4.455   2.682
 1575SOL     OW 5623   6.875   2.309   0.256
 1575SOL    HW1 5624   6.862   2.398   0.300
 1575SOL    HW2 5625   6.944   2.317   0.184
 1576SOL     OW 5626   2.080   5.697   1.956
 1576SOL    HW1 5627   2.022   5.771   1.989
 1576SOL    HW2 5628   2.033   5.648   1.883
 1577SOL     OW 5629   3.947   6.104   3.989
 1577SOL    HW1 5630   3.862   6.065   4.025
 1577SOL    HW2 5631   3.946   6.203   4.000
 1578SOL     OW 5632   4.987   1.392   1.559
 1578SOL    HW1 5633   5.060   1.385   1.490
 1578SOL    HW2 5634   5.021   1.443   1.638
 1579SOL     OW 5635   1.506   3.191   1.467
 1579SOL    HW1 5636   1.456   3.277   1.459
 1579SOL    HW2 5637   1.471   3.126   1.400
 1580SOL     OW 5638   3.137   3.041   2.856
 1580SOL    HW1 5639   3.224   3.015   2.897
 1580SOL    HW2 5640   3.077   2.960   2.851
 1581SOL     OW 5641   6.339   4.075   4.662
 1581SOL    HW1 5642   6.387   4.006   4.715
 1581SOL    HW2 5643   6.320   4.039   4.570
 1582SOL     OW 5644   5.367   5.854   4.845
 1582SOL    HW1 5645   5.326   5.813   4.927
 1582SOL    HW2 5646   5.295   5.876   4.779
 1583SOL     OW 5647   1.486   5.804   5.720
 1583SOL    HW1 5648   1.407   5.747   5.698
 1583SOL    HW2 5649   1.494   5.876   5.651
 1584SOL     OW 5650   0.193   3.905   0.569
 1584SOL    HW1 5651   0.238   3.836   0.512
 1584SOL    HW2 5652   0.123   3.861   0.625
 1585SOL     OW 5653   4.366   6.358   4.317
 1585SOL    HW1 5654   4.423   6.346   4.397
 1585SOL    HW2 5655   4.277   6.314   4.332
 1586SOL     OW 5656   2.825   5.895   3.045
 1586SOL    HW1 5657   2.771   5.872   2.964
 1586SOL    HW2 5658   2.764   5.934   3.115
 1587SOL     OW 5659   3.350   6.705   6.887
 1587SOL    HW1 5660   3.301   6.649   6.820
 1587SOL    HW2 5661   3.290   6.725   6.965
 1588SOL     OW 5662   6.382   2.028   3.197
 1588SOL    HW1 5663   6.378   1.970   3.278
 1588SOL    HW2 5664   6.338   1.981   3.120
 1589SOL     OW 5665   6.911   3.566   4.464
 1589SOL    HW1 5666   6.845   3.530   4.529
 1589SOL    HW2 5667   6.872   3.644   4.415
 1590SOL     OW 5668   6.363   1.284   3.173
 1590SOL    HW1 5669   6.313   1.327   3.248
 1590SOL    HW2 5670   6.452   1.254   3.205
 1591SOL     OW 5671   1.378   5.928   1.019
 1591SOL    HW1 5672   1.368   5.843   1.071
 1591SOL    HW2 5673   1.366   6.006   1.080
 1592SOL     OW 5674   0.106   3.649   5.965
 1592SOL    HW1 5675   0.072   3.652   5.871
 1592SOL    HW2 5676   0.056   3.715   6.021
 1593SOL     OW 5677   3.581   6.525   0.639
 1593SOL    HW1 5678   3.507   6.556   0.698
 1593SOL    HW2 5679   3.574   6.571   0.550
 1594SOL     OW 5680   5.341   0.601   2.501
 1594SOL    HW1 5681   5.432   0.641   2.501
 1594SOL    HW2 5682   5.332   0.537   2.577
 1595SOL     OW 5683   0.372   3.208   6.651
 1595SOL    HW1 5684   0.401   3.213   6.746
 1595SOL    HW2 5685   0.433   3.264   6.594
 1596SOL     OW 5686   4.930   4.663   3.652
 1596SOL    HW1 5687   5.015   4.645   3.702
 1596SOL    HW2 5688   4.896   4.578   3.612
 1597SOL     OW 5689   3.111   6.113   0.026
 1597SOL    HW1 5690   3.116   6.014   0.044
 1597SOL    HW2 5691   3.113   6.162   0.113
 1598SOL     OW 5692   1.066   4.517   6.339
 1598SOL    HW1 5693   1.155   4.561   6.332
 1598SOL    HW2 5694   1.061   4.440   6.275
 1599SOL     OW 5695   4.566   5.691   3.629
 1599SOL    HW1 5696   4.475   5.723   3.654
 1599SOL    HW2 5697   4.618   5.670   3.712
 1600SOL     OW 5698   4.151   0.964   1.668
 1600SOL    HW1 5699   4.146   0.959   1.768
 1600SOL    HW2 5700   4.078   0.908   1.628
 1601SOL     OW 5701   6.563   1.187   4.655
 1601SOL    HW1 5702   6.512   1.125   4.596
 1601SOL    HW2 5703   6.576   1.144   4.745
 1602SOL     OW 5704   4.589   5.938   3.856
 1602SOL    HW1 5705   4.602   5.840   3.873
 1602SOL    HW2 5706   4.673   5.977   3.818
 1603SOL     OW 5707   2.997   4.823   2.718
 1603SOL    HW1 5708   2.938   4.750   2.754
 1603SOL    HW2 5709   3.004   4.896   2.785
 1604SOL     OW 5710   4.567   4.983   3.044
 1604SOL    HW1 5711   4.599   4.902   2.995
 1604SOL    HW2 5712   4.621   4.996   3.127
 1605SOL     OW 5713   4.843   4.812   0.565
 1605SOL    HW1 5714   4.935   4.824   0.528
 1605SOL    HW2 5715   4.801   4.902   0.580
 1606SOL     OW 5716   3.013   6.176   4.783
 1606SOL    HW1 5717   3.006   6.088   4.736
 1606SOL    HW2 5718   3.102   6.184   4.826
 1607SOL     OW 5719   4.662   4.408   3.980
 1607SOL    HW1 5720   4.680   4.501   3.947
 1607SOL    HW2 5721   4.629   4.412   4.074
 1608SOL     OW 5722   5.710   2.320   3.465
 1608SOL    HW1 5723   5.651   2.301   3.543
 1608SOL    HW2 5724   5.763   2.237   3.442
 1609SOL     OW 5725   2.000   6.946   1.343
 1609SOL    HW1 5726   2.081   6.943   1.285
 1609SOL    HW2 5727   2.017   6.898   1.429
 1610SOL     OW 5728   5.586   6.789   0.658
 1610SOL    HW1 5729   5.543   6.819   0.572
 1610SOL    HW2 5730   5.628   6.868   0.703
 1611SOL     OW 5731   1.160   3.788   0.030
 1611SOL    HW1 5732   1.249   3.828   0.013
 1611SOL    HW2 5733   1.149   3.706   6.999
 1612SOL     OW 5734   4.090   1.290   2.376
 1612SOL    HW1 5735   4.042   1.202   2.371
 1612SOL    HW2 5736   4.044   1.357   2.318
 1613SOL     OW 5737   7.025   5.556   2.317
 1613SOL    HW1 5738   0.044   5.643   2.338
 1613SOL    HW2 5739   0.065   5.492   2.280
 1614SOL     OW 5740   6.592   1.579   6.167
 1614SOL    HW1 5741   6.534   1.660   6.157
 1614SOL    HW2 5742   6.536   1.502   6.199
 1615SOL     OW 5743   7.018   3.723   5.731
 1615SOL    HW1 5744   6.961   3.738   5.649
 1615SOL    HW2 5745   0.088   3.730   5.706
 1616SOL     OW 5746   0.555   0.489   3.973
 1616SOL    HW1 5747   0.479   0.435   4.008
 1616SOL    HW2 5748   0.539   0.586   3.992
 1617SOL     OW 5749   6.679   5.460   3.545
 1617SOL    HW1 5750   6.611   5.530   3.567
 1617SOL    HW2 5751   6.762   5.503   3.511
 1618SOL     OW 5752   3.478   5.227   2.934
 1618SOL    HW1 5753   3.381   5.213   2.952
 1618SOL    HW2 5754   3.513   5.149   2.881
 1619SOL     OW 5755   0.794   4.553   6.467
 1619SOL    HW1 5756   0.892   4.536   6.462
 1619SOL    HW2 5757   0.745   4.482   6.415
 1620SOL     OW 5758   3.345   6.519   4.225
 1620SOL    HW1 5759   3.318   6.498   4.319
 1620SOL    HW2 5760   3.380   6.436   4.181
 1621SOL     OW 5761   4.726   5.447   0.772
 1621SOL    HW1 5762   4.632   5.457   0.807
 1621SOL    HW2 5763   4.768   5.538   0.765
 1622SOL     OW 5764   6.522   4.514   4.281
 1622SOL    HW1 5765   6.429   4.478   4.270
 1622SOL    HW2 5766   6.518   4.602   4.328
 1623SOL     OW 5767   0.212   2.707   3.060
 1623SOL    HW1 5768   0.249   2.733   3.149
 1623SOL    HW2 5769   0.215   2.607   3.051
 1624SOL     OW 5770   3.753   3.352   0.755
 1624SOL    HW1 5771   3.679   3.298   0.714
 1624SOL    HW2 5772   3.833   3.294   0.768
 1625SOL     OW 5773   0.483   6.804   0.730
 1625SOL    HW1 5774   0.444   6.853   0.652
 1625SOL    HW2 5775   0.475   6.860   0.812
 1626SOL     OW 5776   2.652   1.875   1.514
 1626SOL    HW1 5777   2.630   1.922   1.600
 1626SOL    HW2 5778   2.721   1.804   1.532
 1627SOL     OW 5779   3.993   2.373   6.211
 1627SOL    HW1 5780   3.956   2.320   6.135
 1627SOL    HW2 5781   4.092   2.383   6.200
 1628SOL     OW 5782   5.373   6.925   0.901
 1628SOL    HW1 5783   5.309   6.917   0.825
 1628SOL    HW2 5784   5.322   6.937   0.986
 1629SOL     OW 5785   0.924   0.200   3.945
 1629SOL    HW1 5786   0.876   0.113   3.930
 1629SOL    HW2 5787   0.886   0.245   4.025
 1630SOL     OW 5788   0.360   3.636   6.228
 1630SOL    HW1 5789   0.345   3.592   6.139
 1630SOL    HW2 5790   0.457   3.630   6.252
 1631SOL     OW 5791   6.306   3.408   0.653
 1631SOL    HW1 5792   6.280   3.461   0.573
 1631SOL    HW2 5793   6.267   3.449   0.735
 1632SOL     OW 5794   6.435   5.512   2.151
 1632SOL    HW1 5795   6.483   5.435   2.193
 1632SOL    HW2 5796   6.352   5.532   2.203
 1633SOL     OW 5797   5.327   3.587   4.691
 1633SOL    HW1 5798   5.250   3.536   4.653
 1633SOL    HW2 5799   5.334   3.569   4.789
 1634SOL     OW 5800   0.629   3.138   6.136
 1634SOL    HW1 5801   0.541   3.182   6.156
 1634SOL    HW2 5802   0.659   3.165   6.045
 1635SOL     OW 5803   3.064   6.896   3.778
 1635SOL    HW1 5804   2.969   6.917   3.756
 1635SOL    HW2 5805   3.109   6.977   3.816
 1636SOL     OW 5806   6.642   5.874   1.029
 1636SOL    HW1 5807   6.559   5.929   1.034
 1636SOL    HW2 5808   6.706   5.917   0.965
 1637SOL     OW 5809   1.381   1.415   2.985
 1637SOL    HW1 5810   1.329   1.387   2.904
 1637SOL    HW2 5811   1.318   1.451   3.054
 1638SOL     OW 5812   5.226   2.279   2.176
 1638SOL    HW1 5813   5.133   2.262   2.145
 1638SOL    HW2 5814   5.224   2.335   2.259
 1639SOL     OW 5815   4.974   2.263   2.035
 1639SOL    HW1 5816   4.898   2.292   2.094
 1639SOL    HW2 5817   4.943   2.189   1.976
 1640SOL     OW 5818   5.903   1.077   6.499
 1640SOL    HW1 5819   5.844   1.116   6.570
 1640SOL    HW2 5820   5.944   0.993   6.534
 1641SOL     OW 5821   6.209   1.903   3.021
 1641SOL    HW1 5822   6.183   1.821   3.072
 1641SOL    HW2 5823   6.212   1.882   2.924
 1642SOL     OW 5824   0.003   3.333   6.139
 1642SOL    HW1 5825   7.004   3.290   6.052
 1642SOL    HW2 5826   6.962   3.310   6.209
 1643SOL     OW 5827   2.017   5.193   4.131
 1643SOL    HW1 5828   1.961   5.126   4.179
 1643SOL    HW2 5829   1.976   5.284   4.142
 1644SOL     OW 5830   6.400   2.322   1.607
 1644SOL    HW1 5831   6.430   2.362   1.694
 1644SOL    HW2 5832   6.448   2.367   1.531
 1645SOL     OW 5833   2.332   0.800   5.350
 1645SOL    HW1 5834   2.392   0.830   5.275
 1645SOL    HW2 5835   2.388   0.770   5.427
 1646SOL     OW 5836   1.299   5.197   1.386
 1646SOL    HW1 5837   1.245   5.276   1.358
 1646SOL    HW2 5838   1.369   5.178   1.317
 1647SOL     OW 5839   5.994   2.997   4.535
 1647SOL    HW1 5840   5.962   2.969   4.626
 1647SOL    HW2 5841   6.027   3.091   4.540
 1648SOL     OW 5842   5.901   5.887   1.737
 1648SOL    HW1 5843   5.850   5.814   1.691
 1648SOL    HW2 5844   5.997   5.862   1.744
 1649SOL     OW 5845   3.781   1.591   3.363
 1649SOL    HW1 5846   3.734   1.634   3.440
 1649SOL    HW2 5847   3.718   1.531   3.314
 1650SOL     OW 5848   3.196   3.425   5.446
 1650SOL    HW1 5849   3.213   3.523   5.459
 1650SOL    HW2 5850   3.278   3.381   5.411
 1651SOL     OW 5851   0.907   2.171   3.583
 1651SOL    HW1 5852   0.939   2.225   3.505
 1651SOL    HW2 5853   0.811   2.190   3.600
 1652SOL     OW 5854   0.544   3.601   1.751
 1652SOL    HW1 5855   0.628   3.556   1.722
 1652SOL    HW2 5856   0.541   3.694   1.715
 1653SOL     OW 5857   0.372   4.765   2.061
 1653SOL    HW1 5858   0.338   4.673   2.081
 1653SOL    HW2 5859   0.470   4.769   2.080
 1654SOL     OW 5860   0.325   3.477   1.817
 1654SOL    HW1 5861   0.414   3.522   1.822
 1654SOL    HW2 5862   0.338   3.378   1.818
 1655SOL     OW 5863   0.507   0.956   5.708
 1655SOL    HW1 5864   0.433   1.023   5.700
 1655SOL    HW2 5865   0.518   0.930   5.804
 1656SOL     OW 5866   2.247   3.966   3.088
 1656SOL    HW1 5867   2.220   3.988   2.994
 1656SOL    HW2 5868   2.289   4.046   3.130
 1657SOL     OW 5869   0.391   6.986   5.767
 1657SOL    HW1 5870   0.431   6.899   5.737
 1657SOL    HW2 5871   0.300   6.969   5.806
 1658SOL     OW 5872   4.907   6.485   6.043
 1658SOL    HW1 5873   4.940   6.413   6.104
 1658SOL    HW2 5874   4.970   6.563   6.046
 1659SOL     OW 5875   4.221   6.586   5.889
 1659SOL    HW1 5876   4.216   6.535   5.803
 1659SOL    HW2 5877   4.172   6.536   5.960
 1660SOL     OW 5878   2.170   0.772   1.860
 1660SOL    HW1 5879   2.218   0.706   1.802
 1660SOL    HW2 5880   2.083   0.732   1.890
 1661SOL     OW 5881   5.017   3.923   2.974
 1661SOL    HW1 5882   5.019   3.823   2.977
 1661SOL    HW2 5883   4.924   3.954   2.953
 1662SOL     OW 5884   0.122   2.012   3.748
 1662SOL    HW1 5885   0.113   1.923   3.703
 1662SOL    HW2 5886   0.096   2.003   3.844
 1663SOL     OW 5887   5.262   4.497   1.024
 1663SOL    HW1 5888   5.247   4.542   0.936
 1663SOL    HW2 5889   5.360   4.484   1.038
 1664SOL     OW 5890   1.758   0.309   6.194
 1664SOL    HW1 5891   1.670   0.338   6.232
 1664SOL    HW2 5892   1.813   0.389   6.174
 1665SOL     OW 5893   2.766   4.412   6.990
 1665SOL    HW1 5894   2.831   4.377   6.923
 1665SOL    HW2 5895   2.786   4.508   7.009
 1666SOL     OW 5896   4.698   6.562   6.241
 1666SOL    HW1 5897   4.766   6.587   6.310
 1666SOL    HW2 5898   4.743   6.541   6.155
 1667SOL     OW 5899   6.862   5.506   0.580
 1667SOL    HW1 5900   6.816   5.423   0.614
 1667SOL    HW2 5901   6.854   5.578   0.649
 1668SOL     OW 5902   5.767   3.454   2.215
 1668SOL    HW1 5903   5.713   3.440   2.298
 1668SOL    HW2 5904   5.863   3.464   2.239
 1669SOL     OW 5905   6.595   3.443   5.475
 1669SOL    HW1 5906   6.520   3.444   5.542
 1669SOL    HW2 5907   6.621   3.537   5.453
 1670SOL     OW 5908   2.921   4.722   5.713
 1670SOL    HW1 5909   2.931   4.630   5.675
 1670SOL    HW2 5910   2.845   4.724   5.777
 1671SOL     OW 5911   6.049   2.672   0.479
 1671SOL    HW1 5912   6.031   2.660   0.576
 1671SOL    HW2 5913   6.121   2.741   0.467
 1672SOL     OW 5914   0.320   2.577   1.161
 1672SOL    HW1 5915   0.266   2.543   1.084
 1672SOL    HW2 5916   0.307   2.517   1.239
 1673SOL     OW 5917   1.186   0.525   4.546
 1673SOL    HW1 5918   1.235   0.572   4.473
 1673SOL    HW2 5919   1.238   0.444   4.574
 1674SOL     OW 5920   4.984   2.041   2.694
 1674SOL    HW1 5921   4.894   2.017   2.730
 1674SOL    HW2 5922   5.034   2.094   2.762
 1675SOL     OW 5923   4.964   0.420   1.885
 1675SOL    HW1 5924   5.012   0.414   1.972
 1675SOL    HW2 5925   4.865   0.418   1.902
 1676SOL     OW 5926   1.162   2.182   3.746
 1676SOL    HW1 5927   1.085   2.186   3.683
 1676SOL    HW2 5928   1.223   2.108   3.719
 1677SOL     OW 5929   3.668   3.155   3.184
 1677SOL    HW1 5930   3.620   3.239   3.160
 1677SOL    HW2 5931   3.601   3.084   3.206
 1678SOL     OW 5932   1.506   0.328   0.517
 1678SOL    HW1 5933   1.512   0.308   0.615
 1678SOL    HW2 5934   1.540   0.249   0.465
 1679SOL     OW 5935   6.601   1.291   6.779
 1679SOL    HW1 5936   6.509   1.283   6.818
 1679SOL    HW2 5937   6.595   1.320   6.683
 1680SOL     OW 5938   5.809   2.647   3.121
 1680SOL    HW1 5939   5.755   2.716   3.170
 1680SOL    HW2 5940   5.778   2.642   3.026
 1681SOL     OW 5941   3.870   6.326   4.546
 1681SOL    HW1 5942   3.948   6.289   4.595
 1681SOL    HW2 5943   3.799   6.353   4.611
 1682SOL     OW 5944   3.654   0.215   4.312
 1682SOL    HW1 5945   3.653   0.312   4.290
 1682SOL    HW2 5946   3.672   0.203   4.409
 1683SOL     OW 5947   6.802   2.823   3.235
 1683SOL    HW1 5948   6.779   2.810   3.139
 1683SOL    HW2 5949   6.801   2.920   3.257
 1684SOL     OW 5950   2.709   4.821   1.845
 1684SOL    HW1 5951   2.749   4.751   1.904
 1684SOL    HW2 5952   2.645   4.877   1.898
 1685SOL     OW 5953   6.840   1.595   5.395
 1685SOL    HW1 5954   6.866   1.660   5.467
 1685SOL    HW2 5955   6.754   1.624   5.354
 1686SOL     OW 5956   4.261   5.623   2.641
 1686SOL    HW1 5957   4.201   5.613   2.721
 1686SOL    HW2 5958   4.328   5.549   2.641
 1687SOL     OW 5959   4.920   4.701   0.811
 1687SOL    HW1 5960   4.890   4.754   0.731
 1687SOL    HW2 5961   4.878   4.739   0.893
 1688SOL     OW 5962   1.561   0.128   3.474
 1688SOL    HW1 5963   1.622   0.134   3.394
 1688SOL    HW2 5964   1.466   0.136   3.444
 1689SOL     OW 5965   4.345   0.664   1.566
 1689SOL    HW1 5966   4.290   0.604   1.624
 1689SOL    HW2 5967   4.312   0.660   1.472
 1690SOL     OW 5968   6.770   4.667   3.851
 1690SOL    HW1 5969   6.677   4.664   3.890
 1690SOL    HW2 5970   6.837   4.667   3.925
 1691SOL     OW 5971   4.277   2.739   5.337
 1691SOL    HW1 5972   4.372   2.708   5.338
 1691SOL    HW2 5973   4.223   2.678   5.279
 1692SOL     OW 5974   5.104   4.867   1.641
 1692SOL    HW1 5975   5.138   4.961   1.652
 1692SOL    HW2 5976   5.080   4.852   1.545
 1693SOL     OW 5977   5.537   6.821   6.099
 1693SOL    HW1 5978   5.444   6.858   6.095
 1693SOL    HW2 5979   5.533   6.722   6.090
 1694SOL     OW 5980   4.628   1.625   6.191
 1694SOL    HW1 5981   4.536   1.652   6.219
 1694SOL    HW2 5982   4.646   1.531   6.222
 1695SOL     OW 5983   3.681   0.360   5.302
 1695SOL    HW1 5984   3.630   0.330   5.221
 1695SOL    HW2 5985   3.703   0.280   5.358
 1696SOL     OW 5986   4.411   6.635   0.846
 1696SOL    HW1 5987   4.495   6.676   0.881
 1696SOL    HW2 5988   4.395   6.666   0.752
 1697SOL     OW 5989   4.970   2.897   1.844
 1697SOL    HW1 5990   4.953   2.798   1.849
 1697SOL    HW2 5991   4.889   2.946   1.876
 1698SOL     OW 5992   4.207   1.356   1.343
 1698SOL    HW1 5993   4.165   1.447   1.338
 1698SOL    HW2 5994   4.277   1.355   1.414
 1699SOL     OW 5995   2.052   0.389   0.533
 1699SOL    HW1 5996   2.007   0.470   0.497
 1699SOL    HW2 5997   2.126   0.416   0.595
 1700SOL     OW 5998   5.245   2.868   3.333
 1700SOL    HW1 5999   5.319   2.934   3.345
 1700SOL    HW2 6000   5.283   2.777   3.318
 1701SOL     OW 6001   0.204   6.184   5.286
 1701SOL    HW1 6002   0.261   6.160   5.207
 1701SOL    HW2 6003   0.113   6.209   5.255
 1702SOL     OW 6004   2.345   2.783   6.954
 1702SOL    HW1 6005   2.292   2.827   7.026
 1702SOL    HW2 6006   2.294   2.786   6.868
 1703SOL     OW 6007   1.181   1.913   1.984
 1703SOL    HW1 6008   1.199   1.816   1.973
 1703SOL    HW2 6009   1.137   1.930   2.072
 1704SOL     OW 6010   2.787   2.871   0.008
 1704SOL    HW1 6011   2.817   2.802   6.969
 1704SOL    HW2 6012   2.687   2.875   0.009
 1705SOL     OW 6013   4.575   3.317   0.492
 1705SOL    HW1 6014   4.659   3.348   0.535
 1705SOL    HW2 6015   4.507   3.390   0.496
 1706SOL     OW 6016   6.263   1.979   6.666
 1706SOL    HW1 6017   6.324   1.951   6.739
 1706SOL    HW2 6018   6.206   1.902   6.637
 1707SOL     OW 6019   3.589   1.261   2.232
 1707SOL    HW1 6020   3.639   1.243   2.317
 1707SOL    HW2 6021   3.548   1.176   2.199
 1708SOL     OW 6022   2.969   4.814   2.135
 1708SOL    HW1 6023   2.895   4.768   2.087
 1708SOL    HW2 6024   2.982   4.771   2.225
 1709SOL     OW 6025   5.170   4.994   0.813
 1709SOL    HW1 6026   5.247   4.934   0.836
 1709SOL    HW2 6027   5.094   4.976   0.877
 1710SOL     OW 6028   4.904   3.683   2.522
 1710SOL    HW1 6029   4.829   3.711   2.462
 1710SOL    HW2 6030   4.891   3.723   2.613
 1711SOL     OW 6031   3.857   5.945   0.164
 1711SOL    HW1 6032   3.794   5.960   0.088
 1711SOL    HW2 6033   3.919   5.870   0.142
 1712SOL     OW 6034   0.866   1.748   1.928
 1712SOL    HW1 6035   0.823   1.662   1.902
 1712SOL    HW2 6036   0.919   1.784   1.851
 1713SOL     OW 6037   2.925   1.602   2.826
 1713SOL    HW1 6038   2.976   1.526   2.866
 1713SOL    HW2 6039   2.878   1.653   2.898
 1714SOL     OW 6040   2.724   4.142   0.948
 1714SOL    HW1 6041   2.710   4.108   1.041
 1714SOL    HW2 6042   2.741   4.241   0.950
 1715SOL     OW 6043   1.073   6.236   1.284
 1715SOL    HW1 6044   1.120   6.299   1.346
 1715SOL    HW2 6045   1.059   6.148   1.330
 1716SOL     OW 6046   3.979   1.383   3.084
 1716SOL    HW1 6047   3.953   1.475   3.056
 1716SOL    HW2 6048   4.025   1.337   3.008
 1717SOL     OW 6049   3.612   6.349   3.722
 1717SOL    HW1 6050   3.663   6.274   3.764
 1717SOL    HW2 6051   3.543   6.311   3.660
 1718SOL     OW 6052   1.764   3.217   1.441
 1718SOL    HW1 6053   1.664   3.219   1.445
 1718SOL    HW2 6054   1.795   3.122   1.436
 1719SOL     OW 6055   1.428   5.440   2.878
 1719SOL    HW1 6056   1.524   5.468   2.873
 1719SOL    HW2 6057   1.392   5.427   2.786
 1720SOL     OW 6058   0.757   3.391   5.210
 1720SOL    HW1 6059   0.702   3.343   5.142
 1720SOL    HW2 6060   0.756   3.489   5.191
 1721SOL     OW 6061   1.839   3.021   0.478
 1721SOL    HW1 6062   1.893   2.989   0.400
 1721SOL    HW2 6063   1.795   2.942   0.521
 1722SOL     OW 6064   2.207   1.963   4.135
 1722SOL    HW1 6065   2.182   2.002   4.046
 1722SOL    HW2 6066   2.250   2.033   4.191
 1723SOL     OW 6067   5.740   4.240   1.249
 1723SOL    HW1 6068   5.762   4.303   1.324
 1723SOL    HW2 6069   5.745   4.288   1.162
 1724SOL     OW 6070   5.031   2.412   0.963
 1724SOL    HW1 6071   5.013   2.443   0.870
 1724SOL    HW2 6072   4.954   2.438   1.022
 1725SOL     OW 6073   2.166   6.437   5.914
 1725SOL    HW1 6074   2.149   6.469   6.008
 1725SOL    HW2 6075   2.078   6.418   5.870
 1726SOL     OW 6076   5.061   4.378   2.829
 1726SOL    HW1 6077   4.974   4.400   2.785
 1726SOL    HW2 6078   5.043   4.319   2.909
 1727SOL     OW 6079   3.117   4.047   2.925
 1727SOL    HW1 6080   3.213   4.020   2.939
 1727SOL    HW2 6081   3.101   4.137   2.966
 1728SOL     OW 6082   5.896   2.512   4.043
 1728SOL    HW1 6083   5.862   2.588   4.098
 1728SOL    HW2 6084   5.884   2.426   4.093
 1729SOL     OW 6085   1.352   2.649   2.643
 1729SOL    HW1 6086   1.321   2.609   2.556
 1729SOL    HW2 6087   1.274   2.688   2.691
 1730SOL     OW 6088   2.133   6.495   4.413
 1730SOL    HW1 6089   2.105   6.444   4.494
 1730SOL    HW2 6090   2.232   6.483   4.399
 1731SOL     OW 6091   4.975   4.784   3.951
 1731SOL    HW1 6092   5.026   4.824   4.026
 1731SOL    HW2 6093   4.889   4.746   3.985
 1732SOL     OW 6094   2.893   3.587   5.191
 1732SOL    HW1 6095   2.812   3.531   5.206
 1732SOL    HW2 6096   2.973   3.528   5.178
 1733SOL     OW 6097   1.918   2.717   6.261
 1733SOL    HW1 6098   1.875   2.734   6.350
 1733SOL    HW2 6099   1.849   2.724   6.189
 1734SOL     OW 6100   0.120   3.063   1.108
 1734SOL    HW1 6101   0.105   3.144   1.164
 1734SOL    HW2 6102   0.046   2.997   1.125
 1735SOL     OW 6103   3.571   5.297   6.314
 1735SOL    HW1 6104   3.666   5.284   6.287
 1735SOL    HW2 6105   3.549   5.395   6.313
 1736SOL     OW 6106   5.161   2.463   6.559
 1736SOL    HW1 6107   5.102   2.398   6.511
 1736SOL    HW2 6108   5.252   2.461   6.518
 1737SOL     OW 6109   3.266   0.704   5.872
 1737SOL    HW1 6110   3.247   0.632   5.805
 1737SOL    HW2 6111   3.326   0.772   5.831
 1738SOL     OW 6112   1.824   3.494   2.328
 1738SOL    HW1 6113   1.912   3.457   2.298
 1738SOL    HW2 6114   1.808   3.470   2.424
 1739SOL     OW 6115   5.537   6.097   3.238
 1739SOL    HW1 6116   5.534   6.108   3.139
 1739SOL    HW2 6117   5.524   6.000   3.261
 1740SOL     OW 6118   6.773   3.213   4.808
 1740SOL    HW1 6119   6.838   3.165   4.749
 1740SOL    HW2 6120   6.682   3.175   4.795
 1741SOL     OW 6121   0.924   2.250   4.835
 1741SOL    HW1 6122   1.013   2.253   4.880
 1741SOL    HW2 6123   0.864   2.187   4.883
 1742SOL     OW 6124   6.516   6.687   7.009
 1742SOL    HW1 6125   6.462   6.745   0.044
 1742SOL    HW2 6126   6.550   6.608   0.033
 1743SOL     OW 6127   1.744   2.400   2.195
 1743SOL    HW1 6128   1.821   2.425   2.136
 1743SOL    HW2 6129   1.659   2.402   2.142
 1744SOL     OW 6130   3.543   2.422   5.724
 1744SOL    HW1 6131   3.491   2.376   5.796
 1744SOL    HW2 6132   3.546   2.363   5.643
 1745SOL     OW 6133   6.409   6.114   0.894
 1745SOL    HW1 6134   6.502   6.149   0.900
 1745SOL    HW2 6135   6.348   6.169   0.952
 1746SOL     OW 6136   2.444   4.542   3.424
 1746SOL    HW1 6137   2.429   4.481   3.501
 1746SOL    HW2 6138   2.495   4.494   3.353
 1747SOL     OW 6139   3.983   6.833   2.424
 1747SOL    HW1 6140   3.968   6.867   2.517
 1747SOL    HW2 6141   3.928   6.887   2.360
 1748SOL     OW 6142   6.835   2.068   4.560
 1748SOL    HW1 6143   6.756   2.034   4.508
 1748SOL    HW2 6144   6.915   2.070   4.501
 1749SOL     OW 6145   6.682   5.584   1.571
 1749SOL    HW1 6146   6.713   5.588   1.476
 1749SOL    HW2 6147   6.745   5.528   1.625
 1750SOL     OW 6148   3.152   0.985   0.385
 1750SOL    HW1 6149   3.071   0.930   0.366
 1750SOL    HW2 6150   3.125   1.067   0.436
 1751SOL     OW 6151   5.495   3.263   4.977
 1751SOL    HW1 6152   5.406   3.307   4.989
 1751SOL    HW2 6153   5.525   3.274   4.882
 1752SOL     OW 6154   0.343   0.805   2.476
 1752SOL    HW1 6155   0.374   0.783   2.383
 1752SOL    HW2 6156   0.259   0.756   2.496
 1753SOL     OW 6157   0.153   1.610   1.385
 1753SOL    HW1 6158   0.192   1.648   1.301
 1753SOL    HW2 6159   0.138   1.684   1.451
 1754SOL     OW 6160   2.879   5.256   3.463
 1754SOL    HW1 6161   2.854   5.230   3.370
 1754SOL    HW2 6162   2.873   5.356   3.472
 1755SOL     OW 6163   6.815   0.231   5.885
 1755SOL    HW1 6164   6.849   0.164   5.951
 1755SOL    HW2 6165   6.719   0.214   5.865
 1756SOL     OW 6166   4.591   5.840   0.740
 1756SOL    HW1 6167   4.523   5.785   0.692
 1756SOL    HW2 6168   4.545   5.902   0.804
 1757SOL     OW 6169   2.796   4.693   5.358
 1757SOL    HW1 6170   2.879   4.746   5.374
 1757SOL    HW2 6171   2.807   4.636   5.276
 1758SOL     OW 6172   1.350   6.283   4.128
 1758SOL    HW1 6173   1.449   6.297   4.116
 1758SOL    HW2 6174   1.300   6.355   4.080
 1759SOL     OW 6175   1.177   5.613   0.345
 1759SOL    HW1 6176   1.122   5.616   0.429
 1759SOL    HW2 6177   1.161   5.527   0.297
 1760SOL     OW 6178   6.797   1.765   4.851
 1760SOL    HW1 6179   6.707   1.807   4.858
 1760SOL    HW2 6180   6.826   1.734   4.941
 1761SOL     OW 6181   5.147   1.064   2.863
 1761SOL    HW1 6182   5.222   1.072   2.929
 1761SOL    HW2 6183   5.180   1.087   2.772
 1762SOL     OW 6184   0.748   1.812   5.794
 1762SOL    HW1 6185   0.837   1.768   5.785
 1762SOL    HW2 6186   0.711   1.831   5.702
 1763SOL     OW 6187   1.240   5.243   3.643
 1763SOL    HW1 6188   1.306   5.317   3.658
 1763SOL    HW2 6189   1.177   5.269   3.570
 1764SOL     OW 6190   0.524   6.105   3.581
 1764SOL    HW1 6191   0.575   6.093   3.667
 1764SOL    HW2 6192   0.507   6.202   3.565
 1765SOL     OW 6193   5.481   4.111   1.981
 1765SOL    HW1 6194   5.396   4.161   2.003
 1765SOL    HW2 6195   5.459   4.032   1.924
 1766SOL     OW 6196   4.602   4.530   4.327
 1766SOL    HW1 6197   4.597   4.483   4.415
 1766SOL    HW2 6198   4.683   4.500   4.278
 1767SOL     OW 6199   0.353   5.058   1.398
 1767SOL    HW1 6200   0.368   5.145   1.350
 1767SOL    HW2 6201   0.423   5.045   1.467
 1768SOL     OW 6202   4.781   4.242   2.439
 1768SOL    HW1 6203   4.790   4.252   2.340
 1768SOL    HW2 6204   4.735   4.323   2.477
 1769SOL     OW 6205   5.211   0.286   1.034
 1769SOL    HW1 6206   5.309   0.272   1.047
 1769SOL    HW2 6207   5.174   0.335   1.113
 1770SOL     OW 6208   1.721   4.873   0.285
 1770SOL    HW1 6209   1.787   4.949   0.286
 1770SOL    HW2 6210   1.631   4.907   0.257
 1771SOL     OW 6211   1.854   3.556   5.968
 1771SOL    HW1 6212   1.833   3.612   6.048
 1771SOL    HW2 6213   1.812   3.466   5.978
 1772SOL     OW 6214   1.868   3.623   2.853
 1772SOL    HW1 6215   1.852   3.683   2.775
 1772SOL    HW2 6216   1.803   3.645   2.926
 1773SOL     OW 6217   2.354   6.243   5.889
 1773SOL    HW1 6218   2.310   6.177   5.950
 1773SOL    HW2 6219   2.300   6.327   5.886
 1774SOL     OW 6220   5.684   5.731   1.052
 1774SOL    HW1 6221   5.595   5.735   1.007
 1774SOL    HW2 6222   5.671   5.720   1.151
 1775SOL     OW 6223   1.884   5.521   0.737
 1775SOL    HW1 6224   1.844   5.453   0.798
 1775SOL    HW2 6225   1.954   5.573   0.786
 1776SOL     OW 6226   4.625   3.061   5.890
 1776SOL    HW1 6227   4.635   3.152   5.929
 1776SOL    HW2 6228   4.621   3.067   5.790
 1777SOL     OW 6229   4.494   6.579   6.977
 1777SOL    HW1 6230   4.492   6.545   0.045
 1777SOL    HW2 6231   4.582   6.622   6.959
 1778SOL     OW 6232   5.965   0.108   4.191
 1778SOL    HW1 6233   5.948   0.010   4.183
 1778SOL    HW2 6234   6.021   0.139   4.115
 1779SOL     OW 6235   5.474   0.684   4.803
 1779SOL    HW1 6236   5.428   0.610   4.755
 1779SOL    HW2 6237   5.570   0.660   4.817
 1780SOL     OW 6238   2.383   5.926   5.395
 1780SOL    HW1 6239   2.441   5.930   5.313
 1780SOL    HW2 6240   2.417   5.854   5.456
 1781SOL     OW 6241   3.712   1.155   5.558
 1781SOL    HW1 6242   3.643   1.222   5.585
 1781SOL    HW2 6243   3.699   1.131   5.462
 1782SOL     OW 6244   4.739   1.165   2.543
 1782SOL    HW1 6245   4.699   1.081   2.506
 1782SOL    HW2 6246   4.799   1.143   2.620
 1783SOL     OW 6247   1.863   4.432   6.666
 1783SOL    HW1 6248   1.828   4.470   6.752
 1783SOL    HW2 6249   1.801   4.361   6.633
 1784SOL     OW 6250   2.594   6.243   1.283
 1784SOL    HW1 6251   2.517   6.214   1.340
 1784SOL    HW2 6252   2.652   6.306   1.335
 1785SOL     OW 6253   1.460   6.586   4.882
 1785SOL    HW1 6254   1.366   6.575   4.848
 1785SOL    HW2 6255   1.511   6.644   4.819
 1786SOL     OW 6256   0.295   6.071   1.929
 1786SOL    HW1 6257   0.325   6.166   1.917
 1786SOL    HW2 6258   0.263   6.035   1.841
 1787SOL     OW 6259   1.886   3.017   5.618
 1787SOL    HW1 6260   1.819   2.948   5.590
 1787SOL    HW2 6261   1.903   3.080   5.542
 1788SOL     OW 6262   4.024   3.532   0.536
 1788SOL    HW1 6263   4.092   3.464   0.561
 1788SOL    HW2 6264   4.055   3.582   0.455
 1789SOL     OW 6265   5.837   3.208   2.123
 1789SOL    HW1 6266   5.904   3.180   2.054
 1789SOL    HW2 6267   5.807   3.301   2.105
 1790SOL     OW 6268   1.801   2.513   5.022
 1790SOL    HW1 6269   1.749   2.599   5.016
 1790SOL    HW2 6270   1.897   2.534   5.041
 1791SOL     OW 6271   4.894   0.518   3.448
 1791SOL    HW1 6272   4.806   0.565   3.441
 1791SOL    HW2 6273   4.884   0.437   3.506
 1792SOL     OW 6274   6.737   2.447   6.544
 1792SOL    HW1 6275   6.724   2.445   6.445
 1792SOL    HW2 6276   6.711   2.358   6.582
 1793SOL     OW 6277   6.699   2.138   5.238
 1793SOL    HW1 6278   6.611   2.183   5.227
 1793SOL    HW2 6279   6.718   2.081   5.158
 1794SOL     OW 6280   0.305   1.382   6.511
 1794SOL    HW1 6281   0.328   1.435   6.592
 1794SOL    HW2 6282   0.388   1.362   6.459
 1795SOL     OW 6283   5.587   4.907   1.023
 1795SOL    HW1 6284   5.680   4.893   1.057
 1795SOL    HW2 6285   5.563   4.834   0.960
 1796SOL     OW 6286   6.052   0.172   1.082
 1796SOL    HW1 6287   6.013   0.112   1.151
 1796SOL    HW2 6288   6.083   0.117   1.004
 1797SOL     OW 6289   3.064   5.839   5.647
 1797SOL    HW1 6290   2.966   5.850   5.664
 1797SOL    HW2 6291   3.084   5.743   5.627
 1798SOL     OW 6292   2.362   3.603   5.610
 1798SOL    HW1 6293   2.312   3.670   5.556
 1798SOL    HW2 6294   2.460   3.624   5.606
 1799SOL     OW 6295   2.995   1.366   2.116
 1799SOL    HW1 6296   3.075   1.394   2.063
 1799SOL    HW2 6297   3.000   1.405   2.208
 1800SOL     OW 6298   6.178   3.085   5.771
 1800SOL    HW1 6299   6.100   3.131   5.728
 1800SOL    HW2 6300   6.258   3.144   5.766
 1801SOL     OW 6301   0.303   0.469   2.922
 1801SOL    HW1 6302   0.388   0.483   2.871
 1801SOL    HW2 6303   0.319   0.491   3.018
 1802SOL     OW 6304   6.104   4.815   3.646
 1802SOL    HW1 6305   6.087   4.913   3.635
 1802SOL    HW2 6306   6.195   4.801   3.686
 1803SOL     OW 6307   0.097   0.192   3.978
 1803SOL    HW1 6308   0.180   0.152   3.940
 1803SOL    HW2 6309   0.017   0.146   3.938
 1804SOL     OW 6310   1.834   2.325   6.291
 1804SOL    HW1 6311   1.763   2.363   6.231
 1804SOL    HW2 6312   1.921   2.371   6.273
 1805SOL     OW 6313   6.643   4.551   0.550
 1805SOL    HW1 6314   6.700   4.627   0.519
 1805SOL    HW2 6315   6.633   4.484   0.476
 1806SOL     OW 6316   0.766   1.478   0.888
 1806SOL    HW1 6317   0.771   1.422   0.971
 1806SOL    HW2 6318   0.715   1.562   0.908
 1807SOL     OW 6319   5.987   3.093   2.795
 1807SOL    HW1 6320   5.987   2.998   2.762
 1807SOL    HW2 6321   6.047   3.101   2.875
 1808SOL     OW 6322   5.488   1.192   6.447
 1808SOL    HW1 6323   5.554   1.127   6.410
 1808SOL    HW2 6324   5.502   1.282   6.407
 1809SOL     OW 6325   5.854   0.392   5.577
 1809SOL    HW1 6326   5.820   0.304   5.612
 1809SOL    HW2 6327   5.779   0.441   5.533
 1810SOL     OW 6328   1.269   1.030   4.132
 1810SOL    HW1 6329   1.222   0.953   4.090
 1810SOL    HW2 6330   1.359   1.041   4.090
 1811SOL     OW 6331   3.110   5.803   2.365
 1811SOL    HW1 6332   3.182   5.824   2.299
 1811SOL    HW2 6333   3.143   5.826   2.457
 1812SOL     OW 6334   3.772   6.614   6.660
 1812SOL    HW1 6335   3.797   6.709   6.679
 1812SOL    HW2 6336   3.855   6.558   6.653
 1813SOL     OW 6337   4.876   3.947   1.817
 1813SOL    HW1 6338   4.830   4.034   1.803
 1813SOL    HW2 6339   4.937   3.954   1.896
 1814SOL     OW 6340   6.695   5.795   0.638
 1814SOL    HW1 6341   6.657   5.795   0.545
 1814SOL    HW2 6342   6.624   5.821   0.703
 1815SOL     OW 6343   5.640   5.314   1.508
 1815SOL    HW1 6344   5.567   5.269   1.456
 1815SOL    HW2 6345   5.657   5.264   1.592
 1816SOL     OW 6346   4.324   5.153   4.898
 1816SOL    HW1 6347   4.275   5.238   4.916
 1816SOL    HW2 6348   4.296   5.083   4.964
 1817SOL     OW 6349   0.113   2.522   3.726
 1817SOL    HW1 6350   0.116   2.513   3.826
 1817SOL    HW2 6351   0.127   2.433   3.684
 1818SOL     OW 6352   2.290   1.331   0.548
 1818SOL    HW1 6353   2.376   1.304   0.504
 1818SOL    HW2 6354   2.272   1.428   0.530
 1819SOL     OW 6355   1.122   4.491   1.801
 1819SOL    HW1 6356   1.072   4.484   1.714
 1819SOL    HW2 6357   1.057   4.489   1.877
 1820SOL     OW 6358   3.717   0.190   4.562
 1820SOL    HW1 6359   3.764   0.254   4.622
 1820SOL    HW2 6360   3.670   0.120   4.616
 1821SOL     OW 6361   3.549   1.245   2.822
 1821SOL    HW1 6362   3.521   1.196   2.740
 1821SOL    HW2 6363   3.587   1.334   2.797
 1822SOL     OW 6364   1.373   3.894   3.811
 1822SOL    HW1 6365   1.376   3.803   3.853
 1822SOL    HW2 6366   1.371   3.964   3.883
 1823SOL     OW 6367   3.575   6.928   3.331
 1823SOL    HW1 6368   3.670   6.933   3.300
 1823SOL    HW2 6369   3.520   6.996   3.283
 1824SOL     OW 6370   4.367   3.189   1.738
 1824SOL    HW1 6371   4.379   3.203   1.640
 1824SOL    HW2 6372   4.451   3.151   1.777
 1825SOL     OW 6373   0.930   3.552   6.311
 1825SOL    HW1 6374   0.916   3.535   6.409
 1825SOL    HW2 6375   0.956   3.647   6.296
 1826SOL     OW 6376   4.028   2.413   0.943
 1826SOL    HW1 6377   4.093   2.451   0.878
 1826SOL    HW2 6378   3.970   2.346   0.897
 1827SOL     OW 6379   5.463   4.767   0.308
 1827SOL    HW1 6380   5.379   4.745   0.357
 1827SOL    HW2 6381   5.453   4.738   0.213
 1828SOL     OW 6382   2.013   4.461   4.780
 1828SOL    HW1 6383   1.976   4.499   4.865
 1828SOL    HW2 6384   2.093   4.405   4.802
 1829SOL     OW 6385   2.521   6.049   2.329
 1829SOL    HW1 6386   2.451   6.078   2.393
 1829SOL    HW2 6387   2.493   6.072   2.236
 1830SOL     OW 6388   4.443   0.875   5.902
 1830SOL    HW1 6389   4.462   0.794   5.846
 1830SOL    HW2 6390   4.527   0.927   5.916
 1831SOL     OW 6391   3.390   4.960   0.334
 1831SOL    HW1 6392   3.298   4.970   0.295
 1831SOL    HW2 6393   3.412   4.863   0.344
 1832SOL     OW 6394   1.984   3.326   5.732
 1832SOL    HW1 6395   2.076   3.353   5.703
 1832SOL    HW2 6396   1.990   3.246   5.791
 1833SOL     OW 6397   5.846   0.610   6.984
 1833SOL    HW1 6398   5.937   0.588   6.950
 1833SOL    HW2 6399   5.825   0.552   0.036
 1834SOL     OW 6400   0.649   3.632   6.143
 1834SOL    HW1 6401   0.719   3.564   6.119
 1834SOL    HW2 6402   0.684   3.693   6.213
 1835SOL     OW 6403   6.798   6.618   1.188
 1835SOL    HW1 6404   6.787   6.635   1.286
 1835SOL    HW2 6405   6.857   6.538   1.174
 1836SOL     OW 6406   5.439   1.572   2.494
 1836SOL    HW1 6407   5.535   1.587   2.518
 1836SOL    HW2 6408   5.430   1.565   2.395
 1837SOL     OW 6409   2.580   2.229   6.822
 1837SOL    HW1 6410   2.607   2.243   6.918
 1837SOL    HW2 6411   2.609   2.309   6.769
 1838SOL     OW 6412   4.751   0.654   0.559
 1838SOL    HW1 6413   4.828   0.711   0.589
 1838SOL    HW2 6414   4.705   0.697   0.482
 1839SOL     OW 6415   6.339   0.480   6.997
 1839SOL    HW1 6416   6.387   0.500   0.056
 1839SOL    HW2 6417   6.406   0.467   6.924
 1840SOL     OW 6418   4.043   0.143   4.158
 1840SOL    HW1 6419   4.103   0.197   4.218
 1840SOL    HW2 6420   3.987   0.081   4.212
 1841SOL     OW 6421   1.745   0.592   1.528
 1841SOL    HW1 6422   1.779   0.501   1.551
 1841SOL    HW2 6423   1.791   0.625   1.445
 1842SOL     OW 6424   0.121   5.156   1.528
 1842SOL    HW1 6425   0.198   5.113   1.481
 1842SOL    HW2 6426   0.083   5.228   1.470
 1843SOL     OW 6427   2.470   1.270   0.316
 1843SOL    HW1 6428   2.540   1.200   0.331
 1843SOL    HW2 6429   2.383   1.225   0.294
 1844SOL     OW 6430   5.496   2.905   6.753
 1844SOL    HW1 6431   5.509   2.910   6.852
 1844SOL    HW2 6432   5.420   2.844   6.732
 1845SOL     OW 6433   1.076   2.483   3.947
 1845SOL    HW1 6434   1.145   2.416   3.920
 1845SOL    HW2 6435   1.086   2.565   3.891
 1846SOL     OW 6436   3.095   0.899   1.528
 1846SOL    HW1 6437   3.075   0.817   1.581
 1846SOL    HW2 6438   3.067   0.980   1.580
 1847SOL     OW 6439   2.280   5.803   6.079
 1847SOL    HW1 6440   2.307   5.721   6.028
 1847SOL    HW2 6441   2.301   5.791   6.176
 1848SOL     OW 6442   4.244   6.409   3.226
 1848SOL    HW1 6443   4.310   6.358   3.280
 1848SOL    HW2 6444   4.256   6.507   3.242
 1849SOL     OW 6445   4.822   2.715   2.833
 1849SOL    HW1 6446   4.815   2.621   2.800
 1849SOL    HW2 6447   4.768   2.775   2.773
 1850SOL     OW 6448   4.167   1.951   0.887
 1850SOL    HW1 6449   4.104   1.997   0.949
 1850SOL    HW2 6450   4.171   2.000   0.800
 1851SOL     OW 6451   0.481   4.721   4.561
 1851SOL    HW1 6452   0.545   4.671   4.620
 1851SOL    HW2 6453   0.486   4.819   4.581
 1852SOL     OW 6454   0.709   0.135   3.685
 1852SOL    HW1 6455   0.646   0.208   3.713
 1852SOL    HW2 6456   0.757   0.100   3.765
 1853SOL     OW 6457   0.852   2.109   5.732
 1853SOL    HW1 6458   0.833   2.048   5.810
 1853SOL    HW2 6459   0.807   2.073   5.651
 1854SOL     OW 6460   6.977   0.545   3.854
 1854SOL    HW1 6461   0.017   0.587   3.791
 1854SOL    HW2 6462   7.020   0.531   3.943
 1855SOL     OW 6463   5.847   2.508   5.264
 1855SOL    HW1 6464   5.859   2.588   5.323
 1855SOL    HW2 6465   5.763   2.460   5.289
 1856SOL     OW 6466   4.875   3.820   0.417
 1856SOL    HW1 6467   4.968   3.854   0.432
 1856SOL    HW2 6468   4.811   3.897   0.417
 1857SOL     OW 6469   3.866   0.922   6.679
 1857SOL    HW1 6470   3.820   0.980   6.747
 1857SOL    HW2 6471   3.933   0.976   6.629
 1858SOL     OW 6472   5.344   1.971   5.071
 1858SOL    HW1 6473   5.375   1.879   5.098
 1858SOL    HW2 6474   5.414   2.038   5.098
 1859SOL     OW 6475   6.459   0.396   3.187
 1859SOL    HW1 6476   6.543   0.402   3.241
 1859SOL    HW2 6477   6.474   0.334   3.109
 1860SOL     OW 6478   2.677   1.397   6.174
 1860SOL    HW1 6479   2.599   1.362   6.226
 1860SOL    HW2 6480   2.706   1.485   6.212
 1861SOL     OW 6481   6.082   6.356   5.064
 1861SOL    HW1 6482   6.010   6.329   5.129
 1861SOL    HW2 6483   6.056   6.328   4.972
 1862SOL     OW 6484   3.227   5.637   5.907
 1862SOL    HW1 6485   3.195   5.590   5.989
 1862SOL    HW2 6486   3.276   5.572   5.848
 1863SOL     OW 6487   0.121   1.864   1.222
 1863SOL    HW1 6488   0.042   1.853   1.281
 1863SOL    HW2 6489   0.118   1.796   1.148
 1864SOL     OW 6490   2.607   6.227   1.937
 1864SOL    HW1 6491   2.636   6.151   1.878
 1864SOL    HW2 6492   2.683   6.256   1.995
 1865SOL     OW 6493   6.232   2.446   5.688
 1865SOL    HW1 6494   6.330   2.455   5.710
 1865SOL    HW2 6495   6.217   2.360   5.639
 1866SOL     OW 6496   0.224   5.177   3.697
 1866SOL    HW1 6497   0.226   5.276   3.680
 1866SOL    HW2 6498   0.133   5.141   3.675
 1867SOL     OW 6499   1.234   1.269   1.700
 1867SOL    HW1 6500   1.224   1.337   1.627
 1867SOL    HW2 6501   1.328   1.267   1.732
 1868SOL     OW 6502   5.219   3.748   6.251
 1868SOL    HW1 6503   5.257   3.768   6.160
 1868SOL    HW2 6504   5.256   3.813   6.317
 1869SOL     OW 6505   5.204   0.830   5.126
 1869SOL    HW1 6506   5.115   0.875   5.124
 1869SOL    HW2 6507   5.251   0.851   5.212
 1870SOL     OW 6508   5.938   0.113   6.138
 1870SOL    HW1 6509   5.997   0.087   6.061
 1870SOL    HW2 6510   5.912   0.031   6.189
 1871SOL     OW 6511   0.722   5.723   0.214
 1871SOL    HW1 6512   0.809   5.767   0.235
 1871SOL    HW2 6513   0.682   5.764   0.132
 1872SOL     OW 6514   2.755   2.946   1.262
 1872SOL    HW1 6515   2.664   2.965   1.297
 1872SOL    HW2 6516   2.759   2.966   1.164
 1873SOL     OW 6517   6.015   1.079   1.579
 1873SOL    HW1 6518   6.073   1.142   1.528
 1873SOL    HW2 6519   6.034   0.985   1.549
 1874SOL     OW 6520   1.324   5.912   6.749
 1874SOL    HW1 6521   1.326   5.866   6.660
 1874SOL    HW2 6522   1.272   5.857   6.814
 1875SOL     OW 6523   0.258   6.441   2.113
 1875SOL    HW1 6524   0.216   6.356   2.144
 1875SOL    HW2 6525   0.338   6.420   2.057
 1876SOL     OW 6526   0.661   4.392   0.599
 1876SOL    HW1 6527   0.599   4.413   0.523
 1876SOL    HW2 6528   0.634   4.304   0.639
 1877SOL     OW 6529   1.350   1.688   2.516
 1877SOL    HW1 6530   1.388   1.749   2.586
 1877SOL    HW2 6531   1.254   1.671   2.535
 1878SOL     OW 6532   5.165   3.440   4.365
 1878SOL    HW1 6533   5.148   3.342   4.355
 1878SOL    HW2 6534   5.242   3.467   4.308
 1879SOL     OW 6535   3.940   6.251   5.041
 1879SOL    HW1 6536   3.877   6.304   5.098
 1879SOL    HW2 6537   3.999   6.314   4.990
 1880SOL     OW 6538   0.992   2.300   4.257
 1880SOL    HW1 6539   1.092   2.296   4.268
 1880SOL    HW2 6540   0.959   2.211   4.227
 1881SOL     OW 6541   1.835   1.098   3.906
 1881SOL    HW1 6542   1.882   1.016   3.875
 1881SOL    HW2 6543   1.896   1.177   3.900
 1882SOL     OW 6544   2.789   5.422   0.634
 1882SOL    HW1 6545   2.812   5.491   0.702
 1882SOL    HW2 6546   2.723   5.461   0.568
 1883SOL     OW 6547   2.330   2.636   2.820
 1883SOL    HW1 6548   2.232   2.634   2.836
 1883SOL    HW2 6549   2.349   2.668   2.727
 1884SOL     OW 6550   5.133   0.509   0.421
 1884SOL    HW1 6551   5.065   0.530   0.351
 1884SOL    HW2 6552   5.119   0.416   0.455
 1885SOL     OW 6553   0.265   1.242   0.650
 1885SOL    HW1 6554   0.219   1.300   0.583
 1885SOL    HW2 6555   0.300   1.160   0.605
 1886SOL     OW 6556   3.789   2.549   5.673
 1886SOL    HW1 6557   3.712   2.485   5.682
 1886SOL    HW2 6558   3.807   2.592   5.761
 1887SOL     OW 6559   0.685   5.997   4.990
 1887SOL    HW1 6560   0.741   5.967   4.913
 1887SOL    HW2 6561   0.740   5.999   5.073
 1888SOL     OW 6562   1.866   2.036   5.997
 1888SOL    HW1 6563   1.783   2.008   6.044
 1888SOL    HW2 6564   1.942   1.978   6.025
 1889SOL     OW 6565   2.795   3.084   0.239
 1889SOL    HW1 6566   2.792   3.001   0.184
 1889SOL    HW2 6567   2.779   3.163   0.180
 1890SOL     OW 6568   5.915   5.815   6.512
 1890SOL    HW1 6569   6.013   5.839   6.511
 1890SOL    HW2 6570   5.869   5.862   6.437
 1891SOL     OW 6571   5.232   3.479   7.025
 1891SOL    HW1 6572   5.283   3.555   0.039
 1891SOL    HW2 6573   5.295   3.406   7.000
 1892SOL     OW 6574   4.070   0.162   2.961
 1892SOL    HW1 6575   3.998   0.092   2.963
 1892SOL    HW2 6576   4.037   0.244   3.008
 1893SOL     OW 6577   3.164   0.930   6.336
 1893SOL    HW1 6578   3.147   0.835   6.309
 1893SOL    HW2 6579   3.259   0.954   6.316
 1894SOL     OW 6580   5.021   3.468   1.215
 1894SOL    HW1 6581   5.002   3.553   1.265
 1894SOL    HW2 6582   5.084   3.411   1.269
 1895SOL     OW 6583   5.127   6.069   3.716
 1895SOL    HW1 6584   5.184   6.006   3.665
 1895SOL    HW2 6585   5.033   6.034   3.719
 1896SOL     OW 6586   6.110   2.504   5.139
 1896SOL    HW1 6587   6.025   2.491   5.190
 1896SOL    HW2 6588   6.117   2.434   5.067
 1897SOL     OW 6589   5.260   5.068   2.867
 1897SOL    HW1 6590   5.328   5.057   2.939
 1897SOL    HW2 6591   5.175   5.104   2.907
 1898SOL     OW 6592   5.596   6.840   6.878
 1898SOL    HW1 6593   5.652   6.909   6.832
 1898SOL    HW2 6594   5.654   6.764   6.908
 1899SOL     OW 6595   1.801   2.727   3.699
 1899SOL    HW1 6596   1.792   2.736   3.600
 1899SOL    HW2 6597   1.896   2.741   3.726
 1900SOL     OW 6598   2.312   5.821   1.899
 1900SOL    HW1 6599   2.363   5.736   1.909
 1900SOL    HW2 6600   2.214   5.800   1.895
 1901SOL     OW 6601   1.077   0.944   5.482
 1901SOL    HW1 6602   1.170   0.925   5.514
 1901SOL    HW2 6603   1.071   1.038   5.448
 1902SOL     OW 6604   1.051   2.732   4.841
 1902SOL    HW1 6605   1.138   2.725   4.889
 1902SOL    HW2 6606   1.066   2.720   4.743
 1903SOL     OW 6607   6.522   4.851   3.930
 1903SOL    HW1 6608   6.475   4.854   3.841
 1903SOL    HW2 6609   6.465   4.800   3.995
 1904SOL     OW 6610   0.419   0.170   4.453
 1904SOL    HW1 6611   0.341   0.160   4.392
 1904SOL    HW2 6612   0.426   0.266   4.483
 1905SOL     OW 6613   6.335   3.115   4.385
 1905SOL    HW1 6614   6.340   3.016   4.395
 1905SOL    HW2 6615   6.427   3.152   4.374
 1906SOL     OW 6616   2.516   6.477   5.690
 1906SOL    HW1 6617   2.505   6.383   5.721
 1906SOL    HW2 6618   2.608   6.489   5.651
 1907SOL     OW 6619   4.268   6.856   3.797
 1907SOL    HW1 6620   4.324   6.931   3.833
 1907SOL    HW2 6621   4.189   6.841   3.857
 1908SOL     OW 6622   5.083   5.872   0.766
 1908SOL    HW1 6623   5.125   5.935   0.700
 1908SOL    HW2 6624   5.122   5.888   0.856
 1909SOL     OW 6625   4.940   5.760   3.492
 1909SOL    HW1 6626   4.853   5.810   3.497
 1909SOL    HW2 6627   4.925   5.665   3.519
 1910SOL     OW 6628   4.718   2.906   4.870
 1910SOL    HW1 6629   4.768   2.820   4.861
 1910SOL    HW2 6630   4.622   2.892   4.843
 1911SOL     OW 6631   0.181   3.360   5.576
 1911SOL    HW1 6632   0.258   3.380   5.516
 1911SOL    HW2 6633   0.183   3.423   5.654
 1912SOL     OW 6634   2.738   6.241   3.221
 1912SOL    HW1 6635   2.828   6.261   3.181
 1912SOL    HW2 6636   2.704   6.322   3.268
 1913SOL     OW 6637   1.799   4.345   5.533
 1913SOL    HW1 6638   1.835   4.418   5.590
 1913SOL    HW2 6639   1.868   4.273   5.523
 1914SOL     OW 6640   4.243   1.520   5.021
 1914SOL    HW1 6641   4.238   1.433   4.973
 1914SOL    HW2 6642   4.186   1.517   5.103
 1915SOL     OW 6643   3.047   0.131   5.292
 1915SOL    HW1 6644   3.018   0.078   5.372
 1915SOL    HW2 6645   2.989   0.212   5.284
 1916SOL     OW 6646   3.891   6.448   2.751
 1916SOL    HW1 6647   3.888   6.519   2.822
 1916SOL    HW2 6648   3.888   6.491   2.661
 1917SOL     OW 6649   2.882   3.783   4.751
 1917SOL    HW1 6650   2.927   3.700   4.716
 1917SOL    HW2 6651   2.784   3.766   4.761
 1918SOL     OW 6652   6.745   6.647   5.632
 1918SOL    HW1 6653   6.821   6.710   5.623
 1918SOL    HW2 6654   6.775   6.554   5.610
 1919SOL     OW 6655   6.308   0.427   2.385
 1919SOL    HW1 6656   6.342   0.414   2.478
 1919SOL    HW2 6657   6.329   0.519   2.354
 1920SOL     OW 6658   6.609   5.769   4.629
 1920SOL    HW1 6659   6.510   5.761   4.645
 1920SOL    HW2 6660   6.659   5.722   4.701
 1921SOL     OW 6661   2.149   6.654   6.984
 1921SOL    HW1 6662   2.071   6.624   6.928
 1921SOL    HW2 6663   2.231   6.656   6.927
 1922SOL     OW 6664   4.090   4.371   0.652
 1922SOL    HW1 6665   4.036   4.434   0.709
 1922SOL    HW2 6666   4.181   4.362   0.692
 1923SOL     OW 6667   1.597   3.024   0.694
 1923SOL    HW1 6668   1.570   3.086   0.620
 1923SOL    HW2 6669   1.516   2.984   0.736
 1924SOL     OW 6670   0.790   4.198   1.021
 1924SOL    HW1 6671   0.724   4.236   0.956
 1924SOL    HW2 6672   0.791   4.254   1.104
 1925SOL     OW 6673   3.481   4.714   0.371
 1925SOL    HW1 6674   3.559   4.686   0.315
 1925SOL    HW2 6675   3.485   4.667   0.459
 1926SOL     OW 6676   0.383   0.548   3.537
 1926SOL    HW1 6677   0.451   0.493   3.587
 1926SOL    HW2 6678   0.361   0.503   3.451
 1927SOL     OW 6679   4.627   3.200   1.087
 1927SOL    HW1 6680   4.687   3.215   1.166
 1927SOL    HW2 6681   4.537   3.240   1.106
 1928SOL     OW 6682   0.180   5.933   4.845
 1928SOL    HW1 6683   0.216   5.908   4.755
 1928SOL    HW2 6684   0.081   5.922   4.846
 1929SOL     OW 6685   1.362   6.332   3.220
 1929SOL    HW1 6686   1.376   6.238   3.188
 1929SOL    HW2 6687   1.370   6.395   3.143
 1930SOL     OW 6688   6.815   4.913   6.436
 1930SOL    HW1 6689   6.811   4.882   6.532
 1930SOL    HW2 6690   6.907   4.899   6.401
 1931SOL     OW 6691   0.296   2.203   4.480
 1931SOL    HW1 6692   0.349   2.255   4.413
 1931SOL    HW2 6693   0.312   2.105   4.467
 1932SOL     OW 6694   5.805   3.306   2.697
 1932SOL    HW1 6695   5.856   3.220   2.704
 1932SOL    HW2 6696   5.866   3.382   2.716
 1933SOL     OW 6697   2.732   4.971   0.695
 1933SOL    HW1 6698   2.657   4.913   0.663
 1933SOL    HW2 6699   2.697   5.062   0.716
 1934SOL     OW 6700   0.148   6.691   3.255
 1934SOL    HW1 6701   0.154   6.598   3.217
 1934SOL    HW2 6702   0.102   6.750   3.189
 1935SOL     OW 6703   2.044   0.836   3.033
 1935SOL    HW1 6704   1.989   0.915   3.058
 1935SOL    HW2 6705   2.125   0.866   2.982
 1936SOL     OW 6706   6.454   5.912   5.242
 1936SOL    HW1 6707   6.522   5.979   5.214
 1936SOL    HW2 6708   6.386   5.901   5.170
 1937SOL     OW 6709   3.968   1.006   2.955
 1937SOL    HW1 6710   4.030   0.987   3.031
 1937SOL    HW2 6711   3.877   1.027   2.991
 1938SOL     OW 6712   5.480   1.104   4.476
 1938SOL    HW1 6713   5.566   1.057   4.492
 1938SOL    HW2 6714   5.497   1.190   4.427
 1939SOL     OW 6715   2.751   1.065   4.289
 1939SOL    HW1 6716   2.747   1.162   4.262
 1939SOL    HW2 6717   2.822   1.054   4.359
 1940SOL     OW 6718   6.110   5.161   6.208
 1940SOL    HW1 6719   6.202   5.124   6.207
 1940SOL    HW2 6720   6.051   5.103   6.265
 1941SOL     OW 6721   5.191   5.111   2.600
 1941SOL    HW1 6722   5.194   5.055   2.683
 1941SOL    HW2 6723   5.192   5.051   2.520
 1942SOL     OW 6724   6.533   4.175   3.387
 1942SOL    HW1 6725   6.522   4.082   3.353
 1942SOL    HW2 6726   6.624   4.210   3.364
 1943SOL     OW 6727   2.686   5.425   3.252
 1943SOL    HW1 6728   2.733   5.337   3.246
 1943SOL    HW2 6729   2.732   5.492   3.192
 1944SOL     OW 6730   0.029   6.744   2.309
 1944SOL    HW1 6731   0.086   6.819   2.343
 1944SOL    HW2 6732   6.964   6.779   2.288
 1945SOL     OW 6733   3.620   4.947   3.423
 1945SOL    HW1 6734   3.545   5.003   3.457
 1945SOL    HW2 6735   3.690   4.937   3.494
 1946SOL     OW 6736   1.390   6.286   0.046
 1946SOL    HW1 6737   1.298   6.275   0.007
 1946SOL    HW2 6738   1.437   6.361   7.025
 1947SOL     OW 6739   4.660   0.155   3.954
 1947SOL    HW1 6740   4.711   0.239   3.936
 1947SOL    HW2 6741   4.614   0.162   4.043
 1948SOL     OW 6742   6.567   3.690   5.237
 1948SOL    HW1 6743   6.513   3.747   5.298
 1948SOL    HW2 6744   6.658   3.730   5.226
 1949SOL     OW 6745   5.084   4.078   6.552
 1949SOL    HW1 6746   5.063   3.995   6.603
 1949SOL    HW2 6747   5.078   4.059   6.454
 1950SOL     OW 6748   3.251   5.463   1.200
 1950SOL    HW1 6749   3.294   5.518   1.271
 1950SOL    HW2 6750   3.240   5.369   1.233
 1951SOL     OW 6751   6.694   2.957   0.475
 1951SOL    HW1 6752   6.659   2.897   0.547
 1951SOL    HW2 6753   6.762   2.907   0.421
 1952SOL     OW 6754   3.701   3.143   4.904
 1952SOL    HW1 6755   3.785   3.178   4.863
 1952SOL    HW2 6756   3.662   3.072   4.845
 1953SOL     OW 6757   0.335   2.712   4.284
 1953SOL    HW1 6758   0.430   2.689   4.263
 1953SOL    HW2 6759   0.332   2.788   4.348
 1954SOL     OW 6760   3.083   1.824   3.782
 1954SOL    HW1 6761   3.093   1.767   3.864
 1954SOL    HW2 6762   3.059   1.766   3.704
 1955SOL     OW 6763   6.342   5.072   2.012
 1955SOL    HW1 6764   6.439   5.066   1.987
 1955SOL    HW2 6765   6.296   5.135   1.949
 1956SOL     OW 6766   5.417   5.934   2.253
 1956SOL    HW1 6767   5.469   5.853   2.280
 1956SOL    HW2 6768   5.386   5.982   2.335
 1957SOL     OW 6769   0.789   6.518   5.379
 1957SOL    HW1 6770   0.707   6.573   5.362
 1957SOL    HW2 6771   0.837   6.554   5.458
 1958SOL     OW 6772   4.536   3.061   5.621
 1958SOL    HW1 6773   4.535   3.103   5.530
 1958SOL    HW2 6774   4.470   2.986   5.624
 1959SOL     OW 6775   2.258   1.584   0.472
 1959SOL    HW1 6776   2.228   1.651   0.540
 1959SOL    HW2 6777   2.226   1.612   0.381
 1960SOL     OW 6778   6.093   6.058   2.273
 1960SOL    HW1 6779   6.064   6.146   2.234
 1960SOL    HW2 6780   6.191   6.060   2.291
 1961SOL     OW 6781   6.094   4.713   5.270
 1961SOL    HW1 6782   6.182   4.670   5.253
 1961SOL    HW2 6783   6.054   4.745   5.183
 1962SOL     OW 6784   6.776   0.041   3.759
 1962SOL    HW1 6785   6.718   0.123   3.765
 1962SOL    HW2 6786   6.870   0.068   3.739
 1963SOL     OW 6787   2.755   0.662   3.579
 1963SOL    HW1 6788   2.795   0.615   3.657
 1963SOL    HW2 6789   2.826   0.683   3.512
 1964SOL     OW 6790   5.999   3.920   1.947
 1964SOL    HW1 6791   5.937   3.893   2.021
 1964SOL    HW2 6792   6.093   3.920   1.981
 1965SOL     OW 6793   2.427   6.097   3.902
 1965SOL    HW1 6794   2.352   6.070   3.963
 1965SOL    HW2 6795   2.486   6.162   3.949
 1966SOL     OW 6796   6.240   6.706   6.658
 1966SOL    HW1 6797   6.215   6.797   6.624
 1966SOL    HW2 6798   6.182   6.638   6.614
 1967SOL     OW 6799   5.062   3.441   4.722
 1967SOL    HW1 6800   5.010   3.417   4.804
 1967SOL    HW2 6801   5.117   3.363   4.692
 1968SOL     OW 6802   3.963   5.603   4.889
 1968SOL    HW1 6803   3.946   5.666   4.965
 1968SOL    HW2 6804   3.876   5.571   4.853
 1969SOL     OW 6805   6.922   1.737   1.506
 1969SOL    HW1 6806   6.891   1.724   1.600
 1969SOL    HW2 6807   6.846   1.723   1.443
 1970SOL     OW 6808   1.534   0.071   3.953
 1970SOL    HW1 6809   1.500   0.164   3.938
 1970SOL    HW2 6810   1.631   0.074   3.974
 1971SOL     OW 6811   0.327   1.018   6.031
 1971SOL    HW1 6812   0.355   1.113   6.021
 1971SOL    HW2 6813   0.295   1.002   6.124
 1972SOL     OW 6814   1.673   6.458   3.517
 1972SOL    HW1 6815   1.769   6.436   3.495
 1972SOL    HW2 6816   1.625   6.374   3.544
 1973SOL     OW 6817   2.511   3.008   6.890
 1973SOL    HW1 6818   2.551   3.029   6.979
 1973SOL    HW2 6819   2.464   2.920   6.895
 1974SOL     OW 6820   5.659   6.901   4.357
 1974SOL    HW1 6821   5.619   6.990   4.380
 1974SOL    HW2 6822   5.588   6.831   4.358
 1975SOL     OW 6823   2.637   0.243   3.712
 1975SOL    HW1 6824   2.734   0.248   3.690
 1975SOL    HW2 6825   2.584   0.283   3.637
 1976SOL     OW 6826   6.940   4.401   6.727
 1976SOL    HW1 6827   6.849   4.380   6.761
 1976SOL    HW2 6828   6.981   4.318   6.687
 1977SOL     OW 6829   2.842   2.425   5.713
 1977SOL    HW1 6830   2.866   2.333   5.742
 1977SOL    HW2 6831   2.890   2.492   5.770
 1978SOL     OW 6832   6.636   2.279   5.931
 1978SOL    HW1 6833   6.585   2.345   5.986
 1978SOL    HW2 6834   6.604   2.187   5.953
 1979SOL     OW 6835   5.974   4.390   2.741
 1979SOL    HW1 6836   5.936   4.379   2.649
 1979SOL    HW2 6837   6.054   4.331   2.751
 1980SOL     OW 6838   2.992   1.134   1.661
 1980SOL    HW1 6839   2.894   1.120   1.645
 1980SOL    HW2 6840   3.021   1.221   1.620
 1981SOL     OW 6841   4.781   3.492   1.837
 1981SOL    HW1 6842   4.780   3.538   1.925
 1981SOL    HW2 6843   4.845   3.537   1.775
 1982SOL     OW 6844   6.684   6.690   5.335
 1982SOL    HW1 6845   6.731   6.641   5.261
 1982SOL    HW2 6846   6.596   6.645   5.353
 1983SOL     OW 6847   0.661   4.525   2.255
 1983SOL    HW1 6848   0.685   4.431   2.232
 1983SOL    HW2 6849   0.698   4.548   2.346
 1984SOL     OW 6850   4.400   0.501   5.304
 1984SOL    HW1 6851   4.330   0.506   5.376
 1984SOL    HW2 6852   4.475   0.444   5.336
 1985SOL     OW 6853   2.121   6.869   1.580
 1985SOL    HW1 6854   2.177   6.787   1.588
 1985SOL    HW2 6855   2.132   6.925   1.662
 1986SOL     OW 6856   0.293   1.852   6.998
 1986SOL    HW1 6857   0.386   1.888   6.989
 1986SOL    HW2 6858   0.297   1.752   7.007
 1987SOL     OW 6859   2.824   4.394   0.373
 1987SOL    HW1 6860   2.837   4.370   0.469
 1987SOL    HW2 6861   2.874   4.330   0.315
 1988SOL     OW 6862   4.714   3.616   0.333
 1988SOL    HW1 6863   4.649   3.588   0.404
 1988SOL    HW2 6864   4.785   3.674   0.375
 1989SOL     OW 6865   2.385   1.264   4.268
 1989SOL    HW1 6866   2.381   1.363   4.284
 1989SOL    HW2 6867   2.361   1.245   4.173
 1990SOL     OW 6868   1.935   1.037   2.645
 1990SOL    HW1 6869   1.909   1.022   2.549
 1990SOL    HW2 6870   2.034   1.053   2.650
 1991SOL     OW 6871   4.909   5.595   3.088
 1991SOL    HW1 6872   4.820   5.639   3.087
 1991SOL    HW2 6873   4.981   5.664   3.097
 1992SOL     OW 6874   2.421   6.304   5.060
 1992SOL    HW1 6875   2.466   6.383   5.101
 1992SOL    HW2 6876   2.384   6.245   5.132
 1993SOL     OW 6877   3.244   2.977   3.987
 1993SOL    HW1 6878   3.305   3.049   3.954
 1993SOL    HW2 6879   3.186   2.945   3.912
 1994SOL     OW 6880   5.953   2.732   2.070
 1994SOL    HW1 6881   5.956   2.701   1.975
 1994SOL    HW2 6882   5.883   2.680   2.119
 1995SOL     OW 6883   4.070   2.348   1.307
 1995SOL    HW1 6884   4.120   2.293   1.241
 1995SOL    HW2 6885   4.051   2.438   1.268
 1996SOL     OW 6886   3.022   3.924   5.361
 1996SOL    HW1 6887   3.068   3.995   5.308
 1996SOL    HW2 6888   2.926   3.919   5.334
 1997SOL     OW 6889   5.777   0.100   3.739
 1997SOL    HW1 6890   5.799   0.189   3.779
 1997SOL    HW2 6891   5.770   0.032   3.812
 1998SOL     OW 6892   3.042   4.845   5.305
 1998SOL    HW1 6893   2.976   4.861   5.231
 1998SOL    HW2 6894   3.067   4.748   5.306
 1999SOL     OW 6895   2.550   0.647   1.568
 1999SOL    HW1 6896   2.486   0.715   1.534
 1999SOL    HW2 6897   2.631   0.693   1.605
 2000SOL     OW 6898   3.582   1.587   4.726
 2000SOL    HW1 6899   3.647   1.514   4.705
 2000SOL    HW2 6900   3.493   1.547   4.744
 2001SOL     OW 6901   2.157   3.701   0.085
 2001SOL    HW1 6902   2.178   3.643   0.006
 2001SOL    HW2 6903   2.218   3.780   0.087
 2002SOL     OW 6904   1.272   5.664   5.607
 2002SOL    HW1 6905   1.274   5.565   5.621
 2002SOL    HW2 6906   1.216   5.687   5.528
 2003SOL     OW 6907   6.320   4.496   2.946
 2003SOL    HW1 6908   6.242   4.536   2.897
 2003SOL    HW2 6909   6.395   4.562   2.948
 2004SOL     OW 6910   3.254   0.119   6.654
 2004SOL    HW1 6911   3.224   0.206   6.694
 2004SOL    HW2 6912   3.349   0.102   6.681
 2005SOL     OW 6913   3.117   6.461   4.971
 2005SOL    HW1 6914   3.073   6.550   4.961
 2005SOL    HW2 6915   3.175   6.443   4.892
 2006SOL     OW 6916   4.810   6.355   3.398
 2006SOL    HW1 6917   4.905   6.365   3.428
 2006SOL    HW2 6918   4.753   6.425   3.442
 2007SOL     OW 6919   6.341   5.354   6.993
 2007SOL    HW1 6920   6.351   5.350   0.066
 2007SOL    HW2 6921   6.247   5.333   6.968
 2008SOL     OW 6922   7.005   6.453   4.307
 2008SOL    HW1 6923   7.001   6.467   4.406
 2008SOL    HW2 6924   6.921   6.409   4.275
 2009SOL     OW 6925   0.695   0.515   0.249
 2009SOL    HW1 6926   0.781   0.478   0.282
 2009SOL    HW2 6927   0.660   0.583   0.314
 2010SOL     OW 6928   1.246   0.141   0.872
 2010SOL    HW1 6929   1.165   0.112   0.923
 2010SOL    HW2 6930   1.328   0.117   0.924
 2011SOL     OW 6931   7.025   2.629   4.836
 2011SOL    HW1 6932   0.005   2.537   4.876
 2011SOL    HW2 6933   0.083   2.650   4.787
 2012SOL     OW 6934   0.144   3.355   0.900
 2012SOL    HW1 6935   0.189   3.435   0.861
 2012SOL    HW2 6936   0.210   3.300   0.950
 2013SOL     OW 6937   4.360   1.851   2.542
 2013SOL    HW1 6938   4.332   1.847   2.446
 2013SOL    HW2 6939   4.279   1.840   2.601
 2014SOL     OW 6940   2.308   5.702   3.473
 2014SOL    HW1 6941   2.308   5.634   3.546
 2014SOL    HW2 6942   2.380   5.679   3.407
 2015SOL     OW 6943   2.973   6.556   7.005
 2015SOL    HW1 6944   3.044   6.492   6.975
 2015SOL    HW2 6945   2.935   6.524   0.066
 2016SOL     OW 6946   6.263   5.311   3.426
 2016SOL    HW1 6947   6.263   5.308   3.526
 2016SOL    HW2 6948   6.227   5.224   3.391
 2017SOL     OW 6949   2.259   4.942   2.105
 2017SOL    HW1 6950   2.239   4.846   2.126
 2017SOL    HW2 6951   2.264   4.994   2.191
 2018SOL     OW 6952   0.242   4.283   6.036
 2018SOL    HW1 6953   0.270   4.226   6.113
 2018SOL    HW2 6954   0.323   4.312   5.985
 2019SOL     OW 6955   5.519   1.772   2.938
 2019SOL    HW1 6956   5.464   1.761   2.856
 2019SOL    HW2 6957   5.523   1.869   2.963
 2020SOL     OW 6958   1.407   5.452   3.664
 2020SOL    HW1 6959   1.399   5.541   3.708
 2020SOL    HW2 6960   1.504   5.428   3.656
 2021SOL     OW 6961   1.482   6.848   1.904
 2021SOL    HW1 6962   1.487   6.858   2.004
 2021SOL    HW2 6963   1.426   6.922   1.867
 2022SOL     OW 6964   3.028   5.196   1.116
 2022SOL    HW1 6965   3.060   5.134   1.187
 2022SOL    HW2 6966   2.949   5.156   1.070
 2023SOL     OW 6967   6.525   1.655   6.589
 2023SOL    HW1 6968   6.425   1.655   6.584
 2023SOL    HW2 6969   6.562   1.700   6.508
 2024SOL     OW 6970   5.965   0.338   2.612
 2024SOL    HW1 6971   5.989   0.374   2.522
 2024SOL    HW2 6972   6.020   0.384   2.682
 2025SOL     OW 6973   6.076   0.680   0.772
 2025SOL    HW1 6974   6.078   0.580   0.784
 2025SOL    HW2 6975   6.029   0.702   0.687
 2026SOL     OW 6976   1.750   2.249   5.016
 2026SOL    HW1 6977   1.659   2.224   4.983
 2026SOL    HW2 6978   1.766   2.346   4.998
 2027SOL     OW 6979   1.102   1.684   2.268
 2027SOL    HW1 6980   1.049   1.652   2.347
 2027SOL    HW2 6981   1.074   1.777   2.246
 2028SOL     OW 6982   3.497   4.126   5.703
 2028SOL    HW1 6983   3.548   4.069   5.638
 2028SOL    HW2 6984   3.399   4.113   5.688
 2029SOL     OW 6985   1.898   0.519   0.343
 2029SOL    HW1 6986   1.921   0.600   0.289
 2029SOL    HW2 6987   1.933   0.437   0.297
 2030SOL     OW 6988   1.729   2.018   3.062
 2030SOL    HW1 6989   1.726   2.006   2.963
 2030SOL    HW2 6990   1.689   2.106   3.086
 2031SOL     OW 6991   5.031   6.962   2.778
 2031SOL    HW1 6992   5.122   6.977   2.739
 2031SOL    HW2 6993   4.962   7.005   2.720
 2032SOL     OW 6994   5.585   6.429   1.417
 2032SOL    HW1 6995   5.623   6.517   1.388
 2032SOL    HW2 6996   5.553   6.437   1.511
 2033SOL     OW 6997   6.763   5.613   6.894
 2033SOL    HW1 6998   6.689   5.600   6.828
 2033SOL    HW2 6999   6.728   5.596   6.987
 2034SOL     OW 7000   2.318   6.833   3.178
 2034SOL    HW1 7001   2.276   6.861   3.265
 2034SOL    HW2 7002   2.322   6.912   3.117
 2035SOL     OW 7003   0.631   3.005   1.009
 2035SOL    HW1 7004   0.542   3.033   1.045
 2035SOL    HW2 7005   0.696   3.081   1.020
 2036SOL     OW 7006   0.907   4.425   0.462
 2036SOL    HW1 7007   0.925   4.361   0.387
 2036SOL    HW2 7008   0.811   4.417   0.490
 2037SOL     OW 7009   0.113   1.910   6.095
 2037SOL    HW1 7010   0.132   1.815   6.073
 2037SOL    HW2 7011   0.152   1.932   6.185
 2038SOL     OW 7012   1.102   7.023   5.383
 2038SOL    HW1 7013   1.081   0.049   5.300
 2038SOL    HW2 7014   1.077   0.050   5.464
 2039SOL     OW 7015   1.183   5.047   2.223
 2039SOL    HW1 7016   1.171   5.044   2.124
 2039SOL    HW2 7017   1.260   5.107   2.246
 2040SOL     OW 7018   3.179   3.700   4.292
 2040SOL    HW1 7019   3.082   3.702   4.318
 2040SOL    HW2 7020   3.228   3.772   4.341
 2041SOL     OW 7021   5.989   3.446   0.289
 2041SOL    HW1 7022   5.891   3.423   0.287
 2041SOL    HW2 7023   6.042   3.367   0.257
 2042SOL     OW 7024   3.372   5.852   0.718
 2042SOL    HW1 7025   3.332   5.934   0.758
 2042SOL    HW2 7026   3.425   5.804   0.787
 2043SOL     OW 7027   4.444   4.548   2.650
 2043SOL    HW1 7028   4.392   4.603   2.584
 2043SOL    HW2 7029   4.416   4.572   2.743
 2044SOL     OW 7030   6.242   0.813   2.085
 2044SOL    HW1 7031   6.295   0.730   2.099
 2044SOL    HW2 7032   6.180   0.801   2.007
 2045SOL     OW 7033   2.544   5.601   6.144
 2045SOL    HW1 7034   2.527   5.618   6.241
 2045SOL    HW2 7035   2.457   5.589   6.097
 2046SOL     OW 7036   6.197   0.052   5.193
 2046SOL    HW1 7037   6.099   0.033   5.188
 2046SOL    HW2 7038   6.213   0.123   5.262
 2047SOL     OW 7039   5.382   2.567   0.423
 2047SOL    HW1 7040   5.406   2.654   0.466
 2047SOL    HW2 7041   5.294   2.575   0.378
 2048SOL     OW 7042   4.297   6.767   5.296
 2048SOL    HW1 7043   4.249   6.681   5.280
 2048SOL    HW2 7044   4.303   6.818   5.210
 2049SOL     OW 7045   4.644   6.033   0.554
 2049SOL    HW1 7046   4.723   6.006   0.498
 2049SOL    HW2 7047   4.636   5.972   0.632
 2050SOL     OW 7048   5.535   0.762   4.302
 2050SOL    HW1 7049   5.571   0.707   4.377
 2050SOL    HW2 7050   5.599   0.836   4.281
 2051SOL     OW 7051   2.609   5.226   0.743
 2051SOL    HW1 7052   2.680   5.276   0.693
 2051SOL    HW2 7053   2.576   5.282   0.819
 2052SOL     OW 7054   1.229   2.707   1.131
 2052SOL    HW1 7055   1.158   2.757   1.181
 2052SOL    HW2 7056   1.204   2.610   1.125
 2053SOL     OW 7057   5.134   1.226   0.074
 2053SOL    HW1 7058   5.172   1.181   0.155
 2053SOL    HW2 7059   5.094   1.156   0.014
 2054SOL     OW 7060   0.175   3.589   1.496
 2054SOL    HW1 7061   0.192   3.637   1.582
 2054SOL    HW2 7062   0.134   3.500   1.515
 2055SOL     OW 7063   6.207   2.011   3.855
 2055SOL    HW1 7064   6.253   1.931   3.894
 2055SOL    HW2 7065   6.211   2.007   3.755
 2056SOL     OW 7066   0.980   0.166   1.911
 2056SOL    HW1 7067   0.958   0.211   1.998
 2056SOL    HW2 7068   0.954   0.069   1.917
 2057SOL     OW 7069   6.569   2.437   3.949
 2057SOL    HW1 7070   6.663   2.430   3.916
 2057SOL    HW2 7071   6.530   2.346   3.959
 2058SOL     OW 7072   0.215   1.632   2.034
 2058SOL    HW1 7073   0.193   1.613   2.130
 2058SOL    HW2 7074   0.253   1.724   2.026
 2059SOL     OW 7075   1.703   0.922   6.740
 2059SOL    HW1 7076   1.770   0.989   6.708
 2059SOL    HW2 7077   1.749   0.836   6.761
 2060SOL     OW 7078   0.415   5.383   2.004
 2060SOL    HW1 7079   0.338   5.440   2.030
 2060SOL    HW2 7080   0.461   5.422   1.924
 2061SOL     OW 7081   1.072   1.446   1.535
 2061SOL    HW1 7082   1.076   1.363   1.480
 2061SOL    HW2 7083   1.006   1.509   1.495
 2062SOL     OW 7084   4.245   0.459   3.514
 2062SOL    HW1 7085   4.203   0.458   3.605
 2062SOL    HW2 7086   4.207   0.384   3.460
 2063SOL     OW 7087   2.780   1.765   0.450
 2063SOL    HW1 7088   2.783   1.665   0.444
 2063SOL    HW2 7089   2.766   1.792   0.545
 2064SOL     OW 7090   1.021   2.365   0.266
 2064SOL    HW1 7091   0.980   2.439   0.212
 2064SOL    HW2 7092   0.981   2.365   0.358
 2065SOL     OW 7093   6.235   2.952   2.112
 2065SOL    HW1 7094   6.255   2.854   2.121
 2065SOL    HW2 7095   6.293   3.003   2.175
 2066SOL     OW 7096   1.674   6.665   3.140
 2066SOL    HW1 7097   1.591   6.629   3.183
 2066SOL    HW2 7098   1.732   6.707   3.210
 2067SOL     OW 7099   0.047   0.052   0.784
 2067SOL    HW1 7100   0.010   0.015   0.869
 2067SOL    HW2 7101   0.145   0.068   0.795
 2068SOL     OW 7102   1.744   1.237   5.169
 2068SOL    HW1 7103   1.699   1.317   5.208
 2068SOL    HW2 7104   1.789   1.262   5.084
 2069SOL     OW 7105   0.799   2.002   1.975
 2069SOL    HW1 7106   0.831   1.907   1.973
 2069SOL    HW2 7107   0.848   2.055   1.905
 2070SOL     OW 7108   1.049   1.533   2.806
 2070SOL    HW1 7109   1.134   1.501   2.763
 2070SOL    HW2 7110   1.043   1.496   2.899
 2071SOL     OW 7111   1.361   6.244   5.066
 2071SOL    HW1 7112   1.324   6.151   5.065
 2071SOL    HW2 7113   1.391   6.266   5.159
 2072SOL     OW 7114   4.801   4.673   2.310
 2072SOL    HW1 7115   4.900   4.674   2.325
 2072SOL    HW2 7116   4.781   4.636   2.220
 2073SOL     OW 7117   3.488   6.101   5.371
 2073SOL    HW1 7118   3.525   6.067   5.284
 2073SOL    HW2 7119   3.389   6.107   5.365
 2074SOL     OW 7120   6.263   2.366   1.974
 2074SOL    HW1 7121   6.178   2.393   2.020
 2074SOL    HW2 7122   6.311   2.298   2.030
 2075SOL     OW 7123   3.800   3.401   6.460
 2075SOL    HW1 7124   3.841   3.399   6.369
 2075SOL    HW2 7125   3.818   3.313   6.506
 2076SOL     OW 7126   4.731   0.769   0.920
 2076SOL    HW1 7127   4.802   0.817   0.867
 2076SOL    HW2 7128   4.754   0.773   1.017
 2077SOL     OW 7129   5.437   1.511   3.806
 2077SOL    HW1 7130   5.358   1.526   3.864
 2077SOL    HW2 7131   5.519   1.544   3.852
 2078SOL     OW 7132   4.341   5.815   4.682
 2078SOL    HW1 7133   4.272   5.743   4.682
 2078SOL    HW2 7134   4.334   5.869   4.766
 2079SOL     OW 7135   5.633   1.261   3.327
 2079SOL    HW1 7136   5.626   1.258   3.227
 2079SOL    HW2 7137   5.554   1.213   3.367
 2080SOL     OW 7138   3.105   2.187   4.371
 2080SOL    HW1 7139   3.098   2.211   4.274
 2080SOL    HW2 7140   3.165   2.108   4.382
 2081SOL     OW 7141   0.760   5.791   4.787
 2081SOL    HW1 7142   0.777   5.797   4.886
 2081SOL    HW2 7143   0.786   5.877   4.744
 2082SOL     OW 7144   4.746   0.613   2.306
 2082SOL    HW1 7145   4.829   0.557   2.311
 2082SOL    HW2 7146   4.730   0.656   2.394
 2083SOL     OW 7147   3.435   5.038   5.629
 2083SOL    HW1 7148   3.467   4.973   5.698
 2083SOL    HW2 7149   3.354   5.001   5.584
 2084SOL     OW 7150   6.856   3.134   2.566
 2084SOL    HW1 7151   6.843   3.052   2.622
 2084SOL    HW2 7152   6.843   3.216   2.623
 2085SOL     OW 7153   5.356   6.282   6.522
 2085SOL    HW1 7154   5.336   6.233   6.607
 2085SOL    HW2 7155   5.287   6.353   6.507
 2086SOL     OW 7156   3.014   4.980   0.343
 2086SOL    HW1 7157   3.065   5.047   0.396
 2086SOL    HW2 7158   2.920   5.012   0.330
 2087SOL     OW 7159   6.095   6.149   3.759
 2087SOL    HW1 7160   6.055   6.134   3.849
 2087SOL    HW2 7161   6.111   6.247   3.746
 2088SOL     OW 7162   2.334   0.136   0.740
 2088SOL    HW1 7163   2.321   0.157   0.643
 2088SOL    HW2 7164   2.357   0.039   0.751
 2089SOL     OW 7165   3.032   0.796   6.568
 2089SOL    HW1 7166   2.987   0.737   6.502
 2089SOL    HW2 7167   3.124   0.819   6.535
 2090SOL     OW 7168   3.872   3.032   3.543
 2090SOL    HW1 7169   3.901   3.000   3.633
 2090SOL    HW2 7170   3.790   2.983   3.515
 2091SOL     OW 7171   1.989   5.272   0.598
 2091SOL    HW1 7172   1.934   5.191   0.619
 2091SOL    HW2 7173   1.944   5.354   0.632
 2092SOL     OW 7174   6.609   6.453   0.775
 2092SOL    HW1 7175   6.640   6.376   0.832
 2092SOL    HW2 7176   6.536   6.501   0.823
 2093SOL     OW 7177   0.872   2.202   1.432
 2093SOL    HW1 7178   0.951   2.259   1.454
 2093SOL    HW2 7179   0.833   2.164   1.516
 2094SOL     OW 7180   6.023   0.500   2.121
 2094SOL    HW1 7181   6.015   0.435   2.045
 2094SOL    HW2 7182   6.118   0.527   2.131
 2095SOL     OW 7183   0.227   4.785   4.839
 2095SOL    HW1 7184   0.155   4.842   4.798
 2095SOL    HW2 7185   0.196   4.751   4.928
 2096SOL     OW 7186   4.957   3.707   3.442
 2096SOL    HW1 7187   5.048   3.674   3.467
 2096SOL    HW2 7188   4.903   3.631   3.406
 2097SOL     OW 7189   6.535   3.365   0.053
 2097SOL    HW1 7190   6.493   3.288   0.004
 2097SOL    HW2 7191   6.549   3.340   0.149
 2098SOL     OW 7192   4.559   0.494   4.053
 2098SOL    HW1 7193   4.539   0.458   3.962
 2098SOL    HW2 7194   4.547   0.421   4.121
 2099SOL     OW 7195   3.305   1.614   3.589
 2099SOL    HW1 7196   3.207   1.597   3.603
 2099SOL    HW2 7197   3.357   1.571   3.662
 2100SOL     OW 7198   3.734   4.250   6.588
 2100SOL    HW1 7199   3.685   4.246   6.676
 2100SOL    HW2 7200   3.695   4.184   6.525
 2101SOL     OW 7201   6.400   0.453   2.705
 2101SOL    HW1 7202   6.440   0.540   2.676
 2101SOL    HW2 7203   6.468   0.381   2.694
 2102SOL     OW 7204   0.549   5.066   1.605
 2102SOL    HW1 7205   0.523   5.160   1.628
 2102SOL    HW2 7206   0.589   5.022   1.685
 2103SOL     OW 7207   2.539   3.776   6.457
 2103SOL    HW1 7208   2.633   3.803   6.440
 2103SOL    HW2 7209   2.479   3.821   6.390
 2104SOL     OW 7210   1.524   3.569   5.163
 2104SOL    HW1 7211   1.536   3.612   5.253
 2104SOL    HW2 7212   1.613   3.542   5.127
 2105SOL     OW 7213   6.443   5.714   1.329
 2105SOL    HW1 7214   6.447   5.690   1.232
 2105SOL    HW2 7215   6.417   5.633   1.383
 2106SOL     OW 7216   5.268   5.768   6.566
 2106SOL    HW1 7217   5.251   5.821   6.649
 2106SOL    HW2 7218   5.204   5.692   6.562
 2107SOL     OW 7219   3.291   4.274   0.008
 2107SOL    HW1 7220   3.192   4.280   0.015
 2107SOL    HW2 7221   3.317   4.186   6.995
 2108SOL     OW 7222   5.530   4.888   5.373
 2108SOL    HW1 7223   5.446   4.908   5.324
 2108SOL    HW2 7224   5.550   4.962   5.438
 2109SOL     OW 7225   5.814   6.325   2.435
 2109SOL    HW1 7226   5.819   6.234   2.477
 2109SOL    HW2 7227   5.718   6.347   2.416
 2110SOL     OW 7228   1.888   4.671   5.292
 2110SOL    HW1 7229   1.959   4.614   5.333
 2110SOL    HW2 7230   1.906   4.680   5.194
 2111SOL     OW 7231   1.772   2.417   0.080
 2111SOL    HW1 7232   1.738   2.438   0.172
 2111SOL    HW2 7233   1.695   2.418   0.015
 2112SOL     OW 7234   5.061   3.225   0.512
 2112SOL    HW1 7235   5.013   3.312   0.506
 2112SOL    HW2 7236   5.157   3.242   0.534
 2113SOL     OW 7237   6.637   1.610   3.370
 2113SOL    HW1 7238   6.623   1.697   3.322
 2113SOL    HW2 7239   6.568   1.600   3.441
 2114SOL     OW 7240   1.933   3.661   6.685
 2114SOL    HW1 7241   1.946   3.742   6.628
 2114SOL    HW2 7242   1.849   3.670   6.738
 2115SOL     OW 7243   2.917   5.175   2.145
 2115SOL    HW1 7244   2.984   5.102   2.129
 2115SOL    HW2 7245   2.894   5.178   2.242
 2116SOL     OW 7246   0.054   4.175   3.205
 2116SOL    HW1 7247   0.123   4.166   3.276
 2116SOL    HW2 7248   0.005   4.089   3.195
 2117SOL     OW 7249   6.939   5.157   0.109
 2117SOL    HW1 7250   6.860   5.150   0.171
 2117SOL    HW2 7251   6.961   5.253   0.094
 2118SOL     OW 7252   6.802   4.045   2.131
 2118SOL    HW1 7253   6.850   4.106   2.068
 2118SOL    HW2 7254   6.857   4.033   2.214
 2119SOL     OW 7255   3.305   6.125   0.808
 2119SOL    HW1 7256   3.256   6.190   0.750
 2119SOL    HW2 7257   3.369   6.175   0.867
 2120SOL     OW 7258   0.091   5.098   2.219
 2120SOL    HW1 7259   0.088   4.998   2.216
 2120SOL    HW2 7260   0.175   5.131   2.178
 2121SOL     OW 7261   0.499   4.355   4.877
 2121SOL    HW1 7262   0.588   4.342   4.834
 2121SOL    HW2 7263   0.428   4.353   4.807
 2122SOL     OW 7264   4.703   4.409   5.293
 2122SOL    HW1 7265   4.715   4.384   5.197
 2122SOL    HW2 7266   4.621   4.364   5.329
 2123SOL     OW 7267   4.715   4.695   3.825
 2123SOL    HW1 7268   4.795   4.695   3.764
 2123SOL    HW2 7269   4.745   4.712   3.919
 2124SOL     OW 7270   3.055   1.340   1.510
 2124SOL    HW1 7271   3.124   1.411   1.499
 2124SOL    HW2 7272   2.964   1.380   1.503
 2125SOL     OW 7273   2.917   6.952   1.010
 2125SOL    HW1 7274   2.892   7.011   0.933
 2125SOL    HW2 7275   2.870   6.983   1.092
 2126SOL     OW 7276   2.368   0.940   2.043
 2126SOL    HW1 7277   2.300   1.005   2.075
 2126SOL    HW2 7278   2.354   0.922   1.946
 2127SOL     OW 7279   5.532   2.969   4.752
 2127SOL    HW1 7280   5.480   2.904   4.697
 2127SOL    HW2 7281   5.537   2.937   4.846
 2128SOL     OW 7282   0.711   4.289   4.405
 2128SOL    HW1 7283   0.739   4.330   4.318
 2128SOL    HW2 7284   0.616   4.313   4.425
 2129SOL     OW 7285   3.743   2.198   5.704
 2129SOL    HW1 7286   3.804   2.227   5.630
 2129SOL    HW2 7287   3.655   2.169   5.666
 2130SOL     OW 7288   4.517   6.890   3.476
 2130SOL    HW1 7289   4.558   6.944   3.550
 2130SOL    HW2 7290   4.572   6.899   3.393
 2131SOL     OW 7291   5.198   1.802   6.716
 2131SOL    HW1 7292   5.285   1.774   6.676
 2131SOL    HW2 7293   5.215   1.858   6.798
 2132SOL     OW 7294   2.233   3.380   0.481
 2132SOL    HW1 7295   2.164   3.389   0.553
 2132SOL    HW2 7296   2.213   3.443   0.407
 2133SOL     OW 7297   3.084   3.462   5.998
 2133SOL    HW1 7298   3.057   3.558   5.997
 2133SOL    HW2 7299   3.032   3.411   5.930
 2134SOL     OW 7300   0.992   0.054   0.952
 2134SOL    HW1 7301   0.955   0.050   0.860
 2134SOL    HW2 7302   0.918   0.061   1.018
 2135SOL     OW 7303   6.562   4.314   5.333
 2135SOL    HW1 7304   6.574   4.391   5.396
 2135SOL    HW2 7305   6.632   4.245   5.351
 2136SOL     OW 7306   0.625   5.094   1.109
 2136SOL    HW1 7307   0.687   5.067   1.183
 2136SOL    HW2 7308   0.664   5.068   1.021
 2137SOL     OW 7309   1.695   6.728   4.482
 2137SOL    HW1 7310   1.646   6.728   4.395
 2137SOL    HW2 7311   1.745   6.642   4.492
 2138SOL     OW 7312   5.319   1.297   1.657
 2138SOL    HW1 7313   5.342   1.370   1.722
 2138SOL    HW2 7314   5.230   1.258   1.680
 2139SOL     OW 7315   2.861   0.317   5.624
 2139SOL    HW1 7316   2.851   0.296   5.721
 2139SOL    HW2 7317   2.850   0.415   5.609
 2140SOL     OW 7318   2.617   1.800   4.789
 2140SOL    HW1 7319   2.655   1.852   4.867
 2140SOL    HW2 7320   2.640   1.704   4.799
 2141SOL     OW 7321   6.842   3.116   3.238
 2141SOL    HW1 7322   6.854   3.191   3.303
 2141SOL    HW2 7323   6.928   3.101   3.189
 2142SOL     OW 7324   1.729   2.387   2.832
 2142SOL    HW1 7325   1.693   2.468   2.787
 2142SOL    HW2 7326   1.821   2.407   2.868
 2143SOL     OW 7327   0.882   4.666   6.203
 2143SOL    HW1 7328   0.838   4.747   6.244
 2143SOL    HW2 7329   0.917   4.608   6.276
 2144SOL     OW 7330   6.504   4.493   3.390
 2144SOL    HW1 7331   6.498   4.396   3.367
 2144SOL    HW2 7332   6.462   4.547   3.318
 2145SOL     OW 7333   4.571   1.187   3.585
 2145SOL    HW1 7334   4.495   1.220   3.529
 2145SOL    HW2 7335   4.599   1.258   3.649
 2146SOL     OW 7336   2.262   3.001   0.585
 2146SOL    HW1 7337   2.332   3.047   0.640
 2146SOL    HW2 7338   2.175   3.051   0.593
 2147SOL     OW 7339   5.934   6.881   4.487
 2147SOL    HW1 7340   5.986   6.798   4.469
 2147SOL    HW2 7341   5.846   6.877   4.439
 2148SOL     OW 7342   0.326   3.448   5.983
 2148SOL    HW1 7343   0.344   3.367   5.927
 2148SOL    HW2 7344   0.268   3.511   5.932
 2149SOL     OW 7345   1.310   0.068   0.149
 2149SOL    HW1 7346   1.228   0.107   0.191
 2149SOL    HW2 7347   1.285   0.017   0.067
 2150SOL     OW 7348   1.716   2.952   1.402
 2150SOL    HW1 7349   1.668   2.964   1.315
 2150SOL    HW2 7350   1.662   2.892   1.461
 2151SOL     OW 7351   0.692   5.230   0.834
 2151SOL    HW1 7352   0.646   5.171   0.769
 2151SOL    HW2 7353   0.741   5.302   0.785
 2152SOL     OW 7354   5.606   6.074   4.129
 2152SOL    HW1 7355   5.587   6.154   4.072
 2152SOL    HW2 7356   5.606   5.992   4.073
 2153SOL     OW 7357   4.878   1.103   3.606
 2153SOL    HW1 7358   4.885   1.124   3.703
 2153SOL    HW2 7359   4.798   1.045   3.590
 2154SOL     OW 7360   3.302   0.401   3.065
 2154SOL    HW1 7361   3.211   0.399   3.024
 2154SOL    HW2 7362   3.366   0.444   3.001
 2155SOL     OW 7363   3.885   0.880   0.618
 2155SOL    HW1 7364   3.983   0.872   0.630
 2155SOL    HW2 7365   3.839   0.801   0.659
 2156SOL     OW 7366   5.566   2.107   5.171
 2156SOL    HW1 7367   5.595   2.075   5.261
 2156SOL    HW2 7368   5.637   2.167   5.133
 2157SOL     OW 7369   3.531   6.219   4.214
 2157SOL    HW1 7370   3.439   6.192   4.244
 2157SOL    HW2 7371   3.572   6.143   4.162
 2158SOL     OW 7372   3.172   6.895   0.712
 2158SOL    HW1 7373   3.197   6.990   0.726
 2158SOL    HW2 7374   3.254   6.841   0.693
 2159SOL     OW 7375   0.712   1.080   5.506
 2159SOL    HW1 7376   0.791   1.093   5.567
 2159SOL    HW2 7377   0.645   1.022   5.551
 2160SOL     OW 7378   5.597   0.225   0.124
 2160SOL    HW1 7379   5.570   0.129   0.119
 2160SOL    HW2 7380   5.610   0.251   0.219
 2161SOL     OW 7381   1.506   2.699   1.165
 2161SOL    HW1 7382   1.407   2.683   1.166
 2161SOL    HW2 7383   1.524   2.797   1.168
 2162SOL     OW 7384   1.645   6.498   1.569
 2162SOL    HW1 7385   1.646   6.589   1.610
 2162SOL    HW2 7386   1.606   6.433   1.634
 2163SOL     OW 7387   1.967   2.881   2.935
 2163SOL    HW1 7388   1.881   2.857   2.890
 2163SOL    HW2 7389   2.044   2.854   2.878
 2164SOL     OW 7390   2.281   2.731   2.560
 2164SOL    HW1 7391   2.302   2.701   2.467
 2164SOL    HW2 7392   2.252   2.827   2.559
 2165SOL     OW 7393   6.727   1.319   4.402
 2165SOL    HW1 7394   6.823   1.347   4.408
 2165SOL    HW2 7395   6.697   1.284   4.491
 2166SOL     OW 7396   0.127   4.139   2.435
 2166SOL    HW1 7397   0.176   4.115   2.518
 2166SOL    HW2 7398   0.149   4.074   2.362
 2167SOL     OW 7399   2.588   1.613   2.759
 2167SOL    HW1 7400   2.491   1.633   2.751
 2167SOL    HW2 7401   2.627   1.667   2.833
 2168SOL     OW 7402   1.828   1.738   3.410
 2168SOL    HW1 7403   1.795   1.682   3.333
 2168SOL    HW2 7404   1.761   1.735   3.484
 2169SOL     OW 7405   0.447   0.249   1.293
 2169SOL    HW1 7406   0.383   0.234   1.218
 2169SOL    HW2 7407   0.525   0.302   1.261
 2170SOL     OW 7408   1.316   3.952   5.831
 2170SOL    HW1 7409   1.308   3.982   5.736
 2170SOL    HW2 7410   1.291   3.855   5.838
 2171SOL     OW 7411   6.847   5.869   1.250
 2171SOL    HW1 7412   6.796   5.920   1.180
 2171SOL    HW2 7413   6.945   5.877   1.232
 2172SOL     OW 7414   1.714   1.501   5.294
 2172SOL    HW1 7415   1.683   1.572   5.357
 2172SOL    HW2 7416   1.813   1.501   5.288
 2173SOL     OW 7417   5.712   1.155   5.798
 2173SOL    HW1 7418   5.653   1.198   5.731
 2173SOL    HW2 7419   5.662   1.141   5.883
 2174SOL     OW 7420   5.598   0.645   5.834
 2174SOL    HW1 7421   5.506   0.684   5.841
 2174SOL    HW2 7422   5.653   0.702   5.773
 2175SOL     OW 7423   2.621   3.915   5.334
 2175SOL    HW1 7424   2.638   3.993   5.394
 2175SOL    HW2 7425   2.529   3.923   5.295
 2176SOL     OW 7426   5.203   2.398   2.416
 2176SOL    HW1 7427   5.292   2.406   2.461
 2176SOL    HW2 7428   5.131   2.394   2.485
 2177SOL     OW 7429   0.346   0.669   4.894
 2177SOL    HW1 7430   0.392   0.694   4.809
 2177SOL    HW2 7431   0.323   0.571   4.893
 2178SOL     OW 7432   1.275   2.195   2.892
 2178SOL    HW1 7433   1.212   2.119   2.875
 2178SOL    HW2 7434   1.353   2.187   2.829
 2179SOL     OW 7435   1.689   4.530   6.078
 2179SOL    HW1 7436   1.650   4.616   6.046
 2179SOL    HW2 7437   1.785   4.524   6.051
 2180SOL     OW 7438   0.824   6.024   2.857
 2180SOL    HW1 7439   0.766   6.098   2.893
 2180SOL    HW2 7440   0.894   6.001   2.924
 2181SOL     OW 7441   3.501   5.027   4.663
 2181SOL    HW1 7442   3.481   4.995   4.570
 2181SOL    HW2 7443   3.425   5.005   4.723
 2182SOL     OW 7444   6.943   6.475   2.362
 2182SOL    HW1 7445   6.969   6.535   2.438
 2182SOL    HW2 7446   7.012   6.403   2.351
 2183SOL     OW 7447   3.322   3.532   6.242
 2183SOL    HW1 7448   3.234   3.488   6.261
 2183SOL    HW2 7449   3.310   3.631   6.241
 2184SOL     OW 7450   6.421   1.412   0.312
 2184SOL    HW1 7451   6.388   1.457   0.395
 2184SOL    HW2 7452   6.441   1.316   0.331
 2185SOL     OW 7453   1.001   0.529   6.426
 2185SOL    HW1 7454   0.914   0.504   6.469
 2185SOL    HW2 7455   0.999   0.502   6.329
 2186SOL     OW 7456   6.829   5.567   5.514
 2186SOL    HW1 7457   6.790   5.630   5.447
 2186SOL    HW2 7458   6.802   5.474   5.491
 2187SOL     OW 7459   6.982   5.645   1.885
 2187SOL    HW1 7460   6.952   5.639   1.980
 2187SOL    HW2 7461   6.947   5.567   1.834
 2188SOL     OW 7462   2.778   0.738   0.694
 2188SOL    HW1 7463   2.787   0.676   0.772
 2188SOL    HW2 7464   2.808   0.692   0.611
 2189SOL     OW 7465   2.409   1.602   1.323
 2189SOL    HW1 7466   2.427   1.699   1.305
 2189SOL    HW2 7467   2.393   1.554   1.237
 2190SOL     OW 7468   6.535   3.981   1.614
 2190SOL    HW1 7469   6.559   3.947   1.705
 2190SOL    HW2 7470   6.592   3.935   1.545
 2191SOL     OW 7471   2.933   0.149   6.553
 2191SOL    HW1 7472   2.972   0.068   6.510
 2191SOL    HW2 7473   2.835   0.136   6.566
 2192SOL     OW 7474   5.365   1.892   2.128
 2192SOL    HW1 7475   5.389   1.989   2.133
 2192SOL    HW2 7476   5.314   1.875   2.044
 2193SOL     OW 7477   1.609   6.790   5.551
 2193SOL    HW1 7478   1.607   6.847   5.633
 2193SOL    HW2 7479   1.690   6.732   5.553
 2194SOL     OW 7480   0.687   4.111   5.956
 2194SOL    HW1 7481   0.744   4.108   6.038
 2194SOL    HW2 7482   0.734   4.164   5.885
 2195SOL     OW 7483   0.716   3.451   4.841
 2195SOL    HW1 7484   0.759   3.371   4.882
 2195SOL    HW2 7485   0.642   3.422   4.780
 2196SOL     OW 7486   2.960   0.455   6.903
 2196SOL    HW1 7487   3.012   0.374   6.932
 2196SOL    HW2 7488   2.862   0.436   6.913
 2197SOL     OW 7489   3.444   5.727   5.591
 2197SOL    HW1 7490   3.380   5.795   5.628
 2197SOL    HW2 7491   3.434   5.641   5.641
 2198SOL     OW 7492   0.999   0.978   0.017
 2198SOL    HW1 7493   1.033   0.942   0.104
 2198SOL    HW2 7494   1.076   1.006   6.986
 2199SOL     OW 7495   3.864   6.552   4.773
 2199SOL    HW1 7496   3.846   6.461   4.810
 2199SOL    HW2 7497   3.792   6.615   4.801
 2200SOL     OW 7498   2.472   2.206   4.063
 2200SOL    HW1 7499   2.419   2.285   4.033
 2200SOL    HW2 7500   2.434   2.123   4.023
 2201SOL     OW 7501   6.113   3.906   4.715
 2201SOL    HW1 7502   6.125   3.812   4.685
 2201SOL    HW2 7503   6.078   3.961   4.640
 2202SOL     OW 7504   3.489   7.013   2.142
 2202SOL    HW1 7505   3.483   0.082   2.173
 2202SOL    HW2 7506   3.446   7.004   2.052
 2203SOL     OW 7507   2.204   4.866   1.471
 2203SOL    HW1 7508   2.302   4.858   1.455
 2203SOL    HW2 7509   2.188   4.916   1.556
 2204SOL     OW 7510   5.951   3.293   0.563
 2204SOL    HW1 7511   5.910   3.320   0.476
 2204SOL    HW2 7512   5.998   3.205   0.553
 2205SOL     OW 7513   0.430   5.395   0.808
 2205SOL    HW1 7514   0.375   5.463   0.855
 2205SOL    HW2 7515   0.466   5.329   0.874
 2206SOL     OW 7516   3.913   2.355   5.900
 2206SOL    HW1 7517   3.962   2.420   5.842
 2206SOL    HW2 7518   3.829   2.326   5.856
 2207SOL     OW 7519   4.828   5.706   0.778
 2207SOL    HW1 7520   4.909   5.761   0.759
 2207SOL    HW2 7521   4.746   5.755   0.750
 2208SOL     OW 7522   6.664   6.620   3.588
 2208SOL    HW1 7523   6.682   6.666   3.675
 2208SOL    HW2 7524   6.733   6.647   3.521
 2209SOL     OW 7525   2.848   5.754   4.062
 2209SOL    HW1 7526   2.799   5.670   4.084
 2209SOL    HW2 7527   2.784   5.821   4.023
 2210SOL     OW 7528   4.617   0.192   1.540
 2210SOL    HW1 7529   4.600   0.134   1.620
 2210SOL    HW2 7530   4.665   0.138   1.470
 2211SOL     OW 7531   0.907   1.634   1.444
 2211SOL    HW1 7532   0.838   1.704   1.462
 2211SOL    HW2 7533   0.996   1.678   1.428
 2212SOL     OW 7534   3.082   5.662   6.788
 2212SOL    HW1 7535   3.108   5.566   6.800
 2212SOL    HW2 7536   2.995   5.667   6.740
 2213SOL     OW 7537   3.590   1.983   5.232
 2213SOL    HW1 7538   3.509   2.042   5.241
 2213SOL    HW2 7539   3.672   2.040   5.231
 2214SOL     OW 7540   4.413   4.135   6.739
 2214SOL    HW1 7541   4.423   4.062   6.807
 2214SOL    HW2 7542   4.343   4.200   6.769
 2215SOL     OW 7543   3.951   0.126   6.676
 2215SOL    HW1 7544   4.045   0.136   6.642
 2215SOL    HW2 7545   3.912   0.217   6.692
 2216SOL     OW 7546   1.031   6.756   6.438
 2216SOL    HW1 7547   1.011   6.831   6.502
 2216SOL    HW2 7548   0.978   6.675   6.464
 2217SOL     OW 7549   4.428   1.115   3.895
 2217SOL    HW1 7550   4.354   1.129   3.828
 2217SOL    HW2 7551   4.391   1.069   3.975
 2218SOL     OW 7552   0.467   6.128   5.731
 2218SOL    HW1 7553   0.436   6.038   5.763
 2218SOL    HW2 7554   0.414   6.155   5.651
 2219SOL     OW 7555   5.443   0.869   1.211
 2219SOL    HW1 7556   5.456   0.968   1.201
 2219SOL    HW2 7557   5.395   0.833   1.131
 2220SOL     OW 7558   0.304   6.114   4.681
 2220SOL    HW1 7559   0.284   6.201   4.635
 2220SOL    HW2 7560   0.331   6.132   4.775
 2221SOL     OW 7561   6.525   0.969   4.250
 2221SOL    HW1 7562   6.492   0.875   4.245
 2221SOL    HW2 7563   6.610   0.971   4.304
 2222SOL     OW 7564   4.951   0.414   2.379
 2222SOL    HW1 7565   4.880   0.343   2.377
 2222SOL    HW2 7566   5.012   0.399   2.456
 2223SOL     OW 7567   0.505   6.345   5.498
 2223SOL    HW1 7568   0.549   6.424   5.540
 2223SOL    HW2 7569   0.562   6.310   5.424
 2224SOL     OW 7570   5.771   3.717   0.421
 2224SOL    HW1 7571   5.867   3.695   0.436
 2224SOL    HW2 7572   5.754   3.812   0.448
 2225SOL     OW 7573   6.656   6.027   2.114
 2225SOL    HW1 7574   6.705   6.049   2.029
 2225SOL    HW2 7575   6.590   6.099   2.133
 2226SOL     OW 7576   2.647   4.832   0.176
 2226SOL    HW1 7577   2.713   4.767   0.215
 2226SOL    HW2 7578   2.643   4.820   0.077
 2227SOL     OW 7579   3.808   1.928   1.976
 2227SOL    HW1 7580   3.843   2.019   2.002
 2227SOL    HW2 7581   3.715   1.917   2.010
 2228SOL     OW 7582   5.734   5.563   7.005
 2228SOL    HW1 7583   5.693   5.539   6.917
 2228SOL    HW2 7584   5.741   5.662   7.013
 2229SOL     OW 7585   3.470   3.269   3.829
 2229SOL    HW1 7586   3.570   3.269   3.837
 2229SOL    HW2 7587   3.441   3.351   3.779
 2230SOL     OW 7588   5.879   0.329   6.760
 2230SOL    HW1 7589   5.979   0.317   6.766
 2230SOL    HW2 7590   5.848   0.308   6.667
 2231SOL     OW 7591   1.313   0.050   6.260
 2231SOL    HW1 7592   1.254   0.044   6.180
 2231SOL    HW2 7593   1.334   6.984   6.292
 2232SOL     OW 7594   1.594   0.745   5.154
 2232SOL    HW1 7595   1.514   0.702   5.113
 2232SOL    HW2 7596   1.594   0.843   5.132
 2233SOL     OW 7597   3.351   5.048   0.855
 2233SOL    HW1 7598   3.285   4.992   0.904
 2233SOL    HW2 7599   3.366   5.010   0.764
 2234SOL     OW 7600   5.028   1.719   1.852
 2234SOL    HW1 7601   4.970   1.763   1.921
 2234SOL    HW2 7602   5.028   1.774   1.768
 2235SOL     OW 7603   1.041   1.890   3.118
 2235SOL    HW1 7604   0.968   1.916   3.182
 2235SOL    HW2 7605   1.005   1.823   3.052
 2236SOL     OW 7606   2.442   4.786   5.293
 2236SOL    HW1 7607   2.504   4.857   5.325
 2236SOL    HW2 7608   2.366   4.777   5.357
 2237SOL     OW 7609   6.057   5.248   5.539
 2237SOL    HW1 7610   6.091   5.264   5.446
 2237SOL    HW2 7611   6.133   5.228   5.600
 2238SOL     OW 7612   5.962   3.718   1.737
 2238SOL    HW1 7613   6.008   3.629   1.734
 2238SOL    HW2 7614   6.005   3.774   1.807
 2239SOL     OW 7615   4.828   6.745   3.211
 2239SOL    HW1 7616   4.902   6.811   3.226
 2239SOL    HW2 7617   4.865   6.652   3.221
 2240SOL     OW 7618   4.842   5.069   2.627
 2240SOL    HW1 7619   4.752   5.037   2.654
 2240SOL    HW2 7620   4.909   5.041   2.696
 2241SOL     OW 7621   0.509   1.689   2.414
 2241SOL    HW1 7622   0.430   1.732   2.371
 2241SOL    HW2 7623   0.479   1.623   2.482
 2242SOL     OW 7624   5.398   2.693   3.626
 2242SOL    HW1 7625   5.379   2.619   3.691
 2242SOL    HW2 7626   5.445   2.768   3.672
 2243SOL     OW 7627   2.132   6.795   0.691
 2243SOL    HW1 7628   2.228   6.821   0.684
 2243SOL    HW2 7629   2.125   6.703   0.728
 2244SOL     OW 7630   2.188   1.059   0.614
 2244SOL    HW1 7631   2.202   1.158   0.608
 2244SOL    HW2 7632   2.093   1.037   0.591
 2245SOL     OW 7633   0.291   0.559   0.163
 2245SOL    HW1 7634   0.330   0.470   0.185
 2245SOL    HW2 7635   0.247   0.598   0.244
 2246SOL     OW 7636   3.214   1.801   5.406
 2246SOL    HW1 7637   3.268   1.864   5.462
 2246SOL    HW2 7638   3.161   1.854   5.340
 2247SOL     OW 7639   3.344   3.070   2.610
 2247SOL    HW1 7640   3.325   3.128   2.530
 2247SOL    HW2 7641   3.402   2.994   2.582
 2248SOL     OW 7642   4.662   3.964   5.281
 2248SOL    HW1 7643   4.727   4.019   5.334
 2248SOL    HW2 7644   4.712   3.906   5.217
 2249SOL     OW 7645   1.181   6.273   3.632
 2249SOL    HW1 7646   1.103   6.249   3.574
 2249SOL    HW2 7647   1.228   6.353   3.594
 2250SOL     OW 7648   4.452   5.515   6.366
 2250SOL    HW1 7649   4.491   5.452   6.433
 2250SOL    HW2 7650   4.523   5.580   6.336
 2251SOL     OW 7651   5.493   6.145   5.357
 2251SOL    HW1 7652   5.583   6.104   5.343
 2251SOL    HW2 7653   5.494   6.239   5.323
 2252SOL     OW 7654   4.346   2.133   2.149
 2252SOL    HW1 7655   4.262   2.160   2.195
 2252SOL    HW2 7656   4.418   2.118   2.216
 2253SOL     OW 7657   0.609   3.591   1.188
 2253SOL    HW1 7658   0.666   3.669   1.215
 2253SOL    HW2 7659   0.534   3.580   1.253
 2254SOL     OW 7660   3.855   4.049   2.660
 2254SOL    HW1 7661   3.866   3.951   2.643
 2254SOL    HW2 7662   3.863   4.067   2.758
 2255SOL     OW 7663   3.072   3.158   6.192
 2255SOL    HW1 7664   2.995   3.215   6.162
 2255SOL    HW2 7665   3.144   3.161   6.123
 2256SOL     OW 7666   4.991   0.160   1.418
 2256SOL    HW1 7667   5.004   0.185   1.514
 2256SOL    HW2 7668   5.021   0.235   1.359
 2257SOL     OW 7669   7.001   1.147   5.197
 2257SOL    HW1 7670   0.015   1.184   5.114
 2257SOL    HW2 7671   6.995   1.219   5.266
 2258SOL     OW 7672   2.729   5.536   4.131
 2258SOL    HW1 7673   2.664   5.553   4.205
 2258SOL    HW2 7674   2.704   5.451   4.083
 2259SOL     OW 7675   6.029   2.199   5.000
 2259SOL    HW1 7676   5.931   2.217   5.012
 2259SOL    HW2 7677   6.043   2.101   4.987
 2260SOL     OW 7678   0.783   3.989   1.495
 2260SOL    HW1 7679   0.761   4.002   1.398
 2260SOL    HW2 7680   0.866   3.934   1.504
 2261SOL     OW 7681   5.264   3.802   6.588
 2261SOL    HW1 7682   5.167   3.819   6.606
 2261SOL    HW2 7683   5.296   3.864   6.516
 2262SOL     OW 7684   6.573   0.057   4.783
 2262SOL    HW1 7685   6.610   0.067   4.875
 2262SOL    HW2 7686   6.645   0.026   4.721
 2263SOL     OW 7687   2.286   4.488   6.428
 2263SOL    HW1 7688   2.320   4.499   6.335
 2263SOL    HW2 7689   2.348   4.533   6.492
 2264SOL     OW 7690   2.936   0.078   5.840
 2264SOL    HW1 7691   3.018   0.107   5.792
 2264SOL    HW2 7692   2.959   0.054   5.934
 2265SOL     OW 7693   0.251   6.386   4.625
 2265SOL    HW1 7694   0.259   6.485   4.639
 2265SOL    HW2 7695   0.238   6.366   4.528
 2266SOL     OW 7696   4.218   2.967   0.025
 2266SOL    HW1 7697   4.174   2.942   0.111
 2266SOL    HW2 7698   4.149   2.979   6.980
 2267SOL     OW 7699   4.865   2.550   4.424
 2267SOL    HW1 7700   4.847   2.454   4.400
 2267SOL    HW2 7701   4.785   2.605   4.401
 2268SOL     OW 7702   1.140   5.594   4.854
 2268SOL    HW1 7703   1.231   5.632   4.836
 2268SOL    HW2 7704   1.131   5.574   4.951
 2269SOL     OW 7705   1.622   2.566   5.433
 2269SOL    HW1 7706   1.670   2.479   5.447
 2269SOL    HW2 7707   1.540   2.568   5.490
 2270SOL     OW 7708   4.785   1.744   5.958
 2270SOL    HW1 7709   4.730   1.694   6.025
 2270SOL    HW2 7710   4.784   1.842   5.981
 2271SOL     OW 7711   4.610   5.568   5.402
 2271SOL    HW1 7712   4.647   5.634   5.467
 2271SOL    HW2 7713   4.668   5.566   5.320
 2272SOL     OW 7714   5.372   1.433   6.262
 2272SOL    HW1 7715   5.306   1.379   6.315
 2272SOL    HW2 7716   5.376   1.526   6.297
 2273SOL     OW 7717   0.709   2.378   2.908
 2273SOL    HW1 7718   0.767   2.380   2.827
 2273SOL    HW2 7719   0.754   2.327   2.981
 2274SOL     OW 7720   0.510   1.410   0.054
 2274SOL    HW1 7721   0.592   1.371   0.014
 2274SOL    HW2 7722   0.530   1.441   0.147
 2275SOL     OW 7723   5.797   4.855   3.035
 2275SOL    HW1 7724   5.722   4.838   2.972
 2275SOL    HW2 7725   5.766   4.915   3.109
 2276SOL     OW 7726   1.847   2.053   1.226
 2276SOL    HW1 7727   1.944   2.031   1.226
 2276SOL    HW2 7728   1.833   2.142   1.182
 2277SOL     OW 7729   3.751   3.511   3.370
 2277SOL    HW1 7730   3.703   3.597   3.380
 2277SOL    HW2 7731   3.685   3.436   3.359
 2278SOL     OW 7732   0.730   2.870   3.951
 2278SOL    HW1 7733   0.772   2.960   3.951
 2278SOL    HW2 7734   0.732   2.832   4.044
 2279SOL     OW 7735   0.646   5.913   5.507
 2279SOL    HW1 7736   0.587   5.872   5.438
 2279SOL    HW2 7737   0.597   5.986   5.554
 2280SOL     OW 7738   4.788   1.750   5.594
 2280SOL    HW1 7739   4.747   1.766   5.504
 2280SOL    HW2 7740   4.860   1.818   5.610
 2281SOL     OW 7741   5.956   6.739   2.726
 2281SOL    HW1 7742   5.971   6.834   2.697
 2281SOL    HW2 7743   5.917   6.737   2.818
 2282SOL     OW 7744   4.254   6.490   5.579
 2282SOL    HW1 7745   4.247   6.589   5.579
 2282SOL    HW2 7746   4.235   6.455   5.487
 2283SOL     OW 7747   0.293   0.435   3.835
 2283SOL    HW1 7748   0.259   0.527   3.816
 2283SOL    HW2 7749   0.241   0.395   3.910
 2284SOL     OW 7750   0.903   2.522   6.943
 2284SOL    HW1 7751   0.969   2.590   6.910
 2284SOL    HW2 7752   0.880   2.540   0.012
 2285SOL     OW 7753   1.582   4.404   6.301
 2285SOL    HW1 7754   1.642   4.341   6.350
 2285SOL    HW2 7755   1.630   4.439   6.221
 2286SOL     OW 7756   4.848   5.473   3.536
 2286SOL    HW1 7757   4.870   5.377   3.551
 2286SOL    HW2 7758   4.748   5.484   3.534
 2287SOL     OW 7759   1.659   1.330   3.380
 2287SOL    HW1 7760   1.702   1.408   3.335
 2287SOL    HW2 7761   1.675   1.247   3.326
 2288SOL     OW 7762   0.145   5.926   2.542
 2288SOL    HW1 7763   0.147   5.859   2.467
 2288SOL    HW2 7764   0.073   5.993   2.524
 2289SOL     OW 7765   0.378   5.306   1.282
 2289SOL    HW1 7766   0.340   5.328   1.372
 2289SOL    HW2 7767   0.398   5.391   1.233
 2290SOL     OW 7768   0.556   5.725   0.433
 2290SOL    HW1 7769   0.527   5.810   0.389
 2290SOL    HW2 7770   0.595   5.663   0.365
 2291SOL     OW 7771   2.534   1.726   6.915
 2291SOL    HW1 7772   2.447   1.679   6.931
 2291SOL    HW2 7773   2.518   1.825   6.914
 2292SOL     OW 7774   1.159   1.409   4.992
 2292SOL    HW1 7775   1.110   1.463   5.060
 2292SOL    HW2 7776   1.096   1.381   4.920
 2293SOL     OW 7777   5.551   4.350   2.726
 2293SOL    HW1 7778   5.590   4.259   2.738
 2293SOL    HW2 7779   5.457   4.342   2.694
 2294SOL     OW 7780   3.433   6.435   6.651
 2294SOL    HW1 7781   3.390   6.522   6.627
 2294SOL    HW2 7782   3.390   6.398   6.734
 2295SOL     OW 7783   0.602   2.384   1.173
 2295SOL    HW1 7784   0.546   2.465   1.155
 2295SOL    HW2 7785   0.543   2.309   1.202
 2296SOL     OW 7786   2.835   6.508   0.208
 2296SOL    HW1 7787   2.901   6.524   0.282
 2296SOL    HW2 7788   2.743   6.531   0.240
 2297SOL     OW 7789   4.508   6.093   5.815
 2297SOL    HW1 7790   4.486   6.156   5.740
 2297SOL    HW2 7791   4.465   6.125   5.899
 2298SOL     OW 7792   4.063   3.020   6.803
 2298SOL    HW1 7793   4.048   2.980   6.713
 2298SOL    HW2 7794   4.012   3.106   6.810
 2299SOL     OW 7795   4.496   5.912   0.326
 2299SOL    HW1 7796   4.557   5.834   0.339
 2299SOL    HW2 7797   4.517   5.983   0.394
 2300SOL     OW 7798   1.468   4.799   1.557
 2300SOL    HW1 7799   1.515   4.802   1.645
 2300SOL    HW2 7800   1.503   4.721   1.504
 2301SOL     OW 7801   4.040   3.643   1.735
 2301SOL    HW1 7802   4.100   3.650   1.815
 2301SOL    HW2 7803   3.965   3.581   1.756
 2302SOL     OW 7804   2.433   5.808   3.033
 2302SOL    HW1 7805   2.408   5.835   3.126
 2302SOL    HW2 7806   2.522   5.761   3.036
 2303SOL     OW 7807   0.676   3.218   4.637
 2303SOL    HW1 7808   0.603   3.181   4.579
 2303SOL    HW2 7809   0.760   3.165   4.622
 2304SOL     OW 7810   2.960   1.154   4.091
 2304SOL    HW1 7811   3.015   1.109   4.162
 2304SOL    HW2 7812   2.894   1.216   4.134
 2305SOL     OW 7813   3.892   5.428   2.090
 2305SOL    HW1 7814   3.855   5.356   2.031
 2305SOL    HW2 7815   3.877   5.517   2.048
 2306SOL     OW 7816   0.979   3.520   0.898
 2306SOL    HW1 7817   1.064   3.540   0.850
 2306SOL    HW2 7818   0.917   3.471   0.838
 2307SOL     OW 7819   0.729   2.506   2.547
 2307SOL    HW1 7820   0.769   2.565   2.617
 2307SOL    HW2 7821   0.699   2.421   2.589
 2308SOL     OW 7822   0.204   0.176   0.190
 2308SOL    HW1 7823   0.119   0.225   0.208
 2308SOL    HW2 7824   0.192   0.118   0.110
 2309SOL     OW 7825   3.669   5.103   6.090
 2309SOL    HW1 7826   3.586   5.057   6.121
 2309SOL    HW2 7827   3.717   5.142   6.168
 2310SOL     OW 7828   5.273   1.236   2.277
 2310SOL    HW1 7829   5.186   1.193   2.302
 2310SOL    HW2 7830   5.332   1.241   2.358
 2311SOL     OW 7831   3.074   0.268   2.983
 2311SOL    HW1 7832   3.118   0.240   2.898
 2311SOL    HW2 7833   2.992   0.322   2.962
 2312SOL     OW 7834   2.855   0.877   2.732
 2312SOL    HW1 7835   2.849   0.800   2.796
 2312SOL    HW2 7836   2.906   0.951   2.775
 2313SOL     OW 7837   5.443   3.875   1.834
 2313SOL    HW1 7838   5.534   3.851   1.801
 2313SOL    HW2 7839   5.382   3.797   1.826
 2314SOL     OW 7840   6.322   0.081   2.945
 2314SOL    HW1 7841   6.246   0.123   2.895
 2314SOL    HW2 7842   6.310   7.009   2.947
 2315SOL     OW 7843   4.161   5.676   5.442
 2315SOL    HW1 7844   4.255   5.665   5.474
 2315SOL    HW2 7845   4.161   5.724   5.354
 2316SOL     OW 7846   3.024   1.994   6.013
 2316SOL    HW1 7847   3.014   2.036   6.103
 2316SOL    HW2 7848   3.115   1.954   6.004
 2317SOL     OW 7849   6.646   6.158   3.492
 2317SOL    HW1 7850   6.573   6.134   3.428
 2317SOL    HW2 7851   6.636   6.104   3.576
 2318SOL     OW 7852   1.821   4.848   5.113
 2318SOL    HW1 7853   1.785   4.843   5.206
 2318SOL    HW2 7854   1.909   4.896   5.113
 2319SOL     OW 7855   2.299   5.020   3.724
 2319SOL    HW1 7856   2.337   4.949   3.664
 2319SOL    HW2 7857   2.203   4.997   3.744
 2320SOL     OW 7858   1.535   2.759   5.242
 2320SOL    HW1 7859   1.581   2.742   5.155
 2320SOL    HW2 7860   1.563   2.690   5.309
 2321SOL     OW 7861   2.582   5.011   5.924
 2321SOL    HW1 7862   2.495   4.966   5.944
 2321SOL    HW2 7863   2.569   5.110   5.922
 2322SOL     OW 7864   0.895   3.671   1.982
 2322SOL    HW1 7865   0.908   3.721   1.896
 2322SOL    HW2 7866   0.982   3.669   2.032
 2323SOL     OW 7867   2.434   4.990   1.707
 2323SOL    HW1 7868   2.343   4.983   1.666
 2323SOL    HW2 7869   2.431   5.057   1.782
 2324SOL     OW 7870   0.166   5.428   2.129
 2324SOL    HW1 7871   0.193   5.511   2.080
 2324SOL    HW2 7872   0.097   5.379   2.077
 2325SOL     OW 7873   0.016   5.027   1.741
 2325SOL    HW1 7874   0.047   5.067   1.655
 2325SOL    HW2 7875   0.078   4.953   1.768
 2326SOL     OW 7876   1.426   0.633   6.402
 2326SOL    HW1 7877   1.392   0.560   6.461
 2326SOL    HW2 7878   1.433   0.718   6.455
 2327SOL     OW 7879   6.724   0.744   2.808
 2327SOL    HW1 7880   6.709   0.749   2.907
 2327SOL    HW2 7881   6.811   0.789   2.785
 2328SOL     OW 7882   2.504   2.509   2.472
 2328SOL    HW1 7883   2.569   2.435   2.492
 2328SOL    HW2 7884   2.520   2.586   2.534
 2329SOL     OW 7885   0.834   5.573   3.311
 2329SOL    HW1 7886   0.907   5.642   3.310
 2329SOL    HW2 7887   0.746   5.619   3.322
 2330SOL     OW 7888   6.586   2.487   0.440
 2330SOL    HW1 7889   6.560   2.436   0.522
 2330SOL    HW2 7890   6.685   2.504   0.440
 2331SOL     OW 7891   3.957   6.142   0.387
 2331SOL    HW1 7892   3.910   6.056   0.368
 2331SOL    HW2 7893   4.016   6.165   0.310
 2332SOL     OW 7894   5.102   6.433   6.451
 2332SOL    HW1 7895   5.098   6.410   6.353
 2332SOL    HW2 7896   5.030   6.383   6.499
 2333SOL     OW 7897   0.331   4.755   2.474
 2333SOL    HW1 7898   0.274   4.775   2.554
 2333SOL    HW2 7899   0.334   4.835   2.415
 2334SOL     OW 7900   2.740   0.980   5.798
 2334SOL    HW1 7901   2.761   1.076   5.779
 2334SOL    HW2 7902   2.795   0.948   5.875
 2335SOL     OW 7903   6.000   1.426   3.221
 2335SOL    HW1 7904   6.027   1.382   3.307
 2335SOL    HW2 7905   6.050   1.512   3.211
 2336SOL     OW 7906   2.357   1.725   2.707
 2336SOL    HW1 7907   2.275   1.687   2.749
 2336SOL    HW2 7908   2.332   1.803   2.649
 2337SOL     OW 7909   4.312   1.984   1.370
 2337SOL    HW1 7910   4.288   1.977   1.467
 2337SOL    HW2 7911   4.387   1.921   1.350
 2338SOL     OW 7912   0.320   4.308   4.204
 2338SOL    HW1 7913   0.354   4.349   4.120
 2338SOL    HW2 7914   0.253   4.237   4.181
 2339SOL     OW 7915   4.056   3.084   2.829
 2339SOL    HW1 7916   4.108   3.009   2.870
 2339SOL    HW2 7917   3.987   3.116   2.895
 2340SOL     OW 7918   1.779   5.646   6.232
 2340SOL    HW1 7919   1.680   5.662   6.235
 2340SOL    HW2 7920   1.815   5.647   6.325
 2341SOL     OW 7921   2.442   4.449   3.700
 2341SOL    HW1 7922   2.432   4.383   3.775
 2341SOL    HW2 7923   2.519   4.510   3.718
 2342SOL     OW 7924   2.670   0.088   3.916
 2342SOL    HW1 7925   2.642   0.130   3.830
 2342SOL    HW2 7926   2.751   0.135   3.951
 2343SOL     OW 7927   1.492   6.689   2.424
 2343SOL    HW1 7928   1.513   6.723   2.515
 2343SOL    HW2 7929   1.547   6.607   2.406
 2344SOL     OW 7930   5.869   4.082   0.995
 2344SOL    HW1 7931   5.860   4.182   0.995
 2344SOL    HW2 7932   5.808   4.043   1.064
 2345SOL     OW 7933   2.790   5.874   4.756
 2345SOL    HW1 7934   2.853   5.796   4.766
 2345SOL    HW2 7935   2.742   5.889   4.842
 2346SOL     OW 7936   3.965   4.170   6.361
 2346SOL    HW1 7937   3.891   4.196   6.299
 2346SOL    HW2 7938   3.947   4.079   6.398
 2347SOL     OW 7939   1.238   2.512   1.571
 2347SOL    HW1 7940   1.239   2.462   1.658
 2347SOL    HW2 7941   1.326   2.557   1.557
 2348SOL     OW 7942   0.574   5.046   2.932
 2348SOL    HW1 7943   0.507   5.037   3.006
 2348SOL    HW2 7944   0.599   5.142   2.921
 2349SOL     OW 7945   0.392   4.750   6.438
 2349SOL    HW1 7946   0.327   4.722   6.367
 2349SOL    HW2 7947   0.476   4.698   6.428
 2350SOL     OW 7948   6.386   4.187   6.469
 2350SOL    HW1 7949   6.471   4.202   6.419
 2350SOL    HW2 7950   6.377   4.090   6.492
 2351SOL     OW 7951   2.359   4.647   3.178
 2351SOL    HW1 7952   2.260   4.638   3.169
 2351SOL    HW2 7953   2.386   4.629   3.272
 2352SOL     OW 7954   0.305   3.231   3.563
 2352SOL    HW1 7955   0.390   3.180   3.548
 2352SOL    HW2 7956   0.230   3.185   3.516
 2353SOL     OW 7957   3.478   5.968   4.994
 2353SOL    HW1 7958   3.399   5.939   5.047
 2353SOL    HW2 7959   3.512   5.891   4.939
 2354SOL     OW 7960   2.500   1.483   3.903
 2354SOL    HW1 7961   2.503   1.559   3.839
 2354SOL    HW2 7962   2.516   1.516   3.996
 2355SOL     OW 7963   2.029   5.854   4.674
 2355SOL    HW1 7964   2.082   5.775   4.643
 2355SOL    HW2 7965   1.973   5.829   4.752
 2356SOL     OW 7966   0.210   3.053   0.130
 2356SOL    HW1 7967   0.162   2.978   0.175
 2356SOL    HW2 7968   0.306   3.054   0.161
 2357SOL     OW 7969   2.818   6.989   2.524
 2357SOL    HW1 7970   2.809   6.973   2.622
 2357SOL    HW2 7971   2.854   0.055   2.508
 2358SOL     OW 7972   3.847   4.448   6.393
 2358SOL    HW1 7973   3.838   4.396   6.478
 2358SOL    HW2 7974   3.819   4.392   6.316
 2359SOL     OW 7975   1.218   0.383   4.917
 2359SOL    HW1 7976   1.142   0.333   4.957
 2359SOL    HW2 7977   1.283   0.408   4.989
 2360SOL     OW 7978   6.490   3.139   0.441
 2360SOL    HW1 7979   6.447   3.133   0.531
 2360SOL    HW2 7980   6.578   3.090   0.443
 2361SOL     OW 7981   3.828   1.248   5.966
 2361SOL    HW1 7982   3.915   1.247   6.015
 2361SOL    HW2 7983   3.809   1.340   5.934
 2362SOL     OW 7984   3.381   5.281   3.295
 2362SOL    HW1 7985   3.447   5.347   3.259
 2362SOL    HW2 7986   3.412   5.188   3.274
 2363SOL     OW 7987   3.901   1.397   3.990
 2363SOL    HW1 7988   3.810   1.355   3.987
 2363SOL    HW2 7989   3.942   1.394   3.900
 2364SOL     OW 7990   1.036   2.255   1.062
 2364SOL    HW1 7991   1.056   2.204   1.146
 2364SOL    HW2 7992   0.937   2.257   1.047
 2365SOL     OW 7993   5.682   2.117   6.471
 2365SOL    HW1 7994   5.776   2.088   6.451
 2365SOL    HW2 7995   5.674   2.141   6.568
 2366SOL     OW 7996   3.930   5.123   1.172
 2366SOL    HW1 7997   3.867   5.046   1.173
 2366SOL    HW2 7998   3.879   5.209   1.178
 2367SOL     OW 7999   2.124   3.217   6.929
 2367SOL    HW1 8000   2.108   3.118   6.923
 2367SOL    HW2 8001   2.214   3.239   6.892
 2368SOL     OW 8002   6.339   6.554   3.806
 2368SOL    HW1 8003   6.334   6.585   3.901
 2368SOL    HW2 8004   6.246   6.540   3.771
 2369SOL     OW 8005   2.142   0.209   3.958
 2369SOL    HW1 8006   2.129   0.129   3.899
 2369SOL    HW2 8007   2.169   0.179   4.049
 2370SOL     OW 8008   5.575   2.395   6.844
 2370SOL    HW1 8009   5.634   2.420   6.921
 2370SOL    HW2 8010   5.493   2.351   6.879
 2371SOL     OW 8011   3.117   0.093   1.619
 2371SOL    HW1 8012   3.150   7.026   1.620
 2371SOL    HW2 8013   3.146   0.138   1.534
 2372SOL     OW 8014   6.422   3.076   2.389
 2372SOL    HW1 8015   6.366   3.151   2.423
 2372SOL    HW2 8016   6.503   3.113   2.344
 2373SOL     OW 8017   2.000   3.377   6.346
 2373SOL    HW1 8018   2.076   3.440   6.327
 2373SOL    HW2 8019   1.977   3.381   6.443
 2374SOL     OW 8020   6.203   2.295   4.840
 2374SOL    HW1 8021   6.202   2.225   4.768
 2374SOL    HW2 8022   6.125   2.280   4.901
 2375SOL     OW 8023   3.449   5.535   4.903
 2375SOL    HW1 8024   3.458   5.489   4.815
 2375SOL    HW2 8025   3.534   5.583   4.924
 2376SOL     OW 8026   6.005   2.883   4.291
 2376SOL    HW1 8027   6.003   2.929   4.380
 2376SOL    HW2 8028   5.995   2.950   4.218
 2377SOL     OW 8029   3.062   3.233   3.942
 2377SOL    HW1 8030   3.074   3.161   3.873
 2377SOL    HW2 8031   2.989   3.295   3.914
 2378SOL     OW 8032   5.473   2.712   6.463
 2378SOL    HW1 8033   5.475   2.624   6.512
 2378SOL    HW2 8034   5.398   2.767   6.497
 2379SOL     OW 8035   6.131   0.358   0.867
 2379SOL    HW1 8036   6.230   0.349   0.859
 2379SOL    HW2 8037   6.103   0.337   0.961
 2380SOL     OW 8038   6.004   2.759   1.326
 2380SOL    HW1 8039   6.033   2.720   1.238
 2380SOL    HW2 8040   6.059   2.839   1.347
 2381SOL     OW 8041   1.813   6.361   3.172
 2381SOL    HW1 8042   1.774   6.269   3.172
 2381SOL    HW2 8043   1.877   6.370   3.096
 2382SOL     OW 8044   2.149   3.135   5.130
 2382SOL    HW1 8045   2.168   3.230   5.153
 2382SOL    HW2 8046   2.232   3.091   5.096
 2383SOL     OW 8047   6.402   5.978   1.342
 2383SOL    HW1 8048   6.304   5.986   1.322
 2383SOL    HW2 8049   6.427   5.882   1.349
 2384SOL     OW 8050   4.713   2.044   1.546
 2384SOL    HW1 8051   4.768   2.099   1.609
 2384SOL    HW2 8052   4.678   1.964   1.594
 2385SOL     OW 8053   0.572   1.796   6.694
 2385SOL    HW1 8054   0.573   1.814   6.792
 2385SOL    HW2 8055   0.617   1.870   6.645
 2386SOL     OW 8056   5.375   5.627   4.117
 2386SOL    HW1 8057   5.468   5.594   4.103
 2386SOL    HW2 8058   5.358   5.642   4.214
 2387SOL     OW 8059   1.672   1.455   3.987
 2387SOL    HW1 8060   1.683   1.409   4.075
 2387SOL    HW2 8061   1.667   1.554   4.001
 2388SOL     OW 8062   6.451   2.200   4.011
 2388SOL    HW1 8063   6.371   2.177   3.956
 2388SOL    HW2 8064   6.422   2.240   4.098
 2389SOL     OW 8065   4.155   5.080   3.259
 2389SOL    HW1 8066   4.059   5.108   3.266
 2389SOL    HW2 8067   4.194   5.073   3.351
 2390SOL     OW 8068   3.615   3.810   2.306
 2390SOL    HW1 8069   3.584   3.814   2.211
 2390SOL    HW2 8070   3.666   3.894   2.327
 2391SOL     OW 8071   4.650   5.189   5.877
 2391SOL    HW1 8072   4.634   5.115   5.812
 2391SOL    HW2 8073   4.567   5.243   5.887
 2392SOL     OW 8074   3.085   0.647   0.085
 2392SOL    HW1 8075   3.044   0.617   7.025
 2392SOL    HW2 8076   3.184   0.641   0.078
 2393SOL     OW 8077   4.117   4.639   5.923
 2393SOL    HW1 8078   4.182   4.586   5.976
 2393SOL    HW2 8079   4.120   4.610   5.827
 2394SOL     OW 8080   0.681   4.003   4.853
 2394SOL    HW1 8081   0.605   4.059   4.820
 2394SOL    HW2 8082   0.684   3.917   4.801
 2395SOL     OW 8083   3.820   6.690   6.013
 2395SOL    HW1 8084   3.859   6.629   5.945
 2395SOL    HW2 8085   3.731   6.724   5.980
 2396SOL     OW 8086   4.224   4.618   0.276
 2396SOL    HW1 8087   4.279   4.649   0.354
 2396SOL    HW2 8088   4.203   4.696   0.217
 2397SOL     OW 8089   0.594   3.735   4.714
 2397SOL    HW1 8090   0.595   3.722   4.615
 2397SOL    HW2 8091   0.625   3.651   4.759
 2398SOL     OW 8092   4.262   4.341   5.648
 2398SOL    HW1 8093   4.176   4.306   5.611
 2398SOL    HW2 8094   4.297   4.278   5.717
 2399SOL     OW 8095   4.898   2.259   1.626
 2399SOL    HW1 8096   4.867   2.328   1.692
 2399SOL    HW2 8097   4.990   2.283   1.594
 2400SOL     OW 8098   2.499   5.078   1.047
 2400SOL    HW1 8099   2.453   5.119   1.126
 2400SOL    HW2 8100   2.437   5.013   1.002
 2401SOL     OW 8101   6.177   6.089   6.326
 2401SOL    HW1 8102   6.172   6.024   6.250
 2401SOL    HW2 8103   6.259   6.146   6.315
 2402SOL     OW 8104   0.149   6.847   4.299
 2402SOL    HW1 8105   0.075   6.895   4.346
 2402SOL    HW2 8106   0.111   6.770   4.246
 2403SOL     OW 8107   0.702   2.420   5.343
 2403SOL    HW1 8108   0.666   2.366   5.267
 2403SOL    HW2 8109   0.626   2.458   5.395
 2404SOL     OW 8110   1.741   0.534   0.573
 2404SOL    HW1 8111   1.713   0.442   0.601
 2404SOL    HW2 8112   1.796   0.528   0.490
 2405SOL     OW 8113   2.724   3.749   1.656
 2405SOL    HW1 8114   2.725   3.650   1.671
 2405SOL    HW2 8115   2.653   3.772   1.589
 2406SOL     OW 8116   4.915   1.671   0.644
 2406SOL    HW1 8117   4.826   1.676   0.599
 2406SOL    HW2 8118   4.950   1.763   0.661
 2407SOL     OW 8119   5.367   1.065   3.031
 2407SOL    HW1 8120   5.345   0.972   3.060
 2407SOL    HW2 8121   5.375   1.124   3.111
 2408SOL     OW 8122   4.761   4.221   2.146
 2408SOL    HW1 8123   4.826   4.244   2.074
 2408SOL    HW2 8124   4.668   4.243   2.116
 2409SOL     OW 8125   1.777   4.037   0.503
 2409SOL    HW1 8126   1.767   3.940   0.522
 2409SOL    HW2 8127   1.712   4.089   0.558
 2410SOL     OW 8128   3.480   3.264   2.975
 2410SOL    HW1 8129   3.535   3.340   3.011
 2410SOL    HW2 8130   3.494   3.256   2.877
 2411SOL     OW 8131   5.268   6.972   4.855
 2411SOL    HW1 8132   5.209   6.925   4.921
 2411SOL    HW2 8133   5.329   6.906   4.812
 2412SOL     OW 8134   4.927   3.753   1.031
 2412SOL    HW1 8135   4.959   3.677   0.974
 2412SOL    HW2 8136   4.856   3.721   1.094
 2413SOL     OW 8137   5.246   0.200   2.124
 2413SOL    HW1 8138   5.184   0.278   2.132
 2413SOL    HW2 8139   5.297   0.190   2.210
 2414SOL     OW 8140   5.184   3.186   3.974
 2414SOL    HW1 8141   5.196   3.087   3.959
 2414SOL    HW2 8142   5.094   3.213   3.939
 2415SOL     OW 8143   4.779   1.312   3.403
 2415SOL    HW1 8144   4.739   1.245   3.465
 2415SOL    HW2 8145   4.869   1.340   3.437
 2416SOL     OW 8146   4.767   1.556   5.768
 2416SOL    HW1 8147   4.737   1.606   5.850
 2416SOL    HW2 8148   4.776   1.620   5.692
 2417SOL     OW 8149   2.995   3.151   4.186
 2417SOL    HW1 8150   3.017   3.170   4.090
 2417SOL    HW2 8151   3.066   3.092   4.225
 2418SOL     OW 8152   4.148   3.539   2.855
 2418SOL    HW1 8153   4.222   3.519   2.919
 2418SOL    HW2 8154   4.129   3.458   2.799
 2419SOL     OW 8155   0.538   0.101   2.753
 2419SOL    HW1 8156   0.611   0.156   2.795
 2419SOL    HW2 8157   0.575   0.012   2.726
 2420SOL     OW 8158   2.175   0.007   1.790
 2420SOL    HW1 8159   2.104   0.078   1.789
 2420SOL    HW2 8160   2.265   0.050   1.789
 2421SOL     OW 8161   2.376   2.114   4.307
 2421SOL    HW1 8162   2.406   2.187   4.245
 2421SOL    HW2 8163   2.457   2.067   4.343
 2422SOL     OW 8164   4.750   1.653   1.033
 2422SOL    HW1 8165   4.795   1.579   0.983
 2422SOL    HW2 8166   4.691   1.614   1.104
 2423SOL     OW 8167   1.866   5.414   2.730
 2423SOL    HW1 8168   1.891   5.467   2.811
 2423SOL    HW2 8169   1.901   5.321   2.740
 2424SOL     OW 8170   5.399   0.400   0.811
 2424SOL    HW1 8171   5.428   0.369   0.902
 2424SOL    HW2 8172   5.437   0.490   0.792
 2425SOL     OW 8173   6.614   6.739   4.655
 2425SOL    HW1 8174   6.566   6.763   4.571
 2425SOL    HW2 8175   6.630   6.641   4.658
 2426SOL     OW 8176   2.542   4.877   3.895
 2426SOL    HW1 8177   2.602   4.933   3.952
 2426SOL    HW2 8178   2.475   4.936   3.850
 2427SOL     OW 8179   6.174   0.048   5.881
 2427SOL    HW1 8180   6.253   0.050   5.819
 2427SOL    HW2 8181   6.093   0.019   5.830
 2428SOL     OW 8182   6.576   0.769   0.703
 2428SOL    HW1 8183   6.518   0.724   0.771
 2428SOL    HW2 8184   6.672   0.760   0.729
 2429SOL     OW 8185   4.973   5.918   2.029
 2429SOL    HW1 8186   4.891   5.901   1.975
 2429SOL    HW2 8187   5.053   5.918   1.969
 2430SOL     OW 8188   5.794   0.856   2.526
 2430SOL    HW1 8189   5.889   0.878   2.549
 2430SOL    HW2 8190   5.733   0.917   2.577
 2431SOL     OW 8191   3.944   0.592   2.105
 2431SOL    HW1 8192   3.993   0.632   2.182
 2431SOL    HW2 8193   3.849   0.621   2.107
 2432SOL     OW 8194   2.586   6.467   2.248
 2432SOL    HW1 8195   2.671   6.414   2.256
 2432SOL    HW2 8196   2.527   6.447   2.326
 2433SOL     OW 8197   3.785   0.319   0.100
 2433SOL    HW1 8198   3.816   0.414   0.107
 2433SOL    HW2 8199   3.773   0.295   0.003
 2434SOL     OW 8200   4.303   2.917   6.230
 2434SOL    HW1 8201   4.204   2.902   6.220
 2434SOL    HW2 8202   4.349   2.889   6.146
 2435SOL     OW 8203   5.879   5.807   5.171
 2435SOL    HW1 8204   5.916   5.758   5.251
 2435SOL    HW2 8205   5.811   5.749   5.126
 2436SOL     OW 8206   2.956   5.772   0.354
 2436SOL    HW1 8207   2.996   5.779   0.446
 2436SOL    HW2 8208   3.019   5.811   0.287
 2437SOL     OW 8209   0.136   0.105   6.097
 2437SOL    HW1 8210   0.093   0.055   6.172
 2437SOL    HW2 8211   0.104   0.199   6.097
 2438SOL     OW 8212   2.863   2.725   1.156
 2438SOL    HW1 8213   2.846   2.801   1.220
 2438SOL    HW2 8214   2.789   2.658   1.164
 2439SOL     OW 8215   6.207   4.560   4.977
 2439SOL    HW1 8216   6.295   4.513   4.969
 2439SOL    HW2 8217   6.133   4.493   4.974
 2440SOL     OW 8218   5.937   4.966   6.313
 2440SOL    HW1 8219   5.859   4.977   6.374
 2440SOL    HW2 8220   5.905   4.946   6.220
 2441SOL     OW 8221   6.060   2.528   1.084
 2441SOL    HW1 8222   5.981   2.467   1.086
 2441SOL    HW2 8223   6.141   2.479   1.118
 2442SOL     OW 8224   7.006   3.706   5.105
 2442SOL    HW1 8225   6.921   3.752   5.130
 2442SOL    HW2 8226   7.016   3.622   5.160
 2443SOL     OW 8227   3.023   4.875   6.011
 2443SOL    HW1 8228   2.960   4.810   6.053
 2443SOL    HW2 8229   2.970   4.947   5.966
 2444SOL     OW 8230   3.094   3.149   5.451
 2444SOL    HW1 8231   3.107   3.248   5.441
 2444SOL    HW2 8232   3.180   3.102   5.433
 2445SOL     OW 8233   0.744   0.226   0.561
 2445SOL    HW1 8234   0.687   0.185   0.490
 2445SOL    HW2 8235   0.787   0.309   0.526
 2446SOL     OW 8236   5.537   3.600   6.112
 2446SOL    HW1 8237   5.568   3.688   6.147
 2446SOL    HW2 8238   5.584   3.579   6.027
 2447SOL     OW 8239   0.490   2.266   6.392
 2447SOL    HW1 8240   0.505   2.348   6.337
 2447SOL    HW2 8241   0.532   2.278   6.482
 2448SOL     OW 8242   0.362   0.338   4.180
 2448SOL    HW1 8243   0.317   0.250   4.190
 2448SOL    HW2 8244   0.293   0.411   4.182
 2449SOL     OW 8245   0.495   2.660   4.702
 2449SOL    HW1 8246   0.555   2.659   4.623
 2449SOL    HW2 8247   0.536   2.607   4.776
 2450SOL     OW 8248   1.636   3.244   2.088
 2450SOL    HW1 8249   1.656   3.159   2.136
 2450SOL    HW2 8250   1.559   3.230   2.026
 2451SOL     OW 8251   2.391   6.554   4.686
 2451SOL    HW1 8252   2.417   6.462   4.716
 2451SOL    HW2 8253   2.399   6.561   4.587
 2452SOL     OW 8254   1.737   2.449   4.234
 2452SOL    HW1 8255   1.810   2.469   4.299
 2452SOL    HW2 8256   1.717   2.531   4.180
 2453SOL     OW 8257   0.478   3.333   1.550
 2453SOL    HW1 8258   0.574   3.313   1.531
 2453SOL    HW2 8259   0.436   3.254   1.594
 2454SOL     OW 8260   2.074   0.120   2.168
 2454SOL    HW1 8261   2.152   0.182   2.155
 2454SOL    HW2 8262   1.989   0.168   2.143
 2455SOL     OW 8263   5.192   4.254   0.741
 2455SOL    HW1 8264   5.159   4.166   0.706
 2455SOL    HW2 8265   5.247   4.300   0.672
 2456SOL     OW 8266   3.219   6.526   1.347
 2456SOL    HW1 8267   3.307   6.560   1.380
 2456SOL    HW2 8268   3.153   6.601   1.348
 2457SOL     OW 8269   6.001   6.403   1.294
 2457SOL    HW1 8270   5.940   6.367   1.364
 2457SOL    HW2 8271   6.081   6.343   1.284
 2458SOL     OW 8272   0.484   5.892   2.774
 2458SOL    HW1 8273   0.544   5.959   2.730
 2458SOL    HW2 8274   0.439   5.836   2.704
 2459SOL     OW 8275   0.863   0.962   0.620
 2459SOL    HW1 8276   0.817   0.937   0.535
 2459SOL    HW2 8277   0.807   1.028   0.671
 2460SOL     OW 8278   3.478   5.335   1.410
 2460SOL    HW1 8279   3.558   5.345   1.351
 2460SOL    HW2 8280   3.442   5.425   1.433
 2461SOL     OW 8281   5.193   0.933   3.700
 2461SOL    HW1 8282   5.190   0.841   3.661
 2461SOL    HW2 8283   5.138   0.994   3.643
 2462SOL     OW 8284   2.890   4.490   6.320
 2462SOL    HW1 8285   2.908   4.534   6.407
 2462SOL    HW2 8286   2.873   4.559   6.250
 2463SOL     OW 8287   0.261   2.189   4.113
 2463SOL    HW1 8288   0.335   2.129   4.145
 2463SOL    HW2 8289   0.265   2.276   4.164
 2464SOL     OW 8290   1.462   3.736   1.107
 2464SOL    HW1 8291   1.479   3.809   1.173
 2464SOL    HW2 8292   1.548   3.709   1.063
 2465SOL     OW 8293   5.916   5.160   2.563
 2465SOL    HW1 8294   5.974   5.092   2.609
 2465SOL    HW2 8295   5.827   5.163   2.608
 2466SOL     OW 8296   3.632   1.638   1.908
 2466SOL    HW1 8297   3.659   1.681   1.994
 2466SOL    HW2 8298   3.580   1.704   1.853
 2467SOL     OW 8299   6.543   1.516   4.899
 2467SOL    HW1 8300   6.514   1.610   4.911
 2467SOL    HW2 8301   6.540   1.468   4.986
 2468SOL     OW 8302   6.877   3.753   0.513
 2468SOL    HW1 8303   6.884   3.852   0.499
 2468SOL    HW2 8304   6.954   3.708   0.468
 2469SOL     OW 8305   3.103   2.931   5.838
 2469SOL    HW1 8306   3.077   2.897   5.928
 2469SOL    HW2 8307   3.203   2.942   5.834
 2470SOL     OW 8308   5.847   2.936   0.890
 2470SOL    HW1 8309   5.833   2.905   0.984
 2470SOL    HW2 8310   5.759   2.936   0.842
 2471SOL     OW 8311   0.472   1.091   3.435
 2471SOL    HW1 8312   0.495   1.001   3.473
 2471SOL    HW2 8313   0.441   1.080   3.341
 2472SOL     OW 8314   5.799   1.803   3.772
 2472SOL    HW1 8315   5.714   1.854   3.775
 2472SOL    HW2 8316   5.794   1.733   3.700
 2473SOL     OW 8317   0.551   6.743   5.344
 2473SOL    HW1 8318   0.507   6.654   5.335
 2473SOL    HW2 8319   0.510   6.793   5.421
 2474SOL     OW 8320   5.871   5.851   4.476
 2474SOL    HW1 8321   5.842   5.915   4.404
 2474SOL    HW2 8322   5.947   5.890   4.527
 2475SOL     OW 8323   4.614   2.260   6.008
 2475SOL    HW1 8324   4.568   2.198   5.943
 2475SOL    HW2 8325   4.564   2.261   6.094
 2476SOL     OW 8326   0.602   1.726   3.313
 2476SOL    HW1 8327   0.699   1.704   3.304
 2476SOL    HW2 8328   0.576   1.720   3.409
 2477SOL     OW 8329   4.392   5.229   2.241
 2477SOL    HW1 8330   4.457   5.153   2.237
 2477SOL    HW2 8331   4.315   5.210   2.181
 2478SOL     OW 8332   6.828   0.005   3.402
 2478SOL    HW1 8333   6.738   0.045   3.419
 2478SOL    HW2 8334   6.883   0.009   3.485
 2479SOL     OW 8335   0.248   2.062   6.770
 2479SOL    HW1 8336   0.207   2.013   6.847
 2479SOL    HW2 8337   0.197   2.146   6.754
 2480SOL     OW 8338   0.571   4.929   1.833
 2480SOL    HW1 8339   0.483   4.966   1.862
 2480SOL    HW2 8340   0.600   4.859   1.898
 2481SOL     OW 8341   3.937   4.778   2.515
 2481SOL    HW1 8342   3.975   4.757   2.425
 2481SOL    HW2 8343   4.012   4.795   2.579
 2482SOL     OW 8344   4.626   2.518   3.952
 2482SOL    HW1 8345   4.537   2.509   3.996
 2482SOL    HW2 8346   4.673   2.599   3.987
 2483SOL     OW 8347   0.517   2.966   6.767
 2483SOL    HW1 8348   0.521   3.058   6.807
 2483SOL    HW2 8349   0.567   2.966   6.680
 2484SOL     OW 8350   3.954   3.638   6.594
 2484SOL    HW1 8351   3.949   3.602   6.501
 2484SOL    HW2 8352   3.977   3.735   6.591
 2485SOL     OW 8353   0.751   5.814   0.932
 2485SOL    HW1 8354   0.818   5.864   0.988
 2485SOL    HW2 8355   0.786   5.803   0.839
 2486SOL     OW 8356   0.611   5.138   3.509
 2486SOL    HW1 8357   0.672   5.112   3.583
 2486SOL    HW2 8358   0.527   5.083   3.512
 2487SOL     OW 8359   3.281   1.672   1.250
 2487SOL    HW1 8360   3.279   1.767   1.283
 2487SOL    HW2 8361   3.239   1.613   1.319
 2488SOL     OW 8362   2.681   6.252   6.173
 2488SOL    HW1 8363   2.680   6.239   6.273
 2488SOL    HW2 8364   2.703   6.347   6.153
 2489SOL     OW 8365   6.818   6.020   4.307
 2489SOL    HW1 8366   6.846   6.015   4.211
 2489SOL    HW2 8367   6.886   5.975   4.365
 2490SOL     OW 8368   5.399   3.316   1.935
 2490SOL    HW1 8369   5.358   3.324   1.844
 2490SOL    HW2 8370   5.377   3.398   1.988
 2491SOL     OW 8371   6.949   4.420   2.586
 2491SOL    HW1 8372   6.883   4.358   2.627
 2491SOL    HW2 8373   7.011   4.368   2.527
 2492SOL     OW 8374   4.338   1.487   5.709
 2492SOL    HW1 8375   4.393   1.403   5.707
 2492SOL    HW2 8376   4.399   1.566   5.722
 2493SOL     OW 8377   6.294   1.317   4.854
 2493SOL    HW1 8378   6.288   1.286   4.759
 2493SOL    HW2 8379   6.336   1.407   4.858
 2494SOL     OW 8380   4.322   4.363   0.815
 2494SOL    HW1 8381   4.352   4.451   0.853
 2494SOL    HW2 8382   4.385   4.291   0.843
 2495SOL     OW 8383   6.546   0.994   2.990
 2495SOL    HW1 8384   6.581   0.902   3.008
 2495SOL    HW2 8385   6.560   1.051   3.071
 2496SOL     OW 8386   1.542   5.437   6.961
 2496SOL    HW1 8387   1.573   5.426   6.867
 2496SOL    HW2 8388   1.547   5.534   6.986
 2497SOL     OW 8389   5.648   0.266   6.866
 2497SOL    HW1 8390   5.645   0.301   6.960
 2497SOL    HW2 8391   5.738   0.283   6.827
 2498SOL     OW 8392   0.625   2.840   4.985
 2498SOL    HW1 8393   0.556   2.911   4.970
 2498SOL    HW2 8394   0.580   2.756   5.016
 2499SOL     OW 8395   4.754   0.346   0.193
 2499SOL    HW1 8396   4.804   0.432   0.185
 2499SOL    HW2 8397   4.666   0.363   0.238
 2500SOL     OW 8398   4.031   3.908   6.613
 2500SOL    HW1 8399   4.118   3.918   6.564
 2500SOL    HW2 8400   3.957   3.947   6.557
 2501SOL     OW 8401   6.283   4.656   0.895
 2501SOL    HW1 8402   6.339   4.648   0.813
 2501SOL    HW2 8403   6.232   4.571   0.909
 2502SOL     OW 8404   0.690   6.880   2.757
 2502SOL    HW1 8405   0.704   6.839   2.667
 2502SOL    HW2 8406   0.778   6.890   2.803
 2503SOL     OW 8407   5.369   0.375   4.378
 2503SOL    HW1 8408   5.453   0.349   4.331
 2503SOL    HW2 8409   5.298   0.396   4.310
 2504SOL     OW 8410   2.185   4.019   2.834
 2504SOL    HW1 8411   2.187   4.114   2.803
 2504SOL    HW2 8412   2.191   3.957   2.755
 2505SOL     OW 8413   5.389   3.839   4.735
 2505SOL    HW1 8414   5.385   3.744   4.704
 2505SOL    HW2 8415   5.340   3.848   4.822
 2506SOL     OW 8416   1.029   1.294   0.979
 2506SOL    HW1 8417   1.020   1.293   0.880
 2506SOL    HW2 8418   1.058   1.385   1.010
 2507SOL     OW 8419   6.592   6.084   0.180
 2507SOL    HW1 8420   6.547   6.137   0.252
 2507SOL    HW2 8421   6.568   6.121   0.091
 2508SOL     OW 8422   2.275   2.530   1.763
 2508SOL    HW1 8423   2.307   2.559   1.854
 2508SOL    HW2 8424   2.242   2.436   1.768
 2509SOL     OW 8425   5.466   1.347   3.589
 2509SOL    HW1 8426   5.471   1.260   3.639
 2509SOL    HW2 8427   5.471   1.423   3.653
 2510SOL     OW 8428   4.082   5.852   2.495
 2510SOL    HW1 8429   4.107   5.805   2.579
 2510SOL    HW2 8430   4.165   5.886   2.450
 2511SOL     OW 8431   1.066   6.826   3.511
 2511SOL    HW1 8432   1.023   6.755   3.456
 2511SOL    HW2 8433   1.036   6.916   3.479
 2512SOL     OW 8434   5.984   3.085   4.125
 2512SOL    HW1 8435   6.062   3.132   4.083
 2512SOL    HW2 8436   5.900   3.111   4.077
 2513SOL     OW 8437   0.538   4.541   1.007
 2513SOL    HW1 8438   0.606   4.497   0.948
 2513SOL    HW2 8439   0.446   4.517   0.977
 2514SOL     OW 8440   0.427   2.524   3.520
 2514SOL    HW1 8441   0.375   2.606   3.542
 2514SOL    HW2 8442   0.401   2.451   3.583
 2515SOL     OW 8443   1.042   4.505   7.025
 2515SOL    HW1 8444   1.118   4.505   6.960
 2515SOL    HW2 8445   1.077   4.517   0.092
 2516SOL     OW 8446   5.070   6.328   4.147
 2516SOL    HW1 8447   5.134   6.374   4.085
 2516SOL    HW2 8448   4.987   6.382   4.156
 2517SOL     OW 8449   2.246   5.424   1.093
 2517SOL    HW1 8450   2.168   5.399   1.035
 2517SOL    HW2 8451   2.253   5.523   1.098
 2518SOL     OW 8452   1.931   3.003   6.923
 2518SOL    HW1 8453   1.854   2.961   6.971
 2518SOL    HW2 8454   1.906   3.017   6.827
 2519SOL     OW 8455   6.007   4.196   5.164
 2519SOL    HW1 8456   6.043   4.259   5.095
 2519SOL    HW2 8457   5.917   4.163   5.136
 2520SOL     OW 8458   3.279   5.406   2.170
 2520SOL    HW1 8459   3.298   5.500   2.198
 2520SOL    HW2 8460   3.335   5.343   2.224
 2521SOL     OW 8461   5.579   0.036   5.945
 2521SOL    HW1 8462   5.581   6.981   6.003
 2521SOL    HW2 8463   5.575   0.118   6.002
 2522SOL     OW 8464   2.813   4.843   4.175
 2522SOL    HW1 8465   2.760   4.784   4.235
 2522SOL    HW2 8466   2.905   4.855   4.212
 2523SOL     OW 8467   1.036   2.497   5.599
 2523SOL    HW1 8468   0.943   2.473   5.628
 2523SOL    HW2 8469   1.068   2.575   5.653
 2524SOL     OW 8470   1.568   0.076   4.521
 2524SOL    HW1 8471   1.642   0.010   4.530
 2524SOL    HW2 8472   1.561   0.130   4.605
 2525SOL     OW 8473   2.171   4.605   2.610
 2525SOL    HW1 8474   2.246   4.545   2.580
 2525SOL    HW2 8475   2.194   4.700   2.588
 2526SOL     OW 8476   1.546   2.463   4.800
 2526SOL    HW1 8477   1.504   2.472   4.891
 2526SOL    HW2 8478   1.536   2.549   4.750
 2527SOL     OW 8479   6.718   0.229   4.007
 2527SOL    HW1 8480   6.787   0.166   4.042
 2527SOL    HW2 8481   6.646   0.241   4.075
 2528SOL     OW 8482   6.141   5.019   0.094
 2528SOL    HW1 8483   6.150   5.103   0.148
 2528SOL    HW2 8484   6.219   5.011   0.032
 2529SOL     OW 8485   5.124   3.937   5.197
 2529SOL    HW1 8486   5.150   3.982   5.283
 2529SOL    HW2 8487   5.026   3.915   5.200
 2530SOL     OW 8488   0.750   6.314   3.648
 2530SOL    HW1 8489   0.771   6.349   3.740
 2530SOL    HW2 8490   0.666   6.358   3.615
 2531SOL     OW 8491   5.110   1.480   6.997
 2531SOL    HW1 8492   5.181   1.473   6.928
 2531SOL    HW2 8493   5.097   1.391   0.015
 2532SOL     OW 8494   0.416   4.910   5.953
 2532SOL    HW1 8495   0.380   4.850   5.882
 2532SOL    HW2 8496   0.489   4.864   6.003
 2533SOL     OW 8497   5.778   0.043   5.488
 2533SOL    HW1 8498   5.702   0.067   5.549
 2533SOL    HW2 8499   5.864   0.052   5.537
 2534SOL     OW 8500   0.021   1.948   3.024
 2534SOL    HW1 8501   6.951   1.963   3.003
 2534SOL    HW2 8502   0.031   1.922   3.120
 2535SOL     OW 8503   2.331   1.486   3.239
 2535SOL    HW1 8504   2.379   1.522   3.158
 2535SOL    HW2 8505   2.278   1.559   3.281
 2536SOL     OW 8506   0.533   0.776   4.022
 2536SOL    HW1 8507   0.438   0.762   4.050
 2536SOL    HW2 8508   0.589   0.793   4.103
 2537SOL     OW 8509   3.759   6.151   1.880
 2537SOL    HW1 8510   3.692   6.079   1.895
 2537SOL    HW2 8511   3.841   6.112   1.837
 2538SOL     OW 8512   0.677   4.790   4.882
 2538SOL    HW1 8513   0.599   4.845   4.851
 2538SOL    HW2 8514   0.706   4.729   4.808
 2539SOL     OW 8515   2.127   0.605   5.263
 2539SOL    HW1 8516   2.142   0.553   5.347
 2539SOL    HW2 8517   2.204   0.668   5.248
 2540SOL     OW 8518   5.354   1.987   2.466
 2540SOL    HW1 8519   5.264   1.943   2.455
 2540SOL    HW2 8520   5.361   2.025   2.558
 2541SOL     OW 8521   0.473   1.247   5.976
 2541SOL    HW1 8522   0.476   1.319   6.045
 2541SOL    HW2 8523   0.547   1.182   5.992
 2542SOL     OW 8524   3.836   2.127   3.921
 2542SOL    HW1 8525   3.900   2.187   3.871
 2542SOL    HW2 8526   3.784   2.182   3.986
 2543SOL     OW 8527   6.685   1.679   4.592
 2543SOL    HW1 8528   6.629   1.598   4.606
 2543SOL    HW2 8529   6.729   1.705   4.678
 2544SOL     OW 8530   0.019   6.314   1.766
 2544SOL    HW1 8531   0.036   6.396   1.821
 2544SOL    HW2 8532   6.947   6.306   1.748
 2545SOL     OW 8533   6.583   1.864   0.349
 2545SOL    HW1 8534   6.633   1.949   0.330
 2545SOL    HW2 8535   6.594   1.840   0.446
 2546SOL     OW 8536   6.251   3.379   2.395
 2546SOL    HW1 8537   6.349   3.388   2.408
 2546SOL    HW2 8538   6.211   3.332   2.474
 2547SOL     OW 8539   5.716   3.982   1.182
 2547SOL    HW1 8540   5.717   4.071   1.226
 2547SOL    HW2 8541   5.623   3.944   1.184
 2548SOL     OW 8542   6.130   1.012   5.654
 2548SOL    HW1 8543   6.103   1.074   5.579
 2548SOL    HW2 8544   6.226   0.988   5.644
 2549SOL     OW 8545   2.786   5.056   1.011
 2549SOL    HW1 8546   2.813   5.081   0.918
 2549SOL    HW2 8547   2.693   5.087   1.028
 2550SOL     OW 8548   3.876   6.554   0.742
 2550SOL    HW1 8549   3.964   6.544   0.696
 2550SOL    HW2 8550   3.805   6.577   0.675
 2551SOL     OW 8551   3.710   4.759   1.383
 2551SOL    HW1 8552   3.637   4.762   1.451
 2551SOL    HW2 8553   3.695   4.830   1.314
 2552SOL     OW 8554   2.381   4.380   2.053
 2552SOL    HW1 8555   2.443   4.453   2.022
 2552SOL    HW2 8556   2.414   4.292   2.020
 2553SOL     OW 8557   4.838   1.326   0.023
 2553SOL    HW1 8558   4.884   1.360   0.104
 2553SOL    HW2 8559   4.860   1.229   0.009
 2554SOL     OW 8560   1.196   5.281   1.050
 2554SOL    HW1 8561   1.293   5.260   1.065
 2554SOL    HW2 8562   1.188   5.355   0.984
 2555SOL     OW 8563   6.901   6.845   5.239
 2555SOL    HW1 8564   6.841   6.775   5.278
 2555SOL    HW2 8565   6.882   6.854   5.141
 2556SOL     OW 8566   4.290   0.158   0.812
 2556SOL    HW1 8567   4.346   0.143   0.894
 2556SOL    HW2 8568   4.205   0.106   0.819
 2557SOL     OW 8569   3.068   0.945   6.830
 2557SOL    HW1 8570   3.020   0.974   6.747
 2557SOL    HW2 8571   3.082   0.846   6.828
 2558SOL     OW 8572   5.389   1.677   1.601
 2558SOL    HW1 8573   5.353   1.608   1.664
 2558SOL    HW2 8574   5.349   1.664   1.510
 2559SOL     OW 8575   0.378   5.134   2.708
 2559SOL    HW1 8576   0.471   5.114   2.677
 2559SOL    HW2 8577   0.367   5.232   2.721
 2560SOL     OW 8578   4.821   2.383   2.234
 2560SOL    HW1 8579   4.766   2.466   2.227
 2560SOL    HW2 8580   4.905   2.404   2.283
 2561SOL     OW 8581   2.832   0.143   4.311
 2561SOL    HW1 8582   2.775   0.213   4.269
 2561SOL    HW2 8583   2.792   0.116   4.399
 2562SOL     OW 8584   1.430   6.248   5.372
 2562SOL    HW1 8585   1.402   6.244   5.468
 2562SOL    HW2 8586   1.529   6.239   5.366
 2563SOL     OW 8587   3.445   2.987   6.676
 2563SOL    HW1 8588   3.542   3.009   6.688
 2563SOL    HW2 8589   3.432   2.889   6.685
 2564SOL     OW 8590   1.577   2.104   6.810
 2564SOL    HW1 8591   1.491   2.080   6.855
 2564SOL    HW2 8592   1.649   2.041   6.839
 2565SOL     OW 8593   0.617   0.689   0.727
 2565SOL    HW1 8594   0.541   0.695   0.792
 2565SOL    HW2 8595   0.583   0.708   0.635
 2566SOL     OW 8596   2.933   0.894   0.855
 2566SOL    HW1 8597   2.884   0.844   0.783
 2566SOL    HW2 8598   2.899   0.988   0.859
 2567SOL     OW 8599   1.712   0.852   6.398
 2567SOL    HW1 8600   1.686   0.826   6.305
 2567SOL    HW2 8601   1.729   0.769   6.452
 2568SOL     OW 8602   2.110   5.406   1.443
 2568SOL    HW1 8603   2.131   5.309   1.430
 2568SOL    HW2 8604   2.177   5.447   1.505
 2569SOL     OW 8605   1.632   6.733   6.975
 2569SOL    HW1 8606   1.706   6.726   0.016
 2569SOL    HW2 8607   1.600   6.827   6.970
 2570SOL     OW 8608   0.672   6.167   4.186
 2570SOL    HW1 8609   0.736   6.181   4.111
 2570SOL    HW2 8610   0.714   6.108   4.255
 2571SOL     OW 8611   3.134   3.768   3.126
 2571SOL    HW1 8612   3.119   3.863   3.152
 2571SOL    HW2 8613   3.165   3.716   3.205
 2572SOL     OW 8614   2.516   4.858   2.702
 2572SOL    HW1 8615   2.609   4.827   2.722
 2572SOL    HW2 8616   2.452   4.814   2.765
 2573SOL     OW 8617   6.618   1.231   3.238
 2573SOL    HW1 8618   6.668   1.162   3.291
 2573SOL    HW2 8619   6.668   1.317   3.241
 2574SOL     OW 8620   0.915   3.403   2.060
 2574SOL    HW1 8621   0.832   3.347   2.056
 2574SOL    HW2 8622   0.891   3.499   2.043
 2575SOL     OW 8623   4.778   3.321   5.778
 2575SOL    HW1 8624   4.745   3.302   5.870
 2575SOL    HW2 8625   4.833   3.244   5.746
 2576SOL     OW 8626   0.857   0.286   3.474
 2576SOL    HW1 8627   0.941   0.336   3.496
 2576SOL    HW2 8628   0.797   0.286   3.554
 2577SOL     OW 8629   1.780   4.922   1.721
 2577SOL    HW1 8630   1.699   4.903   1.776
 2577SOL    HW2 8631   1.758   4.994   1.655
 2578SOL     OW 8632   4.509   2.189   4.791
 2578SOL    HW1 8633   4.417   2.157   4.769
 2578SOL    HW2 8634   4.573   2.160   4.720
 2579SOL     OW 8635   0.137   1.175   6.528
 2579SOL    HW1 8636   0.052   1.221   6.555
 2579SOL    HW2 8637   0.209   1.244   6.515
 2580SOL     OW 8638   1.636   1.329   5.891
 2580SOL    HW1 8639   1.617   1.426   5.879
 2580SOL    HW2 8640   1.641   1.285   5.801
 2581SOL     OW 8641   6.408   6.379   4.875
 2581SOL    HW1 8642   6.334   6.379   4.808
 2581SOL    HW2 8643   6.372   6.401   4.966
 2582SOL     OW 8644   6.919   4.863   2.574
 2582SOL    HW1 8645   6.928   4.763   2.582
 2582SOL    HW2 8646   7.010   4.904   2.565
 2583SOL     OW 8647   2.322   1.087   6.294
 2583SOL    HW1 8648   2.413   1.048   6.281
 2583SOL    HW2 8649   2.293   1.074   6.388
 2584SOL     OW 8650   4.698   0.482   2.616
 2584SOL    HW1 8651   4.776   0.436   2.658
 2584SOL    HW2 8652   4.688   0.449   2.522
 2585SOL     OW 8653   3.885   1.264   2.081
 2585SOL    HW1 8654   3.801   1.287   2.129
 2585SOL    HW2 8655   3.918   1.344   2.031
 2586SOL     OW 8656   6.989   1.344   4.375
 2586SOL    HW1 8657   0.001   1.258   4.343
 2586SOL    HW2 8658   0.021   1.383   4.446
 2587SOL     OW 8659   6.624   5.672   2.564
 2587SOL    HW1 8660   6.637   5.610   2.640
 2587SOL    HW2 8661   6.643   5.625   2.478
 2588SOL     OW 8662   4.467   6.945   2.265
 2588SOL    HW1 8663   4.392   7.006   2.238
 2588SOL    HW2 8664   4.544   6.958   2.203
 2589SOL     OW 8665   4.838   6.188   1.226
 2589SOL    HW1 8666   4.820   6.273   1.178
 2589SOL    HW2 8667   4.847   6.114   1.160
 2590SOL     OW 8668   3.055   6.500   3.343
 2590SOL    HW1 8669   3.021   6.586   3.382
 2590SOL    HW2 8670   3.142   6.476   3.386
 2591SOL     OW 8671   6.309   0.394   1.218
 2591SOL    HW1 8672   6.270   0.399   1.310
 2591SOL    HW2 8673   6.289   0.479   1.169
 2592SOL     OW 8674   3.221   4.695   1.610
 2592SOL    HW1 8675   3.223   4.608   1.562
 2592SOL    HW2 8676   3.147   4.694   1.678
 2593SOL     OW 8677   3.656   6.838   2.919
 2593SOL    HW1 8678   3.588   6.792   2.977
 2593SOL    HW2 8679   3.679   6.779   2.842
 2594SOL     OW 8680   1.018   6.059   6.873
 2594SOL    HW1 8681   0.999   6.025   6.781
 2594SOL    HW2 8682   0.998   5.988   6.940
 2595SOL     OW 8683   6.682   2.332   4.355
 2595SOL    HW1 8684   6.776   2.328   4.389
 2595SOL    HW2 8685   6.673   2.409   4.291
 2596SOL     OW 8686   3.959   2.058   1.098
 2596SOL    HW1 8687   3.954   2.116   1.016
 2596SOL    HW2 8688   4.041   2.081   1.150
 2597SOL     OW 8689   2.114   2.487   6.694
 2597SOL    HW1 8690   2.154   2.475   6.603
 2597SOL    HW2 8691   2.064   2.404   6.719
 2598SOL     OW 8692   6.525   1.038   2.711
 2598SOL    HW1 8693   6.519   0.998   2.802
 2598SOL    HW2 8694   6.492   1.132   2.714
 2599SOL     OW 8695   4.790   5.564   6.678
 2599SOL    HW1 8696   4.798   5.582   6.776
 2599SOL    HW2 8697   4.695   5.544   6.655
 2600SOL     OW 8698   6.966   2.546   4.235
 2600SOL    HW1 8699   6.977   2.522   4.331
 2600SOL    HW2 8700   6.869   2.555   4.214
 2601SOL     OW 8701   3.890   3.756   4.888
 2601SOL    HW1 8702   3.792   3.756   4.868
 2601SOL    HW2 8703   3.941   3.751   4.803
 2602SOL     OW 8704   6.194   5.832   5.827
 2602SOL    HW1 8705   6.225   5.809   5.919
 2602SOL    HW2 8706   6.171   5.748   5.778
 2603SOL     OW 8707   1.704   2.267   6.631
 2603SOL    HW1 8708   1.674   2.328   6.557
 2603SOL    HW2 8709   1.630   2.254   6.696
 2604SOL     OW 8710   5.837   1.543   0.450
 2604SOL    HW1 8711   5.740   1.557   0.467
 2604SOL    HW2 8712   5.876   1.487   0.524
 2605SOL     OW 8713   5.677   3.389   4.121
 2605SOL    HW1 8714   5.598   3.367   4.064
 2605SOL    HW2 8715   5.656   3.369   4.217
 2606SOL     OW 8716   7.010   4.417   1.239
 2606SOL    HW1 8717   0.063   4.454   1.190
 2606SOL    HW2 8718   6.957   4.359   1.178
 2607SOL     OW 8719   1.039   1.762   4.245
 2607SOL    HW1 8720   1.075   1.854   4.260
 2607SOL    HW2 8721   1.046   1.709   4.330
 2608SOL     OW 8722   5.112   6.889   0.638
 2608SOL    HW1 8723   5.172   6.968   0.650
 2608SOL    HW2 8724   5.094   6.848   0.728
 2609SOL     OW 8725   0.540   3.077   3.541
 2609SOL    HW1 8726   0.592   3.015   3.483
 2609SOL    HW2 8727   0.599   3.115   3.612
 2610SOL     OW 8728   5.672   5.640   4.428
 2610SOL    HW1 8729   5.624   5.727   4.444
 2610SOL    HW2 8730   5.760   5.642   4.474
 2611SOL     OW 8731   2.987   5.675   2.096
 2611SOL    HW1 8732   3.028   5.727   2.171
 2611SOL    HW2 8733   3.014   5.579   2.105
 2612SOL     OW 8734   0.359   0.132   5.373
 2612SOL    HW1 8735   0.443   0.126   5.321
 2612SOL    HW2 8736   0.288   0.177   5.318
 2613SOL     OW 8737   3.351   0.961   0.582
 2613SOL    HW1 8738   3.367   1.058   0.598
 2613SOL    HW2 8739   3.290   0.949   0.504
 2614SOL     OW 8740   6.369   6.346   6.619
 2614SOL    HW1 8741   6.309   6.273   6.650
 2614SOL    HW2 8742   6.375   6.417   6.689
 2615SOL     OW 8743   5.763   4.464   1.742
 2615SOL    HW1 8744   5.767   4.372   1.781
 2615SOL    HW2 8745   5.676   4.476   1.695
 2616SOL     OW 8746   4.149   3.654   2.001
 2616SOL    HW1 8747   4.246   3.633   1.998
 2616SOL    HW2 8748   4.128   3.704   2.085
 2617SOL     OW 8749   3.061   0.198   1.190
 2617SOL    HW1 8750   3.055   0.252   1.106
 2617SOL    HW2 8751   2.987   0.132   1.192
 2618SOL     OW 8752   1.152   6.766   0.453
 2618SOL    HW1 8753   1.154   6.794   0.357
 2618SOL    HW2 8754   1.202   6.681   0.465
 2619SOL     OW 8755   5.899   1.766   1.257
 2619SOL    HW1 8756   5.827   1.821   1.300
 2619SOL    HW2 8757   5.951   1.718   1.327
 2620SOL     OW 8758   1.221   5.338   3.998
 2620SOL    HW1 8759   1.198   5.291   4.084
 2620SOL    HW2 8760   1.300   5.397   4.012
 2621SOL     OW 8761   0.391   4.987   3.587
 2621SOL    HW1 8762   0.366   4.902   3.633
 2621SOL    HW2 8763   0.326   5.058   3.611
 2622SOL     OW 8764   2.497   2.531   6.063
 2622SOL    HW1 8765   2.562   2.533   5.987
 2622SOL    HW2 8766   2.499   2.619   6.111
 2623SOL     OW 8767   3.059   0.394   6.462
 2623SOL    HW1 8768   3.140   0.435   6.503
 2623SOL    HW2 8769   3.031   0.314   6.516
 2624SOL     OW 8770   6.337   1.794   3.984
 2624SOL    HW1 8771   6.431   1.828   3.981
 2624SOL    HW2 8772   6.337   1.700   4.018
 2625SOL     OW 8773   4.126   6.724   5.568
 2625SOL    HW1 8774   4.116   6.768   5.657
 2625SOL    HW2 8775   4.141   6.793   5.498
 2626SOL     OW 8776   2.380   0.321   2.830
 2626SOL    HW1 8777   2.380   0.403   2.772
 2626SOL    HW2 8778   2.308   0.329   2.899
 2627SOL     OW 8779   0.397   1.346   4.625
 2627SOL    HW1 8780   0.445   1.306   4.703
 2627SOL    HW2 8781   0.438   1.433   4.601
 2628SOL     OW 8782   3.747   6.145   6.600
 2628SOL    HW1 8783   3.755   6.193   6.687
 2628SOL    HW2 8784   3.773   6.049   6.611
 2629SOL     OW 8785   3.125   3.839   1.172
 2629SOL    HW1 8786   3.042   3.891   1.192
 2629SOL    HW2 8787   3.120   3.750   1.218
 2630SOL     OW 8788   2.674   2.323   2.113
 2630SOL    HW1 8789   2.774   2.322   2.114
 2630SOL    HW2 8790   2.642   2.362   2.026
 2631SOL     OW 8791   4.102   6.159   4.625
 2631SOL    HW1 8792   4.070   6.118   4.710
 2631SOL    HW2 8793   4.109   6.089   4.555
 2632SOL     OW 8794   5.046   0.929   0.977
 2632SOL    HW1 8795   5.086   1.018   0.997
 2632SOL    HW2 8796   4.994   0.934   0.892
 2633SOL     OW 8797   6.579   2.999   6.684
 2633SOL    HW1 8798   6.526   2.950   6.754
 2633SOL    HW2 8799   6.516   3.048   6.624
 2634SOL     OW 8800   3.305   5.153   1.502
 2634SOL    HW1 8801   3.360   5.230   1.469
 2634SOL    HW2 8802   3.253   5.113   1.426
 2635SOL     OW 8803   6.124   4.710   3.281
 2635SOL    HW1 8804   6.221   4.699   3.260
 2635SOL    HW2 8805   6.069   4.672   3.207
 2636SOL     OW 8806   6.079   6.636   4.962
 2636SOL    HW1 8807   6.035   6.548   4.943
 2636SOL    HW2 8808   6.016   6.695   5.013
 2637SOL     OW 8809   5.384   6.581   2.323
 2637SOL    HW1 8810   5.321   6.594   2.400
 2637SOL    HW2 8811   5.355   6.502   2.270
 2638SOL     OW 8812   5.288   5.548   0.593
 2638SOL    HW1 8813   5.208   5.561   0.534
 2638SOL    HW2 8814   5.263   5.566   0.688
 2639SOL     OW 8815   6.808   6.520   6.240
 2639SOL    HW1 8816   6.716   6.501   6.206
 2639SOL    HW2 8817   6.809   6.516   6.340
 2640SOL     OW 8818   6.124   6.971   6.596
 2640SOL    HW1 8819   6.206   7.014   6.634
 2640SOL    HW2 8820   6.134   6.961   6.497
 2641SOL     OW 8821   6.288   5.154   0.367
 2641SOL    HW1 8822   6.215   5.201   0.417
 2641SOL    HW2 8823   6.360   5.221   0.344
 2642SOL     OW 8824   6.558   0.713   4.297
 2642SOL    HW1 8825   6.481   0.650   4.312
 2642SOL    HW2 8826   6.641   0.676   4.339
 2643SOL     OW 8827   1.826   0.504   2.044
 2643SOL    HW1 8828   1.737   0.496   2.001
 2643SOL    HW2 8829   1.896   0.517   1.973
 2644SOL     OW 8830   0.171   5.948   5.741
 2644SOL    HW1 8831   0.171   5.848   5.741
 2644SOL    HW2 8832   0.140   5.981   5.652
 2645SOL     OW 8833   6.286   5.784   6.091
 2645SOL    HW1 8834   6.364   5.845   6.102
 2645SOL    HW2 8835   6.244   5.765   6.180
 2646SOL     OW 8836   6.223   6.280   0.097
 2646SOL    HW1 8837   6.193   6.375   0.094
 2646SOL    HW2 8838   6.179   6.229   0.023
 2647SOL     OW 8839   3.260   3.174   0.537
 2647SOL    HW1 8840   3.349   3.189   0.580
 2647SOL    HW2 8841   3.260   3.085   0.491
 2648SOL     OW 8842   4.106   0.928   3.675
 2648SOL    HW1 8843   4.130   1.023   3.696
 2648SOL    HW2 8844   4.055   0.925   3.589
 2649SOL     OW 8845   3.645   2.945   5.121
 2649SOL    HW1 8846   3.655   3.026   5.063
 2649SOL    HW2 8847   3.554   2.907   5.110
 2650SOL     OW 8848   6.727   6.638   2.417
 2650SOL    HW1 8849   6.764   6.718   2.371
 2650SOL    HW2 8850   6.759   6.555   2.372
 2651SOL     OW 8851   0.186   0.192   3.231
 2651SOL    HW1 8852   0.094   0.198   3.270
 2651SOL    HW2 8853   0.251   0.237   3.291
 2652SOL     OW 8854   3.388   2.970   2.991
 2652SOL    HW1 8855   3.436   3.058   2.993
 2652SOL    HW2 8856   3.428   2.909   3.058
 2653SOL     OW 8857   6.491   5.336   0.298
 2653SOL    HW1 8858   6.513   5.371   0.389
 2653SOL    HW2 8859   6.575   5.301   0.254
 2654SOL     OW 8860   6.144   1.620   6.056
 2654SOL    HW1 8861   6.235   1.611   6.016
 2654SOL    HW2 8862   6.136   1.558   6.135
 2655SOL     OW 8863   4.653   5.696   4.738
 2655SOL    HW1 8864   4.718   5.639   4.689
 2655SOL    HW2 8865   4.614   5.764   4.676
 2656SOL     OW 8866   5.505   3.304   4.328
 2656SOL    HW1 8867   5.490   3.399   4.357
 2656SOL    HW2 8868   5.526   3.249   4.409
 2657SOL     OW 8869   3.445   2.578   6.007
 2657SOL    HW1 8870   3.434   2.594   6.105
 2657SOL    HW2 8871   3.366   2.526   5.973
 2658SOL     OW 8872   6.146   4.405   5.420
 2658SOL    HW1 8873   6.062   4.443   5.460
 2658SOL    HW2 8874   6.204   4.480   5.388
 2659SOL     OW 8875   6.537   1.815   2.979
 2659SOL    HW1 8876   6.496   1.846   2.894
 2659SOL    HW2 8877   6.508   1.721   2.998
 2660SOL     OW 8878   6.865   2.388   2.640
 2660SOL    HW1 8879   6.848   2.296   2.675
 2660SOL    HW2 8880   6.881   2.384   2.541
 2661SOL     OW 8881   3.507   6.386   2.287
 2661SOL    HW1 8882   3.469   6.474   2.257
 2661SOL    HW2 8883   3.534   6.393   2.383
 2662SOL     OW 8884   3.503   0.531   3.272
 2662SOL    HW1 8885   3.476   0.528   3.176
 2662SOL    HW2 8886   3.423   0.513   3.330
 2663SOL     OW 8887   0.801   4.241   3.032
 2663SOL    HW1 8888   0.878   4.210   2.976
 2663SOL    HW2 8889   0.723   4.181   3.015
 2664SOL     OW 8890   4.263   4.042   1.714
 2664SOL    HW1 8891   4.190   4.105   1.691
 2664SOL    HW2 8892   4.341   4.093   1.751
 2665SOL     OW 8893   4.697   0.614   4.755
 2665SOL    HW1 8894   4.665   0.671   4.830
 2665SOL    HW2 8895   4.749   0.670   4.690
 2666SOL     OW 8896   4.583   6.136   1.897
 2666SOL    HW1 8897   4.632   6.052   1.876
 2666SOL    HW2 8898   4.513   6.117   1.966
 2667SOL     OW 8899   1.456   5.115   3.778
 2667SOL    HW1 8900   1.502   5.156   3.856
 2667SOL    HW2 8901   1.368   5.161   3.764
 2668SOL     OW 8902   6.561   2.767   5.787
 2668SOL    HW1 8903   6.554   2.698   5.715
 2668SOL    HW2 8904   6.637   2.743   5.848
 2669SOL     OW 8905   3.966   5.412   5.631
 2669SOL    HW1 8906   3.992   5.508   5.635
 2669SOL    HW2 8907   4.047   5.355   5.640
 2670SOL     OW 8908   2.037   6.840   5.554
 2670SOL    HW1 8909   2.115   6.862   5.613
 2670SOL    HW2 8910   1.976   6.919   5.550
 2671SOL     OW 8911   3.515   4.391   6.091
 2671SOL    HW1 8912   3.490   4.324   6.021
 2671SOL    HW2 8913   3.567   4.465   6.049
 2672SOL     OW 8914   1.231   4.108   0.468
 2672SOL    HW1 8915   1.235   4.207   0.476
 2672SOL    HW2 8916   1.147   4.082   0.420
 2673SOL     OW 8917   4.372   2.347   3.702
 2673SOL    HW1 8918   4.314   2.427   3.684
 2673SOL    HW2 8919   4.432   2.331   3.623
 2674SOL     OW 8920   6.147   5.343   5.300
 2674SOL    HW1 8921   6.191   5.273   5.244
 2674SOL    HW2 8922   6.109   5.414   5.240
 2675SOL     OW 8923   0.630   4.316   5.121
 2675SOL    HW1 8924   0.575   4.284   5.043
 2675SOL    HW2 8925   0.569   4.335   5.198
 2676SOL     OW 8926   4.740   0.699   2.040
 2676SOL    HW1 8927   4.768   0.680   2.134
 2676SOL    HW2 8928   4.660   0.759   2.041
 2677SOL     OW 8929   2.738   4.686   2.752
 2677SOL    HW1 8930   2.737   4.732   2.841
 2677SOL    HW2 8931   2.667   4.616   2.751
 2678SOL     OW 8932   0.046   6.418   6.255
 2678SOL    HW1 8933   6.984   6.405   6.211
 2678SOL    HW2 8934   0.059   6.348   6.325
 2679SOL     OW 8935   3.196   5.020   1.292
 2679SOL    HW1 8936   3.249   4.936   1.305
 2679SOL    HW2 8937   3.108   5.012   1.339
 2680SOL     OW 8938   1.456   2.237   1.439
 2680SOL    HW1 8939   1.474   2.267   1.533
 2680SOL    HW2 8940   1.518   2.162   1.416
 2681SOL     OW 8941   1.939   1.652   3.012
 2681SOL    HW1 8942   1.937   1.734   3.069
 2681SOL    HW2 8943   2.017   1.658   2.949
 2682SOL     OW 8944   6.129   2.250   3.966
 2682SOL    HW1 8945   6.154   2.174   3.906
 2682SOL    HW2 8946   6.035   2.279   3.947
 2683SOL     OW 8947   1.958   0.194   1.789
 2683SOL    HW1 8948   1.879   0.139   1.816
 2683SOL    HW2 8949   1.967   0.273   1.849
 2684SOL     OW 8950   2.606   5.472   2.929
 2684SOL    HW1 8951   2.535   5.413   2.967
 2684SOL    HW2 8952   2.673   5.416   2.880
 2685SOL     OW 8953   5.701   5.956   5.318
 2685SOL    HW1 8954   5.762   5.958   5.397
 2685SOL    HW2 8955   5.751   5.920   5.239
 2686SOL     OW 8956   0.853   3.025   4.576
 2686SOL    HW1 8957   0.844   3.026   4.477
 2686SOL    HW2 8958   0.832   2.934   4.611
 2687SOL     OW 8959   4.772   4.939   3.259
 2687SOL    HW1 8960   4.834   4.947   3.337
 2687SOL    HW2 8961   4.821   4.963   3.175
 2688SOL     OW 8962   4.167   5.006   5.708
 2688SOL    HW1 8963   4.079   4.994   5.662
 2688SOL    HW2 8964   4.196   5.102   5.699
 2689SOL     OW 8965   0.296   2.929   3.804
 2689SOL    HW1 8966   0.202   2.945   3.834
 2689SOL    HW2 8967   0.354   3.004   3.836
 2690SOL     OW 8968   3.478   2.968   3.267
 2690SOL    HW1 8969   3.442   3.061   3.266
 2690SOL    HW2 8970   3.487   2.936   3.361
 2691SOL     OW 8971   1.305   5.690   1.808
 2691SOL    HW1 8972   1.299   5.691   1.907
 2691SOL    HW2 8973   1.333   5.781   1.775
 2692SOL     OW 8974   0.154   5.454   3.012
 2692SOL    HW1 8975   0.212   5.531   3.037
 2692SOL    HW2 8976   0.206   5.369   3.023
 2693SOL     OW 8977   1.767   3.289   2.989
 2693SOL    HW1 8978   1.809   3.305   2.899
 2693SOL    HW2 8979   1.814   3.214   3.034
 2694SOL     OW 8980   2.552   1.135   3.265
 2694SOL    HW1 8981   2.585   1.173   3.179
 2694SOL    HW2 8982   2.452   1.142   3.269
 2695SOL     OW 8983   4.049   2.103   2.979
 2695SOL    HW1 8984   3.957   2.142   2.981
 2695SOL    HW2 8985   4.060   2.042   3.058
 2696SOL     OW 8986   4.006   3.904   5.314
 2696SOL    HW1 8987   3.969   3.852   5.391
 2696SOL    HW2 8988   3.940   3.903   5.239
 2697SOL     OW 8989   2.618   1.831   4.142
 2697SOL    HW1 8990   2.625   1.907   4.206
 2697SOL    HW2 8991   2.643   1.862   4.051
 2698SOL     OW 8992   2.338   3.452   6.684
 2698SOL    HW1 8993   2.369   3.383   6.750
 2698SOL    HW2 8994   2.312   3.408   6.599
 2699SOL     OW 8995   2.643   5.729   2.857
 2699SOL    HW1 8996   2.700   5.738   2.776
 2699SOL    HW2 8997   2.649   5.635   2.891
 2700SOL     OW 8998   1.465   4.301   3.143
 2700SOL    HW1 8999   1.499   4.343   3.059
 2700SOL    HW2 9000   1.514   4.215   3.159
 2701SOL     OW 9001   3.799   0.177   5.836
 2701SOL    HW1 9002   3.898   0.165   5.850
 2701SOL    HW2 9003   3.775   0.273   5.844
 2702SOL     OW 9004   0.030   6.565   2.895
 2702SOL    HW1 9005   0.035   6.492   2.962
 2702SOL    HW2 9006   0.120   6.609   2.886
 2703SOL     OW 9007   1.635   1.735   3.623
 2703SOL    HW1 9008   1.595   1.826   3.609
 2703SOL    HW2 9009   1.564   1.666   3.621
 2704SOL     OW 9010   1.494   6.395   0.499
 2704SOL    HW1 9011   1.551   6.393   0.582
 2704SOL    HW2 9012   1.439   6.479   0.499
 2705SOL     OW 9013   0.103   4.408   2.370
 2705SOL    HW1 9014   0.180   4.470   2.356
 2705SOL    HW2 9015   0.137   4.316   2.388
 2706SOL     OW 9016   6.590   2.435   1.990
 2706SOL    HW1 9017   6.588   2.344   2.030
 2706SOL    HW2 9018   6.509   2.448   1.932
 2707SOL     OW 9019   2.392   1.337   6.062
 2707SOL    HW1 9020   2.321   1.397   6.098
 2707SOL    HW2 9021   2.420   1.272   6.133
 2708SOL     OW 9022   2.074   3.969   0.761
 2708SOL    HW1 9023   2.123   4.021   0.830
 2708SOL    HW2 9024   2.066   4.024   0.678
 2709SOL     OW 9025   4.209   6.914   1.408
 2709SOL    HW1 9026   4.288   6.864   1.443
 2709SOL    HW2 9027   4.125   6.880   1.452
 2710SOL     OW 9028   6.144   4.321   2.165
 2710SOL    HW1 9029   6.206   4.397   2.185
 2710SOL    HW2 9030   6.107   4.331   2.073
 2711SOL     OW 9031   1.173   6.495   1.925
 2711SOL    HW1 9032   1.090   6.440   1.922
 2711SOL    HW2 9033   1.189   6.536   1.836
 2712SOL     OW 9034   3.216   5.166   2.608
 2712SOL    HW1 9035   3.269   5.117   2.678
 2712SOL    HW2 9036   3.120   5.139   2.614
 2713SOL     OW 9037   2.297   2.303   4.770
 2713SOL    HW1 9038   2.204   2.273   4.751
 2713SOL    HW2 9039   2.360   2.227   4.759
 2714SOL     OW 9040   5.592   7.006   5.676
 2714SOL    HW1 9041   5.509   6.957   5.650
 2714SOL    HW2 9042   5.593   7.019   5.776
 2715SOL     OW 9043   6.540   0.256   0.581
 2715SOL    HW1 9044   6.487   0.224   0.503
 2715SOL    HW2 9045   6.620   0.198   0.594
 2716SOL     OW 9046   0.020   6.587   2.623
 2716SOL    HW1 9047   0.045   6.676   2.583
 2716SOL    HW2 9048   0.035   6.591   2.722
 2717SOL     OW 9049   1.169   0.481   3.043
 2717SOL    HW1 9050   1.216   0.563   3.075
 2717SOL    HW2 9051   1.235   0.406   3.032
 2718SOL     OW 9052   1.007   4.657   3.214
 2718SOL    HW1 9053   1.029   4.713   3.134
 2718SOL    HW2 9054   0.995   4.562   3.186
 2719SOL     OW 9055   4.213   4.853   3.062
 2719SOL    HW1 9056   4.207   4.821   3.156
 2719SOL    HW2 9057   4.125   4.894   3.035
 2720SOL     OW 9058   0.308   5.976   3.851
 2720SOL    HW1 9059   0.381   6.040   3.873
 2720SOL    HW2 9060   0.300   5.969   3.751
 2721SOL     OW 9061   4.965   6.564   4.891
 2721SOL    HW1 9062   4.946   6.480   4.942
 2721SOL    HW2 9063   4.922   6.559   4.801
 2722SOL     OW 9064   1.221   5.724   1.374
 2722SOL    HW1 9065   1.130   5.711   1.334
 2722SOL    HW2 9066   1.291   5.695   1.309
 2723SOL     OW 9067   1.596   1.417   4.989
 2723SOL    HW1 9068   1.577   1.455   5.079
 2723SOL    HW2 9069   1.691   1.435   4.963
 2724SOL     OW 9070   3.546   6.281   6.461
 2724SOL    HW1 9071   3.634   6.237   6.475
 2724SOL    HW2 9072   3.511   6.315   6.549
 2725SOL     OW 9073   2.828   4.899   3.691
 2725SOL    HW1 9074   2.850   4.852   3.776
 2725SOL    HW2 9075   2.740   4.944   3.699
 2726SOL     OW 9076   4.846   6.315   2.258
 2726SOL    HW1 9077   4.910   6.246   2.225
 2726SOL    HW2 9078   4.895   6.402   2.272
 2727SOL     OW 9079   1.918   5.491   2.991
 2727SOL    HW1 9080   2.004   5.440   2.983
 2727SOL    HW2 9081   1.869   5.460   3.073
 2728SOL     OW 9082   3.525   6.614   5.301
 2728SOL    HW1 9083   3.485   6.533   5.342
 2728SOL    HW2 9084   3.517   6.691   5.364
 2729SOL     OW 9085   6.585   5.063   2.459
 2729SOL    HW1 9086   6.606   5.045   2.555
 2729SOL    HW2 9087   6.670   5.070   2.407
 2730SOL     OW 9088   1.451   4.502   1.390
 2730SOL    HW1 9089   1.547   4.518   1.413
 2730SOL    HW2 9090   1.402   4.589   1.392
 2731SOL     OW 9091   2.678   3.811   1.214
 2731SOL    HW1 9092   2.709   3.761   1.132
 2731SOL    HW2 9093   2.726   3.898   1.220
 2732SOL     OW 9094   5.035   2.952   4.150
 2732SOL    HW1 9095   5.061   2.965   4.245
 2732SOL    HW2 9096   4.951   3.003   4.131
 2733SOL     OW 9097   2.194   0.580   5.745
 2733SOL    HW1 9098   2.289   0.557   5.726
 2733SOL    HW2 9099   2.160   0.645   5.677
 2734SOL     OW 9100   2.075   0.029   3.772
 2734SOL    HW1 9101   2.154   7.001   3.745
 2734SOL    HW2 9102   2.011   6.998   3.823
 2735SOL     OW 9103   1.997   4.922   1.269
 2735SOL    HW1 9104   2.036   4.870   1.344
 2735SOL    HW2 9105   2.070   4.952   1.207
 2736SOL     OW 9106   3.504   6.738   6.645
 2736SOL    HW1 9107   3.464   6.723   6.735
 2736SOL    HW2 9108   3.600   6.710   6.645
 2737SOL     OW 9109   4.278   3.522   5.380
 2737SOL    HW1 9110   4.252   3.604   5.429
 2737SOL    HW2 9111   4.376   3.505   5.393
 2738SOL     OW 9112   5.760   4.223   4.329
 2738SOL    HW1 9113   5.833   4.264   4.384
 2738SOL    HW2 9114   5.796   4.200   4.239
 2739SOL     OW 9115   5.453   3.515   0.723
 2739SOL    HW1 9116   5.489   3.600   0.762
 2739SOL    HW2 9117   5.377   3.482   0.778
 2740SOL     OW 9118   6.185   2.520   2.864
 2740SOL    HW1 9119   6.144   2.585   2.928
 2740SOL    HW2 9120   6.245   2.569   2.801
 2741SOL     OW 9121   1.307   2.635   4.965
 2741SOL    HW1 9122   1.281   2.563   4.900
 2741SOL    HW2 9123   1.263   2.617   5.053
 2742SOL     OW 9124   2.945   6.587   5.458
 2742SOL    HW1 9125   2.966   6.533   5.539
 2742SOL    HW2 9126   2.923   6.680   5.485
 2743SOL     OW 9127   6.199   4.453   0.509
 2743SOL    HW1 9128   6.158   4.448   0.418
 2743SOL    HW2 9129   6.130   4.481   0.575
 2744SOL     OW 9130   4.131   0.346   7.017
 2744SOL    HW1 9131   4.219   0.391   7.002
 2744SOL    HW2 9132   4.145   0.257   0.033
 2745SOL     OW 9133   2.010   5.621   1.299
 2745SOL    HW1 9134   2.037   5.537   1.347
 2745SOL    HW2 9135   2.079   5.691   1.315
 2746SOL     OW 9136   1.145   2.291   6.780
 2746SOL    HW1 9137   1.160   2.377   6.732
 2746SOL    HW2 9138   1.165   2.214   6.719
 2747SOL     OW 9139   5.354   5.878   3.864
 2747SOL    HW1 9140   5.371   5.976   3.850
 2747SOL    HW2 9141   5.263   5.865   3.902
 2748SOL     OW 9142   4.158   0.891   4.589
 2748SOL    HW1 9143   4.140   0.860   4.495
 2748SOL    HW2 9144   4.240   0.947   4.590
 2749SOL     OW 9145   5.003   4.121   3.949
 2749SOL    HW1 9146   4.908   4.151   3.946
 2749SOL    HW2 9147   5.021   4.075   4.036
 2750SOL     OW 9148   0.222   6.371   1.122
 2750SOL    HW1 9149   0.264   6.461   1.130
 2750SOL    HW2 9150   0.275   6.304   1.174
 2751SOL     OW 9151   1.858   0.065   0.159
 2751SOL    HW1 9152   1.763   0.062   0.128
 2751SOL    HW2 9153   1.881   7.004   0.202
 2752SOL     OW 9154   6.541   6.305   5.521
 2752SOL    HW1 9155   6.516   6.354   5.437
 2752SOL    HW2 9156   6.637   6.278   5.516
 2753SOL     OW 9157   2.992   5.108   5.322
 2753SOL    HW1 9158   2.979   5.011   5.344
 2753SOL    HW2 9159   3.090   5.125   5.310
 2754SOL     OW 9160   0.734   5.982   4.369
 2754SOL    HW1 9161   0.750   5.892   4.328
 2754SOL    HW2 9162   0.661   5.975   4.436
 2755SOL     OW 9163   3.858   6.065   2.252
 2755SOL    HW1 9164   3.761   6.075   2.231
 2755SOL    HW2 9165   3.889   5.975   2.222
 2756SOL     OW 9166   0.159   3.084   5.495
 2756SOL    HW1 9167   0.150   3.183   5.494
 2756SOL    HW2 9168   0.103   3.044   5.423
 2757SOL     OW 9169   4.444   3.784   6.826
 2757SOL    HW1 9170   4.433   3.859   6.891
 2757SOL    HW2 9171   4.540   3.776   6.799
 2758SOL     OW 9172   0.184   6.911   2.075
 2758SOL    HW1 9173   0.227   6.821   2.080
 2758SOL    HW2 9174   0.196   6.959   2.162
 2759SOL     OW 9175   3.423   3.256   5.376
 2759SOL    HW1 9176   3.508   3.308   5.384
 2759SOL    HW2 9177   3.443   3.159   5.387
 2760SOL     OW 9178   6.012   5.702   2.344
 2760SOL    HW1 9179   6.007   5.780   2.282
 2760SOL    HW2 9180   6.108   5.683   2.366
 2761SOL     OW 9181   1.406   3.122   3.110
 2761SOL    HW1 9182   1.336   3.051   3.109
 2761SOL    HW2 9183   1.495   3.080   3.123
 2762SOL     OW 9184   3.450   1.601   0.786
 2762SOL    HW1 9185   3.376   1.534   0.784
 2762SOL    HW2 9186   3.440   1.659   0.867
 2763SOL     OW 9187   6.043   1.669   3.827
 2763SOL    HW1 9188   5.976   1.731   3.786
 2763SOL    HW2 9189   5.998   1.613   3.896
 2764SOL     OW 9190   0.236   3.042   2.795
 2764SOL    HW1 9191   0.163   3.110   2.795
 2764SOL    HW2 9192   0.322   3.085   2.768
 2765SOL     OW 9193   5.880   6.537   5.936
 2765SOL    HW1 9194   5.906   6.484   5.855
 2765SOL    HW2 9195   5.950   6.605   5.956
 2766SOL     OW 9196   4.513   0.052   0.025
 2766SOL    HW1 9197   4.480   0.139   0.061
 2766SOL    HW2 9198   4.612   0.045   0.040
 2767SOL     OW 9199   0.804   5.320   6.539
 2767SOL    HW1 9200   0.803   5.246   6.471
 2767SOL    HW2 9201   0.723   5.376   6.529
 2768SOL     OW 9202   3.857   6.885   1.053
 2768SOL    HW1 9203   3.845   6.984   1.058
 2768SOL    HW2 9204   3.923   6.856   1.122
 2769SOL     OW 9205   1.088   4.874   5.706
 2769SOL    HW1 9206   1.053   4.890   5.614
 2769SOL    HW2 9207   1.015   4.891   5.772
 2770SOL     OW 9208   2.045   7.002   0.914
 2770SOL    HW1 9209   2.042   0.072   0.889
 2770SOL    HW2 9210   2.092   6.950   0.842
 2771SOL     OW 9211   4.341   0.119   5.265
 2771SOL    HW1 9212   4.345   0.045   5.198
 2771SOL    HW2 9213   4.309   0.203   5.220
 2772SOL     OW 9214   4.786   1.460   3.754
 2772SOL    HW1 9215   4.721   1.388   3.779
 2772SOL    HW2 9216   4.873   1.418   3.726
 2773SOL     OW 9217   6.377   2.776   5.017
 2773SOL    HW1 9218   6.323   2.726   4.950
 2773SOL    HW2 9219   6.357   2.742   5.109
 2774SOL     OW 9220   6.060   1.252   3.956
 2774SOL    HW1 9221   6.025   1.176   3.901
 2774SOL    HW2 9222   6.105   1.216   4.037
 2775SOL     OW 9223   6.981   3.364   4.309
 2775SOL    HW1 9224   0.053   3.360   4.294
 2775SOL    HW2 9225   6.959   3.443   4.366
 2776SOL     OW 9226   4.685   4.327   6.117
 2776SOL    HW1 9227   4.772   4.316   6.067
 2776SOL    HW2 9228   4.704   4.362   6.209
 2777SOL     OW 9229   2.218   2.156   6.608
 2777SOL    HW1 9230   2.218   2.154   6.508
 2777SOL    HW2 9231   2.125   2.175   6.640
 2778SOL     OW 9232   2.741   0.671   6.162
 2778SOL    HW1 9233   2.778   0.647   6.252
 2778SOL    HW2 9234   2.815   0.668   6.094
 2779SOL     OW 9235   5.085   1.164   1.726
 2779SOL    HW1 9236   5.002   1.132   1.681
 2779SOL    HW2 9237   5.061   1.238   1.789
 2780SOL     OW 9238   6.671   1.033   4.885
 2780SOL    HW1 9239   6.691   0.942   4.848
 2780SOL    HW2 9240   6.698   1.037   4.981
 2781SOL     OW 9241   6.303   0.957   3.142
 2781SOL    HW1 9242   6.335   0.994   3.055
 2781SOL    HW2 9243   6.210   0.991   3.160
 2782SOL     OW 9244   5.570   1.095   6.028
 2782SOL    HW1 9245   5.641   1.115   6.095
 2782SOL    HW2 9246   5.566   0.996   6.013
 2783SOL     OW 9247   5.983   3.287   1.679
 2783SOL    HW1 9248   5.898   3.324   1.716
 2783SOL    HW2 9249   5.991   3.190   1.704
 2784SOL     OW 9250   0.850   3.134   1.167
 2784SOL    HW1 9251   0.797   3.207   1.124
 2784SOL    HW2 9252   0.920   3.174   1.227
 2785SOL     OW 9253   5.642   3.585   2.771
 2785SOL    HW1 9254   5.546   3.582   2.743
 2785SOL    HW2 9255   5.682   3.493   2.764
 2786SOL     OW 9256   1.241   6.505   0.507
 2786SOL    HW1 9257   1.171   6.474   0.442
 2786SOL    HW2 9258   1.276   6.427   0.558
 2787SOL     OW 9259   0.530   5.717   6.634
 2787SOL    HW1 9260   0.491   5.794   6.685
 2787SOL    HW2 9261   0.619   5.743   6.596
 2788SOL     OW 9262   2.598   6.877   6.871
 2788SOL    HW1 9263   2.584   6.799   6.810
 2788SOL    HW2 9264   2.653   6.946   6.825
 2789SOL     OW 9265   1.601   2.050   4.504
 2789SOL    HW1 9266   1.661   1.992   4.557
 2789SOL    HW2 9267   1.543   2.104   4.565
 2790SOL     OW 9268   0.212   5.907   1.698
 2790SOL    HW1 9269   0.140   5.860   1.648
 2790SOL    HW2 9270   0.275   5.951   1.633
 2791SOL     OW 9271   1.051   3.311   4.428
 2791SOL    HW1 9272   1.140   3.266   4.430
 2791SOL    HW2 9273   1.029   3.344   4.519
 2792SOL     OW 9274   3.214   1.294   6.095
 2792SOL    HW1 9275   3.197   1.198   6.072
 2792SOL    HW2 9276   3.169   1.353   6.027
 2793SOL     OW 9277   3.666   3.892   0.172
 2793SOL    HW1 9278   3.591   3.840   0.132
 2793SOL    HW2 9279   3.634   3.983   0.199
 2794SOL     OW 9280   2.012   2.288   7.014
 2794SOL    HW1 9281   2.043   2.219   0.053
 2794SOL    HW2 9282   1.920   2.319   0.013
 2795SOL     OW 9283   1.427   6.423   1.129
 2795SOL    HW1 9284   1.512   6.381   1.160
 2795SOL    HW2 9285   1.397   6.491   1.196
 2796SOL     OW 9286   1.795   6.056   6.821
 2796SOL    HW1 9287   1.700   6.060   6.851
 2796SOL    HW2 9288   1.799   6.033   6.724
 2797SOL     OW 9289   4.735   4.152   3.923
 2797SOL    HW1 9290   4.729   4.101   4.008
 2797SOL    HW2 9291   4.701   4.245   3.937
 2798SOL     OW 9292   5.402   1.447   1.861
 2798SOL    HW1 9293   5.500   1.469   1.860
 2798SOL    HW2 9294   5.383   1.384   1.937
 2799SOL     OW 9295   3.284   6.398   4.725
 2799SOL    HW1 9296   3.299   6.323   4.790
 2799SOL    HW2 9297   3.362   6.459   4.727
 2800SOL     OW 9298   4.661   0.740   6.172
 2800SOL    HW1 9299   4.739   0.691   6.213
 2800SOL    HW2 9300   4.578   0.716   6.222
 2801SOL     OW 9301   0.011   4.692   3.716
 2801SOL    HW1 9302   6.954   4.727   3.760
 2801SOL    HW2 9303   7.017   4.669   3.621
 2802SOL     OW 9304   1.476   5.090   4.869
 2802SOL    HW1 9305   1.480   5.098   4.770
 2802SOL    HW2 9306   1.539   5.018   4.899
 2803SOL     OW 9307   3.210   2.680   6.888
 2803SOL    HW1 9308   3.124   2.711   6.929
 2803SOL    HW2 9309   3.203   2.582   6.869
 2804SOL     OW 9310   6.610   2.635   3.475
 2804SOL    HW1 9311   6.622   2.570   3.399
 2804SOL    HW2 9312   6.529   2.691   3.458
 2805SOL     OW 9313   4.147   4.865   0.553
 2805SOL    HW1 9314   4.096   4.935   0.503
 2805SOL    HW2 9315   4.084   4.795   0.587
 2806SOL     OW 9316   0.220   3.252   5.279
 2806SOL    HW1 9317   0.281   3.179   5.249
 2806SOL    HW2 9318   0.275   3.328   5.314
 2807SOL     OW 9319   4.312   0.935   4.059
 2807SOL    HW1 9320   4.336   0.842   4.088
 2807SOL    HW2 9321   4.215   0.938   4.035
 2808SOL     OW 9322   1.220   5.748   6.029
 2808SOL    HW1 9323   1.291   5.809   5.994
 2808SOL    HW2 9324   1.158   5.723   5.955
 2809SOL     OW 9325   0.475   6.366   1.985
 2809SOL    HW1 9326   0.450   6.382   1.889
 2809SOL    HW2 9327   0.569   6.334   1.990
 2810SOL     OW 9328   1.208   6.190   2.879
 2810SOL    HW1 9329   1.296   6.203   2.925
 2810SOL    HW2 9330   1.152   6.272   2.892
 2811SOL     OW 9331   1.044   1.236   0.707
 2811SOL    HW1 9332   0.963   1.206   0.657
 2811SOL    HW2 9333   1.113   1.164   0.706
 2812SOL     OW 9334   1.328   1.517   0.551
 2812SOL    HW1 9335   1.392   1.586   0.586
 2812SOL    HW2 9336   1.354   1.492   0.458
 2813SOL     OW 9337   0.702   3.339   1.045
 2813SOL    HW1 9338   0.734   3.358   0.952
 2813SOL    HW2 9339   0.664   3.422   1.085
 2814SOL     OW 9340   2.504   4.295   6.957
 2814SOL    HW1 9341   2.538   4.207   6.990
 2814SOL    HW2 9342   2.579   4.362   6.956
 2815SOL     OW 9343   6.992   5.621   4.620
 2815SOL    HW1 9344   0.048   5.672   4.595
 2815SOL    HW2 9345   7.005   5.524   4.598
 2816SOL     OW 9346   0.961   5.183   4.898
 2816SOL    HW1 9347   0.939   5.144   4.808
 2816SOL    HW2 9348   0.878   5.223   4.938
 2817SOL     OW 9349   2.839   1.058   2.418
 2817SOL    HW1 9350   2.889   1.017   2.342
 2817SOL    HW2 9351   2.891   1.046   2.503
 2818SOL     OW 9352   1.370   0.430   0.136
 2818SOL    HW1 9353   1.381   0.463   0.230
 2818SOL    HW2 9354   1.272   0.421   0.116
 2819SOL     OW 9355   0.750   0.456   6.544
 2819SOL    HW1 9356   0.696   0.373   6.558
 2819SOL    HW2 9357   0.691   0.536   6.555
 2820SOL     OW 9358   1.763   1.892   6.843
 2820SOL    HW1 9359   1.739   1.814   6.899
 2820SOL    HW2 9360   1.852   1.928   6.873
 2821SOL     OW 9361   3.190   3.015   6.394
 2821SOL    HW1 9362   3.151   3.052   6.310
 2821SOL    HW2 9363   3.217   3.091   6.454
 2822SOL     OW 9364   4.321   2.973   0.666
 2822SOL    HW1 9365   4.411   3.009   0.641
 2822SOL    HW2 9366   4.249   3.033   0.629
 2823SOL     OW 9367   4.952   3.684   1.719
 2823SOL    HW1 9368   5.020   3.742   1.674
 2823SOL    HW2 9369   4.875   3.740   1.751
 2824SOL     OW 9370   0.785   4.801   5.383
 2824SOL    HW1 9371   0.776   4.790   5.284
 2824SOL    HW2 9372   0.695   4.800   5.425
 2825SOL     OW 9373   5.171   1.655   5.655
 2825SOL    HW1 9374   5.094   1.650   5.591
 2825SOL    HW2 9375   5.139   1.635   5.748
 2826SOL     OW 9376   3.104   3.068   0.206
 2826SOL    HW1 9377   3.091   2.969   0.196
 2826SOL    HW2 9378   3.015   3.113   0.216
 2827SOL     OW 9379   5.803   1.921   6.687
 2827SOL    HW1 9380   5.804   2.021   6.684
 2827SOL    HW2 9381   5.708   1.888   6.681
 2828SOL     OW 9382   1.632   4.167   0.721
 2828SOL    HW1 9383   1.613   4.265   0.727
 2828SOL    HW2 9384   1.720   4.147   0.763
 2829SOL     OW 9385   3.572   3.575   1.899
 2829SOL    HW1 9386   3.670   3.582   1.917
 2829SOL    HW2 9387   3.534   3.498   1.950
 2830SOL     OW 9388   3.496   5.866   4.701
 2830SOL    HW1 9389   3.419   5.924   4.673
 2830SOL    HW2 9390   3.461   5.778   4.733
 2831SOL     OW 9391   0.008   1.665   1.858
 2831SOL    HW1 9392   0.082   1.621   1.909
 2831SOL    HW2 9393   6.961   1.600   1.841
 2832SOL     OW 9394   0.809   3.393   2.340
 2832SOL    HW1 9395   0.779   3.339   2.262
 2832SOL    HW2 9396   0.768   3.484   2.336
 2833SOL     OW 9397   6.913   2.581   2.263
 2833SOL    HW1 9398   7.005   2.587   2.223
 2833SOL    HW2 9399   6.910   2.635   2.347
 2834SOL     OW 9400   3.607   6.988   4.144
 2834SOL    HW1 9401   3.671   6.917   4.115
 2834SOL    HW2 9402   3.636   7.024   4.233
 2835SOL     OW 9403   6.736   0.961   6.794
 2835SOL    HW1 9404   6.809   0.908   6.837
 2835SOL    HW2 9405   6.777   1.034   6.738
 2836SOL     OW 9406   3.017   5.333   2.939
 2836SOL    HW1 9407   3.056   5.384   2.863
 2836SOL    HW2 9408   2.999   5.395   3.016
 2837SOL     OW 9409   5.243   4.255   1.998
 2837SOL    HW1 9410   5.203   4.308   2.072
 2837SOL    HW2 9411   5.185   4.177   1.976
 2838SOL     OW 9412   6.629   4.039   6.155
 2838SOL    HW1 9413   6.577   4.102   6.097
 2838SOL    HW2 9414   6.677   3.974   6.098
 2839SOL     OW 9415   5.813   2.709   5.752
 2839SOL    HW1 9416   5.770   2.638   5.696
 2839SOL    HW2 9417   5.900   2.674   5.788
 2840SOL     OW 9418   5.925   6.598   4.427
 2840SOL    HW1 9419   5.865   6.613   4.506
 2840SOL    HW2 9420   5.918   6.503   4.397
 2841SOL     OW 9421   5.216   4.125   2.372
 2841SOL    HW1 9422   5.297   4.180   2.353
 2841SOL    HW2 9423   5.206   4.054   2.302
 2842SOL     OW 9424   0.656   6.819   3.832
 2842SOL    HW1 9425   0.567   6.850   3.796
 2842SOL    HW2 9426   0.681   6.733   3.788
 2843SOL     OW 9427   2.387   2.627   3.905
 2843SOL    HW1 9428   2.381   2.527   3.903
 2843SOL    HW2 9429   2.447   2.655   3.979
 2844SOL     OW 9430   5.357   3.345   1.134
 2844SOL    HW1 9431   5.419   3.390   1.199
 2844SOL    HW2 9432   5.360   3.246   1.149
 2845SOL     OW 9433   3.169   2.025   1.602
 2845SOL    HW1 9434   3.224   2.074   1.669
 2845SOL    HW2 9435   3.094   2.084   1.571
 2846SOL     OW 9436   5.721   0.040   6.677
 2846SOL    HW1 9437   5.792   7.008   6.716
 2846SOL    HW2 9438   5.760   0.127   6.648
 2847SOL     OW 9439   4.872   5.007   0.909
 2847SOL    HW1 9440   4.821   4.939   0.961
 2847SOL    HW2 9441   4.864   5.096   0.953
 2848SOL     OW 9442   0.803   4.448   5.963
 2848SOL    HW1 9443   0.809   4.542   5.997
 2848SOL    HW2 9444   0.821   4.384   6.038
 2849SOL     OW 9445   4.855   1.015   1.615
 2849SOL    HW1 9446   4.883   0.926   1.649
 2849SOL    HW2 9447   4.921   1.046   1.546
 2850SOL     OW 9448   1.121   0.625   1.998
 2850SOL    HW1 9449   1.041   0.617   2.057
 2850SOL    HW2 9450   1.109   0.702   1.936
 2851SOL     OW 9451   3.283   2.879   1.556
 2851SOL    HW1 9452   3.206   2.915   1.503
 2851SOL    HW2 9453   3.296   2.934   1.638
 2852SOL     OW 9454   0.175   5.658   5.291
 2852SOL    HW1 9455   0.155   5.629   5.384
 2852SOL    HW2 9456   0.114   5.733   5.265
 2853SOL     OW 9457   0.190   4.749   5.377
 2853SOL    HW1 9458   0.281   4.719   5.348
 2853SOL    HW2 9459   0.137   4.670   5.410
 2854SOL     OW 9460   2.677   0.605   5.797
 2854SOL    HW1 9461   2.770   0.642   5.790
 2854SOL    HW2 9462   2.622   0.664   5.856
 2855SOL     OW 9463   2.284   1.320   4.706
 2855SOL    HW1 9464   2.222   1.284   4.635
 2855SOL    HW2 9465   2.239   1.396   4.754
 2856SOL     OW 9466   0.342   5.473   4.461
 2856SOL    HW1 9467   0.247   5.504   4.468
 2856SOL    HW2 9468   0.390   5.493   4.547
 2857SOL     OW 9469   6.657   4.069   1.284
 2857SOL    HW1 9470   6.686   4.014   1.362
 2857SOL    HW2 9471   6.682   4.165   1.299
 2858SOL     OW 9472   5.477   4.063   3.158
 2858SOL    HW1 9473   5.426   4.013   3.228
 2858SOL    HW2 9474   5.413   4.111   3.098
 2859SOL     OW 9475   6.034   4.984   1.718
 2859SOL    HW1 9476   6.079   5.073   1.706
 2859SOL    HW2 9477   6.064   4.922   1.645
 2860SOL     OW 9478   1.321   0.105   3.344
 2860SOL    HW1 9479   1.239   0.161   3.331
 2860SOL    HW2 9480   1.360   0.084   3.254
 2861SOL     OW 9481   5.022   4.465   6.058
 2861SOL    HW1 9482   4.998   4.474   6.155
 2861SOL    HW2 9483   5.113   4.424   6.050
 2862SOL     OW 9484   4.681   1.288   0.463
 2862SOL    HW1 9485   4.652   1.349   0.389
 2862SOL    HW2 9486   4.768   1.245   0.440
 2863SOL     OW 9487   5.927   2.405   5.544
 2863SOL    HW1 9488   5.874   2.402   5.459
 2863SOL    HW2 9489   6.005   2.467   5.533
 2864SOL     OW 9490   4.081   4.256   1.050
 2864SOL    HW1 9491   4.102   4.271   0.954
 2864SOL    HW2 9492   4.072   4.345   1.096
 2865SOL     OW 9493   5.575   5.145   5.522
 2865SOL    HW1 9494   5.653   5.206   5.533
 2865SOL    HW2 9495   5.493   5.188   5.560
 2866SOL     OW 9496   3.964   4.691   0.667
 2866SOL    HW1 9497   3.936   4.675   0.572
 2866SOL    HW2 9498   3.920   4.623   0.726
 2867SOL     OW 9499   6.190   6.359   2.940
 2867SOL    HW1 9500   6.260   6.386   3.007
 2867SOL    HW2 9501   6.204   6.411   2.855
 2868SOL     OW 9502   0.420   0.194   5.636
 2868SOL    HW1 9503   0.402   0.170   5.541
 2868SOL    HW2 9504   0.419   0.111   5.692
 2869SOL     OW 9505   6.070   4.595   4.371
 2869SOL    HW1 9506   6.113   4.579   4.460
 2869SOL    HW2 9507   6.141   4.609   4.302
 2870SOL     OW 9508   0.877   0.936   1.880
 2870SOL    HW1 9509   0.950   0.950   1.948
 2870SOL    HW2 9510   0.849   0.840   1.881
 2871SOL     OW 9511   4.717   1.224   3.158
 2871SOL    HW1 9512   4.732   1.228   3.256
 2871SOL    HW2 9513   4.766   1.146   3.120
 2872SOL     OW 9514   2.802   1.959   2.575
 2872SOL    HW1 9515   2.839   2.029   2.635
 2872SOL    HW2 9516   2.710   1.983   2.547
 2873SOL     OW 9517   1.655   0.302   1.868
 2873SOL    HW1 9518   1.576   0.291   1.928
 2873SOL    HW2 9519   1.625   0.306   1.773
 2874SOL     OW 9520   2.173   0.923   3.582
 2874SOL    HW1 9521   2.265   0.955   3.561
 2874SOL    HW2 9522   2.118   0.999   3.616
 2875SOL     OW 9523   2.462   0.238   3.239
 2875SOL    HW1 9524   2.558   0.239   3.267
 2875SOL    HW2 9525   2.408   0.296   3.301
 2876SOL     OW 9526   1.315   6.133   1.162
 2876SOL    HW1 9527   1.233   6.182   1.193
 2876SOL    HW2 9528   1.385   6.199   1.135
 2877SOL     OW 9529   2.041   2.583   5.172
 2877SOL    HW1 9530   2.117   2.644   5.152
 2877SOL    HW2 9531   2.073   2.505   5.225
 2878SOL     OW 9532   4.026   3.133   4.521
 2878SOL    HW1 9533   4.079   3.213   4.492
 2878SOL    HW2 9534   4.088   3.062   4.554
 2879SOL     OW 9535   5.369   5.039   6.808
 2879SOL    HW1 9536   5.457   5.059   6.764
 2879SOL    HW2 9537   5.372   5.069   6.904
 2880SOL     OW 9538   1.863   1.772   3.779
 2880SOL    HW1 9539   1.873   1.763   3.878
 2880SOL    HW2 9540   1.768   1.752   3.753
 2881SOL     OW 9541   5.481   5.162   1.028
 2881SOL    HW1 9542   5.547   5.223   0.984
 2881SOL    HW2 9543   5.512   5.067   1.021
 2882SOL     OW 9544   4.494   6.148   0.100
 2882SOL    HW1 9545   4.573   6.170   0.042
 2882SOL    HW2 9546   4.483   6.049   0.105
 2883SOL     OW 9547   5.383   6.671   3.718
 2883SOL    HW1 9548   5.362   6.733   3.643
 2883SOL    HW2 9549   5.426   6.723   3.792
 2884SOL     OW 9550   6.412   5.602   3.635
 2884SOL    HW1 9551   6.395   5.686   3.687
 2884SOL    HW2 9552   6.387   5.523   3.690
 2885SOL     OW 9553   0.902   2.989   3.639
 2885SOL    HW1 9554   0.952   2.998   3.553
 2885SOL    HW2 9555   0.908   2.894   3.671
 2886SOL     OW 9556   2.074   4.499   5.429
 2886SOL    HW1 9557   2.027   4.488   5.517
 2886SOL    HW2 9558   2.094   4.408   5.391
 2887SOL     OW 9559   6.762   5.912   2.686
 2887SOL    HW1 9560   6.732   5.842   2.622
 2887SOL    HW2 9561   6.839   5.963   2.647
 2888SOL     OW 9562   5.206   6.910   6.727
 2888SOL    HW1 9563   5.150   6.828   6.730
 2888SOL    HW2 9564   5.247   6.919   6.635
 2889SOL     OW 9565   4.004   6.473   4.338
 2889SOL    HW1 9566   3.921   6.436   4.379
 2889SOL    HW2 9567   4.079   6.407   4.347
 2890SOL     OW 9568   1.258   2.641   0.645
 2890SOL    HW1 9569   1.174   2.693   0.655
 2890SOL    HW2 9570   1.263   2.571   0.716
 2891SOL     OW 9571   0.754   1.999   5.350
 2891SOL    HW1 9572   0.799   2.088   5.349
 2891SOL    HW2 9573   0.753   1.960   5.258
 2892SOL     OW 9574   5.316   4.509   1.920
 2892SOL    HW1 9575   5.290   4.413   1.928
 2892SOL    HW2 9576   5.276   4.548   1.837
 2893SOL     OW 9577   6.887   5.469   5.175
 2893SOL    HW1 9578   6.864   5.459   5.272
 2893SOL    HW2 9579   6.840   5.399   5.122
 2894SOL     OW 9580   1.917   5.272   1.178
 2894SOL    HW1 9581   1.985   5.204   1.152
 2894SOL    HW2 9582   1.946   5.318   1.262
 2895SOL     OW 9583   4.403   6.950   5.703
 2895SOL    HW1 9584   4.351   6.922   5.784
 2895SOL    HW2 9585   4.496   6.976   5.730
 2896SOL     OW 9586   6.147   0.465   5.115
 2896SOL    HW1 9587   6.165   0.376   5.074
 2896SOL    HW2 9588   6.090   0.453   5.197
 2897SOL     OW 9589   3.363   5.010   3.171
 2897SOL    HW1 9590   3.333   4.983   3.262
 2897SOL    HW2 9591   3.285   5.041   3.117
 2898SOL     OW 9592   5.156   1.992   3.294
 2898SOL    HW1 9593   5.212   1.970   3.214
 2898SOL    HW2 9594   5.186   2.079   3.333
 2899SOL     OW 9595   6.783   3.182   0.678
 2899SOL    HW1 9596   6.809   3.137   0.592
 2899SOL    HW2 9597   6.845   3.258   0.695
 2900SOL     OW 9598   2.502   2.301   6.235
 2900SOL    HW1 9599   2.551   2.222   6.200
 2900SOL    HW2 9600   2.504   2.374   6.167
 2901SOL     OW 9601   0.933   4.024   2.472
 2901SOL    HW1 9602   0.932   3.935   2.426
 2901SOL    HW2 9603   0.954   4.012   2.569
 2902SOL     OW 9604   5.941   5.334   3.481
 2902SOL    HW1 9605   5.972   5.394   3.555
 2902SOL    HW2 9606   6.018   5.311   3.422
 2903SOL     OW 9607   6.573   4.441   0.286
 2903SOL    HW1 9608   6.507   4.374   0.319
 2903SOL    HW2 9609   6.525   4.511   0.232
 2904SOL     OW 9610   2.765   4.722   4.521
 2904SOL    HW1 9611   2.864   4.710   4.513
 2904SOL    HW2 9612   2.739   4.810   4.481
 2905SOL     OW 9613   1.698   5.253   1.338
 2905SOL    HW1 9614   1.696   5.168   1.391
 2905SOL    HW2 9615   1.753   5.239   1.256
 2906SOL     OW 9616   6.437   6.335   5.779
 2906SOL    HW1 9617   6.464   6.356   5.685
 2906SOL    HW2 9618   6.381   6.252   5.779
 2907SOL     OW 9619   0.464   1.216   5.359
 2907SOL    HW1 9620   0.447   1.160   5.277
 2907SOL    HW2 9621   0.543   1.180   5.408
 2908SOL     OW 9622   4.091   0.181   3.486
 2908SOL    HW1 9623   4.139   0.228   3.412
 2908SOL    HW2 9624   4.151   0.175   3.566
 2909SOL     OW 9625   0.078   0.215   1.520
 2909SOL    HW1 9626   0.024   0.242   1.600
 2909SOL    HW2 9627   0.086   0.293   1.458
 2910SOL     OW 9628   0.864   1.072   4.328
 2910SOL    HW1 9629   0.933   1.144   4.339
 2910SOL    HW2 9630   0.776   1.104   4.364
 2911SOL     OW 9631   0.534   4.359   5.955
 2911SOL    HW1 9632   0.621   4.408   5.945
 2911SOL    HW2 9633   0.550   4.274   6.007
 2912SOL     OW 9634   0.932   1.377   2.237
 2912SOL    HW1 9635   0.953   1.350   2.143
 2912SOL    HW2 9636   0.876   1.459   2.236
 2913SOL     OW 9637   1.257   6.913   2.951
 2913SOL    HW1 9638   1.280   6.856   3.030
 2913SOL    HW2 9639   1.332   6.909   2.884
 2914SOL     OW 9640   4.042   4.784   1.318
 2914SOL    HW1 9641   3.963   4.743   1.364
 2914SOL    HW2 9642   4.069   4.867   1.367
 2915SOL     OW 9643   2.741   0.512   4.116
 2915SOL    HW1 9644   2.677   0.444   4.080
 2915SOL    HW2 9645   2.745   0.590   4.053
 2916SOL     OW 9646   1.038   5.404   0.230
 2916SOL    HW1 9647   0.996   5.340   0.294
 2916SOL    HW2 9648   0.971   5.433   0.162
 2917SOL     OW 9649   2.629   0.216   2.732
 2917SOL    HW1 9650   2.666   0.142   2.788
 2917SOL    HW2 9651   2.547   0.253   2.776
 2918SOL     OW 9652   5.213   2.808   1.452
 2918SOL    HW1 9653   5.157   2.855   1.384
 2918SOL    HW2 9654   5.306   2.796   1.417
 2919SOL     OW 9655   0.112   6.340   5.006
 2919SOL    HW1 9656   0.053   6.312   4.930
 2919SOL    HW2 9657   0.185   6.274   5.018
 2920SOL     OW 9658   2.918   2.199   1.612
 2920SOL    HW1 9659   2.961   2.289   1.614
 2920SOL    HW2 9660   2.870   2.183   1.698
 2921SOL     OW 9661   0.954   6.166   3.517
 2921SOL    HW1 9662   0.919   6.093   3.458
 2921SOL    HW2 9663   0.879   6.208   3.567
 2922SOL     OW 9664   3.647   4.990   3.715
 2922SOL    HW1 9665   3.741   4.956   3.706
 2922SOL    HW2 9666   3.645   5.087   3.692
 2923SOL     OW 9667   0.706   5.346   4.670
 2923SOL    HW1 9668   0.785   5.405   4.686
 2923SOL    HW2 9669   0.663   5.322   4.757
 2924SOL     OW 9670   5.225   1.972   6.277
 2924SOL    HW1 9671   5.217   1.950   6.180
 2924SOL    HW2 9672   5.148   1.932   6.326
 2925SOL     OW 9673   5.448   6.698   5.004
 2925SOL    HW1 9674   5.531   6.748   4.981
 2925SOL    HW2 9675   5.429   6.707   5.101
 2926SOL     OW 9676   6.677   2.373   4.617
 2926SOL    HW1 9677   6.674   2.366   4.517
 2926SOL    HW2 9678   6.684   2.469   4.643
 2927SOL     OW 9679   1.265   2.110   2.310
 2927SOL    HW1 9680   1.257   2.175   2.234
 2927SOL    HW2 9681   1.359   2.078   2.317
 2928SOL     OW 9682   5.859   2.851   6.863
 2928SOL    HW1 9683   5.854   2.758   6.827
 2928SOL    HW2 9684   5.893   2.913   6.792
 2929SOL     OW 9685   2.357   1.999   3.916
 2929SOL    HW1 9686   2.346   1.916   3.971
 2929SOL    HW2 9687   2.367   1.974   3.820
 2930SOL     OW 9688   0.088   3.512   4.095
 2930SOL    HW1 9689   0.033   3.588   4.128
 2930SOL    HW2 9690   0.035   3.456   4.032
 2931SOL     OW 9691   5.688   4.729   5.536
 2931SOL    HW1 9692   5.625   4.781   5.480
 2931SOL    HW2 9693   5.638   4.663   5.591
 2932SOL     OW 9694   6.329   4.920   1.228
 2932SOL    HW1 9695   6.410   4.952   1.180
 2932SOL    HW2 9696   6.267   4.997   1.243
 2933SOL     OW 9697   1.383   6.894   0.374
 2933SOL    HW1 9698   1.340   6.939   0.452
 2933SOL    HW2 9699   1.336   6.921   0.290
 2934SOL     OW 9700   4.762   4.981   2.015
 2934SOL    HW1 9701   4.795   5.028   1.933
 2934SOL    HW2 9702   4.840   4.941   2.064
 2935SOL     OW 9703   0.653   2.751   5.888
 2935SOL    HW1 9704   0.661   2.815   5.811
 2935SOL    HW2 9705   0.744   2.736   5.927
 2936SOL     OW 9706   4.823   6.908   2.355
 2936SOL    HW1 9707   4.812   6.931   2.452
 2936SOL    HW2 9708   4.876   6.824   2.347
 2937SOL     OW 9709   5.946   3.526   3.137
 2937SOL    HW1 9710   5.915   3.607   3.088
 2937SOL    HW2 9711   6.044   3.513   3.122
 2938SOL     OW 9712   0.502   5.039   6.975
 2938SOL    HW1 9713   0.501   5.128   7.020
 2938SOL    HW2 9714   0.428   4.982   7.014
 2939SOL     OW 9715   6.798   6.105   1.467
 2939SOL    HW1 9716   6.728   6.106   1.396
 2939SOL    HW2 9717   6.800   6.015   1.512
 2940SOL     OW 9718   4.609   6.390   3.969
 2940SOL    HW1 9719   4.632   6.331   3.892
 2940SOL    HW2 9720   4.511   6.384   3.988
 2941SOL     OW 9721   2.357   4.777   2.933
 2941SOL    HW1 9722   2.290   4.846   2.959
 2941SOL    HW2 9723   2.381   4.721   3.012
 2942SOL     OW 9724   3.615   2.102   1.755
 2942SOL    HW1 9725   3.645   2.189   1.792
 2942SOL    HW2 9726   3.676   2.074   1.681
 2943SOL     OW 9727   5.995   3.355   3.575
 2943SOL    HW1 9728   5.963   3.260   3.573
 2943SOL    HW2 9729   6.048   3.371   3.658
 2944SOL     OW 9730   1.591   5.791   2.520
 2944SOL    HW1 9731   1.526   5.745   2.581
 2944SOL    HW2 9732   1.559   5.883   2.500
 2945SOL     OW 9733   5.522   3.576   1.596
 2945SOL    HW1 9734   5.583   3.648   1.629
 2945SOL    HW2 9735   5.498   3.515   1.671
 2946SOL     OW 9736   3.526   2.903   4.290
 2946SOL    HW1 9737   3.592   2.885   4.363
 2946SOL    HW2 9738   3.538   2.995   4.255
 2947SOL     OW 9739   6.500   5.004   0.591
 2947SOL    HW1 9740   6.489   4.962   0.681
 2947SOL    HW2 9741   6.419   4.988   0.536
 2948SOL     OW 9742   0.224   3.721   1.738
 2948SOL    HW1 9743   0.278   3.792   1.782
 2948SOL    HW2 9744   0.267   3.632   1.753
 2949SOL     OW 9745   1.624   6.369   0.752
 2949SOL    HW1 9746   1.684   6.418   0.815
 2949SOL    HW2 9747   1.671   6.287   0.719
 2950SOL     OW 9748   6.299   5.708   2.376
 2950SOL    HW1 9749   6.315   5.773   2.450
 2950SOL    HW2 9750   6.311   5.753   2.288
 2951SOL     OW 9751   1.025   2.054   1.285
 2951SOL    HW1 9752   1.020   1.955   1.300
 2951SOL    HW2 9753   0.970   2.101   1.354
 2952SOL     OW 9754   0.239   2.201   4.750
 2952SOL    HW1 9755   0.149   2.158   4.756
 2952SOL    HW2 9756   0.265   2.209   4.653
 2953SOL     OW 9757   1.732   5.381   3.167
 2953SOL    HW1 9758   1.675   5.320   3.112
 2953SOL    HW2 9759   1.697   5.475   3.158
 2954SOL     OW 9760   0.628   4.441   6.247
 2954SOL    HW1 9761   0.647   4.518   6.187
 2954SOL    HW2 9762   0.568   4.470   6.321
 2955SOL     OW 9763   1.531   4.770   6.203
 2955SOL    HW1 9764   1.523   4.684   6.252
 2955SOL    HW2 9765   1.440   4.807   6.184
 2956SOL     OW 9766   5.512   4.261   4.442
 2956SOL    HW1 9767   5.528   4.287   4.537
 2956SOL    HW2 9768   5.596   4.227   4.401
 2957SOL     OW 9769   2.415   5.527   1.933
 2957SOL    HW1 9770   2.512   5.504   1.929
 2957SOL    HW2 9771   2.365   5.474   1.865
 2958SOL     OW 9772   1.513   4.038   2.081
 2958SOL    HW1 9773   1.414   4.030   2.067
 2958SOL    HW2 9774   1.533   4.118   2.137
 2959SOL     OW 9775   0.373   3.570   3.995
 2959SOL    HW1 9776   0.275   3.556   4.014
 2959SOL    HW2 9777   0.427   3.530   4.069
 2960SOL     OW 9778   4.752   6.140   0.942
 2960SOL    HW1 9779   4.672   6.182   0.985
 2960SOL    HW2 9780   4.762   6.046   0.975
 2961SOL     OW 9781   5.500   2.467   1.678
 2961SOL    HW1 9782   5.459   2.480   1.769
 2961SOL    HW2 9783   5.567   2.539   1.661
 2962SOL     OW 9784   0.211   0.274   3.600
 2962SOL    HW1 9785   0.231   0.343   3.669
 2962SOL    HW2 9786   0.288   0.211   3.592
 2963SOL     OW 9787   1.389   0.412   5.117
 2963SOL    HW1 9788   1.365   0.457   5.203
 2963SOL    HW2 9789   1.477   0.447   5.084
 2964SOL     OW 9790   1.752   0.603   6.514
 2964SOL    HW1 9791   1.693   0.556   6.580
 2964SOL    HW2 9792   1.846   0.604   6.549
 2965SOL     OW 9793   5.672   0.287   6.099
 2965SOL    HW1 9794   5.655   0.309   6.003
 2965SOL    HW2 9795   5.745   0.220   6.106
 2966SOL     OW 9796   3.502   5.005   2.644
 2966SOL    HW1 9797   3.572   4.963   2.586
 2966SOL    HW2 9798   3.432   4.937   2.667
 2967SOL     OW 9799   5.900   6.791   5.156
 2967SOL    HW1 9800   5.831   6.741   5.208
 2967SOL    HW2 9801   5.914   6.881   5.196
 2968SOL     OW 9802   0.967   3.781   0.966
 2968SOL    HW1 9803   1.060   3.777   1.003
 2968SOL    HW2 9804   0.940   3.690   0.934
 2969SOL     OW 9805   4.454   2.467   4.722
 2969SOL    HW1 9806   4.533   2.430   4.771
 2969SOL    HW2 9807   4.371   2.420   4.754
 2970SOL     OW 9808   2.919   2.571   5.993
 2970SOL    HW1 9809   2.842   2.600   6.051
 2970SOL    HW2 9810   2.924   2.631   5.913
 2971SOL     OW 9811   5.031   3.354   6.872
 2971SOL    HW1 9812   5.102   3.388   6.933
 2971SOL    HW2 9813   4.975   3.286   6.921
 2972SOL     OW 9814   0.093   5.698   6.255
 2972SOL    HW1 9815   0.188   5.707   6.225
 2972SOL    HW2 9816   0.051   5.789   6.262
 2973SOL     OW 9817   5.753   0.976   4.444
 2973SOL    HW1 9818   5.830   1.029   4.407
 2973SOL    HW2 9819   5.768   0.958   4.541
 2974SOL     OW 9820   5.103   6.401   2.434
 2974SOL    HW1 9821   5.074   6.495   2.419
 2974SOL    HW2 9822   5.156   6.396   2.519
 2975SOL     OW 9823   6.608   3.714   4.724
 2975SOL    HW1 9824   6.649   3.801   4.696
 2975SOL    HW2 9825   6.591   3.715   4.822
 2976SOL     OW 9826   3.596   0.994   1.459
 2976SOL    HW1 9827   3.585   1.013   1.556
 2976SOL    HW2 9828   3.530   1.049   1.407
 2977SOL     OW 9829   1.236   0.855   1.822
 2977SOL    HW1 9830   1.334   0.862   1.801
 2977SOL    HW2 9831   1.184   0.918   1.763
 2978SOL     OW 9832   3.141   5.399   6.850
 2978SOL    HW1 9833   3.239   5.388   6.831
 2978SOL    HW2 9834   3.092   5.317   6.820
 2979SOL     OW 9835   2.949   1.215   5.183
 2979SOL    HW1 9836   2.969   1.313   5.179
 2979SOL    HW2 9837   3.006   1.168   5.116
 2980SOL     OW 9838   3.519   3.406   4.147
 2980SOL    HW1 9839   3.509   3.429   4.051
 2980SOL    HW2 9840   3.434   3.429   4.196
 2981SOL     OW 9841   2.901   1.622   1.283
 2981SOL    HW1 9842   2.862   1.564   1.355
 2981SOL    HW2 9843   2.952   1.697   1.325
 2982SOL     OW 9844   1.885   0.892   1.244
 2982SOL    HW1 9845   1.892   0.972   1.304
 2982SOL    HW2 9846   1.830   0.916   1.164
 2983SOL     OW 9847   6.517   3.560   5.939
 2983SOL    HW1 9848   6.453   3.637   5.933
 2983SOL    HW2 9849   6.588   3.583   6.006
 2984SOL     OW 9850   0.342   6.522   1.371
 2984SOL    HW1 9851   0.265   6.552   1.428
 2984SOL    HW2 9852   0.352   6.423   1.378
 2985SOL     OW 9853   6.203   0.460   6.480
 2985SOL    HW1 9854   6.200   0.560   6.476
 2985SOL    HW2 9855   6.171   0.422   6.394
 2986SOL     OW 9856   3.680   3.147   1.885
 2986SOL    HW1 9857   3.747   3.218   1.865
 2986SOL    HW2 9858   3.648   3.106   1.799
 2987SOL     OW 9859   2.171   5.673   4.547
 2987SOL    HW1 9860   2.167   5.719   4.459
 2987SOL    HW2 9861   2.128   5.583   4.540
 2988SOL     OW 9862   6.593   2.032   6.021
 2988SOL    HW1 9863   6.677   2.000   6.065
 2988SOL    HW2 9864   6.519   1.967   6.039
 2989SOL     OW 9865   5.786   3.639   4.714
 2989SOL    HW1 9866   5.855   3.641   4.787
 2989SOL    HW2 9867   5.774   3.731   4.678
 2990SOL     OW 9868   5.692   1.938   5.752
 2990SOL    HW1 9869   5.777   1.959   5.703
 2990SOL    HW2 9870   5.633   2.019   5.753
 2991SOL     OW 9871   0.106   3.301   0.097
 2991SOL    HW1 9872   0.132   3.205   0.108
 2991SOL    HW2 9873   0.011   3.313   0.126
 2992SOL     OW 9874   0.959   4.050   4.889
 2992SOL    HW1 9875   0.863   4.022   4.892
 2992SOL    HW2 9876   1.005   4.006   4.813
 2993SOL     OW 9877   3.424   5.138   1.133
 2993SOL    HW1 9878   3.388   5.129   1.040
 2993SOL    HW2 9879   3.353   5.111   1.198
 2994SOL     OW 9880   3.111   5.314   4.678
 2994SOL    HW1 9881   3.016   5.344   4.675
 2994SOL    HW2 9882   3.114   5.218   4.707
 2995SOL     OW 9883   4.397   0.801   1.840
 2995SOL    HW1 9884   4.430   0.885   1.797
 2995SOL    HW2 9885   4.356   0.742   1.771
 2996SOL     OW 9886   6.761   1.195   4.090
 2996SOL    HW1 9887   6.786   1.100   4.106
 2996SOL    HW2 9888   6.785   1.250   4.170
 2997SOL     OW 9889   4.902   6.055   4.126
 2997SOL    HW1 9890   4.951   6.143   4.127
 2997SOL    HW2 9891   4.805   6.071   4.143
 2998SOL     OW 9892   2.441   1.022   1.581
 2998SOL    HW1 9893   2.442   0.954   1.508
 2998SOL    HW2 9894   2.359   1.078   1.573
 2999SOL     OW 9895   2.210   4.551   0.897
 2999SOL    HW1 9896   2.273   4.483   0.860
 2999SOL    HW2 9897   2.209   4.544   0.997
 3000SOL     OW 9898   2.106   3.992   5.200
 3000SOL    HW1 9899   2.104   4.085   5.235
 3000SOL    HW2 9900   2.187   3.979   5.143
 3001SOL     OW 9901   3.994   0.721   6.314
 3001SOL    HW1 9902   4.032   0.650   6.256
 3001SOL    HW2 9903   4.014   0.700   6.410
 3002SOL     OW 9904   1.442   2.028   2.012
 3002SOL    HW1 9905   1.472   2.015   2.106
 3002SOL    HW2 9906   1.344   2.008   2.005
 3003SOL     OW 9907   1.543   5.995   1.336
 3003SOL    HW1 9908   1.586   6.005   1.246
 3003SOL    HW2 9909   1.588   5.920   1.386
 3004SOL     OW 9910   2.830   6.659   3.864
 3004SOL    HW1 9911   2.760   6.589   3.850
 3004SOL    HW2 9912   2.900   6.650   3.792
 3005SOL     OW 9913   2.743   1.846   0.713
 3005SOL    HW1 9914   2.771   1.930   0.760
 3005SOL    HW2 9915   2.678   1.796   0.771
 3006SOL     OW 9916   5.418   1.691   6.061
 3006SOL    HW1 9917   5.508   1.658   6.089
 3006SOL    HW2 9918   5.348   1.657   6.125
 3007SOL     OW 9919   5.955   5.224   5.991
 3007SOL    HW1 9920   6.010   5.183   6.064
 3007SOL    HW2 9921   5.984   5.319   5.978
 3008SOL     OW 9922   4.784   4.107   5.526
 3008SOL    HW1 9923   4.809   4.026   5.580
 3008SOL    HW2 9924   4.841   4.184   5.556
 3009SOL     OW 9925   5.577   3.157   2.073
 3009SOL    HW1 9926   5.545   3.234   2.018
 3009SOL    HW2 9927   5.660   3.184   2.123
 3010SOL     OW 9928   4.883   5.142   1.833
 3010SOL    HW1 9929   4.887   5.207   1.908
 3010SOL    HW2 9930   4.883   5.191   1.746
 3011SOL     OW 9931   6.015   0.225   0.468
 3011SOL    HW1 9932   6.089   0.293   0.469
 3011SOL    HW2 9933   6.037   0.152   0.532
 3012SOL     OW 9934   2.122   1.776   4.764
 3012SOL    HW1 9935   2.115   1.854   4.703
 3012SOL    HW2 9936   2.116   1.807   4.859
 3013SOL     OW 9937   0.799   5.037   5.724
 3013SOL    HW1 9938   0.758   4.946   5.721
 3013SOL    HW2 9939   0.803   5.068   5.819
 3014SOL     OW 9940   4.313   0.189   6.561
 3014SOL    HW1 9941   4.372   0.265   6.586
 3014SOL    HW2 9942   4.276   0.205   6.469
 3015SOL     OW 9943   2.413   0.444   5.997
 3015SOL    HW1 9944   2.452   0.352   6.005
 3015SOL    HW2 9945   2.314   0.440   6.009
 3016SOL     OW 9946   2.505   0.648   4.242
 3016SOL    HW1 9947   2.506   0.689   4.333
 3016SOL    HW2 9948   2.546   0.711   4.176
 3017SOL     OW 9949   1.525   5.886   0.766
 3017SOL    HW1 9950   1.514   5.972   0.716
 3017SOL    HW2 9951   1.455   5.880   0.837
 3018SOL     OW 9952   3.268   1.883   1.993
 3018SOL    HW1 9953   3.349   1.921   1.949
 3018SOL    HW2 9954   3.201   1.956   2.009
 3019SOL     OW 9955   1.637   6.932   5.798
 3019SOL    HW1 9956   1.605   6.951   5.891
 3019SOL    HW2 9957   1.735   6.949   5.792
 3020SOL     OW 9958   4.919   4.569   6.788
 3020SOL    HW1 9959   4.895   4.532   6.878
 3020SOL    HW2 9960   4.894   4.666   6.785
 3021SOL     OW 9961   5.016   0.167   4.557
 3021SOL    HW1 9962   4.952   0.147   4.631
 3021SOL    HW2 9963   5.085   0.094   4.551
 3022SOL     OW 9964   4.151   6.658   4.218
 3022SOL    HW1 9965   4.093   6.711   4.156
 3022SOL    HW2 9966   4.095   6.591   4.266
 3023SOL     OW 9967   5.748   4.314   5.004
 3023SOL    HW1 9968   5.731   4.225   4.961
 3023SOL    HW2 9969   5.676   4.378   4.976
 3024SOL     OW 9970   0.333   0.828   0.158
 3024SOL    HW1 9971   0.348   0.732   0.133
 3024SOL    HW2 9972   0.239   0.840   0.188
 3025SOL     OW 9973   4.088   4.943   0.996
 3025SOL    HW1 9974   4.144   4.876   0.947
 3025SOL    HW2 9975   3.999   4.952   0.951
 3026SOL     OW 9976   0.642   0.573   2.308
 3026SOL    HW1 9977   0.739   0.569   2.330
 3026SOL    HW2 9978   0.618   0.665   2.277
 3027SOL     OW 9979   4.294   0.126   0.526
 3027SOL    HW1 9980   4.258   0.033   0.527
 3027SOL    HW2 9981   4.317   0.153   0.619
 3028SOL     OW 9982   3.860   3.561   4.452
 3028SOL    HW1 9983   3.781   3.498   4.447
 3028SOL    HW2 9984   3.886   3.589   4.359
 3029SOL     OW 9985   6.874   3.265   5.046
 3029SOL    HW1 9986   6.825   3.334   5.100
 3029SOL    HW2 9987   6.820   3.240   4.966
 3030SOL     OW 9988   1.469   2.803   6.492
 3030SOL    HW1 9989   1.410   2.851   6.557
 3030SOL    HW2 9990   1.552   2.772   6.538
 3031SOL     OW 9991   0.689   5.644   1.128
 3031SOL    HW1 9992   0.727   5.553   1.114
 3031SOL    HW2 9993   0.716   5.704   1.052
 3032SOL     OW 9994   2.150   6.818   3.421
 3032SOL    HW1 9995   2.155   6.784   3.515
 3032SOL    HW2 9996   2.149   6.918   3.422
 3033SOL     OW 9997   1.543   1.547   6.285
 3033SOL    HW1 9998   1.491   1.596   6.356
 3033SOL    HW2 9999   1.641   1.552   6.305
 3034SOL     OW10000   5.175   3.333   3.704
 3034SOL    HW110001   5.255   3.278   3.728
 3034SOL    HW210002   5.144   3.309   3.612
 3035SOL     OW10003   0.105   3.452   6.883
 3035SOL    HW110004   0.119   3.417   6.976
 3035SOL    HW210005   0.131   3.548   6.879
 3036SOL     OW10006   3.454   2.688   5.675
 3036SOL    HW110007   3.466   2.767   5.735
 3036SOL    HW210008   3.501   2.609   5.714
 3037SOL     OW10009   0.941   5.299   6.788
 3037SOL    HW110010   0.864   5.254   6.833
 3037SOL    HW210011   0.920   5.317   6.692
 3038SOL     OW10012   6.036   4.849   5.967
 3038SOL    HW110013   5.945   4.840   6.008
 3038SOL    HW210014   6.104   4.813   6.031
 3039SOL     OW10015   5.710   3.879   5.809
 3039SOL    HW110016   5.644   3.900   5.882
 3039SOL    HW210017   5.706   3.950   5.739
 3040SOL     OW10018   4.018   6.059   5.819
 3040SOL    HW110019   4.045   6.154   5.836
 3040SOL    HW210020   4.045   6.001   5.896
 3041SOL     OW10021   1.563   5.235   6.117
 3041SOL    HW110022   1.465   5.253   6.126
 3041SOL    HW210023   1.576   5.150   6.066
 3042SOL     OW10024   0.176   4.732   3.969
 3042SOL    HW110025   0.100   4.704   3.910
 3042SOL    HW210026   0.143   4.801   4.034
 3043SOL     OW10027   3.043   4.359   1.712
 3043SOL    HW110028   2.988   4.433   1.752
 3043SOL    HW210029   3.136   4.392   1.697
 3044SOL     OW10030   4.005   3.681   4.647
 3044SOL    HW110031   4.066   3.612   4.686
 3044SOL    HW210032   3.945   3.638   4.580
 3045SOL     OW10033   5.510   1.206   2.039
 3045SOL    HW110034   5.531   1.145   1.962
 3045SOL    HW210035   5.430   1.171   2.088
 3046SOL     OW10036   5.892   5.807   1.357
 3046SOL    HW110037   5.849   5.752   1.429
 3046SOL    HW210038   5.984   5.774   1.340
 3047SOL     OW10039   6.214   1.277   4.236
 3047SOL    HW110040   6.222   1.364   4.188
 3047SOL    HW210041   6.300   1.259   4.286
 3048SOL     OW10042   4.437   4.991   1.845
 3048SOL    HW110043   4.489   5.021   1.925
 3048SOL    HW210044   4.486   4.917   1.799
 3049SOL     OW10045   0.794   2.142   2.428
 3049SOL    HW110046   0.888   2.167   2.448
 3049SOL    HW210047   0.735   2.168   2.504
 3050SOL     OW10048   3.261   2.256   6.181
 3050SOL    HW110049   3.210   2.343   6.183
 3050SOL    HW210050   3.222   2.193   6.248
 3051SOL     OW10051   2.155   4.906   5.756
 3051SOL    HW110052   2.093   4.901   5.678
 3051SOL    HW210053   2.198   4.997   5.759
 3052SOL     OW10054   6.767   6.797   3.785
 3052SOL    HW110055   6.773   6.889   3.745
 3052SOL    HW210056   6.734   6.804   3.879
 3053SOL     OW10057   0.622   4.060   6.971
 3053SOL    HW110058   0.573   4.024   6.891
 3053SOL    HW210059   0.721   4.050   6.956
 3054SOL     OW10060   5.550   0.157   2.705
 3054SOL    HW110061   5.603   0.075   2.684
 3054SOL    HW210062   5.542   0.167   2.805
 3055SOL     OW10063   5.344   6.337   0.323
 3055SOL    HW110064   5.381   6.246   0.309
 3055SOL    HW210065   5.264   6.350   0.265
 3056SOL     OW10066   4.383   1.715   0.240
 3056SOL    HW110067   4.468   1.764   0.221
 3056SOL    HW210068   4.363   1.719   0.338
 3057SOL     OW10069   5.884   3.878   3.277
 3057SOL    HW110070   5.914   3.846   3.187
 3057SOL    HW210071   5.889   3.802   3.342
 3058SOL     OW10072   0.479   5.688   6.250
 3058SOL    HW110073   0.520   5.611   6.300
 3058SOL    HW210074   0.464   5.661   6.155
 3059SOL     OW10075   1.194   2.252   2.073
 3059SOL    HW110076   1.203   2.239   1.974
 3059SOL    HW210077   1.099   2.238   2.101
 3060SOL     OW10078   5.767   4.064   3.727
 3060SOL    HW110079   5.673   4.034   3.737
 3060SOL    HW210080   5.771   4.164   3.725
 3061SOL     OW10081   5.529   6.922   3.410
 3061SOL    HW110082   5.464   6.891   3.480
 3061SOL    HW210083   5.613   6.951   3.454
 3062SOL     OW10084   4.144   5.149   1.377
 3062SOL    HW110085   4.067   5.115   1.323
 3062SOL    HW210086   4.118   5.233   1.424
 3063SOL     OW10087   6.884   4.555   1.498
 3063SOL    HW110088   6.915   4.510   1.414
 3063SOL    HW210089   6.787   4.577   1.491
 3064SOL     OW10090   4.667   2.077   6.264
 3064SOL    HW110091   4.742   2.062   6.200
 3064SOL    HW210092   4.701   2.066   6.358
 3065SOL     OW10093   5.539   1.496   6.504
 3065SOL    HW110094   5.635   1.492   6.477
 3065SOL    HW210095   5.531   1.467   6.600
 3066SOL     OW10096   5.136   0.140   5.557
 3066SOL    HW110097   5.157   0.153   5.654
 3066SOL    HW210098   5.060   0.199   5.532
 3067SOL     OW10099   1.251   1.785   4.619
 3067SOL    HW110100   1.290   1.832   4.540
 3067SOL    HW210101   1.273   1.837   4.702
 3068SOL     OW10102   6.069   0.113   0.731
 3068SOL    HW110103   6.089   0.207   0.759
 3068SOL    HW210104   6.087   0.051   0.808
 3069SOL     OW10105   5.387   6.403   4.067
 3069SOL    HW110106   5.390   6.342   4.147
 3069SOL    HW210107   5.317   6.472   4.082
 3070SOL     OW10108   2.748   1.390   1.068
 3070SOL    HW110109   2.791   1.370   1.157
 3070SOL    HW210110   2.806   1.453   1.016
 3071SOL     OW10111   6.015   4.376   4.949
 3071SOL    HW110112   5.916   4.378   4.967
 3071SOL    HW210113   6.032   4.322   4.867
 3072SOL     OW10114   1.899   6.563   5.977
 3072SOL    HW110115   1.981   6.615   5.951
 3072SOL    HW210116   1.836   6.560   5.900
 3073SOL     OW10117   6.915   5.817   2.282
 3073SOL    HW110118   7.011   5.827   2.308
 3073SOL    HW210119   6.903   5.733   2.230
 3074SOL     OW10120   3.291   2.778   1.970
 3074SOL    HW110121   3.220   2.756   1.904
 3074SOL    HW210122   3.266   2.741   2.060
 3075SOL     OW10123   3.867   5.168   1.794
 3075SOL    HW110124   3.839   5.228   1.719
 3075SOL    HW210125   3.789   5.112   1.823
 3076SOL     OW10126   1.273   1.378   4.179
 3076SOL    HW110127   1.340   1.426   4.235
 3076SOL    HW210128   1.206   1.332   4.238
 3077SOL     OW10129   7.003   3.393   1.562
 3077SOL    HW110130   6.992   3.380   1.463
 3077SOL    HW210131   6.913   3.406   1.604
 3078SOL     OW10132   6.976   3.909   2.335
 3078SOL    HW110133   0.017   3.888   2.407
 3078SOL    HW210134   6.892   3.858   2.354
 3079SOL     OW10135   1.677   4.417   4.491
 3079SOL    HW110136   1.775   4.401   4.479
 3079SOL    HW210137   1.643   4.358   4.564
 3080SOL     OW10138   4.164   4.955   1.654
 3080SOL    HW110139   4.078   4.975   1.608
 3080SOL    HW210140   4.196   4.864   1.627
 3081SOL     OW10141   2.346   3.347   5.919
 3081SOL    HW110142   2.330   3.439   5.885
 3081SOL    HW210143   2.267   3.316   5.972
 3082SOL     OW10144   5.315   4.157   5.034
 3082SOL    HW110145   5.361   4.082   4.986
 3082SOL    HW210146   5.241   4.120   5.090
 3083SOL     OW10147   3.603   5.928   1.870
 3083SOL    HW110148   3.600   5.849   1.932
 3083SOL    HW210149   3.574   5.900   1.779
 3084SOL     OW10150   0.002   5.363   3.535
 3084SOL    HW110151   0.086   5.413   3.557
 3084SOL    HW210152   0.016   5.308   3.453
 3085SOL     OW10153   5.930   5.288   0.060
 3085SOL    HW110154   5.880   5.267   7.002
 3085SOL    HW210155   5.997   5.360   0.042
 3086SOL     OW10156   6.010   6.272   6.443
 3086SOL    HW110157   6.082   6.207   6.416
 3086SOL    HW210158   6.048   6.340   6.505
 3087SOL     OW10159   3.327   0.155   2.457
 3087SOL    HW110160   3.284   0.237   2.418
 3087SOL    HW210161   3.299   0.145   2.552
 3088SOL     OW10162   2.321   3.808   5.370
 3088SOL    HW110163   2.223   3.799   5.387
 3088SOL    HW210164   2.337   3.886   5.310
 3089SOL     OW10165   4.167   5.704   6.077
 3089SOL    HW110166   4.203   5.647   6.003
 3089SOL    HW210167   4.227   5.783   6.090
 3090SOL     OW10168   0.348   2.789   2.074
 3090SOL    HW110169   0.433   2.832   2.103
 3090SOL    HW210170   0.306   2.843   2.002
 3091SOL     OW10171   1.110   2.854   0.117
 3091SOL    HW110172   1.168   2.775   0.093
 3091SOL    HW210173   1.071   2.839   0.208
 3092SOL     OW10174   6.163   1.279   2.179
 3092SOL    HW110175   6.229   1.343   2.217
 3092SOL    HW210176   6.131   1.218   2.252
 3093SOL     OW10177   6.212   5.435   6.387
 3093SOL    HW110178   6.201   5.361   6.321
 3093SOL    HW210179   6.250   5.398   6.472
 3094SOL     OW10180   2.127   1.258   6.202
 3094SOL    HW110181   2.054   1.226   6.141
 3094SOL    HW210182   2.189   1.183   6.223
 3095SOL     OW10183   1.575   3.773   4.851
 3095SOL    HW110184   1.485   3.792   4.890
 3095SOL    HW210185   1.573   3.790   4.752
 3096SOL     OW10186   1.721   3.864   4.241
 3096SOL    HW110187   1.796   3.813   4.200
 3096SOL    HW210188   1.657   3.800   4.284
 3097SOL     OW10189   5.491   3.058   5.209
 3097SOL    HW110190   5.581   3.064   5.251
 3097SOL    HW210191   5.481   3.131   5.141
 3098SOL     OW10192   1.936   3.149   2.212
 3098SOL    HW110193   1.956   3.234   2.262
 3098SOL    HW210194   1.849   3.112   2.244
 3099SOL     OW10195   0.579   6.992   5.239
 3099SOL    HW110196   0.544   6.900   5.222
 3099SOL    HW210197   0.649   6.989   5.310
 3100SOL     OW10198   5.467   4.763   1.843
 3100SOL    HW110199   5.471   4.821   1.762
 3100SOL    HW210200   5.470   4.667   1.816
 3101SOL     OW10201   5.096   7.003   5.146
 3101SOL    HW110202   5.097   0.075   5.128
 3101SOL    HW210203   5.068   6.955   5.063
 3102SOL     OW10204   5.831   4.831   1.581
 3102SOL    HW110205   5.881   4.912   1.612
 3102SOL    HW210206   5.822   4.766   1.658
 3103SOL     OW10207   1.998   2.303   1.727
 3103SOL    HW110208   2.086   2.276   1.766
 3103SOL    HW210209   2.006   2.304   1.627
 3104SOL     OW10210   5.520   2.548   5.204
 3104SOL    HW110211   5.457   2.491   5.150
 3104SOL    HW210212   5.533   2.507   5.294
 3105SOL     OW10213   5.430   3.957   0.529
 3105SOL    HW110214   5.439   3.995   0.437
 3105SOL    HW210215   5.516   3.967   0.578
 3106SOL     OW10216   5.349   1.756   5.474
 3106SOL    HW110217   5.270   1.726   5.527
 3106SOL    HW210218   5.323   1.762   5.377
 3107SOL     OW10219   3.756   2.184   5.233
 3107SOL    HW110220   3.737   2.235   5.316
 3107SOL    HW210221   3.847   2.208   5.198
 3108SOL     OW10222   2.224   3.978   3.408
 3108SOL    HW110223   2.293   4.049   3.395
 3108SOL    HW210224   2.168   3.969   3.325
 3109SOL     OW10225   6.926   6.355   3.225
 3109SOL    HW110226   6.939   6.266   3.269
 3109SOL    HW210227   7.012   6.383   3.182
 3110SOL     OW10228   0.843   5.424   3.779
 3110SOL    HW110229   0.815   5.328   3.789
 3110SOL    HW210230   0.806   5.460   3.693
 3111SOL     OW10231   6.459   4.168   3.993
 3111SOL    HW110232   6.456   4.163   3.893
 3111SOL    HW210233   6.433   4.260   4.023
 3112SOL     OW10234   4.071   1.023   0.370
 3112SOL    HW110235   4.001   1.049   0.436
 3112SOL    HW210236   4.033   1.027   0.277
 3113SOL     OW10237   1.615   6.878   3.494
 3113SOL    HW110238   1.569   6.966   3.506
 3113SOL    HW210239   1.714   6.892   3.486
 3114SOL     OW10240   4.652   6.473   5.936
 3114SOL    HW110241   4.589   6.545   5.909
 3114SOL    HW210242   4.733   6.514   5.979
 3115SOL     OW10243   4.992   5.322   4.614
 3115SOL    HW110244   5.061   5.376   4.663
 3115SOL    HW210245   4.985   5.232   4.656
 3116SOL     OW10246   0.782   1.557   6.036
 3116SOL    HW110247   0.838   1.640   6.040
 3116SOL    HW210248   0.698   1.577   5.987
 3117SOL     OW10249   4.174   0.071   1.158
 3117SOL    HW110250   4.148   0.024   1.073
 3117SOL    HW210251   4.157   0.010   1.236
 3118SOL     OW10252   1.363   1.828   3.543
 3118SOL    HW110253   1.349   1.894   3.616
 3118SOL    HW210254   1.453   1.841   3.502
 3119SOL     OW10255   5.270   5.827   4.259
 3119SOL    HW110256   5.272   5.775   4.174
 3119SOL    HW210257   5.246   5.922   4.240
 3120SOL     OW10258   2.445   5.432   6.582
 3120SOL    HW110259   2.520   5.388   6.631
 3120SOL    HW210260   2.372   5.456   6.646
 3121SOL     OW10261   4.365   2.424   4.016
 3121SOL    HW110262   4.320   2.357   4.075
 3121SOL    HW210263   4.372   2.388   3.923
 3122SOL     OW10264   5.376   4.779   5.942
 3122SOL    HW110265   5.350   4.851   6.006
 3122SOL    HW210266   5.426   4.820   5.865
 3123SOL     OW10267   1.984   1.913   3.124
 3123SOL    HW110268   2.028   1.930   3.212
 3123SOL    HW210269   1.903   1.971   3.115
 3124SOL     OW10270   4.872   6.866   5.274
 3124SOL    HW110271   4.942   6.918   5.226
 3124SOL    HW210272   4.782   6.886   5.234
 3125SOL     OW10273   1.788   1.293   6.114
 3125SOL    HW110274   1.732   1.322   6.037
 3125SOL    HW210275   1.814   1.373   6.169
 3126SOL     OW10276   5.077   4.690   5.592
 3126SOL    HW110277   5.101   4.674   5.688
 3126SOL    HW210278   5.159   4.711   5.540
 3127SOL     OW10279   6.861   1.707   5.081
 3127SOL    HW110280   6.917   1.629   5.107
 3127SOL    HW210281   6.792   1.724   5.151
 3128SOL     OW10282   3.518   0.245   0.476
 3128SOL    HW110283   3.559   0.211   0.561
 3128SOL    HW210284   3.427   0.206   0.465
 3129SOL     OW10285   4.554   4.264   0.029
 3129SOL    HW110286   4.582   4.325   6.981
 3129SOL    HW210287   4.473   4.302   0.074
 3130SOL     OW10288   0.449   5.964   2.247
 3130SOL    HW110289   0.524   6.022   2.277
 3130SOL    HW210290   0.368   6.021   2.231
 3131SOL     OW10291   6.907   3.977   3.111
 3131SOL    HW110292   6.827   3.986   3.171
 3131SOL    HW210293   6.901   3.891   3.061
 3132SOL     OW10294   4.841   3.901   0.040
 3132SOL    HW110295   4.809   3.840   0.112
 3132SOL    HW210296   4.941   3.893   0.031
 3133SOL     OW10297   5.356   6.817   4.335
 3133SOL    HW110298   5.345   6.721   4.361
 3133SOL    HW210299   5.318   6.832   4.244
 3134SOL     OW10300   5.543   4.859   2.566
 3134SOL    HW110301   5.610   4.821   2.631
 3134SOL    HW210302   5.579   4.852   2.473
 3135SOL     OW10303   3.398   6.384   6.917
 3135SOL    HW110304   3.429   6.313   6.980
 3135SOL    HW210305   3.298   6.389   6.920
 3136SOL     OW10306   6.152   0.372   3.025
 3136SOL    HW110307   6.215   0.446   3.000
 3136SOL    HW210308   6.140   0.311   2.946
 3137SOL     OW10309   3.974   5.721   0.035
 3137SOL    HW110310   3.919   5.669   6.997
 3137SOL    HW210311   4.036   5.660   0.084
 3138SOL     OW10312   6.539   6.164   5.008
 3138SOL    HW110313   6.519   6.231   4.937
 3138SOL    HW210314   6.470   6.169   5.080
 3139SOL     OW10315   2.029   5.151   1.438
 3139SOL    HW110316   2.058   5.106   1.353
 3139SOL    HW210317   1.937   5.122   1.462
 3140SOL     OW10318   6.265   5.964   6.978
 3140SOL    HW110319   6.174   5.959   7.018
 3140SOL    HW210320   6.283   5.882   6.923
 3141SOL     OW10321   6.172   1.536   6.840
 3141SOL    HW110322   6.201   1.531   6.744
 3141SOL    HW210323   6.212   1.617   6.883
 3142SOL     OW10324   4.308   0.744   3.772
 3142SOL    HW110325   4.365   0.704   3.700
 3142SOL    HW210326   4.253   0.818   3.734
 3143SOL     OW10327   6.673   1.712   1.388
 3143SOL    HW110328   6.620   1.627   1.377
 3143SOL    HW210329   6.620   1.778   1.441
 3144SOL     OW10330   3.489   4.396   0.166
 3144SOL    HW110331   3.449   4.433   0.249
 3144SOL    HW210332   3.418   4.351   0.112
 3145SOL     OW10333   0.513   5.528   0.085
 3145SOL    HW110334   0.528   5.498   0.179
 3145SOL    HW210335   0.473   5.620   0.084
 3146SOL     OW10336   6.614   2.042   4.780
 3146SOL    HW110337   6.661   2.109   4.722
 3146SOL    HW210338   6.526   2.080   4.809
 3147SOL     OW10339   3.938   0.015   6.926
 3147SOL    HW110340   3.937   0.039   6.829
 3147SOL    HW210341   4.013   0.062   6.972
 3148SOL     OW10342   6.934   4.541   1.766
 3148SOL    HW110343   6.873   4.609   1.808
 3148SOL    HW210344   6.921   4.540   1.667
 3149SOL     OW10345   3.612   3.101   0.260
 3149SOL    HW110346   3.674   3.121   0.183
 3149SOL    HW210347   3.528   3.061   0.225
 3150SOL     OW10348   0.113   6.957   5.859
 3150SOL    HW110349   0.107   0.010   5.919
 3150SOL    HW210350   0.056   6.971   5.779
 3151SOL     OW10351   6.786   1.072   5.906
 3151SOL    HW110352   6.769   1.167   5.882
 3151SOL    HW210353   6.874   1.043   5.868
 3152SOL     OW10354   2.044   2.473   5.746
 3152SOL    HW110355   1.982   2.429   5.811
 3152SOL    HW210356   2.018   2.569   5.735
 3153SOL     OW10357   5.354   5.670   2.104
 3153SOL    HW110358   5.276   5.712   2.151
 3153SOL    HW210359   5.387   5.592   2.157
 3154SOL     OW10360   4.134   1.700   0.644
 3154SOL    HW110361   4.220   1.741   0.612
 3154SOL    HW210362   4.143   1.675   0.741
 3155SOL     OW10363   0.831   4.963   6.938
 3155SOL    HW110364   0.775   5.042   6.911
 3155SOL    HW210365   0.895   4.990   7.010
 3156SOL     OW10366   4.605   4.414   1.179
 3156SOL    HW110367   4.656   4.337   1.218
 3156SOL    HW210368   4.576   4.392   1.086
 3157SOL     OW10369   1.012   0.947   4.768
 3157SOL    HW110370   1.054   0.973   4.855
 3157SOL    HW210371   0.956   0.865   4.781
 3158SOL     OW10372   2.505   0.795   5.562
 3158SOL    HW110373   2.463   0.861   5.624
 3158SOL    HW210374   2.492   0.703   5.598
 3159SOL     OW10375   4.981   6.873   1.341
 3159SOL    HW110376   4.921   6.850   1.418
 3159SOL    HW210377   5.054   6.933   1.374
 3160SOL     OW10378   1.874   0.776   5.501
 3160SOL    HW110379   1.813   0.700   5.479
 3160SOL    HW210380   1.874   0.841   5.426
 3161SOL     OW10381   1.559   2.877   2.235
 3161SOL    HW110382   1.464   2.850   2.251
 3161SOL    HW210383   1.610   2.798   2.199
 3162SOL     OW10384   1.068   5.665   1.586
 3162SOL    HW110385   0.978   5.645   1.547
 3162SOL    HW210386   1.135   5.674   1.512
 3163SOL     OW10387   4.709   4.525   0.342
 3163SOL    HW110388   4.642   4.512   0.416
 3163SOL    HW210389   4.773   4.449   0.342
 3164SOL     OW10390   2.600   6.949   4.850
 3164SOL    HW110391   2.565   6.867   4.894
 3164SOL    HW210392   2.662   6.923   4.775
 3165SOL     OW10393   1.142   5.973   6.203
 3165SOL    HW110394   1.161   5.895   6.145
 3165SOL    HW210395   1.086   6.039   6.152
 3166SOL     OW10396   4.401   1.382   4.622
 3166SOL    HW110397   4.446   1.348   4.539
 3166SOL    HW210398   4.468   1.388   4.695
 3167SOL     OW10399   5.915   3.100   1.241
 3167SOL    HW110400   6.012   3.124   1.236
 3167SOL    HW210401   5.863   3.155   1.176
 3168SOL     OW10402   4.956   1.189   0.447
 3168SOL    HW110403   4.968   1.172   0.544
 3168SOL    HW210404   4.994   1.113   0.394
 3169SOL     OW10405   1.319   3.891   1.884
 3169SOL    HW110406   1.315   3.809   1.941
 3169SOL    HW210407   1.235   3.945   1.898
 3170SOL     OW10408   2.165   3.795   3.610
 3170SOL    HW110409   2.256   3.779   3.648
 3170SOL    HW210410   2.174   3.833   3.518
 3171SOL     OW10411   5.398   1.663   4.539
 3171SOL    HW110412   5.304   1.667   4.573
 3171SOL    HW210413   5.436   1.755   4.534
 3172SOL     OW10414   5.727   4.516   1.446
 3172SOL    HW110415   5.806   4.488   1.501
 3172SOL    HW210416   5.643   4.507   1.500
 3173SOL     OW10417   5.089   2.492   0.327
 3173SOL    HW110418   4.990   2.488   0.343
 3173SOL    HW210419   5.133   2.415   0.374
 3174SOL     OW10420   3.506   2.401   6.621
 3174SOL    HW110421   3.491   2.369   6.715
 3174SOL    HW210422   3.496   2.325   6.558
 3175SOL     OW10423   5.610   6.854   5.385
 3175SOL    HW110424   5.680   6.925   5.396
 3175SOL    HW210425   5.566   6.836   5.473
 3176SOL     OW10426   6.998   5.067   3.631
 3176SOL    HW110427   6.938   4.986   3.633
 3176SOL    HW210428   6.960   5.138   3.689
 3177SOL     OW10429   5.279   2.951   3.879
 3177SOL    HW110430   5.198   2.894   3.864
 3177SOL    HW210431   5.289   3.016   3.804
 3178SOL     OW10432   0.625   0.811   2.532
 3178SOL    HW110433   0.532   0.779   2.516
 3178SOL    HW210434   0.640   0.895   2.480
 3179SOL     OW10435   0.678   2.544   2.284
 3179SOL    HW110436   0.763   2.562   2.236
 3179SOL    HW210437   0.697   2.524   2.380
 3180SOL     OW10438   0.074   6.277   6.809
 3180SOL    HW110439   0.087   6.318   6.899
 3180SOL    HW210440   0.015   6.197   6.817
 3181SOL     OW10441   0.798   6.187   5.779
 3181SOL    HW110442   0.705   6.187   5.744
 3181SOL    HW210443   0.857   6.237   5.715
 3182SOL     OW10444   2.014   0.458   1.056
 3182SOL    HW110445   2.035   0.519   0.979
 3182SOL    HW210446   1.917   0.434   1.054
 3183SOL     OW10447   3.984   3.559   1.134
 3183SOL    HW110448   3.900   3.531   1.089
 3183SOL    HW210449   4.047   3.481   1.139
 3184SOL     OW10450   6.394   1.560   4.091
 3184SOL    HW110451   6.305   1.559   4.135
 3184SOL    HW210452   6.466   1.549   4.160
 3185SOL     OW10453   0.775   6.195   6.920
 3185SOL    HW110454   0.713   6.200   6.841
 3185SOL    HW210455   0.860   6.150   6.893
 3186SOL     OW10456   7.021   2.615   6.494
 3186SOL    HW110457   0.032   2.558   6.567
 3186SOL    HW210458   6.969   2.691   6.534
 3187SOL     OW10459   5.278   6.946   2.629
 3187SOL    HW110460   5.336   6.938   2.710
 3187SOL    HW210461   5.335   6.939   2.547
 3188SOL     OW10462   2.039   6.549   0.828
 3188SOL    HW110463   2.007   6.524   0.737
 3188SOL    HW210464   1.961   6.565   0.888
 3189SOL     OW10465   3.148   1.571   5.955
 3189SOL    HW110466   3.180   1.664   5.934
 3189SOL    HW210467   3.064   1.576   6.009
 3190SOL     OW10468   6.222   6.397   4.182
 3190SOL    HW110469   6.220   6.495   4.162
 3190SOL    HW210470   6.173   6.348   4.110
 3191SOL     OW10471   3.591   5.695   2.035
 3191SOL    HW110472   3.509   5.681   2.091
 3191SOL    HW210473   3.621   5.608   1.997
 3192SOL     OW10474   5.480   0.894   2.849
 3192SOL    HW110475   5.409   0.831   2.817
 3192SOL    HW210476   5.436   0.973   2.892
 3193SOL     OW10477   3.296   6.141   4.810
 3193SOL    HW110478   3.298   6.112   4.714
 3193SOL    HW210479   3.378   6.109   4.856
 3194SOL     OW10480   1.708   6.808   6.348
 3194SOL    HW110481   1.709   6.882   6.415
 3194SOL    HW210482   1.615   6.773   6.338
 3195SOL     OW10483   1.089   0.493   1.036
 3195SOL    HW110484   1.057   0.476   0.942
 3195SOL    HW210485   1.024   0.553   1.082
 3196SOL     OW10486   5.975   6.970   2.606
 3196SOL    HW110487   5.953   7.016   2.692
 3196SOL    HW210488   6.022   0.007   2.545
 3197SOL     OW10489   2.592   0.905   6.334
 3197SOL    HW110490   2.684   0.943   6.339
 3197SOL    HW210491   2.597   0.805   6.333
 3198SOL     OW10492   5.768   2.602   3.833
 3198SOL    HW110493   5.830   2.645   3.767
 3198SOL    HW210494   5.819   2.577   3.915
 3199SOL     OW10495   5.091   3.533   3.169
 3199SOL    HW110496   5.026   3.525   3.245
 3199SOL    HW210497   5.176   3.573   3.202
 3200SOL     OW10498   5.619   3.145   4.531
 3200SOL    HW110499   5.587   3.086   4.605
 3200SOL    HW210500   5.683   3.212   4.567
 3201SOL     OW10501   6.366   4.167   1.996
 3201SOL    HW110502   6.306   4.214   2.061
 3201SOL    HW210503   6.312   4.134   1.918
 3202SOL     OW10504   2.735   3.381   6.729
 3202SOL    HW110505   2.672   3.307   6.706
 3202SOL    HW210506   2.709   3.464   6.679
 3203SOL     OW10507   3.125   6.604   1.877
 3203SOL    HW110508   3.136   6.506   1.892
 3203SOL    HW210509   3.214   6.647   1.866
 3204SOL     OW10510   3.650   0.756   3.854
 3204SOL    HW110511   3.555   0.753   3.823
 3204SOL    HW210512   3.711   0.754   3.775
 3205SOL     OW10513   5.159   3.071   5.795
 3205SOL    HW110514   5.068   3.055   5.757
 3205SOL    HW210515   5.151   3.126   5.879
 3206SOL     OW10516   2.514   4.197   1.168
 3206SOL    HW110517   2.558   4.248   1.094
 3206SOL    HW210518   2.533   4.243   1.255
 3207SOL     OW10519   2.238   5.192   4.541
 3207SOL    HW110520   2.277   5.105   4.571
 3207SOL    HW210521   2.294   5.230   4.468
 3208SOL     OW10522   6.435   4.861   6.301
 3208SOL    HW110523   6.521   4.843   6.254
 3208SOL    HW210524   6.379   4.922   6.244
 3209SOL     OW10525   5.063   6.631   6.615
 3209SOL    HW110526   5.071   6.550   6.557
 3209SOL    HW210527   5.119   6.618   6.697
 3210SOL     OW10528   5.126   5.719   1.667
 3210SOL    HW110529   5.130   5.783   1.744
 3210SOL    HW210530   5.118   5.626   1.702
 3211SOL     OW10531   2.035   6.284   6.251
 3211SOL    HW110532   1.969   6.359   6.244
 3211SOL    HW210533   1.991   6.198   6.227
 3212SOL     OW10534   2.725   6.757   3.136
 3212SOL    HW110535   2.795   6.689   3.158
 3212SOL    HW210536   2.635   6.719   3.158
 3213SOL     OW10537   1.474   6.836   6.082
 3213SOL    HW110538   1.531   6.916   6.098
 3213SOL    HW210539   1.409   6.826   6.157
 3214SOL     OW10540   4.304   0.521   2.437
 3214SOL    HW110541   4.239   0.572   2.382
 3214SOL    HW210542   4.333   0.576   2.515
 3215SOL     OW10543   2.112   3.227   1.688
 3215SOL    HW110544   2.082   3.239   1.783
 3215SOL    HW210545   2.065   3.148   1.648
 3216SOL     OW10546   5.818   4.954   1.182
 3216SOL    HW110547   5.909   4.995   1.174
 3216SOL    HW210548   5.751   5.024   1.204
 3217SOL     OW10549   7.002   5.368   2.836
 3217SOL    HW110550   0.039   5.413   2.899
 3217SOL    HW210551   6.997   5.270   2.857
 3218SOL     OW10552   5.711   1.552   2.521
 3218SOL    HW110553   5.783   1.605   2.567
 3218SOL    HW210554   5.747   1.513   2.436
 3219SOL     OW10555   6.073   1.892   4.926
 3219SOL    HW110556   5.995   1.864   4.870
 3219SOL    HW210557   6.075   1.836   5.009
 3220SOL     OW10558   0.050   4.128   5.908
 3220SOL    HW110559   6.990   4.164   5.941
 3220SOL    HW210560   0.125   4.182   5.946
 3221SOL     OW10561   3.590   1.827   2.154
 3221SOL    HW110562   3.492   1.828   2.173
 3221SOL    HW210563   3.640   1.839   2.239
 3222SOL     OW10564   3.203   1.133   2.998
 3222SOL    HW110565   3.263   1.110   2.921
 3222SOL    HW210566   3.129   1.066   3.004
 3223SOL     OW10567   1.395   5.003   0.448
 3223SOL    HW110568   1.300   4.973   0.442
 3223SOL    HW210569   1.451   4.948   0.386
 3224SOL     OW10570   4.568   2.163   4.230
 3224SOL    HW110571   4.561   2.064   4.242
 3224SOL    HW210572   4.477   2.202   4.212
 3225SOL     OW10573   4.711   1.120   4.652
 3225SOL    HW110574   4.712   1.136   4.750
 3225SOL    HW210575   4.741   1.027   4.633
 3226SOL     OW10576   6.042   0.989   0.438
 3226SOL    HW110577   5.975   1.053   0.476
 3226SOL    HW210578   6.019   0.971   0.342
 3227SOL     OW10579   5.558   4.279   5.385
 3227SOL    HW110580   5.516   4.236   5.465
 3227SOL    HW210581   5.657   4.276   5.393
 3228SOL     OW10582   2.823   4.753   0.538
 3228SOL    HW110583   2.786   4.675   0.588
 3228SOL    HW210584   2.809   4.836   0.592
 3229SOL     OW10585   1.653   2.183   0.591
 3229SOL    HW110586   1.727   2.175   0.524
 3229SOL    HW210587   1.684   2.145   0.678
 3230SOL     OW10588   3.221   6.107   5.363
 3230SOL    HW110589   3.200   6.200   5.331
 3230SOL    HW210590   3.138   6.065   5.399
 3231SOL     OW10591   2.069   2.271   2.807
 3231SOL    HW110592   2.106   2.219   2.884
 3231SOL    HW210593   2.058   2.367   2.833
 3232SOL     OW10594   3.386   4.905   3.656
 3232SOL    HW110595   3.484   4.889   3.642
 3232SOL    HW210596   3.362   4.995   3.621
 3233SOL     OW10597   1.590   0.144   0.155
 3233SOL    HW110598   1.610   0.241   0.140
 3233SOL    HW210599   1.492   0.132   0.171
 3234SOL     OW10600   2.989   3.740   0.809
 3234SOL    HW110601   3.081   3.744   0.848
 3234SOL    HW210602   2.994   3.748   0.710
 3235SOL     OW10603   0.696   0.850   3.289
 3235SOL    HW110604   0.687   0.919   3.217
 3235SOL    HW210605   0.613   0.847   3.344
 3236SOL     OW10606   4.928   0.813   0.350
 3236SOL    HW110607   4.963   0.729   0.308
 3236SOL    HW210608   4.829   0.817   0.338
 3237SOL     OW10609   5.808   1.529   5.629
 3237SOL    HW110610   5.839   1.533   5.724
 3237SOL    HW210611   5.732   1.593   5.616
 3238SOL     OW10612   6.414   4.801   1.450
 3238SOL    HW110613   6.346   4.773   1.518
 3238SOL    HW210614   6.369   4.856   1.379
 3239SOL     OW10615   6.970   0.459   5.022
 3239SOL    HW110616   6.890   0.518   5.032
 3239SOL    HW210617   7.005   0.434   5.113
 3240SOL     OW10618   6.717   0.671   0.302
 3240SOL    HW110619   6.702   0.600   0.370
 3240SOL    HW210620   6.634   0.726   0.293
 3241SOL     OW10621   6.693   3.424   5.186
 3241SOL    HW110622   6.647   3.353   5.132
 3241SOL    HW210623   6.629   3.459   5.255
 3242SOL     OW10624   6.761   3.920   4.641
 3242SOL    HW110625   6.767   3.972   4.556
 3242SOL    HW210626   6.853   3.896   4.671
 3243SOL     OW10627   5.875   4.628   4.158
 3243SOL    HW110628   5.925   4.591   4.236
 3243SOL    HW210629   5.939   4.656   4.087
 3244SOL     OW10630   4.762   6.802   0.172
 3244SOL    HW110631   4.804   6.711   0.168
 3244SOL    HW210632   4.773   6.839   0.265
 3245SOL     OW10633   3.746   6.796   4.857
 3245SOL    HW110634   3.832   6.814   4.904
 3245SOL    HW210635   3.670   6.805   4.921
 3246SOL     OW10636   6.982   6.986   2.733
 3246SOL    HW110637   7.016   0.033   2.675
 3246SOL    HW210638   6.924   6.925   2.678
 3247SOL     OW10639   1.644   4.356   3.735
 3247SOL    HW110640   1.611   4.327   3.825
 3247SOL    HW210641   1.589   4.314   3.663
 3248SOL     OW10642   5.532   2.281   3.264
 3248SOL    HW110643   5.611   2.300   3.321
 3248SOL    HW210644   5.532   2.342   3.185
 3249SOL     OW10645   3.218   3.040   3.481
 3249SOL    HW110646   3.166   3.091   3.413
 3249SOL    HW210647   3.295   2.994   3.436
 3250SOL     OW10648   4.544   5.592   2.954
 3250SOL    HW110649   4.533   5.508   2.902
 3250SOL    HW210650   4.571   5.666   2.893
 3251SOL     OW10651   3.184   2.175   2.493
 3251SOL    HW110652   3.258   2.123   2.451
 3251SOL    HW210653   3.103   2.171   2.434
 3252SOL     OW10654   1.996   1.461   3.367
 3252SOL    HW110655   1.935   1.511   3.305
 3252SOL    HW210656   2.067   1.523   3.401
 3253SOL     OW10657   6.865   3.128   0.013
 3253SOL    HW110658   6.830   3.050   6.987
 3253SOL    HW210659   6.820   3.212   7.009
 3254SOL     OW10660   6.591   6.484   1.634
 3254SOL    HW110661   6.582   6.400   1.688
 3254SOL    HW210662   6.571   6.563   1.692
 3255SOL     OW10663   4.030   6.086   1.766
 3255SOL    HW110664   4.071   6.159   1.821
 3255SOL    HW210665   4.018   6.004   1.822
 3256SOL     OW10666   5.183   2.620   1.197
 3256SOL    HW110667   5.146   2.618   1.290
 3256SOL    HW210668   5.113   2.587   1.133
 3257SOL     OW10669   3.078   1.342   2.655
 3257SOL    HW110670   3.082   1.332   2.754
 3257SOL    HW210671   3.152   1.402   2.625
 3258SOL     OW10672   1.395   5.608   4.569
 3258SOL    HW110673   1.458   5.575   4.498
 3258SOL    HW210674   1.319   5.545   4.578
 3259SOL     OW10675   5.264   3.862   4.277
 3259SOL    HW110676   5.246   3.826   4.185
 3259SOL    HW210677   5.361   3.853   4.298
 3260SOL     OW10678   1.679   5.020   3.384
 3260SOL    HW110679   1.748   4.957   3.350
 3260SOL    HW210680   1.614   4.971   3.442
 3261SOL     OW10681   5.705   0.329   4.538
 3261SOL    HW110682   5.781   0.280   4.495
 3261SOL    HW210683   5.620   0.281   4.519
 3262SOL     OW10684   3.181   1.662   3.344
 3262SOL    HW110685   3.253   1.657   3.412
 3262SOL    HW210686   3.126   1.578   3.347
 3263SOL     OW10687   6.964   0.870   2.013
 3263SOL    HW110688   6.964   0.793   1.949
 3263SOL    HW210689   7.009   0.949   1.970
 3264SOL     OW10690   1.774   4.905   7.006
 3264SOL    HW110691   1.717   4.880   6.927
 3264SOL    HW210692   1.756   4.842   0.055
 3265SOL     OW10693   0.095   5.437   6.542
 3265SOL    HW110694   0.052   5.361   6.591
 3265SOL    HW210695   0.186   5.454   6.580
 3266SOL     OW10696   3.798   4.947   5.903
 3266SOL    HW110697   3.801   5.017   5.831
 3266SOL    HW210698   3.745   4.981   5.980
 3267SOL     OW10699   3.452   6.879   0.622
 3267SOL    HW110700   3.451   6.900   0.525
 3267SOL    HW210701   3.517   6.804   0.640
 3268SOL     OW10702   5.636   5.037   2.213
 3268SOL    HW110703   5.650   5.018   2.116
 3268SOL    HW210704   5.665   4.958   2.267
 3269SOL     OW10705   1.507   5.069   1.810
 3269SOL    HW110706   1.486   5.083   1.907
 3269SOL    HW210707   1.499   5.156   1.762
 3270SOL     OW10708   0.940   2.790   5.668
 3270SOL    HW110709   1.038   2.799   5.648
 3270SOL    HW210710   0.927   2.720   5.738
 3271SOL     OW10711   1.054   3.851   1.427
 3271SOL    HW110712   1.081   3.774   1.370
 3271SOL    HW210713   1.134   3.886   1.477
 3272SOL     OW10714   4.669   5.682   0.426
 3272SOL    HW110715   4.738   5.679   0.353
 3272SOL    HW210716   4.705   5.734   0.503
 3273SOL     OW10717   3.824   3.919   6.441
 3273SOL    HW110718   3.730   3.954   6.435
 3273SOL    HW210719   3.841   3.857   6.364
 3274SOL     OW10720   5.327   0.046   1.902
 3274SOL    HW110721   5.302   0.127   1.955
 3274SOL    HW210722   5.357   7.000   1.964
 3275SOL     OW10723   4.788   0.422   1.609
 3275SOL    HW110724   4.738   0.344   1.571
 3275SOL    HW210725   4.846   0.391   1.685
 3276SOL     OW10726   5.975   6.146   0.008
 3276SOL    HW110727   5.957   6.054   7.000
 3276SOL    HW210728   5.947   6.153   0.104
 3277SOL     OW10729   3.030   1.764   2.353
 3277SOL    HW110730   3.009   1.792   2.447
 3277SOL    HW210731   2.989   1.830   2.290
 3278SOL     OW10732   5.354   0.788   6.411
 3278SOL    HW110733   5.353   0.696   6.371
 3278SOL    HW210734   5.274   0.839   6.380
 3279SOL     OW10735   3.848   0.193   1.791
 3279SOL    HW110736   3.828   0.288   1.813
 3279SOL    HW210737   3.895   0.150   1.868
 3280SOL     OW10738   6.508   3.418   4.135
 3280SOL    HW110739   6.471   3.463   4.216
 3280SOL    HW210740   6.568   3.481   4.085
 3281SOL     OW10741   6.292   2.609   1.823
 3281SOL    HW110742   6.238   2.694   1.824
 3281SOL    HW210743   6.258   2.547   1.893
 3282SOL     OW10744   0.155   5.072   5.076
 3282SOL    HW110745   0.252   5.060   5.096
 3282SOL    HW210746   0.145   5.130   4.995
 3283SOL     OW10747   3.293   2.029   0.080
 3283SOL    HW110748   3.267   2.117   0.039
 3283SOL    HW210749   3.346   2.045   0.163
 3284SOL     OW10750   2.219   6.635   4.883
 3284SOL    HW110751   2.263   6.593   4.803
 3284SOL    HW210752   2.289   6.663   4.948
 3285SOL     OW10753   3.681   2.081   4.445
 3285SOL    HW110754   3.672   2.073   4.545
 3285SOL    HW210755   3.593   2.108   4.406
 3286SOL     OW10756   1.607   2.599   2.671
 3286SOL    HW110757   1.647   2.543   2.598
 3286SOL    HW210758   1.508   2.603   2.661
 3287SOL     OW10759   2.484   0.598   0.729
 3287SOL    HW110760   2.524   0.604   0.820
 3287SOL    HW210761   2.473   0.690   0.691
 3288SOL     OW10762   2.411   5.791   2.262
 3288SOL    HW110763   2.464   5.837   2.333
 3288SOL    HW210764   2.336   5.851   2.232
 3289SOL     OW10765   4.305   0.669   6.636
 3289SOL    HW110766   4.339   0.761   6.654
 3289SOL    HW210767   4.205   0.667   6.643
 3290SOL     OW10768   0.540   5.746   0.735
 3290SOL    HW110769   0.560   5.746   0.638
 3290SOL    HW210770   0.620   5.778   0.786
 3291SOL     OW10771   5.216   6.658   4.841
 3291SOL    HW110772   5.280   6.631   4.913
 3291SOL    HW210773   5.123   6.639   4.871
 3292SOL     OW10774   0.302   2.031   0.526
 3292SOL    HW110775   0.202   2.033   0.524
 3292SOL    HW210776   0.334   1.937   0.514
 3293SOL     OW10777   6.392   4.762   2.940
 3293SOL    HW110778   6.363   4.849   2.981
 3293SOL    HW210779   6.383   4.767   2.841
 3294SOL     OW10780   5.122   2.801   5.382
 3294SOL    HW110781   5.071   2.805   5.297
 3294SOL    HW210782   5.217   2.775   5.363
 3295SOL     OW10783   0.930   2.363   2.743
 3295SOL    HW110784   1.017   2.413   2.754
 3295SOL    HW210785   0.922   2.330   2.649
 3296SOL     OW10786   2.159   0.895   5.838
 3296SOL    HW110787   2.217   0.817   5.819
 3296SOL    HW210788   2.203   0.954   5.907
 3297SOL     OW10789   4.157   1.016   5.374
 3297SOL    HW110790   4.087   0.951   5.348
 3297SOL    HW210791   4.115   1.097   5.414
 3298SOL     OW10792   3.969   3.543   5.575
 3298SOL    HW110793   3.993   3.555   5.479
 3298SOL    HW210794   4.004   3.620   5.628
 3299SOL     OW10795   2.486   5.721   4.096
 3299SOL    HW110796   2.485   5.651   4.025
 3299SOL    HW210797   2.392   5.746   4.120
 3300SOL     OW10798   2.234   0.950   3.967
 3300SOL    HW110799   2.181   0.918   4.046
 3300SOL    HW210800   2.268   1.043   3.986
 3301SOL     OW10801   0.997   1.490   3.074
 3301SOL    HW110802   0.977   1.410   3.131
 3301SOL    HW210803   1.068   1.545   3.117
 3302SOL     OW10804   1.356   5.250   5.112
 3302SOL    HW110805   1.366   5.151   5.116
 3302SOL    HW210806   1.296   5.274   5.035
 3303SOL     OW10807   3.479   3.483   6.757
 3303SOL    HW110808   3.441   3.440   6.839
 3303SOL    HW210809   3.411   3.481   6.684
 3304SOL     OW10810   1.767   4.167   0.163
 3304SOL    HW110811   1.792   4.088   0.107
 3304SOL    HW210812   1.726   4.135   0.249
 3305SOL     OW10813   3.194   2.716   0.527
 3305SOL    HW110814   3.115   2.655   0.535
 3305SOL    HW210815   3.276   2.670   0.561
 3306SOL     OW10816   2.353   0.609   0.070
 3306SOL    HW110817   2.442   0.647   0.096
 3306SOL    HW210818   2.356   0.578   7.001
 3307SOL     OW10819   1.674   5.752   4.750
 3307SOL    HW110820   1.634   5.821   4.691
 3307SOL    HW210821   1.761   5.786   4.787
 3308SOL     OW10822   4.247   4.349   1.295
 3308SOL    HW110823   4.298   4.264   1.307
 3308SOL    HW210824   4.292   4.405   1.224
 3309SOL     OW10825   5.157   3.290   3.411
 3309SOL    HW110826   5.071   3.265   3.365
 3309SOL    HW210827   5.175   3.388   3.397
 3310SOL     OW10828   6.252   4.755   6.112
 3310SOL    HW110829   6.197   4.721   6.189
 3310SOL    HW210830   6.319   4.685   6.087
 3311SOL     OW10831   2.450   3.795   0.133
 3311SOL    HW110832   2.532   3.820   0.184
 3311SOL    HW210833   2.382   3.867   0.140
 3312SOL     OW10834   4.553   2.899   6.411
 3312SOL    HW110835   4.483   2.941   6.354
 3312SOL    HW210836   4.583   2.812   6.371
 3313SOL     OW10837   0.089   0.443   4.080
 3313SOL    HW110838   0.064   0.358   4.033
 3313SOL    HW210839   0.060   0.437   4.176
 3314SOL     OW10840   3.846   5.754   2.395
 3314SOL    HW110841   3.885   5.838   2.432
 3314SOL    HW210842   3.867   5.746   2.298
 3315SOL     OW10843   0.643   5.565   4.505
 3315SOL    HW110844   0.694   5.564   4.419
 3315SOL    HW210845   0.642   5.473   4.545
 3316SOL     OW10846   4.158   2.428   0.011
 3316SOL    HW110847   4.220   2.468   6.970
 3316SOL    HW210848   4.106   2.500   0.056
 3317SOL     OW10849   5.255   2.860   1.720
 3317SOL    HW110850   5.233   2.813   1.634
 3317SOL    HW210851   5.175   2.861   1.779
 3318SOL     OW10852   3.089   2.962   0.660
 3318SOL    HW110853   3.117   3.057   0.641
 3318SOL    HW210854   3.169   2.903   0.656
 3319SOL     OW10855   6.843   5.781   3.907
 3319SOL    HW110856   6.865   5.724   3.827
 3319SOL    HW210857   6.903   5.861   3.908
 3320SOL     OW10858   6.221   6.266   1.874
 3320SOL    HW110859   6.132   6.259   1.920
 3320SOL    HW210860   6.207   6.271   1.775
 3321SOL     OW10861   4.788   2.225   0.029
 3321SOL    HW110862   4.876   2.249   0.071
 3321SOL    HW210863   4.775   2.126   0.033
 3322SOL     OW10864   6.057   3.034   0.570
 3322SOL    HW110865   6.150   3.036   0.532
 3322SOL    HW210866   6.061   3.000   0.664
 3323SOL     OW10867   1.810   1.652   1.405
 3323SOL    HW110868   1.820   1.686   1.498
 3323SOL    HW210869   1.783   1.556   1.406
 3324SOL     OW10870   5.238   5.372   5.328
 3324SOL    HW110871   5.313   5.309   5.307
 3324SOL    HW210872   5.256   5.416   5.416
 3325SOL     OW10873   2.585   4.567   5.167
 3325SOL    HW110874   2.682   4.575   5.146
 3325SOL    HW210875   2.554   4.650   5.215
 3326SOL     OW10876   3.650   2.076   2.602
 3326SOL    HW110877   3.586   2.074   2.525
 3326SOL    HW210878   3.642   1.990   2.654
 3327SOL     OW10879   0.649   5.587   5.905
 3327SOL    HW110880   0.660   5.558   6.001
 3327SOL    HW210881   0.710   5.664   5.887
 3328SOL     OW10882   4.793   2.548   5.347
 3328SOL    HW110883   4.835   2.564   5.258
 3328SOL    HW210884   4.716   2.485   5.337
 3329SOL     OW10885   6.313   6.060   5.801
 3329SOL    HW110886   6.381   6.036   5.732
 3329SOL    HW210887   6.248   5.984   5.812
 3330SOL     OW10888   6.793   3.879   3.462
 3330SOL    HW110889   6.844   3.826   3.395
 3330SOL    HW210890   6.855   3.942   3.509
 3331SOL     OW10891   2.166   3.590   0.335
 3331SOL    HW110892   2.094   3.632   0.389
 3331SOL    HW210893   2.164   3.628   0.242
 3332SOL     OW10894   6.759   3.857   1.491
 3332SOL    HW110895   6.809   3.837   1.575
 3332SOL    HW210896   6.729   3.771   1.448
 3333SOL     OW10897   3.406   5.204   6.528
 3333SOL    HW110898   3.419   5.254   6.613
 3333SOL    HW210899   3.476   5.233   6.462
 3334SOL     OW10900   1.824   3.818   1.827
 3334SOL    HW110901   1.828   3.788   1.732
 3334SOL    HW210902   1.793   3.742   1.885
 3335SOL     OW10903   5.925   4.060   4.585
 3335SOL    HW110904   5.923   4.031   4.489
 3335SOL    HW210905   5.904   4.158   4.590
 3336SOL     OW10906   2.956   5.746   5.975
 3336SOL    HW110907   3.052   5.722   5.961
 3336SOL    HW210908   2.906   5.735   5.889
 3337SOL     OW10909   3.551   1.976   0.760
 3337SOL    HW110910   3.614   1.942   0.830
 3337SOL    HW210911   3.531   1.902   0.696
 3338SOL     OW10912   6.852   4.372   0.350
 3338SOL    HW110913   6.873   4.275   0.336
 3338SOL    HW210914   6.761   4.392   0.313
 3339SOL     OW10915   0.725   5.856   6.477
 3339SOL    HW110916   0.783   5.900   6.545
 3339SOL    HW210917   0.664   5.924   6.437
 3340SOL     OW10918   3.993   0.142   2.018
 3340SOL    HW110919   4.057   0.068   2.037
 3340SOL    HW210920   4.004   0.215   2.085
 3341SOL     OW10921   0.566   6.986   1.379
 3341SOL    HW110922   0.483   0.015   1.379
 3341SOL    HW210923   0.607   6.989   1.471
 3342SOL     OW10924   2.744   0.464   4.993
 3342SOL    HW110925   2.755   0.563   4.991
 3342SOL    HW210926   2.803   0.423   4.923
 3343SOL     OW10927   6.869   2.425   1.390
 3343SOL    HW110928   6.906   2.401   1.301
 3343SOL    HW210929   6.932   2.486   1.437
 3344SOL     OW10930   6.991   3.420   5.866
 3344SOL    HW110931   0.004   3.473   5.941
 3344SOL    HW210932   6.956   3.483   5.796
 3345SOL     OW10933   2.737   3.469   6.011
 3345SOL    HW110934   2.705   3.410   5.937
 3345SOL    HW210935   2.763   3.558   5.972
 3346SOL     OW10936   1.621   5.531   2.693
 3346SOL    HW110937   1.698   5.493   2.744
 3346SOL    HW210938   1.627   5.501   2.597
 3347SOL     OW10939   6.103   4.185   4.292
 3347SOL    HW110940   6.135   4.094   4.318
 3347SOL    HW210941   6.042   4.178   4.213
 3348SOL     OW10942   3.622   4.144   2.998
 3348SOL    HW110943   3.549   4.086   2.962
 3348SOL    HW210944   3.701   4.140   2.938
 3349SOL     OW10945   6.029   3.992   5.854
 3349SOL    HW110946   6.005   3.895   5.854
 3349SOL    HW210947   6.122   4.003   5.820
 3350SOL     OW10948   1.496   2.305   0.928
 3350SOL    HW110949   1.480   2.224   0.984
 3350SOL    HW210950   1.520   2.382   0.987
 3351SOL     OW10951   5.404   2.151   0.700
 3351SOL    HW110952   5.466   2.074   0.713
 3351SOL    HW210953   5.422   2.192   0.610
 3352SOL     OW10954   0.706   3.388   0.132
 3352SOL    HW110955   0.615   3.356   0.156
 3352SOL    HW210956   0.703   3.485   0.111
 3353SOL     OW10957   1.840   6.464   6.224
 3353SOL    HW110958   1.870   6.532   6.158
 3353SOL    HW210959   1.767   6.408   6.183
 3354SOL     OW10960   1.549   1.032   2.289
 3354SOL    HW110961   1.518   1.056   2.197
 3354SOL    HW210962   1.542   0.934   2.303
 3355SOL     OW10963   6.832   1.655   2.838
 3355SOL    HW110964   6.812   1.668   2.935
 3355SOL    HW210965   6.834   1.558   2.817
 3356SOL     OW10966   2.199   3.581   5.815
 3356SOL    HW110967   2.106   3.588   5.778
 3356SOL    HW210968   2.265   3.592   5.741
 3357SOL     OW10969   2.323   5.347   2.385
 3357SOL    HW110970   2.305   5.428   2.329
 3357SOL    HW210971   2.326   5.372   2.481
 3358SOL     OW10972   6.822   4.229   3.336
 3358SOL    HW110973   6.919   4.212   3.358
 3358SOL    HW210974   6.813   4.320   3.296
 3359SOL     OW10975   1.545   1.309   1.775
 3359SOL    HW110976   1.576   1.327   1.682
 3359SOL    HW210977   1.514   1.394   1.817
 3360SOL     OW10978   1.893   0.568   6.132
 3360SOL    HW110979   1.802   0.602   6.156
 3360SOL    HW210980   1.961   0.640   6.149
 3361SOL     OW10981   4.556   0.605   2.848
 3361SOL    HW110982   4.619   0.556   2.787
 3361SOL    HW210983   4.561   0.565   2.940
 3362SOL     OW10984   2.152   1.251   5.378
 3362SOL    HW110985   2.245   1.288   5.378
 3362SOL    HW210986   2.136   1.201   5.463
 3363SOL     OW10987   0.183   1.434   6.097
 3363SOL    HW110988   0.269   1.437   6.150
 3363SOL    HW210989   0.119   1.500   6.136
 3364SOL     OW10990   1.946   4.617   6.056
 3364SOL    HW110991   2.036   4.621   6.013
 3364SOL    HW210992   1.953   4.644   6.152
 3365SOL     OW10993   5.889   1.975   5.509
 3365SOL    HW110994   5.910   1.951   5.414
 3365SOL    HW210995   5.967   2.021   5.551
 3366SOL     OW10996   5.206   1.227   6.487
 3366SOL    HW110997   5.215   1.316   6.532
 3366SOL    HW210998   5.298   1.190   6.470
 3367SOL     OW10999   1.624   0.444   2.324
 3367SOL    HW111000   1.612   0.536   2.361
 3367SOL    HW211001   1.537   0.412   2.286
 3368SOL     OW11002   6.298   1.151   5.874
 3368SOL    HW111003   6.205   1.150   5.840
 3368SOL    HW211004   6.298   1.127   5.972
 3369SOL     OW11005   3.662   6.348   5.962
 3369SOL    HW111006   3.698   6.275   5.905
 3369SOL    HW211007   3.703   6.343   6.053
 3370SOL     OW11008   4.817   0.231   5.057
 3370SOL    HW111009   4.903   0.209   5.103
 3370SOL    HW211010   4.824   0.321   5.014
 3371SOL     OW11011   6.766   4.997   1.436
 3371SOL    HW111012   6.774   4.897   1.432
 3371SOL    HW211013   6.753   5.026   1.530
 3372SOL     OW11014   0.368   2.211   2.825
 3372SOL    HW111015   0.352   2.308   2.808
 3372SOL    HW211016   0.384   2.196   2.923
 3373SOL     OW11017   0.709   2.038   5.980
 3373SOL    HW111018   0.704   1.988   6.067
 3373SOL    HW211019   0.636   2.006   5.919
 3374SOL     OW11020   3.388   5.419   5.363
 3374SOL    HW111021   3.389   5.361   5.445
 3374SOL    HW211022   3.466   5.396   5.305
 3375SOL     OW11023   3.780   4.108   4.951
 3375SOL    HW111024   3.835   4.123   4.869
 3375SOL    HW211025   3.809   4.024   4.997
 3376SOL     OW11026   2.805   3.238   1.858
 3376SOL    HW111027   2.862   3.321   1.858
 3376SOL    HW211028   2.797   3.204   1.952
 3377SOL     OW11029   3.024   5.583   5.563
 3377SOL    HW111030   3.077   5.525   5.502
 3377SOL    HW211031   2.939   5.536   5.587
 3378SOL     OW11032   0.726   0.693   1.061
 3378SOL    HW111033   0.665   0.614   1.065
 3378SOL    HW211034   0.759   0.704   0.967
 3379SOL     OW11035   0.727   4.842   6.370
 3379SOL    HW111036   0.752   4.752   6.408
 3379SOL    HW211037   0.694   4.901   6.444
 3380SOL     OW11038   0.844   3.747   5.799
 3380SOL    HW111039   0.786   3.675   5.837
 3380SOL    HW211040   0.787   3.819   5.760
 3381SOL     OW11041   2.954   3.144   1.223
 3381SOL    HW111042   2.933   3.242   1.226
 3381SOL    HW211043   2.870   3.092   1.213
 3382SOL     OW11044   6.768   6.835   6.594
 3382SOL    HW111045   6.807   6.755   6.550
 3382SOL    HW211046   6.794   6.837   6.691
 3383SOL     OW11047   0.262   4.217   2.876
 3383SOL    HW111048   0.291   4.194   2.783
 3383SOL    HW211049   0.331   4.187   2.941
 3384SOL     OW11050   3.270   3.132   4.501
 3384SOL    HW111051   3.187   3.163   4.548
 3384SOL    HW211052   3.244   3.088   4.415
 3385SOL     OW11053   6.556   3.927   3.747
 3385SOL    HW111054   6.651   3.958   3.755
 3385SOL    HW211055   6.554   3.838   3.701
 3386SOL     OW11056   6.262   3.893   4.941
 3386SOL    HW111057   6.217   3.899   4.852
 3386SOL    HW211058   6.263   3.983   4.984
 3387SOL     OW11059   3.144   2.138   3.238
 3387SOL    HW111060   3.243   2.143   3.250
 3387SOL    HW211061   3.099   2.184   3.314
 3388SOL     OW11062   5.254   2.835   2.134
 3388SOL    HW111063   5.263   2.860   2.231
 3388SOL    HW211064   5.248   2.917   2.079
 3389SOL     OW11065   5.042   4.700   3.116
 3389SOL    HW111066   4.960   4.643   3.109
 3389SOL    HW211067   5.074   4.702   3.211
 3390SOL     OW11068   5.081   2.664   5.830
 3390SOL    HW111069   5.070   2.626   5.922
 3390SOL    HW211070   5.026   2.747   5.821
 3391SOL     OW11071   3.836   2.039   4.230
 3391SOL    HW111072   3.775   2.037   4.310
 3391SOL    HW211073   3.815   1.961   4.171
 3392SOL     OW11074   4.985   6.314   3.672
 3392SOL    HW111075   5.042   6.389   3.704
 3392SOL    HW211076   5.035   6.228   3.682
 3393SOL     OW11077   6.369   0.570   0.246
 3393SOL    HW111078   6.317   0.578   0.331
 3393SOL    HW211079   6.412   0.658   0.226
 3394SOL     OW11080   5.675   1.345   1.449
 3394SOL    HW111081   5.608   1.339   1.375
 3394SOL    HW211082   5.652   1.277   1.520
 3395SOL     OW11083   1.324   3.395   5.011
 3395SOL    HW111084   1.390   3.320   5.006
 3395SOL    HW211085   1.353   3.459   5.082
 3396SOL     OW11086   0.032   4.031   4.385
 3396SOL    HW111087   0.118   3.999   4.424
 3396SOL    HW211088   0.042   4.044   4.287
 3397SOL     OW11089   2.957   6.487   5.779
 3397SOL    HW111090   2.921   6.410   5.832
 3397SOL    HW211091   3.057   6.482   5.777
 3398SOL     OW11092   0.161   0.151   4.295
 3398SOL    HW111093   0.147   0.052   4.288
 3398SOL    HW211094   0.073   0.197   4.289
 3399SOL     OW11095   4.573   5.349   4.456
 3399SOL    HW111096   4.478   5.341   4.487
 3399SOL    HW211097   4.574   5.359   4.356
 3400SOL     OW11098   4.556   2.623   6.363
 3400SOL    HW111099   4.601   2.565   6.430
 3400SOL    HW211100   4.458   2.602   6.360
 3401SOL     OW11101   6.241   4.821   6.746
 3401SOL    HW111102   6.335   4.788   6.752
 3401SOL    HW211103   6.229   4.873   6.661
 3402SOL     OW11104   4.747   5.574   2.335
 3402SOL    HW111105   4.649   5.556   2.326
 3402SOL    HW211106   4.780   5.621   2.253
 3403SOL     OW11107   3.046   1.955   5.234
 3403SOL    HW111108   3.069   1.942   5.138
 3403SOL    HW211109   3.043   2.053   5.255
 3404SOL     OW11110   4.466   1.019   0.919
 3404SOL    HW111111   4.508   0.935   0.953
 3404SOL    HW211112   4.511   1.098   0.960
 3405SOL     OW11113   5.918   3.737   0.815
 3405SOL    HW111114   5.899   3.693   0.728
 3405SOL    HW211115   6.016   3.733   0.834
 3406SOL     OW11116   1.430   4.575   1.968
 3406SOL    HW111117   1.432   4.600   2.065
 3406SOL    HW211118   1.336   4.582   1.934
 3407SOL     OW11119   1.363   5.203   2.337
 3407SOL    HW111120   1.437   5.147   2.375
 3407SOL    HW211121   1.401   5.286   2.297
 3408SOL     OW11122   5.429   3.629   2.957
 3408SOL    HW111123   5.361   3.693   2.920
 3408SOL    HW211124   5.517   3.645   2.912
 3409SOL     OW11125   2.936   0.639   5.711
 3409SOL    HW111126   3.000   0.584   5.658
 3409SOL    HW211127   2.955   0.736   5.696
 3410SOL     OW11128   6.841   0.378   6.948
 3410SOL    HW111129   6.789   0.299   6.980
 3410SOL    HW211130   6.825   0.455   7.010
 3411SOL     OW11131   4.945   2.638   1.891
 3411SOL    HW111132   4.987   2.638   1.982
 3411SOL    HW211133   4.902   2.549   1.874
 3412SOL     OW11134   3.849   4.602   6.682
 3412SOL    HW111135   3.889   4.630   6.594
 3412SOL    HW211136   3.905   4.529   6.722
 3413SOL     OW11137   4.191   2.311   2.513
 3413SOL    HW111138   4.121   2.287   2.580
 3413SOL    HW211139   4.159   2.288   2.421
 3414SOL     OW11140   3.836   1.507   5.899
 3414SOL    HW111141   3.771   1.573   5.936
 3414SOL    HW211142   3.869   1.538   5.810
 3415SOL     OW11143   0.063   5.252   4.323
 3415SOL    HW111144   0.076   5.351   4.313
 3415SOL    HW211145   7.002   5.225   4.284
 3416SOL     OW11146   2.221   4.751   5.460
 3416SOL    HW111147   2.157   4.825   5.478
 3416SOL    HW211148   2.171   4.668   5.433
 3417SOL     OW11149   5.919   0.362   1.868
 3417SOL    HW111150   5.946   0.271   1.898
 3417SOL    HW211151   5.844   0.395   1.925
 3418SOL     OW11152   3.081   1.396   6.496
 3418SOL    HW111153   3.104   1.301   6.518
 3418SOL    HW211154   3.165   1.449   6.483
 3419SOL     OW11155   4.542   3.856   0.207
 3419SOL    HW111156   4.477   3.827   0.277
 3419SOL    HW211157   4.597   3.778   0.179
 3420SOL     OW11158   4.270   2.238   4.174
 3420SOL    HW111159   4.236   2.262   4.265
 3420SOL    HW211160   4.205   2.176   4.130
 3421SOL     OW11161   0.542   6.368   4.427
 3421SOL    HW111162   0.603   6.349   4.350
 3421SOL    HW211163   0.447   6.365   4.396
 3422SOL     OW11164   3.347   1.646   2.117
 3422SOL    HW111165   3.310   1.736   2.093
 3422SOL    HW211166   3.358   1.591   2.035
 3423SOL     OW11167   2.728   1.086   1.597
 3423SOL    HW111168   2.662   1.104   1.525
 3423SOL    HW211169   2.680   1.064   1.682
 3424SOL     OW11170   3.935   1.349   2.716
 3424SOL    HW111171   4.016   1.406   2.705
 3424SOL    HW211172   3.951   1.282   2.789
 3425SOL     OW11173   4.637   4.489   1.850
 3425SOL    HW111174   4.594   4.410   1.894
 3425SOL    HW211175   4.667   4.553   1.920
 3426SOL     OW11176   4.372   3.802   0.408
 3426SOL    HW111177   4.285   3.851   0.398
 3426SOL    HW211178   4.366   3.738   0.485
 3427SOL     OW11179   0.687   1.710   0.096
 3427SOL    HW111180   0.633   1.773   0.153
 3427SOL    HW211181   0.751   1.660   0.154
 3428SOL     OW11182   4.470   4.513   3.165
 3428SOL    HW111183   4.544   4.465   3.118
 3428SOL    HW211184   4.498   4.534   3.258
 3429SOL     OW11185   0.371   3.015   6.447
 3429SOL    HW111186   0.290   3.031   6.391
 3429SOL    HW211187   0.367   3.072   6.529
 3430SOL     OW11188   1.157   6.284   6.924
 3430SOL    HW111189   1.153   6.320   6.831
 3430SOL    HW211190   1.134   6.187   6.923
 3431SOL     OW11191   0.820   6.232   0.415
 3431SOL    HW111192   0.776   6.229   0.505
 3431SOL    HW211193   0.751   6.220   0.344
 3432SOL     OW11194   3.079   1.975   6.750
 3432SOL    HW111195   3.038   1.992   6.660
 3432SOL    HW211196   3.165   2.025   6.757
 3433SOL     OW11197   4.084   0.752   5.079
 3433SOL    HW111198   4.154   0.693   5.039
 3433SOL    HW211199   4.015   0.773   5.009
 3434SOL     OW11200   4.480   2.067   2.860
 3434SOL    HW111201   4.434   2.095   2.776
 3434SOL    HW211202   4.419   2.011   2.915
 3435SOL     OW11203   0.346   1.198   0.053
 3435SOL    HW111204   0.298   1.202   0.141
 3435SOL    HW211205   0.430   1.252   0.059
 3436SOL     OW11206   4.183   6.976   3.337
 3436SOL    HW111207   4.224   6.915   3.405
 3436SOL    HW211208   4.131   0.021   3.383
 3437SOL     OW11209   3.954   0.294   6.086
 3437SOL    HW111210   3.916   0.371   6.035
 3437SOL    HW211211   3.996   0.229   6.023
 3438SOL     OW11212   1.562   3.894   6.757
 3438SOL    HW111213   1.636   3.954   6.727
 3438SOL    HW211214   1.483   3.906   6.696
 3439SOL     OW11215   2.760   6.260   3.509
 3439SOL    HW111216   2.681   6.220   3.555
 3439SOL    HW211217   2.844   6.217   3.543
 3440SOL     OW11218   4.705   1.923   1.055
 3440SOL    HW111219   4.792   1.971   1.059
 3440SOL    HW211220   4.721   1.826   1.040
 3441SOL     OW11221   3.219   0.409   4.098
 3441SOL    HW111222   3.283   0.339   4.130
 3441SOL    HW211223   3.126   0.376   4.107
 3442SOL     OW11224   1.865   4.861   3.225
 3442SOL    HW111225   1.960   4.844   3.200
 3442SOL    HW211226   1.807   4.852   3.144
 3443SOL     OW11227   5.886   0.783   4.050
 3443SOL    HW111228   5.879   0.768   4.148
 3443SOL    HW211229   5.962   0.729   4.013
 3444SOL     OW11230   4.081   5.315   0.413
 3444SOL    HW111231   4.050   5.342   0.503
 3444SOL    HW211232   4.180   5.296   0.416
 3445SOL     OW11233   6.170   4.612   4.636
 3445SOL    HW111234   6.157   4.648   4.729
 3445SOL    HW211235   6.236   4.537   4.639
 3446SOL     OW11236   3.308   6.526   2.802
 3446SOL    HW111237   3.345   6.526   2.709
 3446SOL    HW211238   3.283   6.620   2.828
 3447SOL     OW11239   5.795   4.892   6.076
 3447SOL    HW111240   5.772   4.951   5.999
 3447SOL    HW211241   5.739   4.809   6.073
 3448SOL     OW11242   3.664   2.317   0.956
 3448SOL    HW111243   3.585   2.281   0.906
 3448SOL    HW211244   3.683   2.410   0.925
 3449SOL     OW11245   6.081   6.469   3.742
 3449SOL    HW111246   6.015   6.421   3.800
 3449SOL    HW211247   6.062   6.448   3.646
 3450SOL     OW11248   1.113   1.787   1.314
 3450SOL    HW111249   1.185   1.777   1.383
 3450SOL    HW211250   1.143   1.744   1.228
 3451SOL     OW11251   0.981   5.407   4.471
 3451SOL    HW111252   0.933   5.414   4.558
 3451SOL    HW211253   0.931   5.457   4.401
 3452SOL     OW11254   6.267   2.108   6.995
 3452SOL    HW111255   6.265   2.203   0.001
 3452SOL    HW211256   6.308   2.050   0.039
 3453SOL     OW11257   5.948   5.762   5.482
 3453SOL    HW111258   5.879   5.712   5.533
 3453SOL    HW211259   5.942   5.859   5.504
 3454SOL     OW11260   0.341   1.048   0.326
 3454SOL    HW111261   0.404   1.020   0.398
 3454SOL    HW211262   0.338   0.979   0.254
 3455SOL     OW11263   1.902   2.579   4.684
 3455SOL    HW111264   1.860   2.488   4.686
 3455SOL    HW211265   1.958   2.592   4.765
 3456SOL     OW11266   6.289   0.146   1.610
 3456SOL    HW111267   6.373   0.093   1.609
 3456SOL    HW211268   6.311   0.243   1.608
 3457SOL     OW11269   2.224   5.271   3.648
 3457SOL    HW111270   2.270   5.183   3.664
 3457SOL    HW211271   2.126   5.260   3.663
 3458SOL     OW11272   5.321   5.529   1.284
 3458SOL    HW111273   5.256   5.594   1.323
 3458SOL    HW211274   5.295   5.507   1.190
 3459SOL     OW11275   6.326   6.735   3.293
 3459SOL    HW111276   6.351   6.727   3.390
 3459SOL    HW211277   6.335   6.646   3.249
 3460SOL     OW11278   4.150   3.524   6.357
 3460SOL    HW111279   4.181   3.447   6.412
 3460SOL    HW211280   4.216   3.599   6.363
 3461SOL     OW11281   3.194   5.697   2.748
 3461SOL    HW111282   3.149   5.760   2.686
 3461SOL    HW211283   3.292   5.695   2.728
 3462SOL     OW11284   4.933   3.215   3.245
 3462SOL    HW111285   4.881   3.130   3.235
 3462SOL    HW211286   4.959   3.250   3.155
 3463SOL     OW11287   2.045   2.775   1.235
 3463SOL    HW111288   2.112   2.709   1.202
 3463SOL    HW211289   2.067   2.801   1.329
 3464SOL     OW11290   4.371   2.616   6.762
 3464SOL    HW111291   4.335   2.677   6.692
 3464SOL    HW211292   4.381   2.666   6.848
 3465SOL     OW11293   1.807   3.521   1.956
 3465SOL    HW111294   1.893   3.554   1.997
 3465SOL    HW211295   1.795   3.424   1.977
 3466SOL     OW11296   6.039   4.643   3.926
 3466SOL    HW111297   6.118   4.602   3.971
 3466SOL    HW211298   6.041   4.620   3.828
 3467SOL     OW11299   2.679   2.408   1.282
 3467SOL    HW111300   2.767   2.361   1.282
 3467SOL    HW211301   2.647   2.420   1.188
 3468SOL     OW11302   3.752   1.651   0.880
 3468SOL    HW111303   3.764   1.749   0.900
 3468SOL    HW211304   3.782   1.597   0.958
 3469SOL     OW11305   4.045   5.663   5.672
 3469SOL    HW111306   4.098   5.644   5.590
 3469SOL    HW211307   3.995   5.750   5.660
 3470SOL     OW11308   1.129   3.159   1.619
 3470SOL    HW111309   1.123   3.235   1.683
 3470SOL    HW211310   1.118   3.192   1.525
 3471SOL     OW11311   5.145   3.165   4.559
 3471SOL    HW111312   5.174   3.153   4.464
 3471SOL    HW211313   5.052   3.129   4.570
 3472SOL     OW11314   4.281   1.465   3.246
 3472SOL    HW111315   4.237   1.555   3.243
 3472SOL    HW211316   4.212   1.394   3.254
 3473SOL     OW11317   0.085   4.156   1.688
 3473SOL    HW111318   0.163   4.218   1.686
 3473SOL    HW211319   0.008   4.200   1.734
 3474SOL     OW11320   5.767   4.894   3.872
 3474SOL    HW111321   5.770   4.980   3.922
 3474SOL    HW211322   5.834   4.831   3.910
 3475SOL     OW11323   0.046   4.410   4.218
 3475SOL    HW111324   7.008   4.335   4.200
 3475SOL    HW211325   0.139   4.374   4.218
 3476SOL     OW11326   1.371   1.183   3.609
 3476SOL    HW111327   1.311   1.262   3.602
 3476SOL    HW211328   1.456   1.209   3.655
 3477SOL     OW11329   0.516   4.168   2.298
 3477SOL    HW111330   0.549   4.084   2.340
 3477SOL    HW211331   0.479   4.229   2.368
 3478SOL     OW11332   2.389   1.046   1.186
 3478SOL    HW111333   2.329   1.108   1.237
 3478SOL    HW211334   2.360   0.951   1.203
 3479SOL     OW11335   1.226   4.606   4.803
 3479SOL    HW111336   1.258   4.669   4.874
 3479SOL    HW211337   1.295   4.535   4.789
 3480SOL     OW11338   1.352   4.745   7.007
 3480SOL    HW111339   1.302   4.804   6.944
 3480SOL    HW211340   1.427   4.700   6.958
 3481SOL     OW11341   6.198   0.914   5.098
 3481SOL    HW111342   6.134   0.862   5.041
 3481SOL    HW211343   6.272   0.950   5.041
 3482SOL     OW11344   5.995   3.889   5.231
 3482SOL    HW111345   6.068   3.957   5.228
 3482SOL    HW211346   6.028   3.802   5.193
 3483SOL     OW11347   5.347   2.653   4.566
 3483SOL    HW111348   5.323   2.708   4.646
 3483SOL    HW211349   5.324   2.703   4.483
 3484SOL     OW11350   2.278   3.328   5.501
 3484SOL    HW111351   2.311   3.406   5.554
 3484SOL    HW211352   2.345   3.306   5.430
 3485SOL     OW11353   6.645   2.813   6.469
 3485SOL    HW111354   6.633   2.736   6.531
 3485SOL    HW211355   6.631   2.898   6.520
 3486SOL     OW11356   2.010   6.386   4.952
 3486SOL    HW111357   2.072   6.422   4.883
 3486SOL    HW211358   2.022   6.437   5.037
 3487SOL     OW11359   4.907   1.420   6.513
 3487SOL    HW111360   5.006   1.425   6.521
 3487SOL    HW211361   4.865   1.438   6.602
 3488SOL     OW11362   5.519   0.552   5.120
 3488SOL    HW111363   5.420   0.546   5.130
 3488SOL    HW211364   5.553   0.470   5.074
 3489SOL     OW11365   3.038   6.504   0.423
 3489SOL    HW111366   3.009   6.485   0.517
 3489SOL    HW211367   3.108   6.575   0.423
 3490SOL     OW11368   3.419   6.509   0.151
 3490SOL    HW111369   3.427   6.411   0.167
 3490SOL    HW211370   3.426   6.528   0.053
 3491SOL     OW11371   4.685   4.542   5.739
 3491SOL    HW111372   4.698   4.618   5.802
 3491SOL    HW211373   4.741   4.464   5.768
 3492SOL     OW11374   5.755   4.381   2.317
 3492SOL    HW111375   5.774   4.405   2.412
 3492SOL    HW211376   5.738   4.465   2.264
 3493SOL     OW11377   6.339   3.286   5.378
 3493SOL    HW111378   6.241   3.266   5.388
 3493SOL    HW211379   6.392   3.208   5.410
 3494SOL     OW11380   4.140   1.749   1.883
 3494SOL    HW111381   4.161   1.841   1.915
 3494SOL    HW211382   4.095   1.754   1.794
 3495SOL     OW11383   1.038   2.695   2.381
 3495SOL    HW111384   1.026   2.784   2.427
 3495SOL    HW211385   0.993   2.698   2.292
 3496SOL     OW11386   5.709   5.389   1.040
 3496SOL    HW111387   5.629   5.444   1.063
 3496SOL    HW211388   5.713   5.310   1.101
 3497SOL     OW11389   3.465   6.765   2.526
 3497SOL    HW111390   3.441   6.670   2.505
 3497SOL    HW211391   3.394   6.826   2.491
 3498SOL     OW11392   1.939   2.698   1.548
 3498SOL    HW111393   1.841   2.682   1.534
 3498SOL    HW211394   1.962   2.680   1.644
 3499SOL     OW11395   6.423   5.657   5.600
 3499SOL    HW111396   6.505   5.624   5.647
 3499SOL    HW211397   6.371   5.716   5.662
 3500SOL     OW11398   1.627   1.825   4.317
 3500SOL    HW111399   1.528   1.840   4.318
 3500SOL    HW211400   1.673   1.909   4.348
 3501SOL     OW11401   1.673   0.297   5.303
 3501SOL    HW111402   1.703   0.315   5.209
 3501SOL    HW211403   1.603   0.364   5.329
 3502SOL     OW11404   4.764   2.814   2.084
 3502SOL    HW111405   4.770   2.910   2.056
 3502SOL    HW211406   4.760   2.756   2.002
 3503SOL     OW11407   6.188   6.122   6.735
 3503SOL    HW111408   6.134   6.196   6.773
 3503SOL    HW211409   6.235   6.073   6.808
 3504SOL     OW11410   1.137   0.996   0.585
 3504SOL    HW111411   1.040   0.973   0.595
 3504SOL    HW211412   1.189   0.912   0.568
 3505SOL     OW11413   5.055   4.742   6.546
 3505SOL    HW111414   5.146   4.772   6.575
 3505SOL    HW211415   5.052   4.642   6.546
 3506SOL     OW11416   5.244   4.697   4.857
 3506SOL    HW111417   5.226   4.603   4.888
 3506SOL    HW211418   5.203   4.761   4.922
 3507SOL     OW11419   3.262   0.156   0.504
 3507SOL    HW111420   3.250   0.145   0.602
 3507SOL    HW211421   3.190   0.214   0.467
 3508SOL     OW11422   3.021   2.053   5.553
 3508SOL    HW111423   3.007   2.113   5.474
 3508SOL    HW211424   2.963   1.972   5.543
 3509SOL     OW11425   3.906   5.541   6.855
 3509SOL    HW111426   3.980   5.490   6.811
 3509SOL    HW211427   3.861   5.599   6.787
 3510SOL     OW11428   2.963   1.351   0.671
 3510SOL    HW111429   2.912   1.268   0.654
 3510SOL    HW211430   2.903   1.420   0.711
 3511SOL     OW11431   2.713   4.436   1.721
 3511SOL    HW111432   2.782   4.465   1.787
 3511SOL    HW211433   2.719   4.337   1.708
 3512SOL     OW11434   0.126   5.322   6.302
 3512SOL    HW111435   0.133   5.395   6.370
 3512SOL    HW211436   0.217   5.293   6.274
 3513SOL     OW11437   5.685   2.107   0.546
 3513SOL    HW111438   5.657   2.189   0.496
 3513SOL    HW211439   5.776   2.079   0.515
 3514SOL     OW11440   3.979   1.559   2.292
 3514SOL    HW111441   3.962   1.626   2.365
 3514SOL    HW211442   3.941   1.593   2.206
 3515SOL     OW11443   6.540   5.798   4.211
 3515SOL    HW111444   6.551   5.807   4.310
 3515SOL    HW211445   6.620   5.754   4.172
 3516SOL     OW11446   4.405   0.316   1.421
 3516SOL    HW111447   4.470   0.367   1.364
 3516SOL    HW211448   4.455   0.254   1.481
 3517SOL     OW11449   5.980   0.534   1.097
 3517SOL    HW111450   5.914   0.464   1.073
 3517SOL    HW211451   5.932   0.621   1.112
 3518SOL     OW11452   5.093   1.091   5.179
 3518SOL    HW111453   5.003   1.127   5.203
 3518SOL    HW211454   5.151   1.092   5.261
 3519SOL     OW11455   3.542   0.528   0.747
 3519SOL    HW111456   3.589   0.542   0.660
 3519SOL    HW211457   3.574   0.596   0.814
 3520SOL     OW11458   2.621   6.396   4.643
 3520SOL    HW111459   2.719   6.379   4.631
 3520SOL    HW211460   2.591   6.463   4.575
 3521SOL     OW11461   2.414   3.148   0.811
 3521SOL    HW111462   2.458   3.237   0.817
 3521SOL    HW211463   2.477   3.082   0.770
 3522SOL     OW11464   0.134   6.019   6.548
 3522SOL    HW111465   0.197   5.947   6.520
 3522SOL    HW211466   0.043   5.999   6.512
 3523SOL     OW11467   1.977   5.244   6.757
 3523SOL    HW111468   1.941   5.322   6.706
 3523SOL    HW211469   1.913   5.167   6.749
 3524SOL     OW11470   5.232   1.330   3.444
 3524SOL    HW111471   5.318   1.325   3.496
 3524SOL    HW211472   5.252   1.344   3.347
 3525SOL     OW11473   6.279   3.915   3.401
 3525SOL    HW111474   6.260   3.973   3.321
 3525SOL    HW211475   6.377   3.899   3.407
 3526SOL     OW11476   0.709   6.629   3.226
 3526SOL    HW111477   0.629   6.686   3.210
 3526SOL    HW211478   0.683   6.533   3.221
 3527SOL     OW11479   0.250   2.429   5.481
 3527SOL    HW111480   0.241   2.522   5.518
 3527SOL    HW211481   0.234   2.363   5.555
 3528SOL     OW11482   2.313   5.996   4.624
 3528SOL    HW111483   2.244   5.928   4.601
 3528SOL    HW211484   2.274   6.062   4.689
 3529SOL     OW11485   4.679   5.192   1.306
 3529SOL    HW111486   4.635   5.215   1.393
 3529SOL    HW211487   4.650   5.256   1.236
 3530SOL     OW11488   0.127   0.348   2.085
 3530SOL    HW111489   0.136   0.424   2.149
 3530SOL    HW211490   0.211   0.294   2.086
 3531SOL     OW11491   5.367   2.104   0.077
 3531SOL    HW111492   5.317   2.189   0.093
 3531SOL    HW211493   5.459   2.111   0.116
 3532SOL     OW11494   2.264   1.587   1.567
 3532SOL    HW111495   2.285   1.594   1.469
 3532SOL    HW211496   2.291   1.497   1.601
 3533SOL     OW11497   0.805   1.448   2.801
 3533SOL    HW111498   0.747   1.496   2.867
 3533SOL    HW211499   0.894   1.493   2.795
 3534SOL     OW11500   0.114   1.308   1.094
 3534SOL    HW111501   0.194   1.254   1.120
 3534SOL    HW211502   0.098   1.298   0.996
 3535SOL     OW11503   2.997   5.973   4.603
 3535SOL    HW111504   2.973   6.031   4.525
 3535SOL    HW211505   2.916   5.925   4.635
 3536SOL     OW11506   3.777   2.113   2.886
 3536SOL    HW111507   3.711   2.168   2.835
 3536SOL    HW211508   3.728   2.060   2.956
 3537SOL     OW11509   1.751   5.931   2.999
 3537SOL    HW111510   1.699   5.885   2.927
 3537SOL    HW211511   1.848   5.927   2.977
 3538SOL     OW11512   3.266   5.513   3.689
 3538SOL    HW111513   3.254   5.527   3.788
 3538SOL    HW211514   3.351   5.463   3.673
 3539SOL     OW11515   3.271   3.527   4.547
 3539SOL    HW111516   3.295   3.442   4.501
 3539SOL    HW211517   3.326   3.602   4.509
 3540SOL     OW11518   1.908   2.054   3.778
 3540SOL    HW111519   1.910   1.954   3.779
 3540SOL    HW211520   1.965   2.088   3.853
 3541SOL     OW11521   3.054   4.135   5.153
 3541SOL    HW111522   3.072   4.079   5.072
 3541SOL    HW211523   2.955   4.144   5.164
 3542SOL     OW11524   0.447   5.530   1.767
 3542SOL    HW111525   0.451   5.628   1.785
 3542SOL    HW211526   0.354   5.497   1.780
 3543SOL     OW11527   6.287   2.548   4.828
 3543SOL    HW111528   6.202   2.600   4.837
 3543SOL    HW211529   6.265   2.451   4.816
 3544SOL     OW11530   2.112   5.582   6.535
 3544SOL    HW111531   2.030   5.525   6.539
 3544SOL    HW211532   2.175   5.557   6.609
 3545SOL     OW11533   3.453   5.339   6.762
 3545SOL    HW111534   3.422   5.431   6.786
 3545SOL    HW211535   3.551   5.331   6.782
 3546SOL     OW11536   6.067   4.621   2.850
 3546SOL    HW111537   5.999   4.553   2.823
 3546SOL    HW211538   6.064   4.698   2.786
 3547SOL     OW11539   5.343   4.726   4.061
 3547SOL    HW111540   5.299   4.815   4.074
 3547SOL    HW211541   5.440   4.733   4.083
 3548SOL     OW11542   4.730   3.036   5.287
 3548SOL    HW111543   4.785   3.041   5.203
 3548SOL    HW211544   4.664   2.962   5.279
 3549SOL     OW11545   5.930   4.036   2.656
 3549SOL    HW111546   5.959   4.091   2.577
 3549SOL    HW211547   6.003   4.036   2.724
 3550SOL     OW11548   5.922   2.494   2.520
 3550SOL    HW111549   5.992   2.456   2.459
 3550SOL    HW211550   5.870   2.564   2.472
 3551SOL     OW11551   2.394   6.698   2.864
 3551SOL    HW111552   2.382   6.792   2.832
 3551SOL    HW211553   2.375   6.694   2.962
 3552SOL     OW11554   6.695   4.658   2.876
 3552SOL    HW111555   6.655   4.594   2.811
 3552SOL    HW211556   6.630   4.675   2.950
 3553SOL     OW11557   5.851   2.133   3.121
 3553SOL    HW111558   5.845   2.223   3.165
 3553SOL    HW211559   5.944   2.118   3.089
 3554SOL     OW11560   4.109   5.387   6.712
 3554SOL    HW111561   4.196   5.366   6.756
 3554SOL    HW211562   4.054   5.304   6.705
 3555SOL     OW11563   1.089   2.982   3.433
 3555SOL    HW111564   1.120   3.076   3.418
 3555SOL    HW211565   1.126   2.949   3.520
 3556SOL     OW11566   3.677   0.652   6.506
 3556SOL    HW111567   3.727   0.637   6.592
 3556SOL    HW211568   3.631   0.568   6.479
 3557SOL     OW11569   0.880   0.692   4.841
 3557SOL    HW111570   0.890   0.595   4.822
 3557SOL    HW211571   0.944   0.719   4.913
 3558SOL     OW11572   6.974   5.517   1.412
 3558SOL    HW111573   7.022   5.435   1.382
 3558SOL    HW211574   6.912   5.548   1.339
 3559SOL     OW11575   0.889   1.438   5.531
 3559SOL    HW111576   0.943   1.510   5.487
 3559SOL    HW211577   0.796   1.439   5.496
 3560SOL     OW11578   6.815   6.367   1.540
 3560SOL    HW111579   6.726   6.411   1.526
 3560SOL    HW211580   6.807   6.269   1.520
 3561SOL     OW11581   4.445   4.911   4.414
 3561SOL    HW111582   4.369   4.940   4.472
 3561SOL    HW211583   4.514   4.984   4.411
 3562SOL     OW11584   4.644   1.914   3.043
 3562SOL    HW111585   4.612   1.985   2.980
 3562SOL    HW211586   4.643   1.826   2.997
 3563SOL     OW11587   4.581   0.577   1.263
 3563SOL    HW111588   4.594   0.592   1.361
 3563SOL    HW211589   4.573   0.666   1.217
 3564SOL     OW11590   0.255   4.415   3.189
 3564SOL    HW111591   0.231   4.329   3.143
 3564SOL    HW211592   0.210   4.491   3.141
 3565SOL     OW11593   2.091   6.933   5.071
 3565SOL    HW111594   2.165   6.882   5.026
 3565SOL    HW211595   2.008   6.878   5.072
 3566SOL     OW11596   0.321   3.933   5.525
 3566SOL    HW111597   0.368   3.941   5.437
 3566SOL    HW211598   0.381   3.888   5.591
 3567SOL     OW11599   0.205   2.965   0.858
 3567SOL    HW111600   0.204   3.000   0.952
 3567SOL    HW211601   0.112   2.968   0.821
 3568SOL     OW11602   5.291   3.608   3.797
 3568SOL    HW111603   5.241   3.524   3.820
 3568SOL    HW211604   5.266   3.680   3.861
 3569SOL     OW11605   3.733   3.249   3.853
 3569SOL    HW111606   3.765   3.156   3.835
 3569SOL    HW211607   3.789   3.290   3.926
 3570SOL     OW11608   0.528   2.418   5.663
 3570SOL    HW111609   0.438   2.375   5.661
 3570SOL    HW211610   0.527   2.500   5.605
 3571SOL     OW11611   2.375   6.722   5.110
 3571SOL    HW111612   2.392   6.633   5.152
 3571SOL    HW211613   2.442   6.738   5.037
 3572SOL     OW11614   4.776   4.672   2.009
 3572SOL    HW111615   4.860   4.696   1.960
 3572SOL    HW211616   4.724   4.755   2.028
 3573SOL     OW11617   0.468   4.030   3.118
 3573SOL    HW111618   0.418   3.948   3.091
 3573SOL    HW211619   0.459   4.045   3.216
 3574SOL     OW11620   2.282   1.729   5.389
 3574SOL    HW111621   2.329   1.814   5.413
 3574SOL    HW211622   2.346   1.667   5.343
 3575SOL     OW11623   5.415   6.871   0.061
 3575SOL    HW111624   5.450   6.893   6.996
 3575SOL    HW211625   5.491   6.870   0.126
 3576SOL     OW11626   1.237   2.425   1.102
 3576SOL    HW111627   1.308   2.359   1.126
 3576SOL    HW211628   1.149   2.378   1.090
 3577SOL     OW11629   2.174   2.919   5.613
 3577SOL    HW111630   2.074   2.926   5.613
 3577SOL    HW211631   2.202   2.842   5.556
 3578SOL     OW11632   3.381   2.815   6.364
 3578SOL    HW111633   3.470   2.847   6.396
 3578SOL    HW211634   3.309   2.870   6.406
 3579SOL     OW11635   0.693   3.265   1.900
 3579SOL    HW111636   0.722   3.170   1.898
 3579SOL    HW211637   0.639   3.285   1.818
 3580SOL     OW11638   0.782   4.278   1.872
 3580SOL    HW111639   0.722   4.230   1.807
 3580SOL    HW211640   0.805   4.369   1.835
 3581SOL     OW11641   1.429   0.428   2.781
 3581SOL    HW111642   1.450   0.480   2.864
 3581SOL    HW211643   1.333   0.400   2.784
 3582SOL     OW11644   4.263   4.902   6.484
 3582SOL    HW111645   4.196   4.831   6.463
 3582SOL    HW211646   4.234   4.988   6.444
 3583SOL     OW11647   1.148   4.711   0.989
 3583SOL    HW111648   1.109   4.734   0.900
 3583SOL    HW211649   1.122   4.617   1.014
 3584SOL     OW11650   6.559   4.825   4.879
 3584SOL    HW111651   6.568   4.729   4.855
 3584SOL    HW211652   6.513   4.875   4.806
 3585SOL     OW11653   3.338   1.405   3.074
 3585SOL    HW111654   3.305   1.314   3.049
 3585SOL    HW211655   3.311   1.471   3.003
 3586SOL     OW11656   0.148   2.489   5.228
 3586SOL    HW111657   0.139   2.393   5.204
 3586SOL    HW211658   0.179   2.497   5.322
 3587SOL     OW11659   2.814   6.717   6.271
 3587SOL    HW111660   2.761   6.771   6.337
 3587SOL    HW211661   2.911   6.738   6.282
 3588SOL     OW11662   6.546   4.989   4.651
 3588SOL    HW111663   6.501   5.074   4.624
 3588SOL    HW211664   6.644   5.006   4.664
 3589SOL     OW11665   0.178   0.476   5.543
 3589SOL    HW111666   0.248   0.503   5.610
 3589SOL    HW211667   0.108   0.422   5.589
 3590SOL     OW11668   0.047   5.409   0.149
 3590SOL    HW111669   7.017   5.455   0.219
 3590SOL    HW211670   0.044   5.462   0.064
 3591SOL     OW11671   6.139   1.209   6.757
 3591SOL    HW111672   6.074   1.275   6.795
 3591SOL    HW211673   6.102   1.117   6.767
 3592SOL     OW11674   1.463   5.966   1.766
 3592SOL    HW111675   1.560   5.944   1.770
 3592SOL    HW211676   1.435   5.978   1.671
 3593SOL     OW11677   4.128   2.989   5.332
 3593SOL    HW111678   4.199   2.922   5.353
 3593SOL    HW211679   4.083   2.964   5.246
 3594SOL     OW11680   4.489   4.754   5.082
 3594SOL    HW111681   4.439   4.668   5.072
 3594SOL    HW211682   4.580   4.745   5.042
 3595SOL     OW11683   5.229   6.136   4.563
 3595SOL    HW111684   5.147   6.189   4.584
 3595SOL    HW211685   5.240   6.064   4.630
 3596SOL     OW11686   4.047   1.730   3.542
 3596SOL    HW111687   4.036   1.692   3.450
 3596SOL    HW211688   4.134   1.698   3.580
 3597SOL     OW11689   2.983   3.357   5.768
 3597SOL    HW111690   2.967   3.448   5.731
 3597SOL    HW211691   2.903   3.299   5.752
 3598SOL     OW11692   1.099   6.058   5.068
 3598SOL    HW111693   1.115   6.138   5.010
 3598SOL    HW211694   1.066   5.982   5.013
 3599SOL     OW11695   3.291   1.297   5.150
 3599SOL    HW111696   3.257   1.207   5.123
 3599SOL    HW211697   3.391   1.299   5.140
 3600SOL     OW11698   3.340   3.446   6.982
 3600SOL    HW111699   3.286   3.373   7.023
 3600SOL    HW211700   3.288   3.532   6.986
 3601SOL     OW11701   4.491   1.062   4.903
 3601SOL    HW111702   4.434   1.053   4.821
 3601SOL    HW211703   4.540   1.149   4.900
 3602SOL     OW11704   2.071   1.673   1.089
 3602SOL    HW111705   2.083   1.573   1.090
 3602SOL    HW211706   2.104   1.710   1.176
 3603SOL     OW11707   2.630   0.439   5.358
 3603SOL    HW111708   2.580   0.380   5.421
 3603SOL    HW211709   2.661   0.521   5.406
 3604SOL     OW11710   0.082   0.664   3.340
 3604SOL    HW111711   0.049   0.596   3.406
 3604SOL    HW211712   0.047   0.754   3.366
 3605SOL     OW11713   1.340   6.730   4.113
 3605SOL    HW111714   1.323   6.812   4.168
 3605SOL    HW211715   1.409   6.750   4.043
 3606SOL     OW11716   2.618   0.265   2.478
 3606SOL    HW111717   2.532   0.317   2.469
 3606SOL    HW211718   2.634   0.243   2.574
 3607SOL     OW11719   5.885   1.750   3.227
 3607SOL    HW111720   5.853   1.708   3.142
 3607SOL    HW211721   5.810   1.752   3.293
 3608SOL     OW11722   2.743   1.756   5.712
 3608SOL    HW111723   2.778   1.777   5.621
 3608SOL    HW211724   2.651   1.716   5.704
 3609SOL     OW11725   3.370   0.921   4.769
 3609SOL    HW111726   3.389   0.823   4.773
 3609SOL    HW211727   3.455   0.971   4.753
 3610SOL     OW11728   1.629   0.657   5.426
 3610SOL    HW111729   1.629   0.722   5.350
 3610SOL    HW211730   1.571   0.579   5.403
 3611SOL     OW11731   5.475   4.703   2.975
 3611SOL    HW111732   5.450   4.783   3.030
 3611SOL    HW211733   5.393   4.650   2.955
 3612SOL     OW11734   6.003   1.172   0.013
 3612SOL    HW111735   6.061   1.239   0.059
 3612SOL    HW211736   5.917   1.215   7.013
 3613SOL     OW11737   4.302   6.395   2.288
 3613SOL    HW111738   4.233   6.338   2.243
 3613SOL    HW211739   4.291   6.490   2.258
 3614SOL     OW11740   3.550   5.773   6.924
 3614SOL    HW111741   3.611   5.714   6.977
 3614SOL    HW211742   3.563   5.868   6.952
 3615SOL     OW11743   5.834   2.238   5.765
 3615SOL    HW111744   5.829   2.273   5.672
 3615SOL    HW211745   5.793   2.305   5.828
 3616SOL     OW11746   1.261   2.245   0.265
 3616SOL    HW111747   1.164   2.268   0.272
 3616SOL    HW211748   1.300   2.238   0.357
 3617SOL     OW11749   3.633   5.968   5.573
 3617SOL    HW111750   3.604   6.017   5.491
 3617SOL    HW211751   3.594   5.876   5.572
 3618SOL     OW11752   0.861   5.049   4.033
 3618SOL    HW111753   0.848   4.952   4.016
 3618SOL    HW211754   0.916   5.089   3.960
 3619SOL     OW11755   6.157   3.368   1.982
 3619SOL    HW111756   6.099   3.287   1.979
 3619SOL    HW211757   6.125   3.430   2.054
 3620SOL     OW11758   5.812   5.812   4.798
 3620SOL    HW111759   5.774   5.822   4.706
 3620SOL    HW211760   5.766   5.736   4.845
 3621SOL     OW11761   4.014   3.446   3.311
 3621SOL    HW111762   4.012   3.354   3.350
 3621SOL    HW211763   3.927   3.492   3.330
 3622SOL     OW11764   1.401   6.205   5.996
 3622SOL    HW111765   1.410   6.292   6.044
 3622SOL    HW211766   1.489   6.179   5.957
 3623SOL     OW11767   1.065   5.668   6.226
 3623SOL    HW111768   1.132   5.685   6.155
 3623SOL    HW211769   0.974   5.693   6.193
 3624SOL     OW11770   2.584   2.396   1.549
 3624SOL    HW111771   2.621   2.379   1.458
 3624SOL    HW211772   2.493   2.436   1.541
 3625SOL     OW11773   6.623   2.592   0.795
 3625SOL    HW111774   6.712   2.554   0.817
 3625SOL    HW211775   6.556   2.564   0.864
 3626SOL     OW11776   2.005   3.191   5.431
 3626SOL    HW111777   2.068   3.242   5.490
 3626SOL    HW211778   2.015   3.223   5.337
 3627SOL     OW11779   3.606   2.106   2.285
 3627SOL    HW111780   3.593   2.198   2.323
 3627SOL    HW211781   3.620   2.113   2.187
 3628SOL     OW11782   6.433   2.005   1.599
 3628SOL    HW111783   6.485   2.080   1.639
 3628SOL    HW211784   6.337   2.032   1.592
 3629SOL     OW11785   1.364   1.506   4.575
 3629SOL    HW111786   1.354   1.595   4.618
 3629SOL    HW211787   1.273   1.469   4.553
 3630SOL     OW11788   6.873   1.847   1.218
 3630SOL    HW111789   6.831   1.756   1.219
 3630SOL    HW211790   6.824   1.907   1.281
 3631SOL     OW11791   2.060   6.880   2.033
 3631SOL    HW111792   2.050   6.973   1.997
 3631SOL    HW211793   1.970   6.838   2.043
 3632SOL     OW11794   4.532   3.834   1.637
 3632SOL    HW111795   4.568   3.742   1.654
 3632SOL    HW211796   4.432   3.833   1.646
 3633SOL     OW11797   4.029   4.440   0.267
 3633SOL    HW111798   4.104   4.494   0.231
 3633SOL    HW211799   3.979   4.397   0.191
 3634SOL     OW11800   2.968   5.353   6.569
 3634SOL    HW111801   2.948   5.444   6.531
 3634SOL    HW211802   3.028   5.303   6.507
 3635SOL     OW11803   1.586   6.038   2.389
 3635SOL    HW111804   1.556   6.128   2.420
 3635SOL    HW211805   1.674   6.015   2.431
 3636SOL     OW11806   0.400   5.248   6.239
 3636SOL    HW111807   0.396   5.242   6.140
 3636SOL    HW211808   0.472   5.188   6.273
 3637SOL     OW11809   6.111   3.182   0.205
 3637SOL    HW111810   6.196   3.136   0.181
 3637SOL    HW211811   6.046   3.115   0.241
 3638SOL     OW11812   0.092   3.128   3.425
 3638SOL    HW111813   0.105   3.060   3.498
 3638SOL    HW211814   0.083   3.081   3.337
 3639SOL     OW11815   4.079   3.457   3.636
 3639SOL    HW111816   3.990   3.421   3.607
 3639SOL    HW211817   4.149   3.388   3.618
 3640SOL     OW11818   4.414   2.086   1.785
 3640SOL    HW111819   4.319   2.063   1.807
 3640SOL    HW211820   4.416   2.172   1.734
 3641SOL     OW11821   6.036   4.259   2.497
 3641SOL    HW111822   6.120   4.312   2.508
 3641SOL    HW211823   6.019   4.242   2.400
 3642SOL     OW11824   5.338   3.152   6.193
 3642SOL    HW111825   5.428   3.190   6.212
 3642SOL    HW211826   5.346   3.054   6.175
 3643SOL     OW11827   4.104   5.658   4.637
 3643SOL    HW111828   4.069   5.685   4.727
 3643SOL    HW211829   4.039   5.595   4.594
 3644SOL     OW11830   2.776   0.458   1.728
 3644SOL    HW111831   2.775   0.558   1.728
 3644SOL    HW211832   2.871   0.426   1.725
 3645SOL     OW11833   1.525   4.191   3.545
 3645SOL    HW111834   1.429   4.186   3.570
 3645SOL    HW211835   1.563   4.099   3.536
 3646SOL     OW11836   1.359   4.898   5.690
 3646SOL    HW111837   1.380   4.906   5.592
 3646SOL    HW211838   1.273   4.848   5.702
 3647SOL     OW11839   2.331   6.983   6.884
 3647SOL    HW111840   2.412   6.928   6.905
 3647SOL    HW211841   2.354   0.024   6.814
 3648SOL     OW11842   4.592   5.546   3.394
 3648SOL    HW111843   4.623   5.613   3.327
 3648SOL    HW211844   4.546   5.593   3.469
 3649SOL     OW11845   5.720   2.341   0.413
 3649SOL    HW111846   5.662   2.413   0.373
 3649SOL    HW211847   5.816   2.369   0.405
 3650SOL     OW11848   5.566   5.855   6.148
 3650SOL    HW111849   5.484   5.854   6.205
 3650SOL    HW211850   5.541   5.838   6.053
 3651SOL     OW11851   1.036   1.964   5.884
 3651SOL    HW111852   1.036   2.028   5.961
 3651SOL    HW211853   1.128   1.958   5.845
 3652SOL     OW11854   4.578   1.814   1.662
 3652SOL    HW111855   4.574   1.862   1.749
 3652SOL    HW211856   4.487   1.808   1.622
 3653SOL     OW11857   1.774   1.824   0.913
 3653SOL    HW111858   1.852   1.786   0.864
 3653SOL    HW211859   1.783   1.802   1.011
 3654SOL     OW11860   4.466   6.569   1.829
 3654SOL    HW111861   4.514   6.604   1.748
 3654SOL    HW211862   4.503   6.479   1.854
 3655SOL     OW11863   0.968   1.084   4.052
 3655SOL    HW111864   0.897   1.058   3.986
 3655SOL    HW211865   0.929   1.088   4.143
 3656SOL     OW11866   0.271   0.235   1.098
 3656SOL    HW111867   0.205   0.309   1.110
 3656SOL    HW211868   0.224   0.147   1.108
 3657SOL     OW11869   5.765   5.398   6.389
 3657SOL    HW111870   5.713   5.482   6.372
 3657SOL    HW211871   5.747   5.333   6.315
 3658SOL     OW11872   1.978   4.527   5.683
 3658SOL    HW111873   2.053   4.502   5.744
 3658SOL    HW211874   1.939   4.614   5.713
 3659SOL     OW11875   0.391   2.741   6.438
 3659SOL    HW111876   0.401   2.839   6.420
 3659SOL    HW211877   0.438   2.718   6.522
 3660SOL     OW11878   4.727   5.740   5.598
 3660SOL    HW111879   4.801   5.800   5.568
 3660SOL    HW211880   4.751   5.697   5.685
 3661SOL     OW11881   0.119   1.412   4.581
 3661SOL    HW111882   0.218   1.411   4.595
 3661SOL    HW211883   0.081   1.496   4.619
 3662SOL     OW11884   3.311   1.840   5.959
 3662SOL    HW111885   3.304   1.892   5.874
 3662SOL    HW211886   3.406   1.814   5.974
 3663SOL     OW11887   2.471   2.599   6.486
 3663SOL    HW111888   2.377   2.564   6.484
 3663SOL    HW211889   2.469   2.699   6.486
 3664SOL     OW11890   3.266   2.033   1.015
 3664SOL    HW111891   3.181   2.057   1.061
 3664SOL    HW211892   3.333   2.107   1.028
 3665SOL     OW11893   0.372   5.606   5.986
 3665SOL    HW111894   0.330   5.515   5.976
 3665SOL    HW211895   0.459   5.607   5.937
 3666SOL     OW11896   2.209   3.112   4.379
 3666SOL    HW111897   2.231   3.019   4.409
 3666SOL    HW211898   2.258   3.178   4.437
 3667SOL     OW11899   1.743   6.747   1.242
 3667SOL    HW111900   1.767   6.803   1.163
 3667SOL    HW211901   1.650   6.712   1.232
 3668SOL     OW11902   6.297   1.151   0.699
 3668SOL    HW111903   6.304   1.132   0.797
 3668SOL    HW211904   6.307   1.249   0.683
 3669SOL     OW11905   0.909   0.865   3.544
 3669SOL    HW111906   1.001   0.889   3.511
 3669SOL    HW211907   0.850   0.843   3.467
 3670SOL     OW11908   2.623   0.399   1.511
 3670SOL    HW111909   2.697   0.411   1.578
 3670SOL    HW211910   2.556   0.472   1.522
 3671SOL     OW11911   6.975   0.723   4.598
 3671SOL    HW111912   7.019   0.808   4.625
 3671SOL    HW211913   6.937   0.677   4.679
 3672SOL     OW11914   3.488   0.118   3.805
 3672SOL    HW111915   3.534   0.103   3.718
 3672SOL    HW211916   3.556   0.145   3.874
 3673SOL     OW11917   3.559   0.020   1.349
 3673SOL    HW111918   3.592   0.103   1.303
 3673SOL    HW211919   3.542   6.975   1.281
 3674SOL     OW11920   0.328   4.792   6.922
 3674SOL    HW111921   0.247   4.769   6.976
 3674SOL    HW211922   0.305   4.786   6.824
 3675SOL     OW11923   0.538   0.938   3.803
 3675SOL    HW111924   0.546   0.869   3.875
 3675SOL    HW211925   0.529   0.893   3.714
 3676SOL     OW11926   3.564   1.290   5.040
 3676SOL    HW111927   3.654   1.309   5.077
 3676SOL    HW211928   3.572   1.237   4.955
 3677SOL     OW11929   1.144   1.172   4.333
 3677SOL    HW111930   1.136   1.103   4.405
 3677SOL    HW211931   1.194   1.134   4.255
 3678SOL     OW11932   1.478   0.900   3.540
 3678SOL    HW111933   1.442   0.858   3.623
 3678SOL    HW211934   1.471   1.000   3.548
 3679SOL     OW11935   3.837   0.423   2.369
 3679SOL    HW111936   3.777   0.342   2.368
 3679SOL    HW211937   3.932   0.394   2.380
 3680SOL     OW11938   3.332   2.081   4.716
 3680SOL    HW111939   3.292   2.038   4.635
 3680SOL    HW211940   3.287   2.168   4.734
 3681SOL     OW11941   0.967   6.603   4.218
 3681SOL    HW111942   1.016   6.569   4.138
 3681SOL    HW211943   0.869   6.603   4.199
 3682SOL     OW11944   5.160   2.111   0.814
 3682SOL    HW111945   5.160   2.168   0.896
 3682SOL    HW211946   5.252   2.107   0.777
 3683SOL     OW11947   6.555   1.608   0.559
 3683SOL    HW111948   6.553   1.693   0.612
 3683SOL    HW211949   6.598   1.536   0.613
 3684SOL     OW11950   2.839   6.167   5.291
 3684SOL    HW111951   2.880   6.159   5.382
 3684SOL    HW211952   2.893   6.230   5.235
 3685SOL     OW11953   1.730   6.216   4.422
 3685SOL    HW111954   1.637   6.207   4.460
 3685SOL    HW211955   1.786   6.139   4.455
 3686SOL     OW11956   0.063   3.820   0.796
 3686SOL    HW111957   0.009   3.739   0.771
 3686SOL    HW211958   0.151   3.790   0.834
 3687SOL     OW11959   5.958   4.322   4.487
 3687SOL    HW111960   6.015   4.299   4.409
 3687SOL    HW211961   5.983   4.413   4.522
 3688SOL     OW11962   6.566   2.438   1.420
 3688SOL    HW111963   6.595   2.511   1.357
 3688SOL    HW211964   6.647   2.398   1.463
 3689SOL     OW11965   0.866   0.718   6.183
 3689SOL    HW111966   0.927   0.643   6.159
 3689SOL    HW211967   0.771   0.690   6.169
 3690SOL     OW11968   5.654   5.204   1.764
 3690SOL    HW111969   5.620   5.295   1.790
 3690SOL    HW211970   5.746   5.191   1.800
 3691SOL     OW11971   1.713   2.798   0.611
 3691SOL    HW111972   1.678   2.708   0.636
 3691SOL    HW211973   1.658   2.869   0.656
 3692SOL     OW11974   1.133   2.985   5.132
 3692SOL    HW111975   1.040   2.947   5.130
 3692SOL    HW211976   1.134   3.067   5.188
 3693SOL     OW11977   0.409   1.522   2.670
 3693SOL    HW111978   0.317   1.541   2.706
 3693SOL    HW211979   0.410   1.431   2.627
 3694SOL     OW11980   6.555   0.228   2.989
 3694SOL    HW111981   6.625   0.199   2.924
 3694SOL    HW211982   6.471   0.174   2.974
 3695SOL     OW11983   5.876   3.685   3.457
 3695SOL    HW111984   5.911   3.708   3.548
 3695SOL    HW211985   5.777   3.697   3.455
 3696SOL     OW11986   4.129   0.785   4.359
 3696SOL    HW111987   4.048   0.727   4.346
 3696SOL    HW211988   4.202   0.754   4.298
 3697SOL     OW11989   6.677   6.279   2.905
 3697SOL    HW111990   6.663   6.329   2.820
 3697SOL    HW211991   6.654   6.337   2.982
 3698SOL     OW11992   1.803   0.415   3.360
 3698SOL    HW111993   1.835   0.510   3.355
 3698SOL    HW211994   1.836   0.374   3.445
 3699SOL     OW11995   2.655   2.321   3.347
 3699SOL    HW111996   2.592   2.266   3.292
 3699SOL    HW211997   2.729   2.356   3.289
 3700SOL     OW11998   1.006   4.853   5.036
 3700SOL    HW111999   1.085   4.901   4.996
 3700SOL    HW212000   0.984   4.774   4.979
 3701SOL     OW12001   0.288   1.092   2.468
 3701SOL    HW112002   0.192   1.117   2.484
 3701SOL    HW212003   0.292   1.014   2.406
 3702SOL     OW12004   6.452   3.759   3.946
 3702SOL    HW112005   6.488   3.830   3.886
 3702SOL    HW212006   6.353   3.772   3.957
 3703SOL     OW12007   1.477   1.484   3.522
 3703SOL    HW112008   1.490   1.460   3.618
 3703SOL    HW212009   1.548   1.440   3.467
 3704SOL     OW12010   6.111   0.965   0.851
 3704SOL    HW112011   6.132   1.004   0.762
 3704SOL    HW212012   6.081   0.870   0.840
 3705SOL     OW12013   5.681   4.340   3.760
 3705SOL    HW112014   5.586   4.371   3.765
 3705SOL    HW212015   5.720   4.338   3.852
 3706SOL     OW12016   1.328   5.109   6.457
 3706SOL    HW112017   1.245   5.126   6.405
 3706SOL    HW212018   1.400   5.172   6.427
 3707SOL     OW12019   1.008   4.662   3.495
 3707SOL    HW112020   1.026   4.670   3.397
 3707SOL    HW212021   1.052   4.580   3.531
 3708SOL     OW12022   1.955   6.282   0.908
 3708SOL    HW112023   1.976   6.237   0.995
 3708SOL    HW212024   1.923   6.375   0.926
 3709SOL     OW12025   0.977   1.287   1.973
 3709SOL    HW112026   1.061   1.341   1.974
 3709SOL    HW212027   0.914   1.325   1.905
 3710SOL     OW12028   1.346   3.731   5.041
 3710SOL    HW112029   1.288   3.786   5.101
 3710SOL    HW212030   1.410   3.678   5.097
 3711SOL     OW12031   1.346   5.740   4.805
 3711SOL    HW112032   1.388   5.711   4.718
 3711SOL    HW212033   1.400   5.704   4.881
 3712SOL     OW12034   2.739   5.489   4.697
 3712SOL    HW112035   2.684   5.471   4.778
 3712SOL    HW212036   2.790   5.574   4.709
 3713SOL     OW12037   5.935   0.832   5.018
 3713SOL    HW112038   5.937   0.883   4.932
 3713SOL    HW212039   5.841   0.809   5.041
 3714SOL     OW12040   0.262   4.094   0.094
 3714SOL    HW112041   0.274   4.150   0.176
 3714SOL    HW212042   0.169   4.058   0.092
 3715SOL     OW12043   6.066   4.536   3.523
 3715SOL    HW112044   6.101   4.630   3.521
 3715SOL    HW212045   6.055   4.503   3.430
 3716SOL     OW12046   5.271   5.777   5.098
 3716SOL    HW112047   5.342   5.714   5.128
 3716SOL    HW212048   5.263   5.852   5.165
 3717SOL     OW12049   4.665   0.801   0.321
 3717SOL    HW112050   4.633   0.792   0.227
 3717SOL    HW212051   4.617   0.877   0.366
 3718SOL     OW12052   6.069   6.516   6.508
 3718SOL    HW112053   6.087   6.505   6.411
 3718SOL    HW212054   5.999   6.587   6.521
 3719SOL     OW12055   3.214   4.175   0.348
 3719SOL    HW112056   3.227   4.274   0.354
 3719SOL    HW212057   3.241   4.133   0.435
 3720SOL     OW12058   0.367   2.997   1.182
 3720SOL    HW112059   0.273   3.014   1.155
 3720SOL    HW212060   0.371   2.974   1.279
 3721SOL     OW12061   6.509   0.504   5.744
 3721SOL    HW112062   6.520   0.407   5.765
 3721SOL    HW212063   6.471   0.551   5.824
 3722SOL     OW12064   5.621   6.201   1.931
 3722SOL    HW112065   5.645   6.286   1.978
 3722SOL    HW212066   5.688   6.130   1.953
 3723SOL     OW12067   4.718   3.732   6.406
 3723SOL    HW112068   4.677   3.817   6.439
 3723SOL    HW212069   4.817   3.743   6.399
 3724SOL     OW12070   0.504   4.017   4.450
 3724SOL    HW112071   0.472   4.030   4.356
 3724SOL    HW212072   0.598   3.984   4.450
 3725SOL     OW12073   1.162   6.123   0.627
 3725SOL    HW112074   1.096   6.086   0.561
 3725SOL    HW212075   1.116   6.184   0.690
 3726SOL     OW12076   6.259   3.996   5.699
 3726SOL    HW112077   6.256   4.093   5.675
 3726SOL    HW212078   6.354   3.964   5.696
 3727SOL     OW12079   6.683   2.573   4.186
 3727SOL    HW112080   6.658   2.517   4.108
 3727SOL    HW212081   6.635   2.661   4.181
 3728SOL     OW12082   2.667   4.539   0.711
 3728SOL    HW112083   2.645   4.474   0.638
 3728SOL    HW212084   2.727   4.495   0.777
 3729SOL     OW12085   0.165   0.261   5.772
 3729SOL    HW112086   0.228   0.261   5.695
 3729SOL    HW212087   0.071   0.252   5.739
 3730SOL     OW12088   4.867   5.158   4.792
 3730SOL    HW112089   4.892   5.105   4.874
 3730SOL    HW212090   4.769   5.174   4.792
 3731SOL     OW12091   0.313   2.069   0.865
 3731SOL    HW112092   0.366   1.986   0.847
 3731SOL    HW212093   0.255   2.090   0.787
 3732SOL     OW12094   3.789   3.150   0.041
 3732SOL    HW112095   3.862   3.150   0.109
 3732SOL    HW212096   3.824   3.182   6.980
 3733SOL     OW12097   1.154   0.298   3.829
 3733SOL    HW112098   1.201   0.341   3.905
 3733SOL    HW212099   1.074   0.247   3.863
 3734SOL     OW12100   3.850   0.202   1.360
 3734SOL    HW112101   3.892   0.170   1.275
 3734SOL    HW212102   3.862   0.133   1.431
 3735SOL     OW12103   4.772   7.019   2.683
 3735SOL    HW112104   4.686   7.021   2.633
 3735SOL    HW212105   4.768   6.948   2.753
 3736SOL     OW12106   7.022   1.258   0.227
 3736SOL    HW112107   7.020   1.202   0.144
 3736SOL    HW212108   6.943   1.319   0.228
 3737SOL     OW12109   5.876   2.096   2.694
 3737SOL    HW112110   5.834   2.183   2.720
 3737SOL    HW212111   5.833   2.022   2.745
 3738SOL     OW12112   0.359   0.635   1.360
 3738SOL    HW112113   0.351   0.729   1.392
 3738SOL    HW212114   0.307   0.575   1.422
 3739SOL     OW12115   2.970   4.062   6.587
 3739SOL    HW112116   2.903   3.997   6.621
 3739SOL    HW212117   3.048   4.012   6.548
 3740SOL     OW12118   5.041   5.618   6.638
 3740SOL    HW112119   5.073   5.676   6.713
 3740SOL    HW212120   4.944   5.599   6.649
 3741SOL     OW12121   5.451   3.508   0.212
 3741SOL    HW112122   5.437   3.413   0.186
 3741SOL    HW212123   5.475   3.513   0.309
 3742SOL     OW12124   4.590   5.663   1.100
 3742SOL    HW112125   4.608   5.719   1.181
 3742SOL    HW212126   4.567   5.723   1.024
 3743SOL     OW12127   3.642   4.423   0.776
 3743SOL    HW112128   3.686   4.334   0.784
 3743SOL    HW212129   3.556   4.423   0.827
 3744SOL     OW12130   6.490   6.653   2.550
 3744SOL    HW112131   6.571   6.646   2.493
 3744SOL    HW212132   6.428   6.577   2.531
 3745SOL     OW12133   4.793   2.870   2.567
 3745SOL    HW112134   4.721   2.808   2.536
 3745SOL    HW212135   4.883   2.831   2.546
 3746SOL     OW12136   6.392   0.298   4.581
 3746SOL    HW112137   6.293   0.310   4.585
 3746SOL    HW212138   6.414   0.200   4.586
 3747SOL     OW12139   3.292   5.898   5.171
 3747SOL    HW112140   3.291   5.982   5.226
 3747SOL    HW212141   3.323   5.822   5.228
 3748SOL     OW12142   5.249   2.151   3.977
 3748SOL    HW112143   5.183   2.225   3.992
 3748SOL    HW212144   5.204   2.075   3.931
 3749SOL     OW12145   6.693   6.176   2.413
 3749SOL    HW112146   6.684   6.077   2.416
 3749SOL    HW212147   6.633   6.218   2.480
 3750SOL     OW12148   5.432   3.921   1.226
 3750SOL    HW112149   5.340   3.933   1.188
 3750SOL    HW212150   5.441   3.975   1.309
 3751SOL     OW12151   0.979   4.182   1.618
 3751SOL    HW112152   0.917   4.152   1.545
 3751SOL    HW212153   0.977   4.282   1.625
 3752SOL     OW12154   0.358   6.354   6.128
 3752SOL    HW112155   0.354   6.375   6.030
 3752SOL    HW212156   0.333   6.436   6.180
 3753SOL     OW12157   6.768   1.010   5.166
 3753SOL    HW112158   6.703   1.051   5.230
 3753SOL    HW212159   6.857   1.054   5.176
 3754SOL     OW12160   6.505   5.973   1.616
 3754SOL    HW112161   6.530   6.065   1.647
 3754SOL    HW212162   6.467   5.979   1.524
 3755SOL     OW12163   5.073   2.854   2.572
 3755SOL    HW112164   5.159   2.904   2.561
 3755SOL    HW212165   5.076   2.802   2.657
 3756SOL     OW12166   3.210   0.398   6.727
 3756SOL    HW112167   3.252   0.385   6.817
 3756SOL    HW212168   3.114   0.421   6.738
 3757SOL     OW12169   3.654   4.780   6.778
 3757SOL    HW112170   3.576   4.748   6.832
 3757SOL    HW212171   3.712   4.702   6.754
 3758SOL     OW12172   0.309   0.225   2.819
 3758SOL    HW112173   0.394   0.178   2.795
 3758SOL    HW212174   0.331   0.312   2.864
 3759SOL     OW12175   5.145   5.131   0.577
 3759SOL    HW112176   5.083   5.210   0.571
 3759SOL    HW212177   5.125   5.080   0.660
 3760SOL     OW12178   2.131   2.021   5.712
 3760SOL    HW112179   2.162   1.975   5.795
 3760SOL    HW212180   2.206   2.076   5.674
 3761SOL     OW12181   0.249   6.344   4.352
 3761SOL    HW112182   0.282   6.293   4.273
 3761SOL    HW212183   0.164   6.392   4.329
 3762SOL     OW12184   0.322   3.838   6.459
 3762SOL    HW112185   0.229   3.874   6.453
 3762SOL    HW212186   0.323   3.760   6.521
 3763SOL     OW12187   6.525   3.942   5.729
 3763SOL    HW112188   6.529   4.042   5.721
 3763SOL    HW212189   6.581   3.913   5.807
 3764SOL     OW12190   2.634   6.872   4.392
 3764SOL    HW112191   2.678   6.958   4.421
 3764SOL    HW212192   2.644   6.862   4.293
 3765SOL     OW12193   6.317   1.616   3.762
 3765SOL    HW112194   6.247   1.545   3.759
 3765SOL    HW212195   6.336   1.639   3.858
 3766SOL     OW12196   1.519   0.201   4.760
 3766SOL    HW112197   1.615   0.209   4.788
 3766SOL    HW212198   1.465   0.164   4.836
 3767SOL     OW12199   1.296   4.379   0.532
 3767SOL    HW112200   1.343   4.386   0.619
 3767SOL    HW212201   1.278   4.471   0.496
 3768SOL     OW12202   4.184   6.701   1.081
 3768SOL    HW112203   4.147   6.621   1.034
 3768SOL    HW212204   4.277   6.719   1.050
 3769SOL     OW12205   4.621   6.496   4.834
 3769SOL    HW112206   4.616   6.570   4.901
 3769SOL    HW212207   4.698   6.511   4.773
 3770SOL     OW12208   2.193   1.887   0.316
 3770SOL    HW112209   2.098   1.904   0.344
 3770SOL    HW212210   2.255   1.925   0.385
 3771SOL     OW12211   4.500   1.477   5.164
 3771SOL    HW112212   4.417   1.464   5.110
 3771SOL    HW212213   4.481   1.453   5.259
 3772SOL     OW12214   4.612   0.892   2.589
 3772SOL    HW112215   4.689   0.835   2.561
 3772SOL    HW212216   4.628   0.927   2.682
 3773SOL     OW12217   6.622   2.131   0.231
 3773SOL    HW112218   6.703   2.187   0.248
 3773SOL    HW212219   6.586   2.152   0.139
 3774SOL     OW12220   0.933   2.217   2.154
 3774SOL    HW112221   0.866   2.236   2.082
 3774SOL    HW212222   0.890   2.225   2.244
 3775SOL     OW12223   5.725   3.126   3.716
 3775SOL    HW112224   5.824   3.115   3.709
 3775SOL    HW212225   5.686   3.132   3.624
 3776SOL     OW12226   2.880   3.086   6.878
 3776SOL    HW112227   2.858   3.011   6.940
 3776SOL    HW212228   2.848   3.063   6.786
 3777SOL     OW12229   1.655   3.941   3.515
 3777SOL    HW112230   1.711   3.888   3.578
 3777SOL    HW212231   1.694   3.935   3.423
 3778SOL     OW12232   2.495   6.719   1.969
 3778SOL    HW112233   2.449   6.807   1.982
 3778SOL    HW212234   2.560   6.704   2.044
 3779SOL     OW12235   2.753   5.092   6.890
 3779SOL    HW112236   2.760   4.993   6.879
 3779SOL    HW212237   2.845   5.131   6.901
 3780SOL     OW12238   2.697   0.087   4.543
 3780SOL    HW112239   2.753   0.087   4.626
 3780SOL    HW212240   2.605   0.119   4.565
 3781SOL     OW12241   2.591   5.138   4.650
 3781SOL    HW112242   2.688   5.136   4.677
 3781SOL    HW212243   2.585   5.148   4.551
 3782SOL     OW12244   2.213   1.388   2.962
 3782SOL    HW112245   2.298   1.335   2.960
 3782SOL    HW212246   2.143   1.337   3.012
 3783SOL     OW12247   4.951   6.151   5.663
 3783SOL    HW112248   5.042   6.141   5.702
 3783SOL    HW212249   4.893   6.204   5.725
 3784SOL     OW12250   5.039   1.932   3.956
 3784SOL    HW112251   5.038   1.993   4.036
 3784SOL    HW212252   5.021   1.838   3.986
 3785SOL     OW12253   1.589   1.966   1.791
 3785SOL    HW112254   1.635   2.041   1.744
 3785SOL    HW212255   1.525   2.003   1.859
 3786SOL     OW12256   3.361   5.762   3.236
 3786SOL    HW112257   3.394   5.848   3.275
 3786SOL    HW212258   3.284   5.781   3.175
 3787SOL     OW12259   3.976   1.229   4.600
 3787SOL    HW112260   3.947   1.148   4.650
 3787SOL    HW212261   4.015   1.202   4.512
 3788SOL     OW12262   6.250   3.919   2.092
 3788SOL    HW112263   6.247   3.858   2.171
 3788SOL    HW212264   6.328   3.980   2.100
 3789SOL     OW12265   1.245   5.290   2.614
 3789SOL    HW112266   1.210   5.305   2.522
 3789SOL    HW212267   1.304   5.209   2.614
 3790SOL     OW12268   2.051   2.956   3.512
 3790SOL    HW112269   2.110   2.929   3.435
 3790SOL    HW212270   2.099   3.022   3.569
 3791SOL     OW12271   6.042   0.371   2.364
 3791SOL    HW112272   5.996   0.427   2.295
 3791SOL    HW212273   6.139   0.396   2.368
 3792SOL     OW12274   0.014   7.023   6.327
 3792SOL    HW112275   0.095   6.982   6.368
 3792SOL    HW212276   6.976   6.950   6.303
 3793SOL     OW12277   1.750   6.538   2.903
 3793SOL    HW112278   1.727   6.598   2.980
 3793SOL    HW212279   1.790   6.453   2.939
 3794SOL     OW12280   4.034   6.233   2.636
 3794SOL    HW112281   4.008   6.311   2.693
 3794SOL    HW212282   4.127   6.205   2.658
 3795SOL     OW12283   4.753   0.321   0.892
 3795SOL    HW112284   4.725   0.363   0.806
 3795SOL    HW212285   4.833   0.263   0.876
 3796SOL     OW12286   1.590   3.121   0.955
 3796SOL    HW112287   1.608   3.097   0.859
 3796SOL    HW212288   1.661   3.183   0.988
 3797SOL     OW12289   0.370   5.556   2.353
 3797SOL    HW112290   0.314   5.492   2.299
 3797SOL    HW212291   0.466   5.541   2.333
 3798SOL     OW12292   1.078   4.113   1.192
 3798SOL    HW112293   1.055   4.103   1.096
 3798SOL    HW212294   1.001   4.156   1.241
 3799SOL     OW12295   1.240   0.631   5.329
 3799SOL    HW112296   1.171   0.701   5.348
 3799SOL    HW212297   1.194   0.544   5.309
 3800SOL     OW12298   5.350   2.369   5.039
 3800SOL    HW112299   5.290   2.413   5.106
 3800SOL    HW212300   5.297   2.308   4.981
 3801SOL     OW12301   0.236   0.201   6.807
 3801SOL    HW112302   0.294   0.234   6.881
 3801SOL    HW212303   0.151   0.254   6.805
 3802SOL     OW12304   1.271   2.370   5.860
 3802SOL    HW112305   1.339   2.306   5.895
 3802SOL    HW212306   1.209   2.321   5.798
 3803SOL     OW12307   3.879   1.146   0.982
 3803SOL    HW112308   3.955   1.209   0.966
 3803SOL    HW212309   3.809   1.192   1.037
 3804SOL     OW12310   4.574   2.829   5.203
 3804SOL    HW112311   4.565   2.766   5.126
 3804SOL    HW212312   4.581   2.777   5.288
 3805SOL     OW12313   2.092   3.940   1.511
 3805SOL    HW112314   2.166   3.976   1.567
 3805SOL    HW212315   2.102   3.972   1.417
 3806SOL     OW12316   3.252   1.427   0.806
 3806SOL    HW112317   3.218   1.436   0.899
 3806SOL    HW212318   3.184   1.379   0.750
 3807SOL     OW12319   1.694   6.975   2.973
 3807SOL    HW112320   1.611   6.992   2.920
 3807SOL    HW212321   1.671   6.962   3.070
 3808SOL     OW12322   3.403   0.497   0.436
 3808SOL    HW112323   3.448   0.422   0.485
 3808SOL    HW212324   3.323   0.527   0.487
 3809SOL     OW12325   4.549   0.086   6.412
 3809SOL    HW112326   4.474   0.021   6.410
 3809SOL    HW212327   4.534   0.152   6.486
 3810SOL     OW12328   2.722   2.853   5.829
 3810SOL    HW112329   2.818   2.836   5.808
 3810SOL    HW212330   2.713   2.940   5.877
 3811SOL     OW12331   0.417   0.709   6.345
 3811SOL    HW112332   0.498   0.713   6.403
 3811SOL    HW212333   0.413   0.619   6.301
 3812SOL     OW12334   5.299   1.398   5.495
 3812SOL    HW112335   5.238   1.456   5.550
 3812SOL    HW212336   5.336   1.452   5.420
 3813SOL     OW12337   3.979   4.811   1.887
 3813SOL    HW112338   3.950   4.723   1.851
 3813SOL    HW212339   3.908   4.879   1.873
 3814SOL     OW12340   1.659   6.821   2.632
 3814SOL    HW112341   1.705   6.863   2.553
 3814SOL    HW212342   1.726   6.769   2.685
 3815SOL     OW12343   5.349   1.947   1.656
 3815SOL    HW112344   5.418   2.002   1.702
 3815SOL    HW212345   5.383   1.854   1.644
 3816SOL     OW12346   0.426   6.590   1.126
 3816SOL    HW112347   0.411   6.563   1.221
 3816SOL    HW212348   0.392   6.682   1.112
 3817SOL     OW12349   4.676   1.364   5.599
 3817SOL    HW112350   4.750   1.352   5.533
 3817SOL    HW212351   4.698   1.440   5.661
 3818SOL     OW12352   4.813   5.352   3.003
 3818SOL    HW112353   4.837   5.448   3.020
 3818SOL    HW212354   4.754   5.318   3.076
 3819SOL     OW12355   5.652   4.380   6.144
 3819SOL    HW112356   5.671   4.284   6.166
 3819SOL    HW212357   5.609   4.385   6.054
 3820SOL     OW12358   5.231   6.105   4.206
 3820SOL    HW112359   5.156   6.170   4.209
 3820SOL    HW212360   5.307   6.139   4.261
 3821SOL     OW12361   0.704   4.035   1.223
 3821SOL    HW112362   0.705   3.935   1.219
 3821SOL    HW212363   0.718   4.073   1.132
 3822SOL     OW12364   1.195   4.748   1.777
 3822SOL    HW112365   1.186   4.773   1.680
 3822SOL    HW212366   1.176   4.651   1.788
 3823SOL     OW12367   2.493   2.804   5.581
 3823SOL    HW112368   2.443   2.860   5.515
 3823SOL    HW212369   2.440   2.797   5.666
 3824SOL     OW12370   6.618   2.215   6.624
 3824SOL    HW112371   6.612   2.163   6.709
 3824SOL    HW212372   6.605   2.154   6.546
 3825SOL     OW12373   6.388   6.635   6.095
 3825SOL    HW112374   6.369   6.664   6.188
 3825SOL    HW212375   6.314   6.576   6.062
 3826SOL     OW12376   6.760   2.301   0.717
 3826SOL    HW112377   6.765   2.225   0.652
 3826SOL    HW212378   6.670   2.345   0.709
 3827SOL     OW12379   5.443   2.543   1.216
 3827SOL    HW112380   5.437   2.470   1.284
 3827SOL    HW212381   5.353   2.585   1.203
 3828SOL     OW12382   3.948   1.266   1.473
 3828SOL    HW112383   3.875   1.309   1.419
 3828SOL    HW212384   4.034   1.315   1.459
 3829SOL     OW12385   0.506   5.305   3.688
 3829SOL    HW112386   0.540   5.277   3.777
 3829SOL    HW212387   0.547   5.247   3.617
 3830SOL     OW12388   3.074   0.778   5.268
 3830SOL    HW112389   3.167   0.803   5.296
 3830SOL    HW212390   3.013   0.857   5.281
 3831SOL     OW12391   4.599   2.136   2.279
 3831SOL    HW112392   4.641   2.213   2.231
 3831SOL    HW212393   4.636   2.130   2.371
 3832SOL     OW12394   5.055   0.021   2.508
 3832SOL    HW112395   5.041   0.024   2.409
 3832SOL    HW212396   5.151   0.001   2.527
 3833SOL     OW12397   1.656   6.027   1.063
 3833SOL    HW112398   1.594   6.001   0.989
 3833SOL    HW212399   1.750   6.007   1.036
 3834SOL     OW12400   2.424   2.446   0.942
 3834SOL    HW112401   2.522   2.454   0.925
 3834SOL    HW212402   2.406   2.464   1.039
 3835SOL     OW12403   3.602   6.040   3.798
 3835SOL    HW112404   3.687   6.020   3.749
 3835SOL    HW212405   3.615   6.024   3.896
 3836SOL     OW12406   1.802   3.024   5.323
 3836SOL    HW112407   1.845   3.077   5.250
 3836SOL    HW212408   1.870   2.961   5.362
 3837SOL     OW12409   3.148   3.659   6.985
 3837SOL    HW112410   3.111   3.712   6.909
 3837SOL    HW212411   3.093   3.674   0.041
 3838SOL     OW12412   5.997   3.102   5.149
 3838SOL    HW112413   5.992   3.162   5.070
 3838SOL    HW212414   6.088   3.062   5.156
 3839SOL     OW12415   6.918   6.295   6.002
 3839SOL    HW112416   6.989   6.361   5.979
 3839SOL    HW212417   6.832   6.322   5.957
 3840SOL     OW12418   2.602   0.848   3.694
 3840SOL    HW112419   2.658   0.784   3.642
 3840SOL    HW212420   2.517   0.803   3.723
 3841SOL     OW12421   1.236   3.610   4.800
 3841SOL    HW112422   1.261   3.514   4.810
 3841SOL    HW212423   1.273   3.663   4.876
 3842SOL     OW12424   1.685   4.945   6.464
 3842SOL    HW112425   1.607   4.883   6.474
 3842SOL    HW212426   1.740   4.916   6.386
 3843SOL     OW12427   5.727   3.995   0.483
 3843SOL    HW112428   5.754   3.978   0.577
 3843SOL    HW212429   5.792   4.058   0.440
 3844SOL     OW12430   2.625   3.844   5.998
 3844SOL    HW112431   2.680   3.819   6.077
 3844SOL    HW212432   2.536   3.797   6.003
 3845SOL     OW12433   3.161   3.321   3.652
 3845SOL    HW112434   3.154   3.226   3.684
 3845SOL    HW212435   3.097   3.336   3.577
 3846SOL     OW12436   0.140   4.085   4.117
 3846SOL    HW112437   0.054   4.120   4.081
 3846SOL    HW212438   0.197   4.053   4.042
 3847SOL     OW12439   0.894   0.064   0.707
 3847SOL    HW112440   0.887   7.003   0.660
 3847SOL    HW212441   0.842   0.133   0.657
 3848SOL     OW12442   2.570   5.350   1.395
 3848SOL    HW112443   2.620   5.267   1.371
 3848SOL    HW212444   2.626   5.430   1.373
 3849SOL     OW12445   2.425   1.621   6.179
 3849SOL    HW112446   2.408   1.678   6.260
 3849SOL    HW212447   2.350   1.634   6.114
 3850SOL     OW12448   2.219   4.220   1.181
 3850SOL    HW112449   2.192   4.293   1.244
 3850SOL    HW212450   2.317   4.202   1.191
 3851SOL     OW12451   2.219   2.893   1.461
 3851SOL    HW112452   2.269   2.882   1.547
 3851SOL    HW212453   2.272   2.953   1.400
 3852SOL     OW12454   4.980   0.697   5.353
 3852SOL    HW112455   5.037   0.620   5.381
 3852SOL    HW212456   5.016   0.737   5.269
 3853SOL     OW12457   1.211   2.893   2.076
 3853SOL    HW112458   1.246   2.847   2.157
 3853SOL    HW212459   1.223   2.834   1.996
 3854SOL     OW12460   1.884   3.112   5.062
 3854SOL    HW112461   1.865   3.179   4.989
 3854SOL    HW212462   1.982   3.108   5.078
 3855SOL     OW12463   6.816   2.064   4.943
 3855SOL    HW112464   6.742   2.023   4.890
 3855SOL    HW212465   6.811   2.164   4.936
 3856SOL     OW12466   0.595   6.560   5.654
 3856SOL    HW112467   0.615   6.657   5.647
 3856SOL    HW212468   0.615   6.528   5.747
 3857SOL     OW12469   1.021   6.980   6.616
 3857SOL    HW112470   1.036   6.913   6.688
 3857SOL    HW212471   1.096   0.020   6.616
 3858SOL     OW12472   2.495   5.132   0.025
 3858SOL    HW112473   2.580   5.147   7.001
 3858SOL    HW212474   2.429   5.085   6.993
 3859SOL     OW12475   6.373   2.826   1.150
 3859SOL    HW112476   6.424   2.748   1.186
 3859SOL    HW212477   6.436   2.900   1.126
 3860SOL     OW12478   2.084   6.062   5.039
 3860SOL    HW112479   2.094   5.974   4.993
 3860SOL    HW212480   2.100   6.136   4.974
 3861SOL     OW12481   4.258   4.344   6.856
 3861SOL    HW112482   4.209   4.334   6.942
 3861SOL    HW212483   4.267   4.441   6.834
 3862SOL     OW12484   0.913   5.491   5.590
 3862SOL    HW112485   0.854   5.442   5.526
 3862SOL    HW212486   0.858   5.525   5.666
 3863SOL     OW12487   2.862   3.549   0.371
 3863SOL    HW112488   2.795   3.568   0.442
 3863SOL    HW212489   2.848   3.458   0.334
 3864SOL     OW12490   3.072   1.474   0.274
 3864SOL    HW112491   3.091   1.529   0.193
 3864SOL    HW212492   3.000   1.517   0.328
 3865SOL     OW12493   4.067   0.703   2.326
 3865SOL    HW112494   4.000   0.744   2.388
 3865SOL    HW212495   4.149   0.760   2.323
 3866SOL     OW12496   3.116   6.568   6.387
 3866SOL    HW112497   3.114   6.569   6.287
 3866SOL    HW212498   3.036   6.519   6.422
 3867SOL     OW12499   1.974   4.136   3.209
 3867SOL    HW112500   1.958   4.172   3.301
 3867SOL    HW212501   2.073   4.129   3.192
 3868SOL     OW12502   2.779   5.262   2.772
 3868SOL    HW112503   2.845   5.315   2.825
 3868SOL    HW212504   2.825   5.218   2.695
 3869SOL     OW12505   0.413   1.400   3.836
 3869SOL    HW112506   0.397   1.367   3.744
 3869SOL    HW212507   0.507   1.432   3.844
 3870SOL     OW12508   3.974   4.110   0.644
 3870SOL    HW112509   3.964   4.124   0.545
 3870SOL    HW212510   4.014   4.192   0.685
 3871SOL     OW12511   3.352   1.409   4.788
 3871SOL    HW112512   3.298   1.326   4.800
 3871SOL    HW212513   3.333   1.473   4.862
 3872SOL     OW12514   4.196   4.207   0.329
 3872SOL    HW112515   4.150   4.248   0.408
 3872SOL    HW212516   4.186   4.108   0.332
 3873SOL     OW12517   5.009   4.707   1.853
 3873SOL    HW112518   5.034   4.787   1.798
 3873SOL    HW212519   5.068   4.630   1.829
 3874SOL     OW12520   4.814   5.876   6.137
 3874SOL    HW112521   4.833   5.822   6.055
 3874SOL    HW212522   4.867   5.961   6.133
 3875SOL     OW12523   2.266   4.189   0.318
 3875SOL    HW112524   2.177   4.219   0.351
 3875SOL    HW212525   2.327   4.176   0.396
 3876SOL     OW12526   5.493   3.877   2.160
 3876SOL    HW112527   5.573   3.897   2.216
 3876SOL    HW212528   5.500   3.926   2.073
 3877SOL     OW12529   4.729   1.652   2.013
 3877SOL    HW112530   4.759   1.747   2.006
 3877SOL    HW212531   4.806   1.595   2.042
 3878SOL     OW12532   4.503   5.897   4.482
 3878SOL    HW112533   4.448   5.875   4.562
 3878SOL    HW212534   4.477   5.987   4.447
 3879SOL     OW12535   2.415   5.744   1.166
 3879SOL    HW112536   2.452   5.654   1.146
 3879SOL    HW212537   2.373   5.782   1.083
 3880SOL     OW12538   5.752   1.691   4.129
 3880SOL    HW112539   5.806   1.613   4.095
 3880SOL    HW212540   5.665   1.694   4.080
 3881SOL     OW12541   1.012   5.659   0.929
 3881SOL    HW112542   1.046   5.742   0.972
 3881SOL    HW212543   1.088   5.594   0.918
 3882SOL     OW12544   0.264   5.833   6.959
 3882SOL    HW112545   0.269   5.908   6.894
 3882SOL    HW212546   0.187   5.848   7.021
 3883SOL     OW12547   3.151   2.427   6.743
 3883SOL    HW112548   3.163   2.372   6.660
 3883SOL    HW212549   3.073   2.489   6.731
 3884SOL     OW12550   1.984   4.906   5.540
 3884SOL    HW112551   1.988   5.001   5.510
 3884SOL    HW212552   1.889   4.875   5.538
 3885SOL     OW12553   6.748   1.363   4.749
 3885SOL    HW112554   6.727   1.429   4.820
 3885SOL    HW212555   6.666   1.309   4.727
 3886SOL     OW12556   0.133   6.531   5.462
 3886SOL    HW112557   0.063   6.481   5.513
 3886SOL    HW212558   0.182   6.592   5.524
 3887SOL     OW12559   5.822   2.964   4.773
 3887SOL    HW112560   5.834   2.865   4.783
 3887SOL    HW212561   5.726   2.987   4.793
 3888SOL     OW12562   5.819   2.145   2.399
 3888SOL    HW112563   5.836   2.047   2.409
 3888SOL    HW212564   5.876   2.181   2.326
 3889SOL     OW12565   6.604   5.955   6.532
 3889SOL    HW112566   6.607   5.861   6.499
 3889SOL    HW212567   6.567   6.015   6.461
 3890SOL     OW12568   7.001   3.284   2.858
 3890SOL    HW112569   0.018   3.316   2.774
 3890SOL    HW212570   6.906   3.315   2.860
 3891SOL     OW12571   5.096   5.353   5.850
 3891SOL    HW112572   5.004   5.380   5.820
 3891SOL    HW212573   5.091   5.265   5.897
 3892SOL     OW12574   5.641   5.658   4.135
 3892SOL    HW112575   5.644   5.673   4.233
 3892SOL    HW212576   5.720   5.603   4.107
 3893SOL     OW12577   2.673   6.533   4.336
 3893SOL    HW112578   2.746   6.548   4.403
 3893SOL    HW212579   2.712   6.490   4.254
 3894SOL     OW12580   5.223   5.434   6.907
 3894SOL    HW112581   5.220   5.527   6.944
 3894SOL    HW212582   5.267   5.373   6.974
 3895SOL     OW12583   1.899   1.853   5.785
 3895SOL    HW112584   1.969   1.915   5.751
 3895SOL    HW212585   1.852   1.895   5.863
 3896SOL     OW12586   6.087   3.316   6.996
 3896SOL    HW112587   6.071   3.412   7.018
 3896SOL    HW212588   6.086   3.262   0.054
 3897SOL     OW12589   3.364   6.459   3.329
 3897SOL    HW112590   3.397   6.550   3.354
 3897SOL    HW212591   3.345   6.457   3.231
 3898SOL     OW12592   2.940   3.386   4.318
 3898SOL    HW112593   2.954   3.316   4.247
 3898SOL    HW212594   2.847   3.378   4.354
 3899SOL     OW12595   4.218   2.077   6.108
 3899SOL    HW112596   4.252   2.168   6.088
 3899SOL    HW212597   4.285   2.028   6.164
 3900SOL     OW12598   0.501   2.748   3.819
 3900SOL    HW112599   0.426   2.812   3.809
 3900SOL    HW212600   0.577   2.792   3.866
 3901SOL     OW12601   2.785   5.143   5.543
 3901SOL    HW112602   2.830   5.146   5.454
 3901SOL    HW212603   2.813   5.222   5.598
 3902SOL     OW12604   4.509   4.958   3.330
 3902SOL    HW112605   4.501   5.008   3.416
 3902SOL    HW212606   4.605   4.941   3.309
 3903SOL     OW12607   3.854   3.815   6.154
 3903SOL    HW112608   3.891   3.746   6.092
 3903SOL    HW212609   3.755   3.822   6.141
 3904SOL     OW12610   2.262   6.942   0.298
 3904SOL    HW112611   2.178   6.897   0.270
 3904SOL    HW212612   2.299   6.993   0.220
 3905SOL     OW12613   5.128   0.036   6.140
 3905SOL    HW112614   5.150   0.068   6.232
 3905SOL    HW212615   5.032   0.008   6.137
 3906SOL     OW12616   6.895   6.186   4.578
 3906SOL    HW112617   6.807   6.203   4.535
 3906SOL    HW212618   6.940   6.273   4.597
 3907SOL     OW12619   0.525   1.816   4.652
 3907SOL    HW112620   0.448   1.860   4.606
 3907SOL    HW212621   0.592   1.885   4.677
 3908SOL     OW12622   2.148   1.017   4.561
 3908SOL    HW112623   2.124   1.048   4.654
 3908SOL    HW212624   2.064   1.009   4.507
 3909SOL     OW12625   5.271   3.628   1.827
 3909SOL    HW112626   5.213   3.595   1.902
 3909SOL    HW212627   5.261   3.566   1.749
 3910SOL     OW12628   2.550   2.683   1.262
 3910SOL    HW112629   2.567   2.590   1.295
 3910SOL    HW212630   2.556   2.748   1.338
 3911SOL     OW12631   0.182   1.212   1.407
 3911SOL    HW112632   0.115   1.281   1.380
 3911SOL    HW212633   0.207   1.156   1.328
 3912SOL     OW12634   4.656   4.108   0.218
 3912SOL    HW112635   4.604   4.023   0.207
 3912SOL    HW212636   4.616   4.179   0.160
 3913SOL     OW12637   3.791   5.356   1.567
 3913SOL    HW112638   3.891   5.366   1.561
 3913SOL    HW212639   3.755   5.334   1.476
 3914SOL     OW12640   7.025   1.182   0.512
 3914SOL    HW112641   0.026   1.243   0.438
 3914SOL    HW212642   6.929   1.199   0.535
 3915SOL     OW12643   5.678   0.525   5.379
 3915SOL    HW112644   5.754   0.575   5.337
 3915SOL    HW212645   5.605   0.515   5.312
 3916SOL     OW12646   1.439   2.353   2.507
 3916SOL    HW112647   1.528   2.388   2.478
 3916SOL    HW212648   1.370   2.379   2.440
 3917SOL     OW12649   4.167   5.061   2.433
 3917SOL    HW112650   4.072   5.068   2.401
 3917SOL    HW212651   4.198   5.150   2.466
 3918SOL     OW12652   4.911   0.145   0.618
 3918SOL    HW112653   4.844   0.218   0.630
 3918SOL    HW212654   4.926   0.099   0.706
 3919SOL     OW12655   5.140   5.576   3.411
 3919SOL    HW112656   5.105   5.670   3.418
 3919SOL    HW212657   5.064   5.513   3.401
 3920SOL     OW12658   3.390   1.604   5.518
 3920SOL    HW112659   3.476   1.624   5.564
 3920SOL    HW212660   3.355   1.686   5.473
 3921SOL     OW12661   1.319   3.585   6.027
 3921SOL    HW112662   1.390   3.514   6.032
 3921SOL    HW212663   1.320   3.626   5.936
 3922SOL     OW12664   5.209   2.507   4.217
 3922SOL    HW112665   5.254   2.596   4.217
 3922SOL    HW212666   5.222   2.462   4.305
 3923SOL     OW12667   5.632   1.199   1.691
 3923SOL    HW112668   5.575   1.276   1.719
 3923SOL    HW212669   5.580   1.114   1.697
 3924SOL     OW12670   5.101   4.604   4.335
 3924SOL    HW112671   5.154   4.610   4.420
 3924SOL    HW212672   5.129   4.677   4.272
 3925SOL     OW12673   3.925   5.690   1.528
 3925SOL    HW112674   3.890   5.692   1.434
 3925SOL    HW212675   3.953   5.597   1.551
 3926SOL     OW12676   0.829   6.035   5.229
 3926SOL    HW112677   0.926   6.050   5.209
 3926SOL    HW212678   0.820   5.956   5.290
 3927SOL     OW12679   6.006   0.366   5.328
 3927SOL    HW112680   5.949   0.372   5.410
 3927SOL    HW212681   6.086   0.309   5.347
 3928SOL     OW12682   4.623   5.802   2.153
 3928SOL    HW112683   4.674   5.733   2.100
 3928SOL    HW212684   4.571   5.756   2.225
 3929SOL     OW12685   1.304   1.240   5.695
 3929SOL    HW112686   1.209   1.267   5.678
 3929SOL    HW212687   1.321   1.237   5.793
 3930SOL     OW12688   1.624   5.797   4.291
 3930SOL    HW112689   1.697   5.833   4.233
 3930SOL    HW212690   1.537   5.840   4.266
 3931SOL     OW12691   0.373   2.036   0.253
 3931SOL    HW112692   0.285   2.074   0.226
 3931SOL    HW212693   0.378   2.028   0.353
 3932SOL     OW12694   2.320   4.263   2.490
 3932SOL    HW112695   2.395   4.328   2.497
 3932SOL    HW212696   2.298   4.248   2.394
 3933SOL     OW12697   1.952   5.937   1.079
 3933SOL    HW112698   1.916   5.887   1.157
 3933SOL    HW212699   2.036   5.985   1.106
 3934SOL     OW12700   2.254   6.638   1.507
 3934SOL    HW112701   2.271   6.571   1.579
 3934SOL    HW212702   2.156   6.640   1.486
 3935SOL     OW12703   0.224   2.665   4.691
 3935SOL    HW112704   0.216   2.762   4.670
 3935SOL    HW212705   0.320   2.640   4.701
 3936SOL     OW12706   0.352   4.506   3.968
 3936SOL    HW112707   0.448   4.481   3.980
 3936SOL    HW212708   0.336   4.598   4.004
 3937SOL     OW12709   1.071   6.401   0.321
 3937SOL    HW112710   1.004   6.327   0.321
 3937SOL    HW212711   1.097   6.422   0.226
 3938SOL     OW12712   0.659   3.664   0.071
 3938SOL    HW112713   0.599   3.740   0.097
 3938SOL    HW212714   0.694   3.679   7.005
 3939SOL     OW12715   1.781   6.549   3.906
 3939SOL    HW112716   1.742   6.458   3.889
 3939SOL    HW212717   1.729   6.617   3.854
 3940SOL     OW12718   2.342   6.085   6.345
 3940SOL    HW112719   2.361   6.178   6.379
 3940SOL    HW212720   2.345   6.021   6.422
 3941SOL     OW12721   5.527   5.691   2.358
 3941SOL    HW112722   5.467   5.612   2.343
 3941SOL    HW212723   5.622   5.661   2.363
 3942SOL     OW12724   6.434   6.552   6.781
 3942SOL    HW112725   6.364   6.617   6.751
 3942SOL    HW212726   6.487   6.592   6.855
 3943SOL     OW12727   1.700   3.709   6.935
 3943SOL    HW112728   1.653   3.758   6.863
 3943SOL    HW212729   1.657   3.620   6.949
 3944SOL     OW12730   4.821   3.452   6.383
 3944SOL    HW112731   4.779   3.542   6.372
 3944SOL    HW212732   4.841   3.436   6.479
 3945SOL     OW12733   6.388   0.529   2.957
 3945SOL    HW112734   6.442   0.482   3.027
 3945SOL    HW212735   6.414   0.495   2.866
 3946SOL     OW12736   6.507   3.061   0.905
 3946SOL    HW112737   6.544   3.145   0.945
 3946SOL    HW212738   6.446   3.084   0.829
 3947SOL     OW12739   5.547   6.240   2.321
 3947SOL    HW112740   5.558   6.155   2.373
 3947SOL    HW212741   5.459   6.240   2.275
 3948SOL     OW12742   2.111   0.930   5.251
 3948SOL    HW112743   2.107   0.941   5.152
 3948SOL    HW212744   2.206   0.917   5.279
 3949SOL     OW12745   5.962   0.089   2.246
 3949SOL    HW112746   6.038   0.098   2.310
 3949SOL    HW212747   5.878   0.121   2.289
 3950SOL     OW12748   3.063   4.745   1.836
 3950SOL    HW112749   2.997   4.669   1.834
 3950SOL    HW212750   3.110   4.746   1.924
 3951SOL     OW12751   6.995   2.694   3.588
 3951SOL    HW112752   7.024   2.673   3.495
 3951SOL    HW212753   0.017   2.633   3.652
 3952SOL     OW12754   5.468   4.477   6.952
 3952SOL    HW112755   5.503   4.393   6.993
 3952SOL    HW212756   5.371   4.466   6.930
 3953SOL     OW12757   3.506   3.698   5.574
 3953SOL    HW112758   3.429   3.731   5.628
 3953SOL    HW212759   3.581   3.672   5.635
 3954SOL     OW12760   0.892   3.273   4.957
 3954SOL    HW112761   0.976   3.285   4.904
 3954SOL    HW212762   0.916   3.254   5.053
 3955SOL     OW12763   6.207   3.551   0.446
 3955SOL    HW112764   6.268   3.627   0.469
 3955SOL    HW212765   6.226   3.521   0.352
 3956SOL     OW12766   6.908   2.625   5.584
 3956SOL    HW112767   6.983   2.683   5.553
 3956SOL    HW212768   6.944   2.540   5.620
 3957SOL     OW12769   1.024   2.176   1.761
 3957SOL    HW112770   1.114   2.207   1.729
 3957SOL    HW212771   0.956   2.245   1.739
 3958SOL     OW12772   5.838   6.059   1.244
 3958SOL    HW112773   5.831   5.967   1.282
 3958SOL    HW212774   5.837   6.127   1.317
 3959SOL     OW12775   2.540   4.917   2.039
 3959SOL    HW112776   2.442   4.907   2.021
 3959SOL    HW212777   2.556   4.917   2.138
 3960SOL     OW12778   5.683   2.970   0.597
 3960SOL    HW112779   5.716   3.050   0.648
 3960SOL    HW212780   5.585   2.960   0.611
 3961SOL     OW12781   6.701   1.169   1.399
 3961SOL    HW112782   6.602   1.176   1.393
 3961SOL    HW212783   6.728   1.073   1.407
 3962SOL     OW12784   0.317   0.484   6.185
 3962SOL    HW112785   0.224   0.460   6.158
 3962SOL    HW212786   0.350   0.419   6.254
 3963SOL     OW12787   4.936   4.237   4.219
 3963SOL    HW112788   4.864   4.170   4.201
 3963SOL    HW212789   5.010   4.193   4.270
 3964SOL     OW12790   5.774   4.754   0.369
 3964SOL    HW112791   5.677   4.733   0.352
 3964SOL    HW212792   5.811   4.806   0.292
 3965SOL     OW12793   3.572   3.943   1.206
 3965SOL    HW112794   3.628   3.937   1.289
 3965SOL    HW212795   3.479   3.968   1.232
 3966SOL     OW12796   6.703   3.864   5.964
 3966SOL    HW112797   6.785   3.870   5.907
 3966SOL    HW212798   6.691   3.770   5.995
 3967SOL     OW12799   2.364   6.673   0.131
 3967SOL    HW112800   2.318   6.628   0.055
 3967SOL    HW212801   2.295   6.707   0.196
 3968SOL     OW12802   4.789   2.266   1.096
 3968SOL    HW112803   4.804   2.364   1.114
 3968SOL    HW212804   4.763   2.220   1.180
 3969SOL     OW12805   6.987   6.415   1.050
 3969SOL    HW112806   0.047   6.391   1.095
 3969SOL    HW212807   6.999   6.499   0.997
 3970SOL     OW12808   5.374   4.416   3.866
 3970SOL    HW112809   5.329   4.425   3.955
 3970SOL    HW212810   5.419   4.503   3.843
 3971SOL     OW12811   0.032   6.009   3.874
 3971SOL    HW112812   0.126   5.976   3.867
 3971SOL    HW212813   0.003   6.048   3.787
 3972SOL     OW12814   1.159   0.015   6.046
 3972SOL    HW112815   1.079   6.981   6.040
 3972SOL    HW212816   1.180   0.051   5.955
 3973SOL     OW12817   4.129   3.311   2.671
 3973SOL    HW112818   4.099   3.228   2.719
 3973SOL    HW212819   4.120   3.297   2.572
 3974SOL     OW12820   4.776   0.959   6.538
 3974SOL    HW112821   4.845   0.921   6.600
 3974SOL    HW212822   4.819   1.023   6.475
 3975SOL     OW12823   0.206   6.983   4.765
 3975SOL    HW112824   0.207   0.055   4.749
 3975SOL    HW212825   0.293   6.954   4.805
 3976SOL     OW12826   1.003   3.218   5.984
 3976SOL    HW112827   0.997   3.307   6.030
 3976SOL    HW212828   1.077   3.165   6.024
 3977SOL     OW12829   3.380   5.296   5.086
 3977SOL    HW112830   3.308   5.361   5.064
 3977SOL    HW212831   3.462   5.318   5.034
 3978SOL     OW12832   5.787   3.469   6.427
 3978SOL    HW112833   5.716   3.454   6.358
 3978SOL    HW212834   5.865   3.516   6.385
 3979SOL     OW12835   0.845   6.108   3.204
 3979SOL    HW112836   0.911   6.053   3.153
 3979SOL    HW212837   0.795   6.168   3.141
 3980SOL     OW12838   5.189   3.752   4.011
 3980SOL    HW112839   5.226   3.667   4.049
 3980SOL    HW212840   5.090   3.743   3.998
 3981SOL     OW12841   6.745   1.258   6.368
 3981SOL    HW112842   6.832   1.259   6.417
 3981SOL    HW212843   6.754   1.311   6.283
 3982SOL     OW12844   2.219   2.619   4.531
 3982SOL    HW112845   2.169   2.706   4.526
 3982SOL    HW212846   2.265   2.612   4.619
 3983SOL     OW12847   2.891   0.495   3.759
 3983SOL    HW112848   2.910   0.525   3.852
 3983SOL    HW212849   2.884   0.395   3.757
 3984SOL     OW12850   1.756   5.406   2.057
 3984SOL    HW112851   1.724   5.330   2.114
 3984SOL    HW212852   1.836   5.449   2.100
 3985SOL     OW12853   1.994   2.321   1.456
 3985SOL    HW112854   2.052   2.401   1.443
 3985SOL    HW212855   1.995   2.264   1.374
 3986SOL     OW12856   0.610   2.011   2.186
 3986SOL    HW112857   0.659   2.030   2.271
 3986SOL    HW212858   0.672   2.024   2.108
 3987SOL     OW12859   1.626   4.270   4.931
 3987SOL    HW112860   1.643   4.361   4.968
 3987SOL    HW212861   1.580   4.214   5.000
 3988SOL     OW12862   5.048   0.254   1.690
 3988SOL    HW112863   5.067   0.336   1.744
 3988SOL    HW212864   4.974   0.203   1.733
 3989SOL     OW12865   4.217   0.642   5.462
 3989SOL    HW112866   4.214   0.558   5.516
 3989SOL    HW212867   4.151   0.708   5.498
 3990SOL     OW12868   6.578   1.720   3.737
 3990SOL    HW112869   6.629   1.802   3.765
 3990SOL    HW212870   6.482   1.744   3.724
 3991SOL     OW12871   0.228   2.157   3.383
 3991SOL    HW112872   0.310   2.110   3.415
 3991SOL    HW212873   0.160   2.090   3.354
 3992SOL     OW12874   5.208   3.542   6.527
 3992SOL    HW112875   5.203   3.640   6.547
 3992SOL    HW212876   5.267   3.527   6.447
 3993SOL     OW12877   1.771   0.733   4.063
 3993SOL    HW112878   1.835   0.695   4.131
 3993SOL    HW212879   1.821   0.791   3.999
 3994SOL     OW12880   3.395   2.083   3.628
 3994SOL    HW112881   3.483   2.111   3.667
 3994SOL    HW212882   3.410   2.009   3.562
 3995SOL     OW12883   1.336   3.556   2.413
 3995SOL    HW112884   1.294   3.477   2.458
 3995SOL    HW212885   1.407   3.524   2.350
 3996SOL     OW12886   6.330   6.476   5.336
 3996SOL    HW112887   6.329   6.557   5.394
 3996SOL    HW212888   6.338   6.504   5.240
 3997SOL     OW12889   5.313   3.536   4.147
 3997SOL    HW112890   5.341   3.448   4.107
 3997SOL    HW212891   5.394   3.594   4.159
 3998SOL     OW12892   4.837   2.313   3.614
 3998SOL    HW112893   4.926   2.270   3.628
 3998SOL    HW212894   4.846   2.387   3.548
 3999SOL     OW12895   4.799   3.286   0.885
 3999SOL    HW112896   4.818   3.375   0.926
 3999SOL    HW212897   4.747   3.230   0.950
 4000SOL     OW12898   2.194   4.936   3.366
 4000SOL    HW112899   2.164   4.850   3.409
 4000SOL    HW212900   2.290   4.953   3.390
 4001SOL     OW12901   0.274   6.013   4.384
 4001SOL    HW112902   0.251   6.046   4.293
 4001SOL    HW212903   0.218   6.061   4.452
 4002SOL     OW12904   3.977   3.931   4.528
 4002SOL    HW112905   4.065   3.973   4.549
 4002SOL    HW212906   3.973   3.839   4.566
 4003SOL     OW12907   1.981   1.291   4.702
 4003SOL    HW112908   1.901   1.349   4.685
 4003SOL    HW212909   2.047   1.341   4.759
 4004SOL     OW12910   1.893   4.602   4.990
 4004SOL    HW112911   1.961   4.554   5.045
 4004SOL    HW212912   1.903   4.700   5.002
 4005SOL     OW12913   5.058   3.015   0.260
 4005SOL    HW112914   5.003   2.980   0.336
 4005SOL    HW212915   5.001   3.071   0.200
 4006SOL     OW12916   6.737   5.383   1.965
 4006SOL    HW112917   6.737   5.326   2.047
 4006SOL    HW212918   6.804   5.349   1.900
 4007SOL     OW12919   0.441   0.773   1.601
 4007SOL    HW112920   0.368   0.812   1.545
 4007SOL    HW212921   0.530   0.800   1.564
 4008SOL     OW12922   2.900   1.221   1.286
 4008SOL    HW112923   2.809   1.187   1.308
 4008SOL    HW212924   2.962   1.202   1.362
 4009SOL     OW12925   4.513   2.297   0.457
 4009SOL    HW112926   4.424   2.331   0.426
 4009SOL    HW212927   4.579   2.306   0.383
 4010SOL     OW12928   1.858   4.161   0.891
 4010SOL    HW112929   1.945   4.181   0.935
 4010SOL    HW212930   1.852   4.064   0.871
 4011SOL     OW12931   6.144   6.469   6.204
 4011SOL    HW112932   6.089   6.391   6.234
 4011SOL    HW212933   6.177   6.453   6.112
 4012SOL     OW12934   5.899   5.841   2.591
 4012SOL    HW112935   5.907   5.820   2.494
 4012SOL    HW212936   5.979   5.893   2.621
 4013SOL     OW12937   6.933   1.461   0.002
 4013SOL    HW112938   6.838   1.491   0.008
 4013SOL    HW212939   6.989   1.516   0.064
 4014SOL     OW12940   3.864   5.453   2.382
 4014SOL    HW112941   3.891   5.440   2.287
 4014SOL    HW212942   3.842   5.550   2.397
 4015SOL     OW12943   4.444   5.364   5.955
 4015SOL    HW112944   4.377   5.438   5.958
 4015SOL    HW212945   4.451   5.321   6.045
 4016SOL     OW12946   5.167   4.861   4.657
 4016SOL    HW112947   5.249   4.886   4.605
 4016SOL    HW212948   5.190   4.790   4.723
 4017SOL     OW12949   1.841   5.769   5.189
 4017SOL    HW112950   1.939   5.766   5.209
 4017SOL    HW212951   1.828   5.791   5.092
 4018SOL     OW12952   4.121   5.566   1.238
 4018SOL    HW112953   4.113   5.665   1.246
 4018SOL    HW212954   4.111   5.540   1.142
 4019SOL     OW12955   6.766   3.680   2.354
 4019SOL    HW112956   6.705   3.669   2.276
 4019SOL    HW212957   6.839   3.611   2.350
 4020SOL     OW12958   6.965   5.941   4.524
 4020SOL    HW112959   6.953   5.880   4.602
 4020SOL    HW212960   6.951   6.036   4.554
 4021SOL     OW12961   4.381   5.072   6.137
 4021SOL    HW112962   4.325   5.020   6.072
 4021SOL    HW212963   4.322   5.129   6.194
 4022SOL     OW12964   2.718   6.029   1.168
 4022SOL    HW112965   2.690   5.950   1.223
 4022SOL    HW212966   2.685   6.113   1.211
 4023SOL     OW12967   0.418   1.499   4.322
 4023SOL    HW112968   0.499   1.492   4.265
 4023SOL    HW212969   0.368   1.412   4.320
 4024SOL     OW12970   0.264   6.613   5.101
 4024SOL    HW112971   0.279   6.568   5.013
 4024SOL    HW212972   0.309   6.560   5.174
 4025SOL     OW12973   6.788   4.882   3.664
 4025SOL    HW112974   6.764   4.833   3.748
 4025SOL    HW212975   6.704   4.905   3.614
 4026SOL     OW12976   0.461   6.669   3.983
 4026SOL    HW112977   0.421   6.745   4.034
 4026SOL    HW212978   0.461   6.691   3.885
 4027SOL     OW12979   3.412   4.930   5.174
 4027SOL    HW112980   3.485   4.958   5.236
 4027SOL    HW212981   3.363   4.853   5.212
 4028SOL     OW12982   5.094   1.346   3.883
 4028SOL    HW112983   5.178   1.298   3.906
 4028SOL    HW212984   5.015   1.294   3.916
 4029SOL     OW12985   1.347   6.357   0.865
 4029SOL    HW112986   1.445   6.356   0.846
 4029SOL    HW212987   1.331   6.394   0.957
 4030SOL     OW12988   0.508   1.878   1.950
 4030SOL    HW112989   0.551   1.930   2.024
 4030SOL    HW212990   0.409   1.875   1.966
 4031SOL     OW12991   5.740   6.320   0.584
 4031SOL    HW112992   5.743   6.412   0.622
 4031SOL    HW212993   5.744   6.253   0.658
 4032SOL     OW12994   4.952   1.062   2.676
 4032SOL    HW112995   5.017   1.075   2.751
 4032SOL    HW212996   4.926   0.965   2.671
 4033SOL     OW12997   2.645   2.137   2.912
 4033SOL    HW112998   2.709   2.173   2.845
 4033SOL    HW212999   2.582   2.074   2.868
 4034SOL     OW13000   1.372   2.623   4.568
 4034SOL    HW113001   1.412   2.582   4.486
 4034SOL    HW213002   1.315   2.702   4.542
 4035SOL     OW13003   4.748   2.399   1.806
 4035SOL    HW113004   4.775   2.336   1.879
 4035SOL    HW213005   4.662   2.444   1.829
 4036SOL     OW13006   2.979   5.811   3.537
 4036SOL    HW113007   2.925   5.847   3.613
 4036SOL    HW213008   2.967   5.870   3.457
 4037SOL     OW13009   2.077   1.965   6.324
 4037SOL    HW113010   1.990   1.988   6.368
 4037SOL    HW213011   2.078   1.869   6.298
 4038SOL     OW13012   3.522   4.849   5.804
 4038SOL    HW113013   3.581   4.821   5.879
 4038SOL    HW213014   3.434   4.802   5.811
 4039SOL     OW13015   5.558   4.785   1.493
 4039SOL    HW113016   5.658   4.790   1.482
 4039SOL    HW213017   5.522   4.875   1.516
 4040SOL     OW13018   3.163   0.613   5.084
 4040SOL    HW113019   3.091   0.670   5.124
 4040SOL    HW213020   3.252   0.642   5.118
 4041SOL     OW13021   1.653   5.594   1.902
 4041SOL    HW113022   1.689   5.510   1.942
 4041SOL    HW213023   1.590   5.571   1.827
 4042SOL     OW13024   0.190   1.881   2.636
 4042SOL    HW113025   0.269   1.916   2.685
 4042SOL    HW213026   0.117   1.950   2.635
 4043SOL     OW13027   5.229   2.893   6.138
 4043SOL    HW113028   5.139   2.884   6.180
 4043SOL    HW213029   5.234   2.836   6.056
 4044SOL     OW13030   4.769   4.141   3.393
 4044SOL    HW113031   4.723   4.054   3.378
 4044SOL    HW213032   4.807   4.144   3.486
 4045SOL     OW13033   4.535   1.018   5.185
 4045SOL    HW113034   4.499   0.931   5.220
 4045SOL    HW213035   4.504   1.031   5.091
 4046SOL     OW13036   5.239   1.590   3.623
 4046SOL    HW113037   5.316   1.557   3.676
 4046SOL    HW213038   5.208   1.519   3.560
 4047SOL     OW13039   3.248   3.173   6.594
 4047SOL    HW113040   3.314   3.110   6.635
 4047SOL    HW213041   3.201   3.224   6.665
 4048SOL     OW13042   5.077   1.890   2.472
 4048SOL    HW113043   4.996   1.873   2.416
 4048SOL    HW213044   5.050   1.930   2.559
 4049SOL     OW13045   4.083   3.869   0.712
 4049SOL    HW113046   4.014   3.811   0.754
 4049SOL    HW213047   4.038   3.943   0.661
 4050SOL     OW13048   0.613   5.086   2.562
 4050SOL    HW113049   0.681   5.013   2.559
 4050SOL    HW213050   0.572   5.097   2.472
 4051SOL     OW13051   5.357   0.939   5.315
 4051SOL    HW113052   5.443   0.933   5.365
 4051SOL    HW213053   5.301   1.012   5.354
 4052SOL     OW13054   5.430   1.779   3.459
 4052SOL    HW113055   5.353   1.714   3.457
 4052SOL    HW213056   5.406   1.856   3.517
 4053SOL     OW13057   0.663   4.749   3.897
 4053SOL    HW113058   0.740   4.744   3.960
 4053SOL    HW213059   0.583   4.785   3.945
 4054SOL     OW13060   4.285   3.859   0.897
 4054SOL    HW113061   4.274   3.763   0.924
 4054SOL    HW213062   4.215   3.884   0.831
 4055SOL     OW13063   0.177   4.133   0.363
 4055SOL    HW113064   0.190   4.043   0.403
 4055SOL    HW213065   0.131   4.193   0.428
 4056SOL     OW13066   4.892   3.228   0.087
 4056SOL    HW113067   4.797   3.251   0.064
 4056SOL    HW213068   4.919   3.145   0.038
 4057SOL     OW13069   0.022   3.514   0.453
 4057SOL    HW113070   0.104   3.548   0.408
 4057SOL    HW213071   7.002   3.448   0.393
 4058SOL     OW13072   2.245   0.726   4.906
 4058SOL    HW113073   2.199   0.645   4.943
 4058SOL    HW213074   2.337   0.700   4.874
 4059SOL     OW13075   0.263   1.457   3.483
 4059SOL    HW113076   0.260   1.372   3.535
 4059SOL    HW213077   0.354   1.467   3.441
 4060SOL     OW13078   6.986   6.434   4.596
 4060SOL    HW113079   0.056   6.423   4.622
 4060SOL    HW213080   6.962   6.531   4.598
 4061SOL     OW13081   1.260   4.706   1.339
 4061SOL    HW113082   1.247   4.789   1.394
 4061SOL    HW213083   1.171   4.670   1.312
 4062SOL     OW13084   1.803   3.904   0.858
 4062SOL    HW113085   1.891   3.871   0.825
 4062SOL    HW213086   1.733   3.885   0.789
 4063SOL     OW13087   4.522   0.372   0.316
 4063SOL    HW113088   4.509   0.421   0.402
 4063SOL    HW213089   4.434   0.341   0.281
 4064SOL     OW13090   1.906   1.124   5.954
 4064SOL    HW113091   1.906   1.030   5.989
 4064SOL    HW213092   1.862   1.184   6.021
 4065SOL     OW13093   2.490   0.289   0.945
 4065SOL    HW113094   2.463   0.260   0.853
 4065SOL    HW213095   2.454   0.224   1.012
 4066SOL     OW13096   0.711   3.841   3.557
 4066SOL    HW113097   0.687   3.746   3.539
 4066SOL    HW213098   0.792   3.845   3.616
 4067SOL     OW13099   5.584   5.006   0.739
 4067SOL    HW113100   5.523   5.029   0.663
 4067SOL    HW213101   5.648   5.081   0.755
 4068SOL     OW13102   2.260   2.764   5.111
 4068SOL    HW113103   2.270   2.862   5.121
 4068SOL    HW213104   2.346   2.725   5.077
 4069SOL     OW13105   4.705   6.481   6.700
 4069SOL    HW113106   4.707   6.391   6.656
 4069SOL    HW213107   4.652   6.545   6.644
 4070SOL     OW13108   1.567   3.565   3.659
 4070SOL    HW113109   1.608   3.517   3.581
 4070SOL    HW213110   1.515   3.643   3.625
 4071SOL     OW13111   1.455   0.643   4.867
 4071SOL    HW113112   1.358   0.657   4.846
 4071SOL    HW213113   1.505   0.728   4.854
 4072SOL     OW13114   2.690   5.983   3.270
 4072SOL    HW113115   2.699   6.082   3.259
 4072SOL    HW213116   2.628   5.964   3.345
 4073SOL     OW13117   4.553   4.874   6.968
 4073SOL    HW113118   4.583   4.782   6.994
 4073SOL    HW213119   4.464   4.892   7.011
 4074SOL     OW13120   1.592   5.800   2.824
 4074SOL    HW113121   1.502   5.844   2.831
 4074SOL    HW213122   1.583   5.714   2.773
 4075SOL     OW13123   6.475   0.579   0.893
 4075SOL    HW113124   6.429   0.490   0.895
 4075SOL    HW213125   6.536   0.587   0.972
 4076SOL     OW13126   2.207   4.617   4.424
 4076SOL    HW113127   2.276   4.637   4.493
 4076SOL    HW213128   2.252   4.578   4.343
 4077SOL     OW13129   2.630   0.773   2.033
 4077SOL    HW113130   2.620   0.677   2.061
 4077SOL    HW213131   2.540   0.817   2.031
 4078SOL     OW13132   3.546   4.882   2.247
 4078SOL    HW113133   3.551   4.981   2.230
 4078SOL    HW213134   3.548   4.834   2.160
 4079SOL     OW13135   0.391   1.939   3.812
 4079SOL    HW113136   0.299   1.924   3.775
 4079SOL    HW213137   0.398   1.897   3.902
 4080SOL     OW13138   6.933   2.289   5.213
 4080SOL    HW113139   6.834   2.277   5.209
 4080SOL    HW213140   6.968   2.305   5.120
 4081SOL     OW13141   1.863   3.286   3.618
 4081SOL    HW113142   1.906   3.371   3.589
 4081SOL    HW213143   1.820   3.298   3.708
 4082SOL     OW13144   0.618   3.765   0.903
 4082SOL    HW113145   0.555   3.843   0.904
 4082SOL    HW213146   0.633   3.734   0.997
 4083SOL     OW13147   6.205   3.034   4.774
 4083SOL    HW113148   6.193   3.071   4.682
 4083SOL    HW213149   6.301   3.013   4.790
 4084SOL     OW13150   6.767   1.800   4.168
 4084SOL    HW113151   6.728   1.824   4.256
 4084SOL    HW213152   6.760   1.878   4.106
 4085SOL     OW13153   2.447   6.163   0.246
 4085SOL    HW113154   2.402   6.252   0.240
 4085SOL    HW213155   2.534   6.167   0.197
 4086SOL     OW13156   1.010   4.451   0.722
 4086SOL    HW113157   0.954   4.440   0.641
 4086SOL    HW213158   1.107   4.452   0.696
 4087SOL     OW13159   2.695   1.798   2.935
 4087SOL    HW113160   2.656   1.890   2.932
 4087SOL    HW213161   2.749   1.788   3.019
 4088SOL     OW13162   6.389   2.100   0.617
 4088SOL    HW113163   6.361   2.068   0.707
 4088SOL    HW213164   6.319   2.073   0.550
 4089SOL     OW13165   1.433   1.574   5.752
 4089SOL    HW113166   1.449   1.496   5.690
 4089SOL    HW213167   1.434   1.659   5.699
 4090SOL     OW13168   1.821   4.736   5.826
 4090SOL    HW113169   1.873   4.704   5.906
 4090SOL    HW213170   1.723   4.726   5.844
 4091SOL     OW13171   3.877   6.961   0.445
 4091SOL    HW113172   3.963   6.917   0.470
 4091SOL    HW213173   3.895   0.026   0.409
 4092SOL     OW13174   0.014   2.040   4.764
 4092SOL    HW113175   7.007   2.004   4.852
 4092SOL    HW213176   6.968   2.031   4.695
 4093SOL     OW13177   5.465   0.123   4.726
 4093SOL    HW113178   5.368   0.127   4.749
 4093SOL    HW213179   5.519   0.168   4.797
 4094SOL     OW13180   2.842   4.297   5.320
 4094SOL    HW113181   2.847   4.386   5.273
 4094SOL    HW213182   2.918   4.289   5.384
 4095SOL     OW13183   1.741   4.042   5.745
 4095SOL    HW113184   1.713   4.083   5.832
 4095SOL    HW213185   1.668   4.052   5.678
 4096SOL     OW13186   4.454   4.763   2.187
 4096SOL    HW113187   4.387   4.750   2.114
 4096SOL    HW213188   4.458   4.680   2.243
 4097SOL     OW13189   2.907   3.568   4.103
 4097SOL    HW113190   2.945   3.513   4.179
 4097SOL    HW213191   2.879   3.657   4.138
 4098SOL     OW13192   0.414   2.553   2.225
 4098SOL    HW113193   0.512   2.541   2.240
 4098SOL    HW213194   0.399   2.609   2.143
 4099SOL     OW13195   3.070   6.346   1.924
 4099SOL    HW113196   2.998   6.302   1.978
 4099SOL    HW213197   3.113   6.279   1.864
 4100SOL     OW13198   3.388   6.444   3.049
 4100SOL    HW113199   3.347   6.445   2.958
 4100SOL    HW213200   3.448   6.364   3.058
 4101SOL     OW13201   4.461   1.286   6.696
 4101SOL    HW113202   4.370   1.289   6.739
 4101SOL    HW213203   4.531   1.297   6.766
 4102SOL     OW13204   5.541   1.472   0.373
 4102SOL    HW113205   5.588   1.384   0.371
 4102SOL    HW213206   5.471   1.474   0.302
 4103SOL     OW13207   0.435   0.159   2.415
 4103SOL    HW113208   0.344   0.197   2.401
 4103SOL    HW213209   0.485   0.215   2.481
 4104SOL     OW13210   1.637   4.787   2.446
 4104SOL    HW113211   1.598   4.803   2.537
 4104SOL    HW213212   1.649   4.689   2.432
 4105SOL     OW13213   5.591   5.308   0.415
 4105SOL    HW113214   5.635   5.322   0.326
 4105SOL    HW213215   5.661   5.302   0.486
 4106SOL     OW13216   0.246   3.774   5.047
 4106SOL    HW113217   0.262   3.766   4.949
 4106SOL    HW213218   0.147   3.772   5.065
 4107SOL     OW13219   6.987   1.469   1.272
 4107SOL    HW113220   0.012   1.428   1.197
 4107SOL    HW213221   0.016   1.541   1.314
 4108SOL     OW13222   6.759   2.847   5.211
 4108SOL    HW113223   6.839   2.878   5.160
 4108SOL    HW213224   6.773   2.865   5.309
 4109SOL     OW13225   2.929   6.661   3.516
 4109SOL    HW113226   3.026   6.672   3.539
 4109SOL    HW213227   2.882   6.748   3.527
 4110SOL     OW13228   4.668   3.266   5.434
 4110SOL    HW113229   4.671   3.187   5.373
 4110SOL    HW213230   4.759   3.284   5.471
 4111SOL     OW13231   4.527   3.424   6.767
 4111SOL    HW113232   4.554   3.512   6.726
 4111SOL    HW213233   4.598   3.395   6.832
 4112SOL     OW13234   3.554   0.486   4.469
 4112SOL    HW113235   3.562   0.394   4.508
 4112SOL    HW213236   3.480   0.488   4.402
 4113SOL     OW13237   3.926   5.514   4.496
 4113SOL    HW113238   3.861   5.438   4.506
 4113SOL    HW213239   3.891   5.579   4.428
 4114SOL     OW13240   3.006   1.777   2.623
 4114SOL    HW113241   2.975   1.722   2.700
 4114SOL    HW213242   2.938   1.848   2.604
 4115SOL     OW13243   5.019   4.903   2.139
 4115SOL    HW113244   4.999   4.946   2.227
 4115SOL    HW213245   5.074   4.966   2.084
 4116SOL     OW13246   3.106   1.055   2.232
 4116SOL    HW113247   3.112   1.093   2.140
 4116SOL    HW213248   3.160   1.111   2.295
 4117SOL     OW13249   0.912   5.107   2.122
 4117SOL    HW113250   0.912   5.124   2.024
 4117SOL    HW213251   1.006   5.088   2.152
 4118SOL     OW13252   2.561   6.359   0.483
 4118SOL    HW113253   2.634   6.315   0.535
 4118SOL    HW213254   2.598   6.433   0.428
 4119SOL     OW13255   4.428   0.966   3.381
 4119SOL    HW113256   4.387   0.883   3.417
 4119SOL    HW213257   4.519   0.978   3.420
 4120SOL     OW13258   3.262   0.854   2.063
 4120SOL    HW113259   3.334   0.863   1.994
 4120SOL    HW213260   3.200   0.932   2.057
 4121SOL     OW13261   6.414   3.313   4.656
 4121SOL    HW113262   6.444   3.230   4.705
 4121SOL    HW213263   6.384   3.381   4.723
 4122SOL     OW13264   1.885   5.414   6.560
 4122SOL    HW113265   1.902   5.361   6.477
 4122SOL    HW213266   1.786   5.415   6.579
 4123SOL     OW13267   4.768   4.048   6.028
 4123SOL    HW113268   4.705   4.094   5.965
 4123SOL    HW213269   4.718   3.983   6.085
 4124SOL     OW13270   4.716   6.598   3.810
 4124SOL    HW113271   4.644   6.660   3.776
 4124SOL    HW213272   4.678   6.540   3.882
 4125SOL     OW13273   4.983   1.155   0.704
 4125SOL    HW113274   5.078   1.187   0.711
 4125SOL    HW213275   4.931   1.189   0.783
 4126SOL     OW13276   1.892   4.962   4.309
 4126SOL    HW113277   1.911   4.900   4.233
 4126SOL    HW213278   1.812   5.018   4.287
 4127SOL     OW13279   6.346   4.138   4.997
 4127SOL    HW113280   6.377   4.217   5.050
 4127SOL    HW213281   6.371   4.150   4.901
 4128SOL     OW13282   1.048   2.219   2.495
 4128SOL    HW113283   1.071   2.202   2.591
 4128SOL    HW213284   1.105   2.160   2.437
 4129SOL     OW13285   5.724   2.227   6.095
 4129SOL    HW113286   5.694   2.133   6.107
 4129SOL    HW213287   5.822   2.230   6.077
 4130SOL     OW13288   6.131   3.676   1.214
 4130SOL    HW113289   6.050   3.728   1.242
 4130SOL    HW213290   6.104   3.588   1.176
 4131SOL     OW13291   0.045   4.018   3.500
 4131SOL    HW113292   0.077   4.109   3.473
 4131SOL    HW213293   0.033   4.015   3.599
 4132SOL     OW13294   5.203   2.132   4.304
 4132SOL    HW113295   5.242   2.221   4.330
 4132SOL    HW213296   5.108   2.145   4.275
 4133SOL     OW13297   2.686   2.125   1.063
 4133SOL    HW113298   2.588   2.119   1.086
 4133SOL    HW213299   2.739   2.094   1.142
 4134SOL     OW13300   1.106   1.594   6.893
 4134SOL    HW113301   1.037   1.624   6.827
 4134SOL    HW213302   1.100   1.495   6.905
 4135SOL     OW13303   1.368   0.526   1.026
 4135SOL    HW113304   1.412   0.479   1.102
 4135SOL    HW213305   1.269   0.528   1.041
 4136SOL     OW13306   0.886   1.760   2.915
 4136SOL    HW113307   0.798   1.726   2.881
 4136SOL    HW213308   0.961   1.717   2.864
 4137SOL     OW13309   3.670   3.743   5.306
 4137SOL    HW113310   3.715   3.774   5.390
 4137SOL    HW213311   3.590   3.800   5.288
 4138SOL     OW13312   4.098   5.310   2.850
 4138SOL    HW113313   4.178   5.251   2.863
 4138SOL    HW213314   4.036   5.299   2.928
 4139SOL     OW13315   2.146   0.913   0.329
 4139SOL    HW113316   2.194   0.987   0.281
 4139SOL    HW213317   2.208   0.836   0.343
 4140SOL     OW13318   4.471   1.430   5.423
 4140SOL    HW113319   4.410   1.354   5.401
 4140SOL    HW213320   4.540   1.400   5.488
 4141SOL     OW13321   5.579   5.636   0.592
 4141SOL    HW113322   5.496   5.604   0.546
 4141SOL    HW213323   5.555   5.704   0.661
 4142SOL     OW13324   6.344   3.173   1.861
 4142SOL    HW113325   6.285   3.245   1.900
 4142SOL    HW213326   6.337   3.175   1.762
 4143SOL     OW13327   0.285   2.150   1.457
 4143SOL    HW113328   0.320   2.096   1.380
 4143SOL    HW213329   0.252   2.088   1.529
 4144SOL     OW13330   4.368   0.943   2.485
 4144SOL    HW113331   4.461   0.909   2.500
 4144SOL    HW213332   4.371   1.035   2.446
 4145SOL     OW13333   3.235   0.164   2.723
 4145SOL    HW113334   3.151   0.109   2.725
 4145SOL    HW213335   3.307   0.117   2.772
 4146SOL     OW13336   5.052   5.539   0.470
 4146SOL    HW113337   5.012   5.468   0.528
 4146SOL    HW213338   4.999   5.546   0.385
 4147SOL     OW13339   3.220   2.553   5.619
 4147SOL    HW113340   3.306   2.604   5.624
 4147SOL    HW213341   3.168   2.569   5.703
 4148SOL     OW13342   5.859   0.014   2.870
 4148SOL    HW113343   5.760   0.010   2.882
 4148SOL    HW213344   5.903   6.990   2.944
 4149SOL     OW13345   5.297   4.315   1.604
 4149SOL    HW113346   5.287   4.227   1.649
 4149SOL    HW213347   5.206   4.353   1.586
 4150SOL     OW13348   5.076   0.507   5.669
 4150SOL    HW113349   5.130   0.592   5.671
 4150SOL    HW213350   5.122   0.437   5.723
 4151SOL     OW13351   0.036   5.035   0.560
 4151SOL    HW113352   6.995   5.019   0.487
 4151SOL    HW213353   0.031   4.960   0.626
 4152SOL     OW13354   3.851   4.523   1.322
 4152SOL    HW113355   3.789   4.601   1.330
 4152SOL    HW213356   3.839   4.462   1.400
 4153SOL     OW13357   5.976   5.566   6.199
 4153SOL    HW113358   6.046   5.616   6.248
 4153SOL    HW213359   5.928   5.505   6.263
 4154SOL     OW13360   4.577   2.670   5.446
 4154SOL    HW113361   4.672   2.655   5.416
 4154SOL    HW213362   4.558   2.610   5.524
 4155SOL     OW13363   1.310   2.988   1.365
 4155SOL    HW113364   1.238   3.054   1.383
 4155SOL    HW213365   1.273   2.895   1.369
 4156SOL     OW13366   6.353   0.195   5.678
 4156SOL    HW113367   6.262   0.236   5.671
 4156SOL    HW213368   6.403   0.211   5.593
 4157SOL     OW13369   3.339   0.453   4.647
 4157SOL    HW113370   3.277   0.515   4.696
 4157SOL    HW213371   3.327   0.464   4.548
 4158SOL     OW13372   0.863   0.132   4.603
 4158SOL    HW113373   0.937   0.148   4.539
 4158SOL    HW213374   0.791   0.079   4.559
 4159SOL     OW13375   0.725   3.309   5.467
 4159SOL    HW113376   0.753   3.214   5.480
 4159SOL    HW213377   0.735   3.333   5.370
 4160SOL     OW13378   1.495   0.976   0.853
 4160SOL    HW113379   1.465   1.013   0.765
 4160SOL    HW213380   1.539   0.887   0.838
 4161SOL     OW13381   6.210   2.035   0.434
 4161SOL    HW113382   6.146   2.109   0.457
 4161SOL    HW213383   6.158   1.950   0.420
 4162SOL     OW13384   6.816   0.103   5.249
 4162SOL    HW113385   6.753   0.032   5.278
 4162SOL    HW213386   6.908   0.065   5.239
 4163SOL     OW13387   6.259   0.953   4.060
 4163SOL    HW113388   6.252   0.870   4.115
 4163SOL    HW213389   6.172   0.969   4.013
 4164SOL     OW13390   2.356   0.046   6.415
 4164SOL    HW113391   2.360   0.062   6.514
 4164SOL    HW213392   2.336   6.976   6.398
 4165SOL     OW13393   3.063   5.977   2.927
 4165SOL    HW113394   3.045   6.075   2.921
 4165SOL    HW213395   2.978   5.929   2.951
 4166SOL     OW13396   6.136   2.817   1.047
 4166SOL    HW113397   6.230   2.827   1.081
 4166SOL    HW213398   6.119   2.722   1.021
 4167SOL     OW13399   2.292   3.134   1.307
 4167SOL    HW113400   2.274   3.219   1.356
 4167SOL    HW213401   2.283   3.149   1.209
 4168SOL     OW13402   1.750   4.659   1.151
 4168SOL    HW113403   1.655   4.650   1.119
 4168SOL    HW213404   1.806   4.587   1.111
 4169SOL     OW13405   6.405   3.720   4.540
 4169SOL    HW113406   6.478   3.712   4.608
 4169SOL    HW213407   6.317   3.707   4.584
 4170SOL     OW13408   4.306   2.429   5.364
 4170SOL    HW113409   4.255   2.474   5.291
 4170SOL    HW213410   4.296   2.330   5.356
 4171SOL     OW13411   5.592   3.411   1.382
 4171SOL    HW113412   5.635   3.327   1.413
 4171SOL    HW213413   5.599   3.480   1.454
 4172SOL     OW13414   2.509   1.368   0.060
 4172SOL    HW113415   2.428   1.421   0.035
 4172SOL    HW213416   2.494   1.324   0.149
 4173SOL     OW13417   5.633   3.375   5.427
 4173SOL    HW113418   5.662   3.469   5.405
 4173SOL    HW213419   5.533   3.371   5.425
 4174SOL     OW13420   4.909   0.461   4.275
 4174SOL    HW113421   4.875   0.477   4.368
 4174SOL    HW213422   4.997   0.506   4.263
 4175SOL     OW13423   3.662   1.751   3.558
 4175SOL    HW113424   3.596   1.826   3.567
 4175SOL    HW213425   3.690   1.720   3.649
 4176SOL     OW13426   6.230   5.742   2.827
 4176SOL    HW113427   6.288   5.664   2.805
 4176SOL    HW213428   6.202   5.788   2.742
 4177SOL     OW13429   6.908   5.174   2.594
 4177SOL    HW113430   7.005   5.163   2.572
 4177SOL    HW213431   6.895   5.158   2.692
 4178SOL     OW13432   3.982   2.658   6.099
 4178SOL    HW113433   4.015   2.648   6.005
 4178SOL    HW213434   3.955   2.568   6.134
 4179SOL     OW13435   6.297   3.009   6.257
 4179SOL    HW113436   6.219   3.057   6.297
 4179SOL    HW213437   6.351   2.966   6.329
 4180SOL     OW13438   4.262   3.698   1.141
 4180SOL    HW113439   4.165   3.673   1.138
 4180SOL    HW213440   4.272   3.784   1.190
 4181SOL     OW13441   0.066   0.909   0.194
 4181SOL    HW113442   0.107   0.996   0.222
 4181SOL    HW213443   0.002   0.926   0.118
 4182SOL     OW13444   5.765   1.273   3.653
 4182SOL    HW113445   5.700   1.325   3.598
 4182SOL    HW213446   5.858   1.299   3.629
 4183SOL     OW13447   1.770   1.800   1.171
 4183SOL    HW113448   1.787   1.744   1.253
 4183SOL    HW213449   1.795   1.895   1.191
 4184SOL     OW13450   3.842   5.184   0.365
 4184SOL    HW113451   3.927   5.233   0.386
 4184SOL    HW213452   3.767   5.224   0.417
 4185SOL     OW13453   0.074   6.645   4.136
 4185SOL    HW113454   0.136   6.610   4.066
 4185SOL    HW213455   0.045   6.569   4.195
 4186SOL     OW13456   3.519   4.221   1.884
 4186SOL    HW113457   3.445   4.154   1.882
 4186SOL    HW213458   3.598   4.181   1.931
 4187SOL     OW13459   4.349   4.685   6.185
 4187SOL    HW113460   4.422   4.739   6.144
 4187SOL    HW213461   4.376   4.589   6.188
 4188SOL     OW13462   4.901   6.218   4.941
 4188SOL    HW113463   4.984   6.195   4.992
 4188SOL    HW213464   4.917   6.200   4.844
 4189SOL     OW13465   1.685   2.966   3.136
 4189SOL    HW113466   1.773   3.014   3.143
 4189SOL    HW213467   1.678   2.899   3.210
 4190SOL     OW13468   3.444   7.012   1.619
 4190SOL    HW113469   3.371   6.945   1.631
 4190SOL    HW213470   3.462   7.026   1.522
 4191SOL     OW13471   0.175   2.959   1.940
 4191SOL    HW113472   0.083   2.924   1.928
 4191SOL    HW213473   0.174   3.059   1.940
 4192SOL     OW13474   5.795   1.038   2.799
 4192SOL    HW113475   5.719   1.024   2.736
 4192SOL    HW213476   5.761   1.066   2.888
 4193SOL     OW13477   2.175   6.645   2.291
 4193SOL    HW113478   2.249   6.710   2.269
 4193SOL    HW213479   2.201   6.554   2.261
 4194SOL     OW13480   6.867   1.235   3.516
 4194SOL    HW113481   6.792   1.181   3.481
 4194SOL    HW213482   6.874   1.223   3.615
 4195SOL     OW13483   5.201   0.790   2.789
 4195SOL    HW113484   5.190   0.718   2.858
 4195SOL    HW213485   5.178   0.878   2.830
 4196SOL     OW13486   4.667   2.264   2.846
 4196SOL    HW113487   4.607   2.184   2.850
 4196SOL    HW213488   4.612   2.347   2.854
 4197SOL     OW13489   4.814   4.003   4.432
 4197SOL    HW113490   4.899   4.017   4.483
 4197SOL    HW213491   4.796   3.905   4.422
 4198SOL     OW13492   5.374   4.087   5.923
 4198SOL    HW113493   5.379   4.092   5.824
 4198SOL    HW213494   5.443   4.023   5.957
 4199SOL     OW13495   3.292   3.845   5.117
 4199SOL    HW113496   3.218   3.883   5.062
 4199SOL    HW213497   3.280   3.746   5.126
 4200SOL     OW13498   2.349   0.079   5.847
 4200SOL    HW113499   2.387   0.170   5.830
 4200SOL    HW213500   2.410   0.027   5.906
 4201SOL     OW13501   6.223   6.797   4.759
 4201SOL    HW113502   6.241   6.765   4.666
 4201SOL    HW213503   6.146   6.746   4.798
 4202SOL     OW13504   5.724   3.716   5.018
 4202SOL    HW113505   5.735   3.621   4.989
 4202SOL    HW213506   5.698   3.720   5.114
 4203SOL     OW13507   4.972   5.226   3.952
 4203SOL    HW113508   5.022   5.302   3.911
 4203SOL    HW213509   4.905   5.262   4.017
 4204SOL     OW13510   2.370   4.344   0.799
 4204SOL    HW113511   2.303   4.275   0.826
 4204SOL    HW213512   2.423   4.311   0.720
 4205SOL     OW13513   2.610   5.606   3.481
 4205SOL    HW113514   2.640   5.591   3.387
 4205SOL    HW213515   2.613   5.703   3.502
 4206SOL     OW13516   5.689   6.938   4.751
 4206SOL    HW113517   5.629   7.018   4.755
 4206SOL    HW213518   5.723   6.926   4.658
 4207SOL     OW13519   0.911   0.621   0.640
 4207SOL    HW113520   0.823   0.655   0.675
 4207SOL    HW213521   0.945   0.549   0.700
 4208SOL     OW13522   1.026   2.833   0.415
 4208SOL    HW113523   1.035   2.835   0.515
 4208SOL    HW213524   0.934   2.862   0.390
 4209SOL     OW13525   2.674   0.797   4.960
 4209SOL    HW113526   2.602   0.742   4.919
 4209SOL    HW213527   2.663   0.892   4.932
 4210SOL     OW13528   5.274   2.384   0.120
 4210SOL    HW113529   5.226   2.428   0.196
 4210SOL    HW213530   5.324   2.454   0.068
 4211SOL     OW13531   4.898   3.479   4.018
 4211SOL    HW113532   4.886   3.386   3.983
 4211SOL    HW213533   4.876   3.481   4.115
 4212SOL     OW13534   6.382   6.636   2.947
 4212SOL    HW113535   6.391   6.552   3.001
 4212SOL    HW213536   6.473   6.675   2.930
 4213SOL     OW13537   0.647   6.924   1.686
 4213SOL    HW113538   0.624   6.838   1.733
 4213SOL    HW213539   0.735   6.915   1.641
 4214SOL     OW13540   2.236   4.656   5.053
 4214SOL    HW113541   2.192   4.578   5.098
 4214SOL    HW213542   2.320   4.626   5.008
 4215SOL     OW13543   0.716   5.570   5.259
 4215SOL    HW113544   0.630   5.620   5.267
 4215SOL    HW213545   0.709   5.484   5.310
 4216SOL     OW13546   2.859   3.145   5.297
 4216SOL    HW113547   2.802   3.071   5.331
 4216SOL    HW213548   2.940   3.154   5.355
 4217SOL     OW13549   0.127   0.855   2.940
 4217SOL    HW113550   0.202   0.830   3.001
 4217SOL    HW213551   0.163   0.875   2.849
 4218SOL     OW13552   3.114   6.432   2.371
 4218SOL    HW113553   3.124   6.520   2.419
 4218SOL    HW213554   3.105   6.358   2.437
 4219SOL     OW13555   5.098   6.882   3.203
 4219SOL    HW113556   5.172   6.923   3.256
 4219SOL    HW213557   5.036   6.954   3.171
 4220SOL     OW13558   0.884   4.018   3.401
 4220SOL    HW113559   0.864   4.115   3.384
 4220SOL    HW213560   0.825   3.984   3.474
 4221SOL     OW13561   5.480   5.845   5.869
 4221SOL    HW113562   5.452   5.800   5.784
 4221SOL    HW213563   5.416   5.919   5.890
 4222SOL     OW13564   3.348   2.462   0.086
 4222SOL    HW113565   3.347   2.552   0.130
 4222SOL    HW213566   3.421   2.459   0.018
 4223SOL     OW13567   2.968   3.503   2.436
 4223SOL    HW113568   2.974   3.598   2.468
 4223SOL    HW213569   2.962   3.442   2.515
 4224SOL     OW13570   4.103   1.939   5.907
 4224SOL    HW113571   4.005   1.948   5.889
 4224SOL    HW213572   4.129   1.998   5.983
 4225SOL     OW13573   5.212   0.377   4.617
 4225SOL    HW113574   5.140   0.308   4.604
 4225SOL    HW213575   5.265   0.386   4.533
 4226SOL     OW13576   2.009   1.296   3.125
 4226SOL    HW113577   2.012   1.356   3.205
 4226SOL    HW213578   1.928   1.318   3.070
 4227SOL     OW13579   5.938   3.952   0.059
 4227SOL    HW113580   5.888   4.003   7.015
 4227SOL    HW213581   5.888   3.869   0.083
 4228SOL     OW13582   5.789   5.271   3.132
 4228SOL    HW113583   5.750   5.342   3.191
 4228SOL    HW213584   5.883   5.295   3.107
 4229SOL     OW13585   4.524   4.637   5.360
 4229SOL    HW113586   4.448   4.680   5.311
 4229SOL    HW213587   4.499   4.626   5.457
 4230SOL     OW13588   2.952   0.372   4.806
 4230SOL    HW113589   2.976   0.282   4.843
 4230SOL    HW213590   3.035   0.428   4.799
 4231SOL     OW13591   4.014   6.151   5.468
 4231SOL    HW113592   3.928   6.168   5.515
 4231SOL    HW213593   4.089   6.154   5.534
 4232SOL     OW13594   2.301   4.246   1.646
 4232SOL    HW113595   2.222   4.240   1.586
 4232SOL    HW213596   2.362   4.318   1.614
 4233SOL     OW13597   5.450   6.600   0.972
 4233SOL    HW113598   5.447   6.672   0.903
 4233SOL    HW213599   5.540   6.558   0.973
 4234SOL     OW13600   3.202   3.741   5.421
 4234SOL    HW113601   3.127   3.792   5.380
 4234SOL    HW213602   3.250   3.689   5.350
 4235SOL     OW13603   0.434   3.644   5.226
 4235SOL    HW113604   0.383   3.693   5.155
 4235SOL    HW213605   0.483   3.710   5.283
 4236SOL     OW13606   1.081   3.858   4.738
 4236SOL    HW113607   1.166   3.806   4.750
 4236SOL    HW213608   1.007   3.795   4.711
 4237SOL     OW13609   5.444   4.662   5.197
 4237SOL    HW113610   5.540   4.670   5.225
 4237SOL    HW213611   5.422   4.566   5.183
 4238SOL     OW13612   4.609   4.365   4.555
 4238SOL    HW113613   4.539   4.321   4.500
 4238SOL    HW213614   4.662   4.295   4.604
 4239SOL     OW13615   5.530   5.509   6.101
 4239SOL    HW113616   5.593   5.455   6.044
 4239SOL    HW213617   5.436   5.483   6.079
 4240SOL     OW13618   2.551   4.990   6.244
 4240SOL    HW113619   2.541   5.022   6.150
 4240SOL    HW213620   2.494   5.046   6.304
 4241SOL     OW13621   4.175   1.589   0.107
 4241SOL    HW113622   4.084   1.627   0.116
 4241SOL    HW213623   4.235   1.628   0.178
 4242SOL     OW13624   1.421   0.587   2.545
 4242SOL    HW113625   1.441   0.528   2.623
 4242SOL    HW213626   1.355   0.541   2.485
 4243SOL     OW13627   1.302   2.814   2.927
 4243SOL    HW113628   1.268   2.865   3.006
 4243SOL    HW213629   1.402   2.817   2.926
 4244SOL     OW13630   2.881   0.092   0.772
 4244SOL    HW113631   2.900   0.043   0.687
 4244SOL    HW213632   2.866   0.189   0.753
 4245SOL     OW13633   6.648   2.220   0.959
 4245SOL    HW113634   6.724   2.226   1.023
 4245SOL    HW213635   6.682   2.232   0.865
 4246SOL     OW13636   4.733   2.611   3.684
 4246SOL    HW113637   4.681   2.624   3.600
 4246SOL    HW213638   4.675   2.570   3.754
 4247SOL     OW13639   1.483   4.464   6.588
 4247SOL    HW113640   1.454   4.427   6.499
 4247SOL    HW213641   1.522   4.391   6.644
 4248SOL     OW13642   2.169   0.706   3.268
 4248SOL    HW113643   2.261   0.736   3.295
 4248SOL    HW213644   2.162   0.705   3.169
 4249SOL     OW13645   5.937   0.436   5.958
 4249SOL    HW113646   5.929   0.529   5.923
 4249SOL    HW213647   6.016   0.429   6.019
 4250SOL     OW13648   6.965   6.196   4.847
 4250SOL    HW113649   6.901   6.146   4.907
 4250SOL    HW213650   6.948   6.170   4.752
 4251SOL     OW13651   4.882   2.241   5.551
 4251SOL    HW113652   4.824   2.176   5.601
 4251SOL    HW213653   4.866   2.333   5.586
 4252SOL     OW13654   6.889   6.912   6.823
 4252SOL    HW113655   6.921   6.994   6.777
 4252SOL    HW213656   6.967   6.866   6.867
 4253SOL     OW13657   4.512   6.185   2.895
 4253SOL    HW113658   4.538   6.280   2.913
 4253SOL    HW213659   4.594   6.132   2.874
 4254SOL     OW13660   1.635   2.398   6.024
 4254SOL    HW113661   1.576   2.351   6.090
 4254SOL    HW213662   1.586   2.409   5.937
 4255SOL     OW13663   0.644   2.745   3.122
 4255SOL    HW113664   0.740   2.741   3.094
 4255SOL    HW213665   0.593   2.671   3.077
 4256SOL     OW13666   6.814   6.010   0.857
 4256SOL    HW113667   6.808   6.009   0.757
 4256SOL    HW213668   6.909   5.997   0.885
 4257SOL     OW13669   6.437   1.013   3.407
 4257SOL    HW113670   6.387   0.954   3.470
 4257SOL    HW213671   6.388   1.019   3.320
 4258SOL     OW13672   2.845   5.652   0.805
 4258SOL    HW113673   2.818   5.735   0.755
 4258SOL    HW213674   2.866   5.675   0.900
 4259SOL     OW13675   1.140   0.339   0.618
 4259SOL    HW113676   1.192   0.262   0.656
 4259SOL    HW213677   1.105   0.314   0.528
 4260SOL     OW13678   6.027   0.550   4.863
 4260SOL    HW113679   5.943   0.508   4.830
 4260SOL    HW213680   6.051   0.511   4.952
 4261SOL     OW13681   2.032   6.115   4.360
 4261SOL    HW113682   2.096   6.160   4.298
 4261SOL    HW213683   2.035   6.160   4.449
 4262SOL     OW13684   2.096   4.888   5.131
 4262SOL    HW113685   2.126   4.793   5.134
 4262SOL    HW213686   2.170   4.946   5.096
 4263SOL     OW13687   2.548   1.606   3.482
 4263SOL    HW113688   2.460   1.559   3.486
 4263SOL    HW213689   2.542   1.681   3.416
 4264SOL     OW13690   4.460   2.105   5.826
 4264SOL    HW113691   4.431   2.010   5.838
 4264SOL    HW213692   4.387   2.167   5.857
 4265SOL     OW13693   2.423   6.574   6.158
 4265SOL    HW113694   2.342   6.525   6.189
 4265SOL    HW213695   2.405   6.615   6.068
 4266SOL     OW13696   1.141   5.230   1.850
 4266SOL    HW113697   1.151   5.326   1.876
 4266SOL    HW213698   1.141   5.222   1.750
 4267SOL     OW13699   1.165   3.856   4.270
 4267SOL    HW113700   1.129   3.942   4.234
 4267SOL    HW213701   1.240   3.824   4.213
 4268SOL     OW13702   1.115   4.677   6.080
 4268SOL    HW113703   1.110   4.608   6.007
 4268SOL    HW213704   1.026   4.680   6.127
 4269SOL     OW13705   3.101   1.416   4.222
 4269SOL    HW113706   3.166   1.482   4.260
 4269SOL    HW213707   3.013   1.461   4.205
 4270SOL     OW13708   4.112   3.944   0.303
 4270SOL    HW113709   4.124   3.980   0.211
 4270SOL    HW213710   4.038   3.876   0.303
 4271SOL     OW13711   6.997   0.363   1.175
 4271SOL    HW113712   6.961   0.415   1.253
 4271SOL    HW213713   6.991   0.418   1.092
 4272SOL     OW13714   6.847   1.543   5.745
 4272SOL    HW113715   6.846   1.604   5.666
 4272SOL    HW213716   6.897   1.459   5.722
 4273SOL     OW13717   2.662   5.909   3.961
 4273SOL    HW113718   2.614   5.825   3.988
 4273SOL    HW213719   2.596   5.980   3.938
 4274SOL     OW13720   0.845   1.429   1.766
 4274SOL    HW113721   0.826   1.344   1.716
 4274SOL    HW213722   0.910   1.484   1.714
 4275SOL     OW13723   0.080   2.483   3.992
 4275SOL    HW113724   0.165   2.431   3.994
 4275SOL    HW213725   0.045   2.495   4.085
 4276SOL     OW13726   1.429   6.504   2.993
 4276SOL    HW113727   1.436   6.544   2.901
 4276SOL    HW213728   1.495   6.429   3.002
 4277SOL     OW13729   6.696   5.514   2.761
 4277SOL    HW113730   6.789   5.495   2.792
 4277SOL    HW213731   6.635   5.522   2.840
 4278SOL     OW13732   0.889   6.816   1.158
 4278SOL    HW113733   0.894   6.727   1.203
 4278SOL    HW213734   0.977   6.864   1.169
 4279SOL     OW13735   0.929   2.369   3.396
 4279SOL    HW113736   0.997   2.438   3.421
 4279SOL    HW213737   0.837   2.406   3.411
 4280SOL     OW13738   1.902   6.033   6.114
 4280SOL    HW113739   1.989   6.000   6.077
 4280SOL    HW213740   1.830   5.966   6.093
 4281SOL     OW13741   6.059   5.896   3.646
 4281SOL    HW113742   6.047   5.994   3.628
 4281SOL    HW213743   6.001   5.870   3.723
 4282SOL     OW13744   5.363   5.466   2.304
 4282SOL    HW113745   5.285   5.509   2.350
 4282SOL    HW213746   5.389   5.383   2.353
 4283SOL     OW13747   5.835   0.969   4.705
 4283SOL    HW113748   5.922   1.016   4.714
 4283SOL    HW213749   5.769   1.007   4.771
 4284SOL     OW13750   4.865   5.903   6.756
 4284SOL    HW113751   4.862   5.825   6.819
 4284SOL    HW213752   4.777   5.913   6.711
 4285SOL     OW13753   3.010   1.684   6.354
 4285SOL    HW113754   3.074   1.722   6.287
 4285SOL    HW213755   3.061   1.658   6.437
 4286SOL     OW13756   5.068   0.236   6.930
 4286SOL    HW113757   5.010   0.228   7.011
 4286SOL    HW213758   5.134   0.161   6.929
 4287SOL     OW13759   3.183   0.868   1.262
 4287SOL    HW113760   3.148   0.887   1.354
 4287SOL    HW213761   3.107   0.841   1.203
 4288SOL     OW13762   6.983   5.922   1.846
 4288SOL    HW113763   0.045   5.966   1.830
 4288SOL    HW213764   6.995   5.822   1.839
 4289SOL     OW13765   0.068   4.518   5.434
 4289SOL    HW113766   0.111   4.428   5.449
 4289SOL    HW213767   7.023   4.509   5.365
 4290SOL     OW13768   6.827   1.721   3.155
 4290SOL    HW113769   6.768   1.802   3.161
 4290SOL    HW213770   6.896   1.725   3.227
 4291SOL     OW13771   4.419   4.648   6.529
 4291SOL    HW113772   4.517   4.654   6.508
 4291SOL    HW213773   4.369   4.710   6.469
 4292SOL     OW13774   6.555   0.996   1.679
 4292SOL    HW113775   6.616   0.948   1.743
 4292SOL    HW213776   6.529   0.934   1.606
 4293SOL     OW13777   3.892   2.901   0.226
 4293SOL    HW113778   3.798   2.931   0.241
 4293SOL    HW213779   3.905   2.882   0.129
 4294SOL     OW13780   2.779   1.581   6.628
 4294SOL    HW113781   2.868   1.608   6.664
 4294SOL    HW213782   2.775   1.602   6.531
 4295SOL     OW13783   4.696   6.274   3.155
 4295SOL    HW113784   4.749   6.318   3.227
 4295SOL    HW213785   4.630   6.211   3.197
 4296SOL     OW13786   2.192   6.624   1.930
 4296SOL    HW113787   2.260   6.611   2.002
 4296SOL    HW213788   2.144   6.711   1.944
 4297SOL     OW13789   4.917   5.303   0.295
 4297SOL    HW113790   4.904   5.209   0.263
 4297SOL    HW213791   4.828   5.348   0.301
 4298SOL     OW13792   1.450   0.338   0.821
 4298SOL    HW113793   1.366   0.342   0.876
 4298SOL    HW213794   1.511   0.270   0.859
 4299SOL     OW13795   0.888   3.221   6.626
 4299SOL    HW113796   0.891   3.319   6.607
 4299SOL    HW213797   0.852   3.172   6.546
 4300SOL     OW13798   2.906   0.806   2.108
 4300SOL    HW113799   2.817   0.760   2.112
 4300SOL    HW213800   2.892   0.904   2.095
 4301SOL     OW13801   2.398   5.855   5.679
 4301SOL    HW113802   2.448   5.848   5.766
 4301SOL    HW213803   2.389   5.952   5.654
 4302SOL     OW13804   3.478   5.000   6.276
 4302SOL    HW113805   3.479   5.009   6.375
 4302SOL    HW213806   3.523   4.914   6.250
 4303SOL     OW13807   3.979   5.674   3.461
 4303SOL    HW113808   3.968   5.718   3.372
 4303SOL    HW213809   4.029   5.736   3.522
 4304SOL     OW13810   3.019   4.032   1.818
 4304SOL    HW113811   3.000   4.100   1.747
 4304SOL    HW213812   3.027   4.077   1.907
 4305SOL     OW13813   0.613   6.119   6.398
 4305SOL    HW113814   0.563   6.074   6.324
 4305SOL    HW213815   0.610   6.218   6.385
 4306SOL     OW13816   5.675   3.450   5.083
 4306SOL    HW113817   5.611   3.376   5.059
 4306SOL    HW213818   5.627   3.520   5.135
 4307SOL     OW13819   6.661   1.314   5.313
 4307SOL    HW113820   6.632   1.256   5.389
 4307SOL    HW213821   6.760   1.326   5.315
 4308SOL     OW13822   3.940   5.761   6.242
 4308SOL    HW113823   3.984   5.825   6.304
 4308SOL    HW213824   4.009   5.721   6.181
 4309SOL     OW13825   1.864   1.455   0.544
 4309SOL    HW113826   1.830   1.364   0.522
 4309SOL    HW213827   1.788   1.514   0.572
 4310SOL     OW13828   6.251   2.256   2.815
 4310SOL    HW113829   6.226   2.353   2.811
 4310SOL    HW213830   6.197   2.205   2.748
 4311SOL     OW13831   0.895   7.025   1.557
 4311SOL    HW113832   0.869   0.094   1.542
 4311SOL    HW213833   0.991   7.021   1.586
 4312SOL     OW13834   6.922   3.608   2.019
 4312SOL    HW113835   6.928   3.707   2.009
 4312SOL    HW213836   6.988   3.564   1.958
 4313SOL     OW13837   1.055   3.983   6.579
 4313SOL    HW113838   1.055   3.900   6.522
 4313SOL    HW213839   1.044   4.063   6.521
 4314SOL     OW13840   1.365   0.998   5.607
 4314SOL    HW113841   1.413   0.938   5.671
 4314SOL    HW213842   1.360   1.090   5.646
 4315SOL     OW13843   2.586   2.081   5.682
 4315SOL    HW113844   2.667   2.123   5.723
 4315SOL    HW213845   2.603   1.983   5.667
 4316SOL     OW13846   4.149   5.624   1.797
 4316SOL    HW113847   4.207   5.646   1.875
 4316SOL    HW213848   4.166   5.530   1.768
 4317SOL     OW13849   5.251   0.572   5.076
 4317SOL    HW113850   5.242   0.670   5.094
 4317SOL    HW213851   5.209   0.550   4.988
 4318SOL     OW13852   1.417   6.427   4.414
 4318SOL    HW113853   1.455   6.428   4.507
 4318SOL    HW213854   1.322   6.397   4.418
 4319SOL     OW13855   1.269   4.294   2.501
 4319SOL    HW113856   1.266   4.277   2.402
 4319SOL    HW213857   1.320   4.220   2.545
 4320SOL     OW13858   3.231   0.139   0.789
 4320SOL    HW113859   3.137   0.119   0.818
 4320SOL    HW213860   3.253   0.233   0.813
 4321SOL     OW13861   6.716   6.483   3.132
 4321SOL    HW113862   6.751   6.573   3.105
 4321SOL    HW213863   6.793   6.422   3.152
 4322SOL     OW13864   2.038   1.648   4.518
 4322SOL    HW113865   2.088   1.680   4.599
 4322SOL    HW213866   2.056   1.551   4.503
 4323SOL     OW13867   4.546   4.866   0.300
 4323SOL    HW113868   4.487   4.812   0.360
 4323SOL    HW213869   4.586   4.807   0.230
 4324SOL     OW13870   0.682   4.785   5.717
 4324SOL    HW113871   0.610   4.807   5.651
 4324SOL    HW213872   0.730   4.702   5.687
 4325SOL     OW13873   1.909   6.569   1.527
 4325SOL    HW113874   1.810   6.555   1.521
 4325SOL    HW213875   1.945   6.586   1.436
 4326SOL     OW13876   4.615   2.619   2.520
 4326SOL    HW113877   4.686   2.586   2.582
 4326SOL    HW213878   4.541   2.551   2.515
 4327SOL     OW13879   2.394   5.839   3.764
 4327SOL    HW113880   2.313   5.798   3.721
 4327SOL    HW213881   2.367   5.921   3.814
 4328SOL     OW13882   5.920   0.348   3.505
 4328SOL    HW113883   5.902   0.273   3.441
 4328SOL    HW213884   6.013   0.339   3.541
 4329SOL     OW13885   6.291   3.679   6.779
 4329SOL    HW113886   6.349   3.652   6.702
 4329SOL    HW213887   6.312   3.773   6.806
 4330SOL     OW13888   2.602   4.665   4.277
 4330SOL    HW113889   2.645   4.642   4.364
 4330SOL    HW213890   2.517   4.716   4.295
 4331SOL     OW13891   5.875   1.833   2.459
 4331SOL    HW113892   5.785   1.871   2.480
 4331SOL    HW213893   5.902   1.769   2.532
 4332SOL     OW13894   0.016   5.748   1.540
 4332SOL    HW113895   6.953   5.781   1.570
 4332SOL    HW213896   0.004   5.664   1.487
 4333SOL     OW13897   3.919   3.044   6.021
 4333SOL    HW113898   3.955   3.099   5.946
 4333SOL    HW213899   3.871   2.964   5.985
 4334SOL     OW13900   0.044   2.949   3.910
 4334SOL    HW113901   0.064   2.893   3.991
 4334SOL    HW213902   6.974   2.977   3.911
 4335SOL     OW13903   2.285   4.127   1.894
 4335SOL    HW113904   2.303   4.174   1.808
 4335SOL    HW213905   2.218   4.055   1.880
 4336SOL     OW13906   2.574   5.458   5.471
 4336SOL    HW113907   2.581   5.358   5.464
 4336SOL    HW213908   2.574   5.498   5.379
 4337SOL     OW13909   6.763   4.519   3.288
 4337SOL    HW113910   6.672   4.547   3.320
 4337SOL    HW213911   6.817   4.600   3.268
 4338SOL     OW13912   2.861   2.291   6.140
 4338SOL    HW113913   2.901   2.375   6.104
 4338SOL    HW213914   2.881   2.284   6.238
 4339SOL     OW13915   4.053   4.960   4.951
 4339SOL    HW113916   4.115   4.971   5.029
 4339SOL    HW213917   3.962   4.934   4.985
 4340SOL     OW13918   0.269   4.361   0.964
 4340SOL    HW113919   0.192   4.421   0.984
 4340SOL    HW213920   0.309   4.329   1.050
 4341SOL     OW13921   6.167   5.749   1.422
 4341SOL    HW113922   6.260   5.742   1.387
 4341SOL    HW213923   6.168   5.755   1.521
 4342SOL     OW13924   5.425   3.126   2.584
 4342SOL    HW113925   5.488   3.101   2.511
 4342SOL    HW213926   5.420   3.052   2.651
 4343SOL     OW13927   3.521   0.441   6.383
 4343SOL    HW113928   3.549   0.345   6.390
 4343SOL    HW213929   3.570   0.485   6.308
 4344SOL     OW13930   0.671   3.984   2.937
 4344SOL    HW113931   0.587   4.015   2.981
 4344SOL    HW213932   0.661   3.993   2.838
 4345SOL     OW13933   3.915   3.768   2.661
 4345SOL    HW113934   3.969   3.718   2.593
 4345SOL    HW213935   3.836   3.713   2.688
 4346SOL     OW13936   0.712   2.977   2.834
 4346SOL    HW113937   0.795   3.025   2.806
 4346SOL    HW213938   0.638   3.043   2.847
 4347SOL     OW13939   6.423   5.285   0.597
 4347SOL    HW113940   6.325   5.289   0.613
 4347SOL    HW213941   6.453   5.190   0.592
 4348SOL     OW13942   5.861   4.986   5.494
 4348SOL    HW113943   5.829   4.907   5.547
 4348SOL    HW213944   5.869   5.065   5.554
 4349SOL     OW13945   0.795   3.647   4.016
 4349SOL    HW113946   0.782   3.549   4.029
 4349SOL    HW213947   0.891   3.664   3.993
 4350SOL     OW13948   4.057   0.964   4.034
 4350SOL    HW113949   3.964   0.940   4.061
 4350SOL    HW213950   4.060   1.060   4.008
 4351SOL     OW13951   0.288   5.581   0.950
 4351SOL    HW113952   0.339   5.667   0.950
 4351SOL    HW213953   0.192   5.599   0.969
 4352SOL     OW13954   3.669   5.004   1.855
 4352SOL    HW113955   3.648   4.910   1.883
 4352SOL    HW213956   3.583   5.053   1.837
 4353SOL     OW13957   2.946   3.348   0.888
 4353SOL    HW113958   2.982   3.396   0.968
 4353SOL    HW213959   3.014   3.350   0.815
 4354SOL     OW13960   5.849   5.952   2.308
 4354SOL    HW113961   5.931   6.006   2.323
 4354SOL    HW213962   5.816   5.966   2.215
 4355SOL     OW13963   2.066   4.802   2.791
 4355SOL    HW113964   2.100   4.708   2.785
 4355SOL    HW213965   2.107   4.847   2.870
 4356SOL     OW13966   6.115   2.893   5.573
 4356SOL    HW113967   6.128   2.909   5.671
 4356SOL    HW213968   6.122   2.980   5.524
 4357SOL     OW13969   5.696   6.759   1.771
 4357SOL    HW113970   5.679   6.685   1.835
 4357SOL    HW213971   5.789   6.795   1.786
 4358SOL     OW13972   2.859   1.199   0.235
 4358SOL    HW113973   2.887   1.293   0.215
 4358SOL    HW213974   2.922   1.135   0.190
 4359SOL     OW13975   2.335   2.058   1.037
 4359SOL    HW113976   2.350   2.108   0.951
 4359SOL    HW213977   2.394   2.095   1.108
 4360SOL     OW13978   2.250   5.545   4.309
 4360SOL    HW113979   2.177   5.477   4.314
 4360SOL    HW213980   2.327   5.516   4.366
 4361SOL     OW13981   0.652   1.975   0.211
 4361SOL    HW113982   0.558   2.007   0.216
 4361SOL    HW213983   0.710   2.047   0.174
 4362SOL     OW13984   0.909   5.066   3.359
 4362SOL    HW113985   0.959   5.136   3.308
 4362SOL    HW213986   0.842   5.022   3.298
 4363SOL     OW13987   3.722   0.758   2.092
 4363SOL    HW113988   3.730   0.746   1.993
 4363SOL    HW213989   3.783   0.831   2.123
 4364SOL     OW13990   2.928   3.823   2.830
 4364SOL    HW113991   2.981   3.897   2.872
 4364SOL    HW213992   2.858   3.792   2.894
 4365SOL     OW13993   2.182   0.817   1.191
 4365SOL    HW113994   2.096   0.868   1.197
 4365SOL    HW213995   2.166   0.721   1.212
 4366SOL     OW13996   4.900   6.483   4.430
 4366SOL    HW113997   4.865   6.436   4.349
 4366SOL    HW213998   4.988   6.524   4.410
 4367SOL     OW13999   2.279   6.168   2.468
 4367SOL    HW114000   2.215   6.098   2.500
 4367SOL    HW214001   2.252   6.199   2.377
 4368SOL     OW14002   4.814   3.988   4.142
 4368SOL    HW114003   4.813   3.972   4.241
 4368SOL    HW214004   4.826   3.901   4.094
 4369SOL     OW14005   5.508   3.960   3.767
 4369SOL    HW114006   5.530   3.873   3.723
 4369SOL    HW214007   5.411   3.961   3.791
 4370SOL     OW14008   4.232   4.791   0.836
 4370SOL    HW114009   4.191   4.752   0.754
 4370SOL    HW214010   4.301   4.728   0.872
 4371SOL     OW14011   3.190   0.936   2.478
 4371SOL    HW114012   3.160   0.965   2.387
 4371SOL    HW214013   3.143   0.851   2.503
 4372SOL     OW14014   1.953   4.234   4.092
 4372SOL    HW114015   1.857   4.219   4.118
 4372SOL    HW214016   1.981   4.325   4.121
 4373SOL     OW14017   4.525   0.821   0.061
 4373SOL    HW114018   4.426   0.831   0.068
 4373SOL    HW214019   4.549   0.792   6.995
 4374SOL     OW14020   2.596   6.584   0.311
 4374SOL    HW114021   2.538   6.630   0.244
 4374SOL    HW214022   2.651   6.653   0.360
 4375SOL     OW14023   4.193   1.257   5.882
 4375SOL    HW114024   4.200   1.340   5.826
 4375SOL    HW214025   4.223   1.179   5.828
 4376SOL     OW14026   2.184   5.285   0.182
 4376SOL    HW114027   2.214   5.194   0.208
 4376SOL    HW214028   2.236   5.353   0.234
 4377SOL     OW14029   5.252   5.895   0.096
 4377SOL    HW114030   5.318   5.892   0.021
 4377SOL    HW214031   5.215   5.988   0.104
 4378SOL     OW14032   2.789   4.828   2.974
 4378SOL    HW114033   2.772   4.776   3.058
 4378SOL    HW214034   2.746   4.917   2.981
 4379SOL     OW14035   0.696   6.737   1.417
 4379SOL    HW114036   0.645   6.820   1.397
 4379SOL    HW214037   0.707   6.683   1.334
 4380SOL     OW14038   1.928   5.476   4.280
 4380SOL    HW114039   1.855   5.418   4.315
 4380SOL    HW214040   1.927   5.475   4.180
 4381SOL     OW14041   4.737   5.595   5.153
 4381SOL    HW114042   4.835   5.612   5.162
 4381SOL    HW214043   4.723   5.507   5.106
 4382SOL     OW14044   5.326   3.649   3.211
 4382SOL    HW114045   5.347   3.736   3.255
 4382SOL    HW214046   5.371   3.646   3.121
 4383SOL     OW14047   0.889   1.640   0.257
 4383SOL    HW114048   0.928   1.732   0.263
 4383SOL    HW214049   0.956   1.573   0.287
 4384SOL     OW14050   4.101   6.582   1.292
 4384SOL    HW114051   4.125   6.633   1.210
 4384SOL    HW214052   4.058   6.496   1.267
 4385SOL     OW14053   6.109   2.392   2.361
 4385SOL    HW114054   6.205   2.416   2.351
 4385SOL    HW214055   6.098   2.293   2.354
 4386SOL     OW14056   1.458   4.157   6.929
 4386SOL    HW114057   1.400   4.076   6.919
 4386SOL    HW214058   1.432   4.206   7.013
 4387SOL     OW14059   6.520   2.551   1.701
 4387SOL    HW114060   6.427   2.582   1.722
 4387SOL    HW214061   6.530   2.542   1.602
 4388SOL     OW14062   3.607   1.717   5.651
 4388SOL    HW114063   3.688   1.747   5.600
 4388SOL    HW214064   3.631   1.707   5.747
 4389SOL     OW14065   5.725   2.311   2.582
 4389SOL    HW114066   5.798   2.379   2.583
 4389SOL    HW214067   5.737   2.250   2.504
 4390SOL     OW14068   4.218   2.541   1.597
 4390SOL    HW114069   4.187   2.585   1.513
 4390SOL    HW214070   4.279   2.604   1.646
 4391SOL     OW14071   0.294   6.581   0.777
 4391SOL    HW114072   0.361   6.507   0.789
 4391SOL    HW214073   0.342   6.665   0.750
 4392SOL     OW14074   5.684   3.898   4.635
 4392SOL    HW114075   5.598   3.919   4.682
 4392SOL    HW214076   5.754   3.965   4.660
 4393SOL     OW14077   5.464   6.424   3.604
 4393SOL    HW114078   5.460   6.512   3.651
 4393SOL    HW214079   5.511   6.358   3.663
 4394SOL     OW14080   4.360   1.209   2.705
 4394SOL    HW114081   4.351   1.189   2.608
 4394SOL    HW214082   4.363   1.124   2.757
 4395SOL     OW14083   5.231   1.605   1.402
 4395SOL    HW114084   5.173   1.686   1.400
 4395SOL    HW214085   5.176   1.523   1.390
 4396SOL     OW14086   1.420   1.312   3.927
 4396SOL    HW114087   1.520   1.323   3.927
 4396SOL    HW214088   1.386   1.315   4.021
 4397SOL     OW14089   5.475   0.336   6.432
 4397SOL    HW114090   5.456   0.238   6.446
 4397SOL    HW214091   5.407   0.390   6.482
 4398SOL     OW14092   0.144   5.511   4.217
 4398SOL    HW114093   0.240   5.535   4.199
 4398SOL    HW214094   0.092   5.595   4.232
 4399SOL     OW14095   2.747   1.275   2.151
 4399SOL    HW114096   2.834   1.324   2.140
 4399SOL    HW214097   2.731   1.257   2.248
 4400SOL     OW14098   3.905   6.345   3.615
 4400SOL    HW114099   3.819   6.397   3.615
 4400SOL    HW214100   3.893   6.262   3.560
 4401SOL     OW14101   5.887   6.084   4.731
 4401SOL    HW114102   5.984   6.076   4.707
 4401SOL    HW214103   5.854   5.996   4.765
 4402SOL     OW14104   6.556   6.834   2.918
 4402SOL    HW114105   6.609   6.888   2.853
 4402SOL    HW214106   6.553   6.882   3.006
 4403SOL     OW14107   0.036   0.591   2.952
 4403SOL    HW114108   0.130   0.557   2.952
 4403SOL    HW214109   0.037   0.691   2.940
 4404SOL     OW14110   2.117   4.562   3.078
 4404SOL    HW114111   2.047   4.553   3.149
 4404SOL    HW214112   2.111   4.652   3.036
 4405SOL     OW14113   2.941   3.746   6.107
 4405SOL    HW114114   2.929   3.840   6.075
 4405SOL    HW214115   2.866   3.723   6.170
 4406SOL     OW14116   5.764   3.342   1.852
 4406SOL    HW114117   5.700   3.266   1.841
 4406SOL    HW214118   5.716   3.421   1.891
 4407SOL     OW14119   6.849   0.623   0.051
 4407SOL    HW114120   6.806   0.653   0.136
 4407SOL    HW214121   6.914   0.693   0.021
 4408SOL     OW14122   4.248   6.279   0.646
 4408SOL    HW114123   4.185   6.202   0.642
 4408SOL    HW214124   4.306   6.271   0.727
 4409SOL     OW14125   2.461   1.763   3.219
 4409SOL    HW114126   2.535   1.829   3.207
 4409SOL    HW214127   2.373   1.811   3.222
 4410SOL     OW14128   1.996   5.730   1.585
 4410SOL    HW114129   2.078   5.706   1.532
 4410SOL    HW214130   1.958   5.648   1.627
 4411SOL     OW14131   3.904   3.480   2.563
 4411SOL    HW114132   3.952   3.438   2.640
 4411SOL    HW214133   3.911   3.420   2.483
 4412SOL     OW14134   3.680   1.901   6.124
 4412SOL    HW114135   3.662   1.879   6.220
 4412SOL    HW214136   3.625   1.980   6.098
 4413SOL     OW14137   4.774   5.191   3.682
 4413SOL    HW114138   4.838   5.119   3.656
 4413SOL    HW214139   4.795   5.224   3.774
 4414SOL     OW14140   3.208   5.501   1.722
 4414SOL    HW114141   3.127   5.559   1.733
 4414SOL    HW214142   3.238   5.503   1.626
 4415SOL     OW14143   4.276   1.605   1.131
 4415SOL    HW114144   4.205   1.575   1.067
 4415SOL    HW214145   4.238   1.672   1.194
 4416SOL     OW14146   2.752   1.968   4.954
 4416SOL    HW114147   2.759   2.055   5.001
 4416SOL    HW214148   2.841   1.945   4.913
 4417SOL     OW14149   6.595   0.449   1.232
 4417SOL    HW114150   6.498   0.454   1.210
 4417SOL    HW214151   6.649   0.471   1.150
 4418SOL     OW14152   4.875   1.148   3.962
 4418SOL    HW114153   4.841   1.159   4.056
 4418SOL    HW214154   4.921   1.060   3.954
 4419SOL     OW14155   0.004   5.597   6.975
 4419SOL    HW114156   0.034   5.690   6.993
 4419SOL    HW214157   6.935   5.598   6.944
 4420SOL     OW14158   4.515   0.874   6.760
 4420SOL    HW114159   4.429   0.914   6.729
 4420SOL    HW214160   4.589   0.939   6.746
 4421SOL     OW14161   0.861   1.685   3.288
 4421SOL    HW114162   0.909   1.634   3.358
 4421SOL    HW214163   0.918   1.692   3.206
 4422SOL     OW14164   1.720   4.309   5.882
 4422SOL    HW114165   1.811   4.274   5.902
 4422SOL    HW214166   1.689   4.367   5.957
 4423SOL     OW14167   0.042   1.634   6.243
 4423SOL    HW114168   7.002   1.696   6.285
 4423SOL    HW214169   0.134   1.661   6.271
 4424SOL     OW14170   0.486   6.389   3.588
 4424SOL    HW114171   0.457   6.397   3.684
 4424SOL    HW214172   0.487   6.480   3.546
 4425SOL     OW14173   5.154   4.138   0.341
 4425SOL    HW114174   5.142   4.041   0.362
 4425SOL    HW214175   5.252   4.158   0.331
 4426SOL     OW14176   0.392   0.620   5.970
 4426SOL    HW114177   0.363   0.589   6.061
 4426SOL    HW214178   0.427   0.542   5.918
 4427SOL     OW14179   0.722   6.078   3.824
 4427SOL    HW114180   0.776   5.999   3.796
 4427SOL    HW214181   0.781   6.144   3.871
 4428SOL     OW14182   2.169   6.571   3.330
 4428SOL    HW114183   2.081   6.526   3.344
 4428SOL    HW214184   2.174   6.652   3.389
 4429SOL     OW14185   3.845   0.012   2.911
 4429SOL    HW114186   3.774   6.971   2.932
 4429SOL    HW214187   3.812   0.074   2.840
 4430SOL     OW14188   1.016   0.455   1.597
 4430SOL    HW114189   1.065   0.515   1.535
 4430SOL    HW214190   1.079   0.418   1.665
 4431SOL     OW14191   2.289   1.889   3.653
 4431SOL    HW114192   2.365   1.931   3.603
 4431SOL    HW214193   2.204   1.904   3.602
 4432SOL     OW14194   3.087   3.054   3.744
 4432SOL    HW114195   3.131   3.045   3.655
 4432SOL    HW214196   3.037   2.970   3.764
 4433SOL     OW14197   6.143   0.558   3.441
 4433SOL    HW114198   6.138   0.466   3.403
 4433SOL    HW214199   6.185   0.620   3.374
 4434SOL     OW14200   4.973   2.136   4.975
 4434SOL    HW114201   4.927   2.189   5.046
 4434SOL    HW214202   4.990   2.043   5.007
 4435SOL     OW14203   4.108   3.370   2.142
 4435SOL    HW114204   4.152   3.357   2.053
 4435SOL    HW214205   4.039   3.442   2.136
 4436SOL     OW14206   5.126   0.718   0.619
 4436SOL    HW114207   5.113   0.668   0.705
 4436SOL    HW214208   5.139   0.652   0.544
 4437SOL     OW14209   3.308   0.285   5.201
 4437SOL    HW114210   3.370   0.306   5.126
 4437SOL    HW214211   3.213   0.288   5.168
 4438SOL     OW14212   3.772   3.515   6.756
 4438SOL    HW114213   3.682   3.550   6.729
 4438SOL    HW214214   3.840   3.543   6.688
 4439SOL     OW14215   2.280   4.843   2.508
 4439SOL    HW114216   2.289   4.900   2.426
 4439SOL    HW214217   2.371   4.817   2.540
 4440SOL     OW14218   6.451   1.123   0.353
 4440SOL    HW114219   6.459   1.092   0.448
 4440SOL    HW214220   6.527   1.085   0.299
 4441SOL     OW14221   6.265   1.434   3.368
 4441SOL    HW114222   6.264   1.532   3.352
 4441SOL    HW214223   6.310   1.415   3.456
 4442SOL     OW14224   1.859   6.031   1.972
 4442SOL    HW114225   1.841   5.933   1.988
 4442SOL    HW214226   1.823   6.084   2.048
 4443SOL     OW14227   2.852   1.332   6.364
 4443SOL    HW114228   2.830   1.400   6.294
 4443SOL    HW214229   2.944   1.350   6.400
 4444SOL     OW14230   4.847   1.343   2.888
 4444SOL    HW114231   4.805   1.423   2.845
 4444SOL    HW214232   4.809   1.332   2.980
 4445SOL     OW14233   1.140   0.902   6.467
 4445SOL    HW114234   1.128   1.000   6.452
 4445SOL    HW214235   1.194   0.864   6.392
 4446SOL     OW14236   5.221   4.729   3.826
 4446SOL    HW114237   5.123   4.740   3.845
 4446SOL    HW214238   5.266   4.689   3.906
 4447SOL     OW14239   5.267   2.840   4.754
 4447SOL    HW114240   5.286   2.817   4.850
 4447SOL    HW214241   5.234   2.934   4.749
 4448SOL     OW14242   1.996   2.961   6.632
 4448SOL    HW114243   1.906   2.933   6.597
 4448SOL    HW214244   2.060   2.885   6.621
 4449SOL     OW14245   0.292   1.630   5.092
 4449SOL    HW114246   0.332   1.679   5.014
 4449SOL    HW214247   0.282   1.692   5.169
 4450SOL     OW14248   2.967   3.788   2.561
 4450SOL    HW114249   3.007   3.863   2.509
 4450SOL    HW214250   2.935   3.822   2.650
 4451SOL     OW14251   0.190   4.109   1.165
 4451SOL    HW114252   0.198   4.027   1.222
 4451SOL    HW214253   0.196   4.191   1.223
 4452SOL     OW14254   6.522   3.945   6.374
 4452SOL    HW114255   6.568   3.971   6.289
 4452SOL    HW214256   6.511   3.846   6.377
 4453SOL     OW14257   5.079   1.574   1.001
 4453SOL    HW114258   5.077   1.673   1.013
 4453SOL    HW214259   5.138   1.550   0.923
 4454SOL     OW14260   5.049   2.921   1.227
 4454SOL    HW114261   5.037   2.917   1.128
 4454SOL    HW214262   4.963   2.900   1.273
 4455SOL     OW14263   4.189   2.004   1.953
 4455SOL    HW114264   4.104   2.054   1.967
 4455SOL    HW214265   4.247   2.011   2.034
 4456SOL     OW14266   0.871   5.648   2.548
 4456SOL    HW114267   0.856   5.626   2.644
 4456SOL    HW214268   0.926   5.576   2.506
 4457SOL     OW14269   4.681   1.820   6.737
 4457SOL    HW114270   4.778   1.813   6.759
 4457SOL    HW214271   4.641   1.728   6.736
 4458SOL     OW14272   4.027   1.692   0.370
 4458SOL    HW114273   3.978   1.605   0.357
 4458SOL    HW214274   4.077   1.689   0.457
 4459SOL     OW14275   5.119   6.687   5.386
 4459SOL    HW114276   5.149   6.776   5.420
 4459SOL    HW214277   5.025   6.694   5.353
 4460SOL     OW14278   1.249   1.340   6.619
 4460SOL    HW114279   1.219   1.278   6.546
 4460SOL    HW214280   1.220   1.433   6.598
 4461SOL     OW14281   1.789   6.916   2.401
 4461SOL    HW114282   1.763   7.007   2.368
 4461SOL    HW214283   1.888   6.910   2.410
 4462SOL     OW14284   0.052   4.843   0.740
 4462SOL    HW114285   7.005   4.780   0.768
 4462SOL    HW214286   0.123   4.792   0.692
 4463SOL     OW14287   1.540   3.986   6.006
 4463SOL    HW114288   1.525   3.924   6.083
 4463SOL    HW214289   1.477   3.963   5.932
 4464SOL     OW14290   5.838   2.866   0.161
 4464SOL    HW114291   5.875   2.956   0.185
 4464SOL    HW214292   5.798   2.824   0.242
 4465SOL     OW14293   0.967   6.332   1.064
 4465SOL    HW114294   1.004   6.424   1.055
 4465SOL    HW214295   0.999   6.291   1.149
 4466SOL     OW14296   0.026   3.085   3.050
 4466SOL    HW114297   0.125   3.090   3.058
 4466SOL    HW214298   7.020   3.150   2.981
 4467SOL     OW14299   1.432   0.419   3.288
 4467SOL    HW114300   1.424   0.387   3.382
 4467SOL    HW214301   1.529   0.436   3.267
 4468SOL     OW14302   2.124   2.219   0.579
 4468SOL    HW114303   2.082   2.152   0.639
 4468SOL    HW214304   2.176   2.285   0.633
 4469SOL     OW14305   4.692   0.101   0.334
 4469SOL    HW114306   4.714   0.187   0.288
 4469SOL    HW214307   4.774   0.067   0.381
 4470SOL     OW14308   4.355   5.146   1.615
 4470SOL    HW114309   4.377   5.104   1.703
 4470SOL    HW214310   4.278   5.098   1.574
 4471SOL     OW14311   6.438   2.717   0.518
 4471SOL    HW114312   6.500   2.746   0.591
 4471SOL    HW214313   6.477   2.639   0.470
 4472SOL     OW14314   2.414   4.707   1.780
 4472SOL    HW114315   2.471   4.667   1.852
 4472SOL    HW214316   2.439   4.803   1.766
 4473SOL     OW14317   0.628   0.695   6.541
 4473SOL    HW114318   0.694   0.767   6.521
 4473SOL    HW214319   0.570   0.724   6.618
 4474SOL     OW14320   6.132   0.383   4.658
 4474SOL    HW114321   6.064   0.311   4.653
 4474SOL    HW214322   6.102   0.453   4.724
 4475SOL     OW14323   1.998   3.721   0.507
 4475SOL    HW114324   2.044   3.726   0.595
 4475SOL    HW214325   1.924   3.653   0.511
 4476SOL     OW14326   5.062   6.617   2.249
 4476SOL    HW114327   5.126   6.688   2.278
 4476SOL    HW214328   4.971   6.639   2.282
 4477SOL     OW14329   0.728   1.244   0.651
 4477SOL    HW114330   0.693   1.334   0.678
 4477SOL    HW214331   0.698   1.223   0.558
 4478SOL     OW14332   1.751   5.019   2.031
 4478SOL    HW114333   1.827   5.023   1.967
 4478SOL    HW214334   1.683   5.089   2.008
 4479SOL     OW14335   0.699   0.413   6.019
 4479SOL    HW114336   0.638   0.402   5.940
 4479SOL    HW214337   0.763   0.487   6.001
 4480SOL     OW14338   0.230   4.391   3.758
 4480SOL    HW114339   0.274   4.437   3.835
 4480SOL    HW214340   0.131   4.393   3.770
 4481SOL     OW14341   0.849   0.709   3.985
 4481SOL    HW114342   0.883   0.644   3.918
 4481SOL    HW214343   0.778   0.666   4.041
 4482SOL     OW14344   1.080   4.251   3.760
 4482SOL    HW114345   1.007   4.286   3.819
 4482SOL    HW214346   1.149   4.205   3.817
 4483SOL     OW14347   5.483   3.034   1.009
 4483SOL    HW114348   5.557   3.011   1.072
 4483SOL    HW214349   5.416   2.959   1.007
 4484SOL     OW14350   3.667   3.208   6.743
 4484SOL    HW114351   3.761   3.229   6.768
 4484SOL    HW214352   3.611   3.291   6.751
 4485SOL     OW14353   4.616   0.645   6.551
 4485SOL    HW114354   4.586   0.720   6.610
 4485SOL    HW214355   4.551   0.634   6.475
 4486SOL     OW14356   5.974   2.852   3.904
 4486SOL    HW114357   6.038   2.849   3.981
 4486SOL    HW214358   5.882   2.868   3.938
 4487SOL     OW14359   2.859   3.044   5.614
 4487SOL    HW114360   2.957   3.064   5.615
 4487SOL    HW214361   2.845   2.951   5.579
 4488SOL     OW14362   0.312   1.688   6.310
 4488SOL    HW114363   0.342   1.702   6.405
 4488SOL    HW214364   0.382   1.722   6.248
 4489SOL     OW14365   6.793   1.176   2.914
 4489SOL    HW114366   6.713   1.139   2.960
 4489SOL    HW214367   6.876   1.147   2.962
 4490SOL     OW14368   6.828   2.449   3.849
 4490SOL    HW114369   6.885   2.525   3.881
 4490SOL    HW214370   6.859   2.418   3.759
 4491SOL     OW14371   1.398   3.626   3.128
 4491SOL    HW114372   1.367   3.661   3.216
 4491SOL    HW214373   1.320   3.620   3.066
 4492SOL     OW14374   4.865   4.915   6.113
 4492SOL    HW114375   4.880   4.909   6.015
 4492SOL    HW214376   4.883   5.009   6.144
 4493SOL     OW14377   5.908   4.841   3.415
 4493SOL    HW114378   5.862   4.792   3.489
 4493SOL    HW214379   5.986   4.788   3.384
 4494SOL     OW14380   5.909   2.388   3.196
 4494SOL    HW114381   5.872   2.479   3.217
 4494SOL    HW214382   5.967   2.357   3.271
 4495SOL     OW14383   4.195   6.320   1.906
 4495SOL    HW114384   4.225   6.251   1.972
 4495SOL    HW214385   4.169   6.404   1.954
 4496SOL     OW14386   5.489   4.468   5.931
 4496SOL    HW114387   5.486   4.548   5.991
 4496SOL    HW214388   5.525   4.495   5.842
 4497SOL     OW14389   6.404   5.167   0.949
 4497SOL    HW114390   6.403   5.194   1.045
 4497SOL    HW214391   6.325   5.206   0.902
 4498SOL     OW14392   0.673   4.215   6.575
 4498SOL    HW114393   0.603   4.267   6.624
 4498SOL    HW214394   0.713   4.147   6.637
 4499SOL     OW14395   5.371   3.470   6.285
 4499SOL    HW114396   5.288   3.482   6.230
 4499SOL    HW214397   5.448   3.514   6.238
 4500SOL     OW14398   3.066   3.612   3.376
 4500SOL    HW114399   3.024   3.699   3.401
 4500SOL    HW214400   3.166   3.621   3.382
 4501SOL     OW14401   1.589   4.955   4.619
 4501SOL    HW114402   1.675   4.915   4.652
 4501SOL    HW214403   1.514   4.927   4.678
 4502SOL     OW14404   6.478   2.789   6.831
 4502SOL    HW114405   6.556   2.746   6.785
 4502SOL    HW214406   6.393   2.753   6.794
 4503SOL     OW14407   1.828   3.061   2.601
 4503SOL    HW114408   1.911   3.116   2.609
 4503SOL    HW214409   1.751   3.112   2.641
 4504SOL     OW14410   4.490   2.509   4.276
 4504SOL    HW114411   4.452   2.469   4.193
 4504SOL    HW214412   4.455   2.461   4.356
 4505SOL     OW14413   2.051   4.825   6.750
 4505SOL    HW114414   2.046   4.917   6.714
 4505SOL    HW214415   1.971   4.773   6.722
 4506SOL     OW14416   4.324   6.611   4.660
 4506SOL    HW114417   4.232   6.575   4.648
 4506SOL    HW214418   4.391   6.546   4.623
 4507SOL     OW14419   6.400   3.640   1.718
 4507SOL    HW114420   6.410   3.692   1.633
 4507SOL    HW214421   6.306   3.607   1.726
 4508SOL     OW14422   1.723   4.178   6.475
 4508SOL    HW114423   1.683   4.159   6.565
 4508SOL    HW214424   1.823   4.179   6.482
 4509SOL     OW14425   0.368   1.890   3.331
 4509SOL    HW114426   0.403   1.919   3.419
 4509SOL    HW214427   0.444   1.875   3.268
 4510SOL     OW14428   3.759   6.246   5.259
 4510SOL    HW114429   3.765   6.255   5.358
 4510SOL    HW214430   3.746   6.149   5.235
 4511SOL     OW14431   6.478   2.418   6.079
 4511SOL    HW114432   6.544   2.439   6.151
 4511SOL    HW214433   6.426   2.501   6.057
 4512SOL     OW14434   2.703   4.758   6.931
 4512SOL    HW114435   2.708   4.771   6.832
 4512SOL    HW214436   2.785   4.708   6.961
 4513SOL     OW14437   5.789   1.179   2.141
 4513SOL    HW114438   5.705   1.158   2.090
 4513SOL    HW214439   5.831   1.094   2.172
 4514SOL     OW14440   3.525   0.760   5.491
 4514SOL    HW114441   3.494   0.793   5.580
 4514SOL    HW214442   3.497   0.664   5.479
 4515SOL     OW14443   6.640   4.776   1.059
 4515SOL    HW114444   6.632   4.842   1.134
 4515SOL    HW214445   6.678   4.690   1.095
 4516SOL     OW14446   0.677   0.141   4.252
 4516SOL    HW114447   0.586   0.157   4.292
 4516SOL    HW214448   0.729   0.226   4.252
 4517SOL     OW14449   3.635   6.999   6.283
 4517SOL    HW114450   3.570   6.934   6.244
 4517SOL    HW214451   3.728   6.976   6.253
 4518SOL     OW14452   1.444   0.714   3.716
 4518SOL    HW114453   1.520   0.649   3.723
 4518SOL    HW214454   1.387   0.707   3.798
 4519SOL     OW14455   6.108   2.737   4.861
 4519SOL    HW114456   6.071   2.723   4.952
 4519SOL    HW214457   6.104   2.834   4.838
 4520SOL     OW14458   0.317   3.901   2.445
 4520SOL    HW114459   0.286   3.825   2.388
 4520SOL    HW214460   0.415   3.916   2.430
 4521SOL     OW14461   4.834   1.764   6.314
 4521SOL    HW114462   4.768   1.828   6.355
 4521SOL    HW214463   4.785   1.691   6.267
 4522SOL     OW14464   5.622   0.529   2.816
 4522SOL    HW114465   5.528   0.507   2.789
 4522SOL    HW214466   5.676   0.444   2.819
 4523SOL     OW14467   4.611   3.311   6.311
 4523SOL    HW114468   4.684   3.371   6.344
 4523SOL    HW214469   4.557   3.279   6.389
 4524SOL     OW14470   6.497   0.263   5.228
 4524SOL    HW114471   6.556   0.184   5.214
 4524SOL    HW214472   6.553   0.346   5.233
 4525SOL     OW14473   6.330   2.246   5.498
 4525SOL    HW114474   6.422   2.261   5.535
 4525SOL    HW214475   6.336   2.227   5.400
 4526SOL     OW14476   3.629   1.021   0.776
 4526SOL    HW114477   3.609   1.109   0.818
 4526SOL    HW214478   3.716   0.986   0.811
 4527SOL     OW14479   3.939   0.037   3.932
 4527SOL    HW114480   3.851   0.085   3.931
 4527SOL    HW214481   4.002   0.085   3.994
 4528SOL     OW14482   5.096   6.840   5.673
 4528SOL    HW114483   5.011   6.791   5.690
 4528SOL    HW214484   5.081   6.912   5.605
 4529SOL     OW14485   3.736   0.326   3.724
 4529SOL    HW114486   3.648   0.372   3.729
 4529SOL    HW214487   3.795   0.359   3.798
 4530SOL     OW14488   0.430   2.875   4.493
 4530SOL    HW114489   0.371   2.948   4.527
 4530SOL    HW214490   0.441   2.805   4.564
 4531SOL     OW14491   0.271   4.006   3.885
 4531SOL    HW114492   0.348   4.068   3.893
 4531SOL    HW214493   0.287   3.941   3.810
 4532SOL     OW14494   6.442   1.746   0.854
 4532SOL    HW114495   6.419   1.842   0.871
 4532SOL    HW214496   6.383   1.710   0.782
 4533SOL     OW14497   3.585   6.137   2.197
 4533SOL    HW114498   3.546   6.102   2.112
 4533SOL    HW214499   3.564   6.234   2.207
 4534SOL     OW14500   0.075   3.985   5.434
 4534SOL    HW114501   0.003   3.975   5.503
 4534SOL    HW214502   0.164   3.967   5.475
 4535SOL     OW14503   5.059   2.222   2.888
 4535SOL    HW114504   5.098   2.309   2.859
 4535SOL    HW214505   4.980   2.239   2.947
 4536SOL     OW14506   0.139   0.876   3.968
 4536SOL    HW114507   0.144   0.936   4.048
 4536SOL    HW214508   0.174   0.785   3.993
 4537SOL     OW14509   4.108   3.156   6.358
 4537SOL    HW114510   4.191   3.177   6.306
 4537SOL    HW214511   4.033   3.137   6.294
 4538SOL     OW14512   3.386   1.508   1.883
 4538SOL    HW114513   3.477   1.549   1.887
 4538SOL    HW214514   3.386   1.433   1.817
 4539SOL     OW14515   2.319   2.129   2.555
 4539SOL    HW114516   2.240   2.075   2.586
 4539SOL    HW214517   2.333   2.206   2.617
 4540SOL     OW14518   3.404   2.855   5.039
 4540SOL    HW114519   3.397   2.847   4.940
 4540SOL    HW214520   3.317   2.888   5.076
 4541SOL     OW14521   6.244   1.378   1.695
 4541SOL    HW114522   6.336   1.341   1.712
 4541SOL    HW214523   6.178   1.303   1.697
 4542SOL     OW14524   5.144   0.087   3.571
 4542SOL    HW114525   5.054   0.052   3.597
 4542SOL    HW214526   5.134   0.178   3.531
 4543SOL     OW14527   5.814   2.358   1.683
 4543SOL    HW114528   5.909   2.368   1.710
 4543SOL    HW214529   5.754   2.387   1.757
 4544SOL     OW14530   3.996   4.704   6.937
 4544SOL    HW114531   3.977   4.606   6.946
 4544SOL    HW214532   3.947   4.740   6.857
 4545SOL     OW14533   4.358   3.750   6.047
 4545SOL    HW114534   4.391   3.669   6.000
 4545SOL    HW214535   4.345   3.730   6.145
 4546SOL     OW14536   0.365   6.464   6.977
 4546SOL    HW114537   0.270   6.491   6.992
 4546SOL    HW214538   0.407   6.440   0.038
 4547SOL     OW14539   4.329   1.759   1.569
 4547SOL    HW114540   4.260   1.826   1.598
 4547SOL    HW214541   4.288   1.667   1.570
 4548SOL     OW14542   1.735   3.513   3.876
 4548SOL    HW114543   1.699   3.541   3.787
 4548SOL    HW214544   1.659   3.504   3.941
 4549SOL     OW14545   4.331   1.777   2.264
 4549SOL    HW114546   4.312   1.683   2.237
 4549SOL    HW214547   4.421   1.804   2.230
 4550SOL     OW14548   1.543   6.217   4.601
 4550SOL    HW114549   1.545   6.245   4.697
 4550SOL    HW214550   1.572   6.122   4.593
 4551SOL     OW14551   0.283   2.813   6.766
 4551SOL    HW114552   0.370   2.856   6.743
 4551SOL    HW214553   0.223   2.879   6.811
 4552SOL     OW14554   6.396   2.953   3.890
 4552SOL    HW114555   6.439   3.016   3.955
 4552SOL    HW214556   6.455   2.874   3.876
 4553SOL     OW14557   5.129   4.919   0.068
 4553SOL    HW114558   5.220   4.957   0.084
 4553SOL    HW214559   5.136   4.821   0.051
 4554SOL     OW14560   5.790   0.166   3.292
 4554SOL    HW114561   5.877   0.170   3.243
 4554SOL    HW214562   5.721   0.218   3.242
 4555SOL     OW14563   4.487   2.033   6.664
 4555SOL    HW114564   4.477   2.084   6.749
 4555SOL    HW214565   4.562   1.968   6.672
 4556SOL     OW14566   5.005   1.102   4.904
 4556SOL    HW114567   5.075   1.137   4.966
 4556SOL    HW214568   4.981   1.008   4.930
 4557SOL     OW14569   5.089   0.259   5.091
 4557SOL    HW114570   5.171   0.259   5.148
 4557SOL    HW214571   5.079   0.349   5.048
 4558SOL     OW14572   5.911   3.413   5.913
 4558SOL    HW114573   5.899   3.341   5.981
 4558SOL    HW214574   6.004   3.450   5.918
 4559SOL     OW14575   0.398   6.383   1.742
 4559SOL    HW114576   0.308   6.428   1.747
 4559SOL    HW214577   0.450   6.423   1.667
 4560SOL     OW14578   5.223   2.783   2.866
 4560SOL    HW114579   5.175   2.837   2.934
 4560SOL    HW214580   5.213   2.685   2.886
 4561SOL     OW14581   2.861   0.686   6.741
 4561SOL    HW114582   2.903   0.754   6.681
 4561SOL    HW214583   2.931   0.623   6.774
 4562SOL     OW14584   2.984   4.962   5.618
 4562SOL    HW114585   2.967   4.870   5.654
 4562SOL    HW214586   2.898   5.007   5.597
 4563SOL     OW14587   5.789   2.379   6.428
 4563SOL    HW114588   5.887   2.387   6.447
 4563SOL    HW214589   5.767   2.284   6.406
 4564SOL     OW14590   0.850   5.524   0.080
 4564SOL    HW114591   0.784   5.574   0.136
 4564SOL    HW214592   0.822   5.529   7.010
 4565SOL     OW14593   2.934   0.701   3.937
 4565SOL    HW114594   2.917   0.758   3.856
 4565SOL    HW214595   2.938   0.759   4.018
 4566SOL     OW14596   1.035   1.485   0.420
 4566SOL    HW114597   1.132   1.468   0.437
 4566SOL    HW214598   0.987   1.493   0.506
 4567SOL     OW14599   6.305   1.496   1.013
 4567SOL    HW114600   6.386   1.497   0.954
 4567SOL    HW214601   6.305   1.577   1.071
 4568SOL     OW14602   3.517   5.084   4.272
 4568SOL    HW114603   3.595   5.021   4.268
 4568SOL    HW214604   3.439   5.039   4.314
 4569SOL     OW14605   0.279   2.406   3.238
 4569SOL    HW114606   0.246   2.353   3.316
 4569SOL    HW214607   0.343   2.476   3.269
 4570SOL     OW14608   6.297   5.291   3.957
 4570SOL    HW114609   6.240   5.211   3.973
 4570SOL    HW214610   6.320   5.333   4.045
 4571SOL     OW14611   3.619   3.130   4.161
 4571SOL    HW114612   3.709   3.149   4.200
 4571SOL    HW214613   3.564   3.213   4.160
 4572SOL     OW14614   2.367   5.545   2.206
 4572SOL    HW114615   2.379   5.643   2.224
 4572SOL    HW214616   2.371   5.529   2.107
 4573SOL     OW14617   4.829   6.887   0.440
 4573SOL    HW114618   4.869   6.799   0.465
 4573SOL    HW214619   4.816   6.943   0.522
 4574SOL     OW14620   0.293   4.564   1.425
 4574SOL    HW114621   0.348   4.582   1.507
 4574SOL    HW214622   0.198   4.588   1.444
 4575SOL     OW14623   6.853   6.283   2.168
 4575SOL    HW114624   6.818   6.246   2.254
 4575SOL    HW214625   6.923   6.351   2.188
 4576SOL     OW14626   3.113   6.321   4.085
 4576SOL    HW114627   3.100   6.243   4.023
 4576SOL    HW214628   3.157   6.396   4.036
 4577SOL     OW14629   1.621   2.081   3.798
 4577SOL    HW114630   1.617   2.171   3.755
 4577SOL    HW214631   1.715   2.048   3.797
 4578SOL     OW14632   6.963   5.224   3.870
 4578SOL    HW114633   6.875   5.224   3.918
 4578SOL    HW214634   7.004   5.315   3.877
 4579SOL     OW14635   5.146   1.979   4.534
 4579SOL    HW114636   5.094   2.035   4.599
 4579SOL    HW214637   5.125   2.008   4.441
 4580SOL     OW14638   0.197   5.779   0.355
 4580SOL    HW114639   0.182   5.878   0.353
 4580SOL    HW214640   0.250   5.755   0.436
 4581SOL     OW14641   3.197   6.232   3.685
 4581SOL    HW114642   3.256   6.157   3.715
 4581SOL    HW214643   3.133   6.199   3.616
 4582SOL     OW14644   4.879   0.007   3.616
 4582SOL    HW114645   4.826   0.077   3.663
 4582SOL    HW214646   4.824   6.950   3.609
 4583SOL     OW14647   3.968   1.196   5.469
 4583SOL    HW114648   3.871   1.197   5.494
 4583SOL    HW214649   4.013   1.277   5.506
 4584SOL     OW14650   1.612   5.137   5.827
 4584SOL    HW114651   1.586   5.151   5.731
 4584SOL    HW214652   1.619   5.226   5.873
 4585SOL     OW14653   3.029   6.499   2.800
 4585SOL    HW114654   3.000   6.407   2.827
 4585SOL    HW214655   3.128   6.501   2.791
 4586SOL     OW14656   2.712   6.710   2.154
 4586SOL    HW114657   2.660   6.642   2.206
 4586SOL    HW214658   2.780   6.752   2.214
 4587SOL     OW14659   3.133   5.377   0.960
 4587SOL    HW114660   3.099   5.309   1.024
 4587SOL    HW214661   3.164   5.458   1.009
 4588SOL     OW14662   3.893   3.839   5.540
 4588SOL    HW114663   3.988   3.832   5.571
 4588SOL    HW214664   3.852   3.922   5.577
 4589SOL     OW14665   1.293   2.030   3.171
 4589SOL    HW114666   1.329   2.119   3.145
 4589SOL    HW214667   1.204   2.016   3.127
 4590SOL     OW14668   4.322   6.051   3.043
 4590SOL    HW114669   4.383   6.093   2.976
 4590SOL    HW214670   4.260   5.987   2.997
 4591SOL     OW14671   6.091   6.740   5.450
 4591SOL    HW114672   6.088   6.718   5.352
 4591SOL    HW214673   6.030   6.680   5.500
 4592SOL     OW14674   3.336   1.390   5.835
 4592SOL    HW114675   3.248   1.425   5.869
 4592SOL    HW214676   3.411   1.434   5.885
 4593SOL     OW14677   4.224   6.350   1.647
 4593SOL    HW114678   4.217   6.341   1.747
 4593SOL    HW214679   4.293   6.288   1.613
 4594SOL     OW14680   3.190   2.102   2.757
 4594SOL    HW114681   3.200   2.006   2.732
 4594SOL    HW214682   3.169   2.156   2.675
 4595SOL     OW14683   5.151   3.270   6.009
 4595SOL    HW114684   5.219   3.227   6.069
 4595SOL    HW214685   5.071   3.297   6.063
 4596SOL     OW14686   5.770   6.611   2.312
 4596SOL    HW114687   5.849   6.612   2.373
 4596SOL    HW214688   5.760   6.701   2.269
 4597SOL     OW14689   6.363   4.911   5.913
 4597SOL    HW114690   6.389   4.846   5.841
 4597SOL    HW214691   6.328   4.861   5.992
 4598SOL     OW14692   3.211   4.299   0.832
 4598SOL    HW114693   3.298   4.345   0.851
 4598SOL    HW214694   3.172   4.264   0.918
 4599SOL     OW14695   2.340   5.173   0.734
 4599SOL    HW114696   2.438   5.156   0.734
 4599SOL    HW214697   2.309   5.190   0.641
 4600SOL     OW14698   3.659   5.025   1.538
 4600SOL    HW114699   3.619   5.110   1.571
 4600SOL    HW214700   3.620   4.947   1.588
 4601SOL     OW14701   1.584   5.930   4.529
 4601SOL    HW114702   1.610   5.874   4.450
 4601SOL    HW214703   1.485   5.925   4.543
 4602SOL     OW14704   1.605   0.919   1.373
 4602SOL    HW114705   1.695   0.876   1.359
 4602SOL    HW214706   1.538   0.876   1.313
 4603SOL     OW14707   3.239   1.547   1.518
 4603SOL    HW114708   3.224   1.629   1.575
 4603SOL    HW214709   3.298   1.483   1.567
 4604SOL     OW14710   1.515   0.695   2.288
 4604SOL    HW114711   1.453   0.676   2.365
 4604SOL    HW214712   1.468   0.675   2.202
 4605SOL     OW14713   4.903   6.799   6.009
 4605SOL    HW114714   5.002   6.789   6.013
 4605SOL    HW214715   4.875   6.810   5.913
 4606SOL     OW14716   6.663   6.074   5.285
 4606SOL    HW114717   6.735   6.134   5.251
 4606SOL    HW214718   6.696   6.025   5.366
 4607SOL     OW14719   2.960   2.325   1.223
 4607SOL    HW114720   2.988   2.388   1.151
 4607SOL    HW214721   3.028   2.325   1.296
 4608SOL     OW14722   1.763   3.447   5.081
 4608SOL    HW114723   1.749   3.395   4.996
 4608SOL    HW214724   1.813   3.390   5.146
 4609SOL     OW14725   3.224   0.005   0.079
 4609SOL    HW114726   3.294   6.962   0.093
 4609SOL    HW214727   3.184   7.020   7.014
 4610SOL     OW14728   6.980   3.159   6.781
 4610SOL    HW114729   7.010   3.225   6.713
 4610SOL    HW214730   6.931   3.206   6.854
 4611SOL     OW14731   0.627   3.613   6.446
 4611SOL    HW114732   0.716   3.597   6.487
 4611SOL    HW214733   0.623   3.706   6.410
 4612SOL     OW14734   2.651   0.415   6.549
 4612SOL    HW114735   2.618   0.497   6.596
 4612SOL    HW214736   2.583   0.387   6.481
 4613SOL     OW14737   3.409   5.395   1.890
 4613SOL    HW114738   3.346   5.431   1.821
 4613SOL    HW214739   3.357   5.372   1.973
 4614SOL     OW14740   2.423   4.922   0.303
 4614SOL    HW114741   2.374   4.845   0.345
 4614SOL    HW214742   2.505   4.888   0.257
 4615SOL     OW14743   6.922   3.323   0.289
 4615SOL    HW114744   6.824   3.345   0.294
 4615SOL    HW214745   6.943   3.252   0.356
 4616SOL     OW14746   6.234   0.375   0.483
 4616SOL    HW114747   6.304   0.311   0.453
 4616SOL    HW214748   6.263   0.420   0.568
 4617SOL     OW14749   0.134   3.968   2.133
 4617SOL    HW114750   0.061   3.932   2.192
 4617SOL    HW214751   0.113   4.062   2.108
 4618SOL     OW14752   0.778   2.268   6.336
 4618SOL    HW114753   0.721   2.208   6.280
 4618SOL    HW214754   0.832   2.213   6.399
 4619SOL     OW14755   2.961   0.230   3.734
 4619SOL    HW114756   2.969   0.204   3.831
 4619SOL    HW214757   3.019   0.171   3.679
 4620SOL     OW14758   2.608   4.995   6.617
 4620SOL    HW114759   2.533   4.982   6.553
 4620SOL    HW214760   2.655   5.080   6.597
 4621SOL     OW14761   0.077   6.744   6.476
 4621SOL    HW114762   0.065   6.668   6.540
 4621SOL    HW214763   7.019   6.758   6.425
 4622SOL     OW14764   2.565   3.259   1.109
 4622SOL    HW114765   2.480   3.293   1.149
 4622SOL    HW214766   2.554   3.163   1.084
 4623SOL     OW14767   5.693   4.791   2.335
 4623SOL    HW114768   5.659   4.714   2.282
 4623SOL    HW214769   5.789   4.808   2.312
 4624SOL     OW14770   4.937   0.307   5.468
 4624SOL    HW114771   4.922   0.383   5.531
 4624SOL    HW214772   4.963   0.343   5.378
 4625SOL     OW14773   1.808   3.676   6.221
 4625SOL    HW114774   1.894   3.718   6.248
 4625SOL    HW214775   1.759   3.644   6.303
 4626SOL     OW14776   5.786   5.607   2.266
 4626SOL    HW114777   5.771   5.509   2.283
 4626SOL    HW214778   5.873   5.634   2.307
 4627SOL     OW14779   1.896   7.005   5.812
 4627SOL    HW114780   1.966   0.021   5.754
 4627SOL    HW214781   1.883   0.034   5.894
 4628SOL     OW14782   0.052   3.481   1.835
 4628SOL    HW114783   0.148   3.511   1.830
 4628SOL    HW214784   0.023   3.450   1.745
 4629SOL     OW14785   3.779   4.922   4.062
 4629SOL    HW114786   3.728   5.001   4.028
 4629SOL    HW214787   3.862   4.909   4.008
 4630SOL     OW14788   1.932   6.718   2.755
 4630SOL    HW114789   1.887   6.634   2.783
 4630SOL    HW214790   1.984   6.702   2.671
 4631SOL     OW14791   1.352   1.009   2.715
 4631SOL    HW114792   1.307   0.921   2.697
 4631SOL    HW214793   1.364   1.057   2.628
 4632SOL     OW14794   5.887   5.506   4.068
 4632SOL    HW114795   5.930   5.578   4.123
 4632SOL    HW214796   5.946   5.484   3.990
 4633SOL     OW14797   5.642   2.491   5.656
 4633SOL    HW114798   5.555   2.539   5.644
 4633SOL    HW214799   5.661   2.480   5.754
 4634SOL     OW14800   3.896   4.993   0.783
 4634SOL    HW114801   3.931   4.918   0.728
 4634SOL    HW214802   3.815   4.963   0.833
 4635SOL     OW14803   5.132   3.924   1.093
 4635SOL    HW114804   5.060   3.855   1.090
 4635SOL    HW214805   5.097   4.011   1.060
 4636SOL     OW14806   1.149   5.440   1.269
 4636SOL    HW114807   1.085   5.517   1.260
 4636SOL    HW214808   1.144   5.383   1.187
 4637SOL     OW14809   1.563   0.641   4.608
 4637SOL    HW114810   1.614   0.704   4.666
 4637SOL    HW214811   1.485   0.604   4.659
 4638SOL     OW14812   4.475   4.079   6.314
 4638SOL    HW114813   4.511   4.025   6.238
 4638SOL    HW214814   4.441   4.166   6.279
 4639SOL     OW14815   0.263   2.717   5.148
 4639SOL    HW114816   0.222   2.627   5.167
 4639SOL    HW214817   0.355   2.705   5.111
 4640SOL     OW14818   6.308   4.595   2.501
 4640SOL    HW114819   6.225   4.636   2.462
 4640SOL    HW214820   6.346   4.655   2.570
 4641SOL     OW14821   2.736   4.192   5.929
 4641SOL    HW114822   2.744   4.265   5.861
 4641SOL    HW214823   2.741   4.103   5.883
 4642SOL     OW14824   6.571   6.275   3.893
 4642SOL    HW114825   6.502   6.267   3.821
 4642SOL    HW214826   6.526   6.281   3.982
 4643SOL     OW14827   4.245   2.818   0.916
 4643SOL    HW114828   4.166   2.866   0.953
 4643SOL    HW214829   4.302   2.883   0.864
 4644SOL     OW14830   2.627   4.984   5.402
 4644SOL    HW114831   2.672   4.895   5.399
 4644SOL    HW214832   2.674   5.042   5.469
 4645SOL     OW14833   1.799   6.487   4.521
 4645SOL    HW114834   1.769   6.405   4.471
 4645SOL    HW214835   1.824   6.461   4.614
 4646SOL     OW14836   3.883   0.811   1.847
 4646SOL    HW114837   3.971   0.815   1.894
 4646SOL    HW214838   3.898   0.799   1.748
 4647SOL     OW14839   6.966   0.892   4.993
 4647SOL    HW114840   6.894   0.843   4.943
 4647SOL    HW214841   6.927   0.934   5.075
 4648SOL     OW14842   1.685   4.530   2.417
 4648SOL    HW114843   1.663   4.480   2.334
 4648SOL    HW214844   1.782   4.558   2.414
 4649SOL     OW14845   5.477   6.544   6.146
 4649SOL    HW114846   5.455   6.447   6.143
 4649SOL    HW214847   5.417   6.590   6.213
 4650SOL     OW14848   0.189   4.587   1.733
 4650SOL    HW114849   0.257   4.548   1.795
 4650SOL    HW214850   0.097   4.573   1.771
 4651SOL     OW14851   6.341   1.761   2.410
 4651SOL    HW114852   6.349   1.742   2.508
 4651SOL    HW214853   6.246   1.781   2.387
 4652SOL     OW14854   7.008   6.045   5.526
 4652SOL    HW114855   6.909   6.036   5.516
 4652SOL    HW214856   0.002   6.134   5.568
 4653SOL     OW14857   0.625   5.515   6.864
 4653SOL    HW114858   0.636   5.604   6.821
 4653SOL    HW214859   0.588   5.527   6.956
 4654SOL     OW14860   0.909   1.761   6.322
 4654SOL    HW114861   0.911   1.769   6.222
 4654SOL    HW214862   0.826   1.714   6.350
 4655SOL     OW14863   0.522   5.388   3.312
 4655SOL    HW114864   0.575   5.307   3.338
 4655SOL    HW214865   0.497   5.439   3.395
 4656SOL     OW14866   2.340   0.060   3.059
 4656SOL    HW114867   2.402   0.044   2.982
 4656SOL    HW214868   2.352   0.154   3.093
 4657SOL     OW14869   5.771   0.309   6.526
 4657SOL    HW114870   5.831   0.295   6.448
 4657SOL    HW214871   5.681   0.338   6.493
 4658SOL     OW14872   4.611   0.914   3.599
 4658SOL    HW114873   4.549   0.862   3.657
 4658SOL    HW214874   4.592   1.012   3.609
 4659SOL     OW14875   2.658   2.289   4.879
 4659SOL    HW114876   2.744   2.265   4.923
 4659SOL    HW214877   2.618   2.369   4.925
 4660SOL     OW14878   6.697   1.327   5.845
 4660SOL    HW114879   6.734   1.414   5.814
 4660SOL    HW214880   6.614   1.344   5.899
 4661SOL     OW14881   3.987   3.947   3.607
 4661SOL    HW114882   3.994   3.961   3.706
 4661SOL    HW214883   4.042   3.869   3.580
 4662SOL     OW14884   5.731   0.492   3.638
 4662SOL    HW114885   5.754   0.588   3.652
 4662SOL    HW214886   5.792   0.453   3.569
 4663SOL     OW14887   1.162   1.547   2.012
 4663SOL    HW114888   1.132   1.609   2.084
 4663SOL    HW214889   1.137   1.584   1.923
 4664SOL     OW14890   3.388   3.556   0.363
 4664SOL    HW114891   3.461   3.547   0.295
 4664SOL    HW214892   3.415   3.510   0.447
 4665SOL     OW14893   5.030   0.843   6.651
 4665SOL    HW114894   5.057   0.768   6.591
 4665SOL    HW214895   5.065   0.827   6.743
 4666SOL     OW14896   2.548   1.507   0.598
 4666SOL    HW114897   2.632   1.492   0.546
 4666SOL    HW214898   2.474   1.532   0.535
 4667SOL     OW14899   0.365   5.841   5.017
 4667SOL    HW114900   0.302   5.869   4.944
 4667SOL    HW214901   0.340   5.886   5.102
 4668SOL     OW14902   5.485   1.468   5.116
 4668SOL    HW114903   5.499   1.370   5.127
 4668SOL    HW214904   5.468   1.490   5.020
 4669SOL     OW14905   2.402   0.801   1.405
 4669SOL    HW114906   2.435   0.752   1.324
 4669SOL    HW214907   2.303   0.817   1.396
 4670SOL     OW14908   1.874   1.359   4.950
 4670SOL    HW114909   1.956   1.344   5.004
 4670SOL    HW214910   1.893   1.336   4.854
 4671SOL     OW14911   5.741   2.909   1.130
 4671SOL    HW114912   5.735   2.831   1.192
 4671SOL    HW214913   5.789   2.984   1.176
 4672SOL     OW14914   2.916   2.787   5.480
 4672SOL    HW114915   2.948   2.707   5.430
 4672SOL    HW214916   2.857   2.842   5.421
 4673SOL     OW14917   4.226   0.367   2.739
 4673SOL    HW114918   4.220   0.443   2.675
 4673SOL    HW214919   4.170   0.387   2.820
 4674SOL     OW14920   4.884   6.541   5.672
 4674SOL    HW114921   4.832   6.594   5.606
 4674SOL    HW214922   4.822   6.500   5.739
 4675SOL     OW14923   1.141   4.129   5.967
 4675SOL    HW114924   1.119   4.183   5.886
 4675SOL    HW214925   1.199   4.052   5.942
 4676SOL     OW14926   0.326   5.021   3.931
 4676SOL    HW114927   0.315   5.109   3.885
 4676SOL    HW214928   0.311   4.947   3.865
 4677SOL     OW14929   1.504   3.302   0.596
 4677SOL    HW114930   1.511   3.368   0.522
 4677SOL    HW214931   1.503   3.350   0.684
 4678SOL     OW14932   1.248   4.344   2.202
 4678SOL    HW114933   1.180   4.417   2.212
 4678SOL    HW214934   1.229   4.292   2.119
 4679SOL     OW14935   4.311   0.088   1.722
 4679SOL    HW114936   4.253   0.009   1.701
 4679SOL    HW214937   4.267   0.171   1.686
 4680SOL     OW14938   2.011   0.516   6.799
 4680SOL    HW114939   2.095   0.553   6.759
 4680SOL    HW214940   2.025   0.499   6.896
 4681SOL     OW14941   4.974   5.405   2.343
 4681SOL    HW114942   5.039   5.410   2.419
 4681SOL    HW214943   4.893   5.459   2.366
 4682SOL     OW14944   3.575   4.042   6.428
 4682SOL    HW114945   3.530   4.061   6.341
 4682SOL    HW214946   3.507   4.014   6.495
 4683SOL     OW14947   5.938   4.445   3.742
 4683SOL    HW114948   5.960   4.465   3.647
 4683SOL    HW214949   5.849   4.400   3.746
 4684SOL     OW14950   5.652   6.132   0.111
 4684SOL    HW114951   5.644   6.201   0.039
 4684SOL    HW214952   5.570   6.133   0.167
 4685SOL     OW14953   3.057   3.991   4.303
 4685SOL    HW114954   3.119   3.971   4.227
 4685SOL    HW214955   3.109   4.032   4.378
 4686SOL     OW14956   1.984   6.411   0.148
 4686SOL    HW114957   2.031   6.452   0.226
 4686SOL    HW214958   1.908   6.354   0.181
 4687SOL     OW14959   2.410   0.585   2.717
 4687SOL    HW114960   2.387   0.679   2.694
 4687SOL    HW214961   2.510   0.573   2.716
 4688SOL     OW14962   5.664   2.592   6.285
 4688SOL    HW114963   5.706   2.503   6.300
 4688SOL    HW214964   5.613   2.619   6.368
 4689SOL     OW14965   6.813   0.568   2.125
 4689SOL    HW114966   6.770   0.478   2.120
 4689SOL    HW214967   6.898   0.568   2.071
 4690SOL     OW14968   2.439   2.179   0.806
 4690SOL    HW114969   2.520   2.149   0.757
 4690SOL    HW214970   2.439   2.279   0.814
 4691SOL     OW14971   6.532   3.934   2.178
 4691SOL    HW114972   6.620   3.981   2.169
 4691SOL    HW214973   6.481   3.971   2.256
 4692SOL     OW14974   4.987   3.075   2.351
 4692SOL    HW114975   4.968   3.093   2.254
 4692SOL    HW214976   4.995   2.976   2.365
 4693SOL     OW14977   1.205   0.862   3.131
 4693SOL    HW114978   1.179   0.859   3.035
 4693SOL    HW214979   1.295   0.820   3.143
 4694SOL     OW14980   2.044   0.339   6.447
 4694SOL    HW114981   2.004   0.431   6.442
 4694SOL    HW214982   2.076   0.312   6.356
 4695SOL     OW14983   2.065   5.213   2.422
 4695SOL    HW114984   2.069   5.128   2.474
 4695SOL    HW214985   2.158   5.244   2.400
 4696SOL     OW14986   1.676   5.969   6.345
 4696SOL    HW114987   1.666   5.980   6.246
 4696SOL    HW214988   1.588   5.984   6.390
 4697SOL     OW14989   4.227   5.361   1.708
 4697SOL    HW114990   4.291   5.289   1.679
 4697SOL    HW214991   4.158   5.323   1.769
 4698SOL     OW14992   5.359   1.134   4.726
 4698SOL    HW114993   5.411   1.154   4.643
 4698SOL    HW214994   5.353   1.216   4.783
 4699SOL     OW14995   1.533   0.184   2.660
 4699SOL    HW114996   1.627   0.203   2.634
 4699SOL    HW214997   1.496   0.259   2.715
 4700SOL     OW14998   6.102   1.870   2.318
 4700SOL    HW114999   6.080   1.826   2.231
 4700SOL    HW215000   6.021   1.873   2.376
 4701SOL     OW15001   2.870   2.499   1.646
 4701SOL    HW115002   2.896   2.461   1.735
 4701SOL    HW215003   2.776   2.473   1.624
 4702SOL     OW15004   5.622   5.237   6.578
 4702SOL    HW115005   5.537   5.278   6.611
 4702SOL    HW215006   5.698   5.300   6.593
 4703SOL     OW15007   0.763   5.392   3.506
 4703SOL    HW115008   0.715   5.311   3.470
 4703SOL    HW215009   0.774   5.459   3.433
 4704SOL     OW15010   1.140   4.762   4.216
 4704SOL    HW115011   1.221   4.710   4.241
 4704SOL    HW215012   1.167   4.852   4.182
 4705SOL     OW15013   3.506   1.837   1.737
 4705SOL    HW115014   3.539   1.801   1.649
 4705SOL    HW215015   3.540   1.930   1.750
 4706SOL     OW15016   2.540   0.571   1.270
 4706SOL    HW115017   2.508   0.478   1.287
 4706SOL    HW215018   2.555   0.617   1.358
 4707SOL     OW15019   1.497   5.199   2.053
 4707SOL    HW115020   1.451   5.287   2.037
 4707SOL    HW215021   1.540   5.201   2.144
 4708SOL     OW15022   2.024   2.814   5.362
 4708SOL    HW115023   2.102   2.785   5.417
 4708SOL    HW215024   2.018   2.757   5.280
 4709SOL     OW15025   4.860   4.335   5.839
 4709SOL    HW115026   4.907   4.320   5.752
 4709SOL    HW215027   4.925   4.365   5.908
 4710SOL     OW15028   5.894   6.075   5.048
 4710SOL    HW115029   5.888   5.988   5.098
 4710SOL    HW215030   5.972   6.072   4.986
 4711SOL     OW15031   5.297   4.209   2.709
 4711SOL    HW115032   5.229   4.275   2.741
 4711SOL    HW215033   5.253   4.141   2.651
 4712SOL     OW15034   4.317   4.163   5.872
 4712SOL    HW115035   4.417   4.167   5.872
 4712SOL    HW215036   4.287   4.069   5.856
 4713SOL     OW15037   5.520   4.620   0.624
 4713SOL    HW115038   5.491   4.636   0.530
 4713SOL    HW215039   5.441   4.627   0.685
 4714SOL     OW15040   4.020   2.029   6.556
 4714SOL    HW115041   3.977   1.994   6.472
 4714SOL    HW215042   4.116   2.048   6.539
 4715SOL     OW15043   6.568   1.566   1.950
 4715SOL    HW115044   6.613   1.625   1.883
 4715SOL    HW215045   6.595   1.594   2.042
 4716SOL     OW15046   4.019   4.675   5.412
 4716SOL    HW115047   4.089   4.702   5.345
 4716SOL    HW215048   3.929   4.702   5.379
 4717SOL     OW15049   2.620   4.545   5.516
 4717SOL    HW115050   2.698   4.600   5.487
 4717SOL    HW215051   2.565   4.520   5.436
 4718SOL     OW15052   4.602   4.713   0.659
 4718SOL    HW115053   4.599   4.762   0.745
 4718SOL    HW215054   4.693   4.723   0.618
 4719SOL     OW15055   6.998   4.350   3.724
 4719SOL    HW115056   7.002   4.442   3.685
 4719SOL    HW215057   6.919   4.302   3.688
 4720SOL     OW15058   2.372   3.262   6.878
 4720SOL    HW115059   2.412   3.175   6.850
 4720SOL    HW215060   2.428   3.303   6.950
 4721SOL     OW15061   0.354   2.818   2.864
 4721SOL    HW115062   0.318   2.911   2.861
 4721SOL    HW215063   0.293   2.761   2.920
 4722SOL     OW15064   0.983   5.814   0.230
 4722SOL    HW115065   1.003   5.827   0.133
 4722SOL    HW215066   1.045   5.746   0.268
 4723SOL     OW15067   3.561   4.517   6.583
 4723SOL    HW115068   3.652   4.502   6.622
 4723SOL    HW215069   3.492   4.475   6.642
 4724SOL     OW15070   0.901   0.428   4.792
 4724SOL    HW115071   0.888   0.454   4.696
 4724SOL    HW215072   0.904   0.329   4.799
 4725SOL     OW15073   5.606   5.575   1.358
 4725SOL    HW115074   5.624   5.492   1.412
 4725SOL    HW215075   5.509   5.580   1.337
 4726SOL     OW15076   1.775   2.786   5.509
 4726SOL    HW115077   1.706   2.718   5.481
 4726SOL    HW215078   1.834   2.806   5.431
 4727SOL     OW15079   6.710   4.344   1.395
 4727SOL    HW115080   6.657   4.343   1.479
 4727SOL    HW215081   6.793   4.290   1.406
 4728SOL     OW15082   6.119   1.547   4.191
 4728SOL    HW115083   6.039   1.525   4.135
 4728SOL    HW215084   6.106   1.636   4.234
 4729SOL     OW15085   6.130   1.170   1.921
 4729SOL    HW115086   6.041   1.197   1.886
 4729SOL    HW215087   6.153   1.226   2.001
 4730SOL     OW15088   3.102   0.164   4.368
 4730SOL    HW115089   3.003   0.149   4.360
 4730SOL    HW215090   3.147   0.136   4.284
 4731SOL     OW15091   2.980   6.408   0.974
 4731SOL    HW115092   2.915   6.450   1.038
 4731SOL    HW215093   2.994   6.313   0.999
 4732SOL     OW15094   0.580   5.308   5.089
 4732SOL    HW115095   0.646   5.380   5.071
 4732SOL    HW215096   0.491   5.348   5.109
 4733SOL     OW15097   2.192   3.967   2.177
 4733SOL    HW115098   2.262   3.943   2.111
 4733SOL    HW215099   2.191   4.066   2.191
 4734SOL     OW15100   4.819   4.152   6.637
 4734SOL    HW115101   4.908   4.129   6.598
 4734SOL    HW215102   4.818   4.128   6.734
 4735SOL     OW15103   0.602   0.685   5.040
 4735SOL    HW115104   0.520   0.732   5.006
 4735SOL    HW215105   0.622   0.607   4.981
 4736SOL     OW15106   6.359   1.836   3.383
 4736SOL    HW115107   6.334   1.876   3.472
 4736SOL    HW215108   6.459   1.837   3.374
 4737SOL     OW15109   2.333   4.736   6.763
 4737SOL    HW115110   2.403   4.806   6.751
 4737SOL    HW215111   2.242   4.776   6.750
 4738SOL     OW15112   1.106   5.487   3.802
 4738SOL    HW115113   1.154   5.415   3.851
 4738SOL    HW215114   1.013   5.458   3.782
 4739SOL     OW15115   5.654   3.317   3.088
 4739SOL    HW115116   5.561   3.347   3.067
 4739SOL    HW215117   5.715   3.397   3.088
 4740SOL     OW15118   0.942   0.393   0.802
 4740SOL    HW115119   0.912   0.316   0.859
 4740SOL    HW215120   0.999   0.359   0.728
 4741SOL     OW15121   5.130   4.770   1.380
 4741SOL    HW115122   5.124   4.678   1.341
 4741SOL    HW215123   5.209   4.817   1.343
 4742SOL     OW15124   2.151   5.482   2.621
 4742SOL    HW115125   2.051   5.490   2.621
 4742SOL    HW215126   2.192   5.573   2.630
 4743SOL     OW15127   2.673   3.375   0.294
 4743SOL    HW115128   2.613   3.447   0.260
 4743SOL    HW215129   2.619   3.307   0.344
 4744SOL     OW15130   2.019   2.033   5.289
 4744SOL    HW115131   1.992   2.124   5.259
 4744SOL    HW215132   1.965   2.007   5.369
 4745SOL     OW15133   3.581   5.235   4.900
 4745SOL    HW115134   3.598   5.143   4.865
 4745SOL    HW215135   3.509   5.278   4.846
 4746SOL     OW15136   5.989   0.800   1.434
 4746SOL    HW115137   5.906   0.772   1.385
 4746SOL    HW215138   5.990   0.759   1.525
 4747SOL     OW15139   0.047   2.484   1.852
 4747SOL    HW115140   0.103   2.435   1.918
 4747SOL    HW215141   6.982   2.443   1.848
 4748SOL     OW15142   1.825   0.628   1.284
 4748SOL    HW115143   1.798   0.591   1.195
 4748SOL    HW215144   1.873   0.715   1.270
 4749SOL     OW15145   2.712   6.983   6.171
 4749SOL    HW115146   2.812   6.993   6.167
 4749SOL    HW215147   2.686   6.940   6.257
 4750SOL     OW15148   0.805   1.909   4.451
 4750SOL    HW115149   0.871   1.849   4.497
 4750SOL    HW215150   0.739   1.854   4.399
 4751SOL     OW15151   1.049   3.648   5.612
 4751SOL    HW115152   1.029   3.566   5.557
 4751SOL    HW215153   0.985   3.653   5.688
 4752SOL     OW15154   1.808   5.772   2.056
 4752SOL    HW115155   1.762   5.698   2.007
 4752SOL    HW215156   1.807   5.754   2.154
 4753SOL     OW15157   0.446   6.948   5.504
 4753SOL    HW115158   0.369   6.905   5.552
 4753SOL    HW215159   0.414   0.004   5.457
 4754SOL     OW15160   0.913   0.223   6.997
 4754SOL    HW115161   0.844   0.161   6.960
 4754SOL    HW215162   0.944   0.286   6.926
 4755SOL     OW15163   2.805   0.531   1.225
 4755SOL    HW115164   2.863   0.587   1.283
 4755SOL    HW215165   2.709   0.544   1.251
 4756SOL     OW15166   4.835   3.166   1.249
 4756SOL    HW115167   4.788   3.125   1.327
 4756SOL    HW215168   4.925   3.198   1.277
 4757SOL     OW15169   2.562   1.393   1.449
 4757SOL    HW115170   2.518   1.467   1.398
 4757SOL    HW215171   2.618   1.338   1.387
 4758SOL     OW15172   5.447   4.038   5.656
 4758SOL    HW115173   5.445   3.943   5.685
 4758SOL    HW215174   5.512   4.049   5.581
 4759SOL     OW15175   6.061   4.353   6.121
 4759SOL    HW115176   6.002   4.433   6.104
 4759SOL    HW215177   6.012   4.270   6.096
 4760SOL     OW15178   1.739   2.587   0.944
 4760SOL    HW115179   1.828   2.548   0.969
 4760SOL    HW215180   1.690   2.614   1.027
 4761SOL     OW15181   1.407   5.933   5.954
 4761SOL    HW115182   1.379   6.029   5.951
 4761SOL    HW215183   1.424   5.900   5.861
 4762SOL     OW15184   4.006   6.587   2.275
 4762SOL    HW115185   4.005   6.673   2.327
 4762SOL    HW215186   3.918   6.540   2.288
 4763SOL     OW15187   5.780   5.437   4.652
 4763SOL    HW115188   5.680   5.442   4.656
 4763SOL    HW215189   5.806   5.359   4.596
 4764SOL     OW15190   3.737   4.131   4.624
 4764SOL    HW115191   3.819   4.078   4.603
 4764SOL    HW215192   3.688   4.153   4.539
 4765SOL     OW15193   6.408   4.768   5.658
 4765SOL    HW115194   6.313   4.737   5.649
 4765SOL    HW215195   6.459   4.742   5.576
 4766SOL     OW15196   3.249   0.455   3.346
 4766SOL    HW115197   3.246   0.400   3.263
 4766SOL    HW215198   3.190   0.535   3.335
 4767SOL     OW15199   4.293   6.581   6.758
 4767SOL    HW115200   4.214   6.632   6.792
 4767SOL    HW215201   4.364   6.579   6.829
 4768SOL     OW15202   0.697   1.025   4.894
 4768SOL    HW115203   0.783   0.977   4.878
 4768SOL    HW215204   0.659   0.999   4.983
 4769SOL     OW15205   3.566   0.670   1.812
 4769SOL    HW115206   3.555   0.648   1.715
 4769SOL    HW215207   3.610   0.594   1.859
 4770SOL     OW15208   2.329   0.200   3.599
 4770SOL    HW115209   2.340   0.299   3.583
 4770SOL    HW215210   2.285   0.186   3.688
 4771SOL     OW15211   3.993   4.199   5.273
 4771SOL    HW115212   4.000   4.104   5.302
 4771SOL    HW215213   4.049   4.256   5.333
 4772SOL     OW15214   2.017   3.065   0.259
 4772SOL    HW115215   2.063   3.012   0.188
 4772SOL    HW215216   2.007   3.160   0.228
 4773SOL     OW15217   0.287   5.159   4.159
 4773SOL    HW115218   0.292   5.098   4.081
 4773SOL    HW215219   0.192   5.166   4.190
 4774SOL     OW15220   1.313   4.531   6.829
 4774SOL    HW115221   1.283   4.619   6.791
 4774SOL    HW215222   1.335   4.468   6.754
 4775SOL     OW15223   2.196   1.631   2.350
 4775SOL    HW115224   2.281   1.679   2.370
 4775SOL    HW215225   2.129   1.696   2.313
 4776SOL     OW15226   3.958   4.879   2.259
 4776SOL    HW115227   3.897   4.811   2.218
 4776SOL    HW215228   3.907   4.963   2.279
 4777SOL     OW15229   2.916   4.009   1.247
 4777SOL    HW115230   2.920   4.109   1.248
 4777SOL    HW215231   2.941   3.974   1.338
 4778SOL     OW15232   5.290   3.832   2.855
 4778SOL    HW115233   5.317   3.882   2.773
 4778SOL    HW215234   5.210   3.876   2.896
 4779SOL     OW15235   4.641   0.955   2.860
 4779SOL    HW115236   4.622   0.862   2.892
 4779SOL    HW215237   4.586   1.019   2.913
 4780SOL     OW15238   1.849   0.312   5.556
 4780SOL    HW115239   1.777   0.309   5.625
 4780SOL    HW215240   1.823   0.255   5.478
 4781SOL     OW15241   1.971   5.763   2.900
 4781SOL    HW115242   1.966   5.670   2.934
 4781SOL    HW215243   2.046   5.811   2.945
 4782SOL     OW15244   5.789   5.914   0.375
 4782SOL    HW115245   5.872   5.860   0.388
 4782SOL    HW215246   5.814   6.004   0.338
 4783SOL     OW15247   6.355   3.774   2.563
 4783SOL    HW115248   6.395   3.832   2.493
 4783SOL    HW215249   6.261   3.804   2.582
 4784SOL     OW15250   6.101   4.214   4.737
 4784SOL    HW115251   6.080   4.120   4.762
 4784SOL    HW215252   6.108   4.221   4.637
 4785SOL     OW15253   6.149   6.996   0.934
 4785SOL    HW115254   6.151   6.921   0.869
 4785SOL    HW215255   6.207   6.975   1.012
 4786SOL     OW15256   1.701   3.078   2.321
 4786SOL    HW115257   1.665   3.120   2.404
 4786SOL    HW215258   1.649   2.996   2.299
 4787SOL     OW15259   4.464   2.401   2.502
 4787SOL    HW115260   4.370   2.367   2.511
 4787SOL    HW215261   4.528   2.327   2.525
 4788SOL     OW15262   1.391   6.189   5.667
 4788SOL    HW115263   1.409   6.117   5.599
 4788SOL    HW215264   1.311   6.164   5.721
 4789SOL     OW15265   6.142   6.815   0.738
 4789SOL    HW115266   6.233   6.821   0.696
 4789SOL    HW215267   6.073   6.806   0.667
 4790SOL     OW15268   5.164   0.780   6.895
 4790SOL    HW115269   5.263   0.785   6.881
 4790SOL    HW215270   5.137   0.685   6.908
 4791SOL     OW15271   4.508   1.455   3.425
 4791SOL    HW115272   4.586   1.489   3.372
 4791SOL    HW215273   4.428   1.449   3.366
 4792SOL     OW15274   3.135   2.365   1.454
 4792SOL    HW115275   3.234   2.352   1.451
 4792SOL    HW215276   3.113   2.462   1.457
 4793SOL     OW15277   0.660   0.189   6.599
 4793SOL    HW115278   0.564   0.178   6.571
 4793SOL    HW215279   0.718   0.130   6.543
 4794SOL     OW15280   4.124   0.887   1.955
 4794SOL    HW115281   4.099   0.955   2.025
 4794SOL    HW215282   4.215   0.851   1.976
 4795SOL     OW15283   5.606   2.597   4.316
 4795SOL    HW115284   5.680   2.625   4.254
 4795SOL    HW215285   5.526   2.654   4.299
 4796SOL     OW15286   6.143   4.001   0.997
 4796SOL    HW115287   6.047   4.002   0.971
 4796SOL    HW215288   6.190   3.926   0.951
 4797SOL     OW15289   0.456   4.933   4.896
 4797SOL    HW115290   0.447   4.963   4.991
 4797SOL    HW215291   0.375   4.879   4.871
 4798SOL     OW15292   6.941   4.283   5.528
 4798SOL    HW115293   6.877   4.341   5.578
 4798SOL    HW215294   6.906   4.265   5.436
 4799SOL     OW15295   3.917   1.362   4.931
 4799SOL    HW115296   3.893   1.395   4.840
 4799SOL    HW215297   3.935   1.440   4.991
 4800SOL     OW15298   2.156   1.546   3.962
 4800SOL    HW115299   2.226   1.581   4.024
 4800SOL    HW215300   2.071   1.596   3.975
 4801SOL     OW15301   1.009   2.746   0.701
 4801SOL    HW115302   0.939   2.699   0.754
 4801SOL    HW215303   1.017   2.840   0.732
 4802SOL     OW15304   1.847   0.227   2.092
 4802SOL    HW115305   1.796   0.185   2.167
 4802SOL    HW215306   1.843   0.327   2.101
 4803SOL     OW15307   0.675   6.982   1.139
 4803SOL    HW115308   0.643   6.975   1.233
 4803SOL    HW215309   0.749   6.916   1.124
 4804SOL     OW15310   3.671   5.611   0.099
 4804SOL    HW115311   3.594   5.548   0.108
 4804SOL    HW215312   3.750   5.576   0.150
 4805SOL     OW15313   0.587   0.900   1.137
 4805SOL    HW115314   0.616   0.812   1.099
 4805SOL    HW215315   0.665   0.961   1.146
 4806SOL     OW15316   0.436   2.951   3.123
 4806SOL    HW115317   0.483   2.976   3.207
 4806SOL    HW215318   0.477   2.869   3.085
 4807SOL     OW15319   0.803   6.298   2.242
 4807SOL    HW115320   0.795   6.383   2.189
 4807SOL    HW215321   0.897   6.264   2.236
 4808SOL     OW15322   5.269   3.065   1.249
 4808SOL    HW115323   5.338   2.995   1.230
 4808SOL    HW215324   5.178   3.029   1.231
 4809SOL     OW15325   4.092   6.403   6.352
 4809SOL    HW115326   4.018   6.340   6.375
 4809SOL    HW215327   4.068   6.495   6.383
 4810SOL     OW15328   1.093   0.162   1.368
 4810SOL    HW115329   1.118   0.242   1.312
 4810SOL    HW215330   1.000   0.174   1.403
 4811SOL     OW15331   5.705   5.747   2.868
 4811SOL    HW115332   5.642   5.692   2.812
 4811SOL    HW215333   5.714   5.838   2.828
 4812SOL     OW15334   6.683   4.973   4.084
 4812SOL    HW115335   6.758   4.919   4.046
 4812SOL    HW215336   6.596   4.939   4.049
 4813SOL     OW15337   5.666   3.054   3.022
 4813SOL    HW115338   5.694   3.144   3.054
 4813SOL    HW215339   5.694   3.042   2.927
 4814SOL     OW15340   6.520   3.489   1.960
 4814SOL    HW115341   6.560   3.409   1.915
 4814SOL    HW215342   6.480   3.549   1.891
 4815SOL     OW15343   4.079   6.686   3.044
 4815SOL    HW115344   4.154   6.664   2.982
 4815SOL    HW215345   4.108   6.670   3.139
 4816SOL     OW15346   5.222   5.138   3.201
 4816SOL    HW115347   5.142   5.197   3.211
 4816SOL    HW215348   5.278   5.142   3.283
 4817SOL     OW15349   0.103   1.641   0.184
 4817SOL    HW115350   0.175   1.621   0.251
 4817SOL    HW215351   0.037   1.705   0.225
 4818SOL     OW15352   6.922   6.130   3.379
 4818SOL    HW115353   6.822   6.133   3.380
 4818SOL    HW215354   6.952   6.079   3.299
 4819SOL     OW15355   1.922   3.395   1.326
 4819SOL    HW115356   1.858   3.335   1.374
 4819SOL    HW215357   2.010   3.395   1.373
 4820SOL     OW15358   0.399   3.227   2.566
 4820SOL    HW115359   0.420   3.293   2.494
 4820SOL    HW215360   0.304   3.239   2.594
 4821SOL     OW15361   0.246   5.579   3.824
 4821SOL    HW115362   0.312   5.526   3.770
 4821SOL    HW215363   0.213   5.656   3.769
 4822SOL     OW15364   2.009   4.539   4.164
 4822SOL    HW115365   1.979   4.596   4.240
 4822SOL    HW215366   2.094   4.576   4.127
 4823SOL     OW15367   1.529   2.966   1.185
 4823SOL    HW115368   1.435   2.987   1.211
 4823SOL    HW215369   1.545   2.995   1.091
 4824SOL     OW15370   6.692   1.561   6.999
 4824SOL    HW115371   6.632   1.491   6.960
 4824SOL    HW215372   6.649   1.601   0.053
 4825SOL     OW15373   0.774   6.496   3.862
 4825SOL    HW115374   0.814   6.551   3.789
 4825SOL    HW215375   0.744   6.555   3.936
 4826SOL     OW15376   3.811   0.138   1.067
 4826SOL    HW115377   3.825   0.215   1.005
 4826SOL    HW215378   3.739   0.160   1.132
 4827SOL     OW15379   0.009   1.545   0.715
 4827SOL    HW115380   6.971   1.512   0.784
 4827SOL    HW215381   0.099   1.556   0.756
 4828SOL     OW15382   5.591   1.703   5.595
 4828SOL    HW115383   5.506   1.724   5.547
 4828SOL    HW215384   5.605   1.770   5.669
 4829SOL     OW15385   4.099   6.413   4.913
 4829SOL    HW115386   4.088   6.448   4.819
 4829SOL    HW215387   4.153   6.477   4.967
 4830SOL     OW15388   2.115   6.684   3.650
 4830SOL    HW115389   2.095   6.588   3.630
 4830SOL    HW215390   2.079   6.708   3.740
 4831SOL     OW15391   3.097   4.580   5.327
 4831SOL    HW115392   3.018   4.551   5.272
 4831SOL    HW215393   3.131   4.502   5.379
 4832SOL     OW15394   3.913   3.639   4.194
 4832SOL    HW115395   3.821   3.672   4.215
 4832SOL    HW215396   3.955   3.698   4.125
 4833SOL     OW15397   6.598   2.930   4.956
 4833SOL    HW115398   6.586   2.997   5.029
 4833SOL    HW215399   6.551   2.845   4.981
 4834SOL     OW15400   1.099   5.188   1.579
 4834SOL    HW115401   1.196   5.190   1.554
 4834SOL    HW215402   1.045   5.224   1.504
 4835SOL     OW15403   0.022   3.040   5.969
 4835SOL    HW115404   0.093   3.027   6.039
 4835SOL    HW215405   0.062   3.087   5.890
 4836SOL     OW15406   4.259   2.296   5.841
 4836SOL    HW115407   4.175   2.307   5.894
 4836SOL    HW215408   4.253   2.351   5.758
 4837SOL     OW15409   1.063   3.633   3.947
 4837SOL    HW115410   1.155   3.662   3.921
 4837SOL    HW215411   1.068   3.574   4.028
 4838SOL     OW15412   2.098   3.872   6.028
 4838SOL    HW115413   2.140   3.943   5.972
 4838SOL    HW215414   2.002   3.894   6.044
 4839SOL     OW15415   2.500   1.045   0.843
 4839SOL    HW115416   2.505   1.140   0.813
 4839SOL    HW215417   2.404   1.019   0.857
 4840SOL     OW15418   5.221   3.065   5.277
 4840SOL    HW115419   5.318   3.043   5.278
 4840SOL    HW215420   5.172   3.007   5.342
 4841SOL     OW15421   2.507   6.452   2.967
 4841SOL    HW115422   2.471   6.524   2.909
 4841SOL    HW215423   2.547   6.492   3.050
 4842SOL     OW15424   3.654   6.290   3.344
 4842SOL    HW115425   3.574   6.299   3.403
 4842SOL    HW215426   3.665   6.373   3.290
 4843SOL     OW15427   6.802   1.423   0.301
 4843SOL    HW115428   6.723   1.472   0.263
 4843SOL    HW215429   6.849   1.481   0.366
 4844SOL     OW15430   1.330   5.343   6.123
 4844SOL    HW115431   1.329   5.400   6.041
 4844SOL    HW215432   1.247   5.359   6.176
 4845SOL     OW15433   4.874   3.852   5.124
 4845SOL    HW115434   4.886   3.902   5.038
 4845SOL    HW215435   4.833   3.763   5.105
 4846SOL     OW15436   6.022   3.446   4.809
 4846SOL    HW115437   5.988   3.352   4.817
 4846SOL    HW215438   6.084   3.465   4.886
 4847SOL     OW15439   2.540   6.719   6.634
 4847SOL    HW115440   2.449   6.745   6.664
 4847SOL    HW215441   2.533   6.655   6.557
 4848SOL     OW15442   4.646   1.253   3.848
 4848SOL    HW115443   4.717   1.198   3.892
 4848SOL    HW215444   4.558   1.206   3.856
 4849SOL     OW15445   2.234   6.662   1.124
 4849SOL    HW115446   2.318   6.665   1.179
 4849SOL    HW215447   2.248   6.600   1.046
 4850SOL     OW15448   3.477   6.571   1.416
 4850SOL    HW115449   3.488   6.500   1.485
 4850SOL    HW215450   3.548   6.562   1.346
 4851SOL     OW15451   3.672   4.805   0.113
 4851SOL    HW115452   3.682   4.758   0.025
 4851SOL    HW215453   3.580   4.843   0.120
 4852SOL     OW15454   5.082   5.101   5.975
 4852SOL    HW115455   5.032   5.029   5.926
 4852SOL    HW215456   5.165   5.062   6.015
 4853SOL     OW15457   4.766   0.233   2.365
 4853SOL    HW115458   4.733   0.161   2.426
 4853SOL    HW215459   4.730   0.217   2.273
 4854SOL     OW15460   4.430   6.656   2.212
 4854SOL    HW115461   4.453   6.753   2.213
 4854SOL    HW215462   4.507   6.603   2.175
 4855SOL     OW15463   4.840   4.959   5.563
 4855SOL    HW115464   4.830   4.861   5.546
 4855SOL    HW215465   4.749   5.001   5.568
 4856SOL     OW15466   0.528   3.186   2.829
 4856SOL    HW115467   0.486   3.217   2.744
 4856SOL    HW215468   0.551   3.266   2.885
 4857SOL     OW15469   2.460   2.577   5.161
 4857SOL    HW115470   2.507   2.590   5.248
 4857SOL    HW215471   2.437   2.481   5.148
 4858SOL     OW15472   1.661   6.321   5.219
 4858SOL    HW115473   1.672   6.320   5.318
 4858SOL    HW215474   1.575   6.365   5.195
 4859SOL     OW15475   6.810   6.055   2.932
 4859SOL    HW115476   6.800   6.034   2.835
 4859SOL    HW215477   6.764   6.141   2.953
 4860SOL     OW15478   3.852   5.149   2.337
 4860SOL    HW115479   3.784   5.130   2.266
 4860SOL    HW215480   3.844   5.244   2.366
 4861SOL     OW15481   0.268   4.907   5.581
 4861SOL    HW115482   0.254   4.840   5.508
 4861SOL    HW215483   0.240   4.867   5.668
 4862SOL     OW15484   2.126   6.385   4.665
 4862SOL    HW115485   2.207   6.359   4.718
 4862SOL    HW215486   2.065   6.306   4.656
 4863SOL     OW15487   5.674   1.457   1.826
 4863SOL    HW115488   5.762   1.463   1.873
 4863SOL    HW215489   5.680   1.505   1.738
 4864SOL     OW15490   2.153   1.880   0.912
 4864SOL    HW115491   2.118   1.798   0.957
 4864SOL    HW215492   2.214   1.929   0.974
 4865SOL     OW15493   3.761   6.299   4.802
 4865SOL    HW115494   3.824   6.237   4.849
 4865SOL    HW215495   3.673   6.298   4.849
 4866SOL     OW15496   0.641   5.266   1.790
 4866SOL    HW115497   0.678   5.354   1.820
 4866SOL    HW215498   0.627   5.267   1.691
 4867SOL     OW15499   5.494   4.503   4.914
 4867SOL    HW115500   5.503   4.600   4.892
 4867SOL    HW215501   5.399   4.475   4.907
 4868SOL     OW15502   1.936   5.495   1.777
 4868SOL    HW115503   1.899   5.429   1.712
 4868SOL    HW215504   2.010   5.452   1.829
 4869SOL     OW15505   6.156   2.070   1.508
 4869SOL    HW115506   6.171   1.974   1.532
 4869SOL    HW215507   6.061   2.082   1.478
 4870SOL     OW15508   6.444   0.747   1.322
 4870SOL    HW115509   6.367   0.697   1.362
 4870SOL    HW215510   6.412   0.833   1.284
 4871SOL     OW15511   1.533   3.897   4.582
 4871SOL    HW115512   1.603   3.963   4.554
 4871SOL    HW215513   1.445   3.944   4.590
 4872SOL     OW15514   1.181   0.980   3.854
 4872SOL    HW115515   1.142   1.064   3.892
 4872SOL    HW215516   1.139   0.961   3.765
 4873SOL     OW15517   1.294   6.439   5.594
 4873SOL    HW115518   1.195   6.424   5.597
 4873SOL    HW215519   1.340   6.366   5.645
 4874SOL     OW15520   6.194   2.886   3.226
 4874SOL    HW115521   6.282   2.841   3.237
 4874SOL    HW215522   6.129   2.850   3.293
 4875SOL     OW15523   0.042   3.016   6.414
 4875SOL    HW115524   0.054   2.951   6.490
 4875SOL    HW215525   0.045   2.966   6.327
 4876SOL     OW15526   0.299   1.574   7.018
 4876SOL    HW115527   0.222   1.577   0.055
 4876SOL    HW215528   0.379   1.534   0.036
 4877SOL     OW15529   5.883   1.420   2.012
 4877SOL    HW115530   5.893   1.324   2.037
 4877SOL    HW215531   5.960   1.472   2.050
 4878SOL     OW15532   0.385   2.797   1.688
 4878SOL    HW115533   0.356   2.719   1.743
 4878SOL    HW215534   0.466   2.839   1.729
 4879SOL     OW15535   4.653   5.760   3.172
 4879SOL    HW115536   4.715   5.831   3.139
 4879SOL    HW215537   4.625   5.702   3.095
 4880SOL     OW15538   6.158   2.016   5.573
 4880SOL    HW115539   6.213   2.098   5.588
 4880SOL    HW215540   6.213   1.935   5.597
 4881SOL     OW15541   2.828   5.686   6.217
 4881SOL    HW115542   2.730   5.672   6.207
 4881SOL    HW215543   2.866   5.722   6.131
 4882SOL     OW15544   5.129   6.144   0.098
 4882SOL    HW115545   5.154   6.217   0.035
 4882SOL    HW215546   5.030   6.133   0.100
 4883SOL     OW15547   6.092   5.476   6.983
 4883SOL    HW115548   6.149   5.539   0.011
 4883SOL    HW215549   6.027   5.529   6.929
 4884SOL     OW15550   4.405   6.735   1.506
 4884SOL    HW115551   4.333   6.671   1.531
 4884SOL    HW215552   4.456   6.699   1.427
 4885SOL     OW15553   2.232   0.043   2.535
 4885SOL    HW115554   2.179   7.000   2.485
 4885SOL    HW215555   2.171   0.094   2.596
 4886SOL     OW15556   5.910   0.963   5.794
 4886SOL    HW115557   5.836   1.025   5.770
 4886SOL    HW215558   5.993   0.991   5.746
 4887SOL     OW15559   0.571   2.103   5.548
 4887SOL    HW115560   0.573   2.202   5.534
 4887SOL    HW215561   0.607   2.058   5.466
 4888SOL     OW15562   3.262   5.876   2.124
 4888SOL    HW115563   3.226   5.868   2.032
 4888SOL    HW215564   3.255   5.971   2.154
 4889SOL     OW15565   1.442   2.748   6.187
 4889SOL    HW115566   1.397   2.755   6.098
 4889SOL    HW215567   1.541   2.761   6.174
 4890SOL     OW15568   0.296   0.653   4.131
 4890SOL    HW115569   0.231   0.587   4.092
 4890SOL    HW215570   0.283   0.659   4.230
 4891SOL     OW15571   1.489   4.226   0.419
 4891SOL    HW115572   1.436   4.297   0.464
 4891SOL    HW215573   1.429   4.167   0.365
 4892SOL     OW15574   1.883   5.418   2.434
 4892SOL    HW115575   1.852   5.437   2.527
 4892SOL    HW215576   1.971   5.370   2.437
 4893SOL     OW15577   0.741   3.752   6.862
 4893SOL    HW115578   0.693   3.679   6.813
 4893SOL    HW215579   0.718   3.840   6.822
 4894SOL     OW15580   1.917   0.688   3.407
 4894SOL    HW115581   1.850   0.741   3.355
 4894SOL    HW215582   2.003   0.684   3.356
 4895SOL     OW15583   5.757   4.219   0.180
 4895SOL    HW115584   5.820   4.178   0.246
 4895SOL    HW215585   5.809   4.275   0.115
 4896SOL     OW15586   3.961   6.699   3.558
 4896SOL    HW115587   3.883   6.643   3.531
 4896SOL    HW215588   3.938   6.752   3.639
 4897SOL     OW15589   2.820   5.603   6.655
 4897SOL    HW115590   2.765   5.684   6.674
 4897SOL    HW215591   2.801   5.533   6.723
 4898SOL     OW15592   6.184   1.960   4.332
 4898SOL    HW115593   6.240   2.037   4.300
 4898SOL    HW215594   6.144   1.913   4.254
 4899SOL     OW15595   4.911   4.946   4.644
 4899SOL    HW115596   4.993   4.906   4.686
 4899SOL    HW215597   4.881   5.024   4.698
 4900SOL     OW15598   0.598   6.662   5.036
 4900SOL    HW115599   0.669   6.693   5.099
 4900SOL    HW215600   0.582   6.564   5.049
 4901SOL     OW15601   7.008   6.941   3.170
 4901SOL    HW115602   6.975   6.984   3.254
 4901SOL    HW215603   6.987   6.999   3.092
 4902SOL     OW15604   3.522   4.746   1.599
 4902SOL    HW115605   3.425   4.724   1.601
 4902SOL    HW215606   3.568   4.699   1.675
 4903SOL     OW15607   5.731   5.210   6.170
 4903SOL    HW115608   5.825   5.207   6.138
 4903SOL    HW215609   5.670   5.233   6.093
 4904SOL     OW15610   2.960   6.996   3.450
 4904SOL    HW115611   3.060   7.000   3.441
 4904SOL    HW215612   2.932   0.018   3.532
 4905SOL     OW15613   6.638   3.419   3.515
 4905SOL    HW115614   6.724   3.368   3.502
 4905SOL    HW215615   6.575   3.397   3.441
 4906SOL     OW15616   4.832   0.821   1.163
 4906SOL    HW115617   4.918   0.861   1.131
 4906SOL    HW215618   4.801   0.870   1.244
 4907SOL     OW15619   2.595   1.945   1.777
 4907SOL    HW115620   2.540   1.876   1.824
 4907SOL    HW215621   2.692   1.930   1.798
 4908SOL     OW15622   4.052   5.491   0.679
 4908SOL    HW115623   4.144   5.455   0.665
 4908SOL    HW215624   3.996   5.421   0.724
 4909SOL     OW15625   6.265   0.282   5.361
 4909SOL    HW115626   6.273   0.357   5.427
 4909SOL    HW215627   6.350   0.274   5.309
 4910SOL     OW15628   5.721   6.596   6.341
 4910SOL    HW115629   5.723   6.498   6.358
 4910SOL    HW215630   5.658   6.617   6.266
 4911SOL     OW15631   1.055   3.779   6.238
 4911SOL    HW115632   1.133   3.835   6.265
 4911SOL    HW215633   1.056   3.767   6.139
 4912SOL     OW15634   2.571   2.680   1.801
 4912SOL    HW115635   2.615   2.749   1.743
 4912SOL    HW215636   2.623   2.595   1.796
 4913SOL     OW15637   2.591   3.103   1.724
 4913SOL    HW115638   2.668   3.152   1.764
 4913SOL    HW215639   2.515   3.166   1.710
 4914SOL     OW15640   1.393   6.650   2.733
 4914SOL    HW115641   1.427   6.744   2.738
 4914SOL    HW215642   1.294   6.649   2.748
 4915SOL     OW15643   2.286   6.322   3.334
 4915SOL    HW115644   2.246   6.414   3.336
 4915SOL    HW215645   2.314   6.300   3.241
 4916SOL     OW15646   1.923   2.109   2.631
 4916SOL    HW115647   1.929   2.192   2.686
 4916SOL    HW215648   1.856   2.123   2.558
 4917SOL     OW15649   1.913   4.252   6.089
 4917SOL    HW115650   1.859   4.180   6.133
 4917SOL    HW215651   1.956   4.309   6.159
 4918SOL     OW15652   2.335   0.779   3.747
 4918SOL    HW115653   2.259   0.793   3.683
 4918SOL    HW215654   2.302   0.791   3.840
 4919SOL     OW15655   2.376   3.263   1.697
 4919SOL    HW115656   2.288   3.221   1.674
 4919SOL    HW215657   2.360   3.354   1.736
 4920SOL     OW15658   4.204   0.514   0.353
 4920SOL    HW115659   4.227   0.537   0.447
 4920SOL    HW215660   4.282   0.534   0.293
 4921SOL     OW15661   0.253   4.841   1.635
 4921SOL    HW115662   0.326   4.834   1.567
 4921SOL    HW215663   0.252   4.758   1.691
 4922SOL     OW15664   1.197   3.008   6.080
 4922SOL    HW115665   1.134   2.938   6.116
 4922SOL    HW215666   1.256   2.966   6.010
 4923SOL     OW15667   3.046   1.815   0.333
 4923SOL    HW115668   2.955   1.810   0.376
 4923SOL    HW215669   3.047   1.888   0.265
 4924SOL     OW15670   7.018   3.757   4.143
 4924SOL    HW115671   0.006   3.854   4.162
 4924SOL    HW215672   6.924   3.732   4.167
 4925SOL     OW15673   4.755   6.013   6.384
 4925SOL    HW115674   4.760   5.944   6.312
 4925SOL    HW215675   4.710   5.973   6.465
 4926SOL     OW15676   4.547   3.074   0.587
 4926SOL    HW115677   4.628   3.057   0.644
 4926SOL    HW215678   4.540   3.172   0.570
 4927SOL     OW15679   3.281   3.727   2.125
 4927SOL    HW115680   3.289   3.778   2.211
 4927SOL    HW215681   3.238   3.638   2.144
 4928SOL     OW15682   0.914   6.878   0.505
 4928SOL    HW115683   0.855   6.804   0.472
 4928SOL    HW215684   1.010   6.850   0.495
 4929SOL     OW15685   0.967   4.681   4.557
 4929SOL    HW115686   1.021   4.643   4.632
 4929SOL    HW215687   0.969   4.781   4.561
 4930SOL     OW15688   0.401   3.081   0.722
 4930SOL    HW115689   0.445   3.005   0.676
 4930SOL    HW215690   0.323   3.048   0.775
 4931SOL     OW15691   6.502   6.822   0.959
 4931SOL    HW115692   6.424   6.762   0.941
 4931SOL    HW215693   6.549   6.842   0.873
 4932SOL     OW15694   3.324   1.767   0.978
 4932SOL    HW115695   3.303   1.865   0.975
 4932SOL    HW215696   3.337   1.738   1.072
 4933SOL     OW15697   2.470   0.403   4.809
 4933SOL    HW115698   2.532   0.457   4.866
 4933SOL    HW215699   2.457   0.313   4.850
 4934SOL     OW15700   1.889   5.855   4.903
 4934SOL    HW115701   1.970   5.819   4.950
 4934SOL    HW215702   1.862   5.941   4.945
 4935SOL     OW15703   1.973   1.705   0.775
 4935SOL    HW115704   2.045   1.760   0.732
 4935SOL    HW215705   2.002   1.610   0.779
 4936SOL     OW15706   5.330   6.059   1.547
 4936SOL    HW115707   5.404   5.997   1.519
 4936SOL    HW215708   5.336   6.144   1.495
 4937SOL     OW15709   1.126   3.033   4.707
 4937SOL    HW115710   1.091   2.989   4.790
 4937SOL    HW215711   1.050   3.053   4.645
 4938SOL     OW15712   3.358   4.909   1.964
 4938SOL    HW115713   3.326   4.907   1.869
 4938SOL    HW215714   3.439   4.852   1.972
 4939SOL     OW15715   1.358   1.340   0.785
 4939SOL    HW115716   1.346   1.422   0.729
 4939SOL    HW215717   1.342   1.258   0.729
 4940SOL     OW15718   1.294   1.994   5.810
 4940SOL    HW115719   1.329   1.939   5.734
 4940SOL    HW215720   1.369   2.049   5.849
 4941SOL     OW15721   3.965   2.483   5.387
 4941SOL    HW115722   4.030   2.508   5.315
 4941SOL    HW215723   4.012   2.429   5.456
 4942SOL     OW15724   0.102   1.885   3.309
 4942SOL    HW115725   0.202   1.894   3.307
 4942SOL    HW215726   0.078   1.791   3.330
 4943SOL     OW15727   5.257   2.651   6.777
 4943SOL    HW115728   5.289   2.618   6.866
 4943SOL    HW215729   5.223   2.574   6.723
 4944SOL     OW15730   1.045   4.651   0.477
 4944SOL    HW115731   0.993   4.566   0.470
 4944SOL    HW215732   1.099   4.665   0.395
 4945SOL     OW15733   2.544   0.211   6.047
 4945SOL    HW115734   2.627   0.247   6.090
 4945SOL    HW215735   2.537   0.113   6.064
 4946SOL     OW15736   2.594   5.374   6.800
 4946SOL    HW115737   2.504   5.376   6.844
 4946SOL    HW215738   2.641   5.289   6.824
 4947SOL     OW15739   0.637   0.225   0.867
 4947SOL    HW115740   0.629   0.248   0.770
 4947SOL    HW215741   0.656   0.128   0.877
 4948SOL     OW15742   1.857   2.074   2.229
 4948SOL    HW115743   1.930   2.142   2.240
 4948SOL    HW215744   1.868   2.028   2.142
 4949SOL     OW15745   0.077   4.487   6.125
 4949SOL    HW115746   0.147   4.424   6.091
 4949SOL    HW215747   7.025   4.436   6.159
 4950SOL     OW15748   3.872   4.278   5.541
 4950SOL    HW115749   3.954   4.223   5.554
 4950SOL    HW215750   3.895   4.362   5.491
 4951SOL     OW15751   4.914   5.665   2.741
 4951SOL    HW115752   4.942   5.569   2.748
 4951SOL    HW215753   4.865   5.679   2.654
 4952SOL     OW15754   0.971   0.652   6.954
 4952SOL    HW115755   0.997   0.723   6.889
 4952SOL    HW215756   0.891   0.682   7.007
 4953SOL     OW15757   1.329   2.176   5.106
 4953SOL    HW115758   1.244   2.217   5.073
 4953SOL    HW215759   1.397   2.176   5.033
 4954SOL     OW15760   2.821   3.855   5.169
 4954SOL    HW115761   2.736   3.861   5.221
 4954SOL    HW215762   2.857   3.762   5.174
 4955SOL     OW15763   3.643   5.856   6.111
 4955SOL    HW115764   3.600   5.945   6.127
 4955SOL    HW215765   3.669   5.815   6.199
 4956SOL     OW15766   3.050   0.164   4.967
 4956SOL    HW115767   3.034   0.154   5.065
 4956SOL    HW215768   3.130   0.110   4.940
 4957SOL     OW15769   5.591   4.693   0.045
 4957SOL    HW115770   5.525   4.627   0.007
 4957SOL    HW215771   5.684   4.658   0.034
 4958SOL     OW15772   3.711   5.291   0.998
 4958SOL    HW115773   3.629   5.343   0.974
 4958SOL    HW215774   3.767   5.277   0.916
 4959SOL     OW15775   0.042   2.769   2.788
 4959SOL    HW115776   0.049   2.693   2.853
 4959SOL    HW215777   0.106   2.841   2.815
 4960SOL     OW15778   5.036   4.403   3.888
 4960SOL    HW115779   4.984   4.406   3.973
 4960SOL    HW215780   5.121   4.352   3.903
 4961SOL     OW15781   3.389   2.372   1.726
 4961SOL    HW115782   3.336   2.456   1.729
 4961SOL    HW215783   3.479   2.388   1.766
 4962SOL     OW15784   1.403   3.066   0.235
 4962SOL    HW115785   1.368   2.988   0.286
 4962SOL    HW215786   1.503   3.068   0.241
 4963SOL     OW15787   0.521   3.790   5.639
 4963SOL    HW115788   0.573   3.872   5.663
 4963SOL    HW215789   0.585   3.717   5.612
 4964SOL     OW15790   2.282   5.547   4.798
 4964SOL    HW115791   2.253   5.593   4.714
 4964SOL    HW215792   2.206   5.543   4.862
 4965SOL     OW15793   1.315   6.442   3.474
 4965SOL    HW115794   1.331   6.378   3.400
 4965SOL    HW215795   1.313   6.535   3.438
 4966SOL     OW15796   3.624   6.647   4.408
 4966SOL    HW115797   3.568   6.711   4.355
 4966SOL    HW215798   3.633   6.561   4.357
 4967SOL     OW15799   4.124   4.782   4.404
 4967SOL    HW115800   4.073   4.796   4.490
 4967SOL    HW215801   4.222   4.775   4.424
 4968SOL     OW15802   0.279   2.750   3.334
 4968SOL    HW115803   0.187   2.715   3.324
 4968SOL    HW215804   0.300   2.763   3.431
 4969SOL     OW15805   0.254   5.881   4.104
 4969SOL    HW115806   0.340   5.848   4.141
 4969SOL    HW215807   0.264   5.898   4.006
 4970SOL     OW15808   2.088   1.768   1.336
 4970SOL    HW115809   2.043   1.679   1.331
 4970SOL    HW215810   2.126   1.782   1.428
 4971SOL     OW15811   0.180   5.910   2.087
 4971SOL    HW115812   0.083   5.935   2.080
 4971SOL    HW215813   0.235   5.976   2.036
 4972SOL     OW15814   0.968   4.055   0.338
 4972SOL    HW115815   0.943   4.133   0.279
 4972SOL    HW215816   0.971   3.972   0.283
 4973SOL     OW15817   6.155   1.319   0.187
 4973SOL    HW115818   6.153   1.307   0.286
 4973SOL    HW215819   6.237   1.370   0.162
 4974SOL     OW15820   3.169   6.924   4.406
 4974SOL    HW115821   3.124   6.993   4.462
 4974SOL    HW215822   3.262   6.909   4.439
 4975SOL     OW15823   5.312   4.888   1.180
 4975SOL    HW115824   5.291   4.986   1.176
 4975SOL    HW215825   5.403   4.873   1.141
 4976SOL     OW15826   0.967   0.046   3.366
 4976SOL    HW115827   0.912   0.092   3.436
 4976SOL    HW215828   1.017   0.114   3.313
 4977SOL     OW15829   1.477   4.267   6.077
 4977SOL    HW115830   1.509   4.189   6.024
 4977SOL    HW215831   1.517   4.265   6.168
 4978SOL     OW15832   6.288   4.388   4.337
 4978SOL    HW115833   6.313   4.412   4.430
 4978SOL    HW215834   6.237   4.301   4.336
 4979SOL     OW15835   2.204   6.814   6.432
 4979SOL    HW115836   2.169   6.723   6.410
 4979SOL    HW215837   2.247   6.812   6.522
 4980SOL     OW15838   5.531   2.571   3.953
 4980SOL    HW115839   5.532   2.482   3.997
 4980SOL    HW215840   5.616   2.585   3.902
 4981SOL     OW15841   3.512   5.457   3.060
 4981SOL    HW115842   3.512   5.367   3.017
 4981SOL    HW215843   3.481   5.525   2.993
 4982SOL     OW15844   3.718   2.378   5.436
 4982SOL    HW115845   3.660   2.459   5.436
 4982SOL    HW215846   3.813   2.404   5.418
 4983SOL     OW15847   5.806   4.527   2.540
 4983SOL    HW115848   5.847   4.612   2.508
 4983SOL    HW215849   5.736   4.547   2.609
 4984SOL     OW15850   4.869   3.748   4.359
 4984SOL    HW115851   4.952   3.738   4.414
 4984SOL    HW215852   4.859   3.667   4.300
 4985SOL     OW15853   5.552   0.542   2.232
 4985SOL    HW115854   5.461   0.510   2.258
 4985SOL    HW215855   5.593   0.590   2.310
 4986SOL     OW15856   0.952   5.184   1.159
 4986SOL    HW115857   1.041   5.213   1.122
 4986SOL    HW215858   0.945   5.085   1.156
 4987SOL     OW15859   2.143   1.604   2.810
 4987SOL    HW115860   2.166   1.520   2.859
 4987SOL    HW215861   2.135   1.585   2.713
 4988SOL     OW15862   6.293   5.810   3.779
 4988SOL    HW115863   6.214   5.850   3.732
 4988SOL    HW215864   6.308   5.859   3.865
 4989SOL     OW15865   5.523   0.094   3.638
 4989SOL    HW115866   5.618   0.109   3.666
 4989SOL    HW215867   5.471   0.059   3.716
 4990SOL     OW15868   4.423   1.958   6.242
 4990SOL    HW115869   4.407   1.864   6.274
 4990SOL    HW215870   4.518   1.983   6.260
 4991SOL     OW15871   2.057   5.315   5.651
 4991SOL    HW115872   2.026   5.243   5.589
 4991SOL    HW215873   2.129   5.280   5.711
 4992SOL     OW15874   1.353   3.528   3.859
 4992SOL    HW115875   1.407   3.509   3.777
 4992SOL    HW215876   1.333   3.442   3.906
 4993SOL     OW15877   2.101   5.978   3.859
 4993SOL    HW115878   2.016   6.029   3.874
 4993SOL    HW215879   2.131   5.990   3.765
 4994SOL     OW15880   3.826   4.804   5.264
 4994SOL    HW115881   3.749   4.800   5.328
 4994SOL    HW215882   3.806   4.871   5.192
 4995SOL     OW15883   0.029   0.726   6.002
 4995SOL    HW115884   0.097   0.755   5.935
 4995SOL    HW215885   7.014   0.640   5.973
 4996SOL     OW15886   0.310   1.228   3.611
 4996SOL    HW115887   0.228   1.180   3.642
 4996SOL    HW215888   0.354   1.175   3.538
 4997SOL     OW15889   4.119   1.394   0.637
 4997SOL    HW115890   4.158   1.336   0.566
 4997SOL    HW215891   4.190   1.417   0.703
 4998SOL     OW15892   0.541   3.782   3.276
 4998SOL    HW115893   0.526   3.865   3.329
 4998SOL    HW215894   0.624   3.792   3.221
 4999SOL     OW15895   0.670   2.892   3.394
 4999SOL    HW115896   0.649   2.841   3.310
 4999SOL    HW215897   0.676   2.828   3.471
 5000SOL     OW15898   2.300   6.079   2.813
 5000SOL    HW115899   2.384   6.056   2.763
 5000SOL    HW215900   2.281   6.176   2.802
 5001SOL     OW15901   0.385   6.162   2.919
 5001SOL    HW115902   0.424   6.098   2.853
 5001SOL    HW215903   0.315   6.115   2.973
 5002SOL     OW15904   1.390   4.760   3.936
 5002SOL    HW115905   1.314   4.800   3.886
 5002SOL    HW215906   1.361   4.738   4.029
 5003SOL     OW15907   4.024   0.432   3.123
 5003SOL    HW115908   4.083   0.484   3.061
 5003SOL    HW215909   3.934   0.475   3.127
 5004SOL     OW15910   3.964   6.215   0.049
 5004SOL    HW115911   3.925   6.132   0.010
 5004SOL    HW215912   4.052   6.193   0.091
 5005SOL     OW15913   2.925   2.908   0.397
 5005SOL    HW115914   2.883   2.988   0.356
 5005SOL    HW215915   2.974   2.934   0.480
 5006SOL     OW15916   4.782   1.354   2.357
 5006SOL    HW115917   4.860   1.415   2.369
 5006SOL    HW215918   4.771   1.298   2.439
 5007SOL     OW15919   5.653   5.775   2.086
 5007SOL    HW115920   5.683   5.707   2.153
 5007SOL    HW215921   5.553   5.783   2.090
 5008SOL     OW15922   5.549   0.584   3.316
 5008SOL    HW115923   5.541   0.500   3.370
 5008SOL    HW215924   5.636   0.628   3.334
 5009SOL     OW15925   6.921   2.485   0.823
 5009SOL    HW115926   6.932   2.442   0.912
 5009SOL    HW215927   6.872   2.423   0.762
 5010SOL     OW15928   3.885   3.760   0.939
 5010SOL    HW115929   3.871   3.720   1.030
 5010SOL    HW215930   3.873   3.689   0.870
 5011SOL     OW15931   1.539   2.797   6.942
 5011SOL    HW115932   1.582   2.786   6.852
 5011SOL    HW215933   1.487   2.883   6.943
 5012SOL     OW15934   6.264   1.675   6.557
 5012SOL    HW115935   6.293   1.693   6.463
 5012SOL    HW215936   6.178   1.722   6.575
 5013SOL     OW15937   5.678   0.390   5.851
 5013SOL    HW115938   5.644   0.480   5.825
 5013SOL    HW215939   5.759   0.400   5.909
 5014SOL     OW15940   5.736   3.219   1.521
 5014SOL    HW115941   5.673   3.148   1.551
 5014SOL    HW215942   5.822   3.212   1.573
 5015SOL     OW15943   6.340   5.932   4.025
 5015SOL    HW115944   6.408   5.880   4.076
 5015SOL    HW215945   6.341   6.028   4.055
 5016SOL     OW15946   1.941   3.655   5.723
 5016SOL    HW115947   1.947   3.582   5.792
 5016SOL    HW215948   1.853   3.701   5.730
 5017SOL     OW15949   0.417   3.142   1.756
 5017SOL    HW115950   0.488   3.074   1.736
 5017SOL    HW215951   0.352   3.104   1.822
 5018SOL     OW15952   0.966   0.387   6.770
 5018SOL    HW115953   1.016   0.465   6.808
 5018SOL    HW215954   0.901   0.420   6.702
 5019SOL     OW15955   1.372   4.618   4.272
 5019SOL    HW115956   1.418   4.530   4.283
 5019SOL    HW215957   1.439   4.692   4.272
 5020SOL     OW15958   2.150   0.202   4.883
 5020SOL    HW115959   2.119   0.150   4.803
 5020SOL    HW215960   2.244   0.178   4.904
 5021SOL     OW15961   1.866   0.847   0.888
 5021SOL    HW115962   1.894   0.758   0.853
 5021SOL    HW215963   1.871   0.915   0.815
 5022SOL     OW15964   6.979   2.778   1.209
 5022SOL    HW115965   0.019   2.712   1.175
 5022SOL    HW215966   6.930   2.740   1.287
 5023SOL     OW15967   0.476   4.319   2.537
 5023SOL    HW115968   0.390   4.308   2.588
 5023SOL    HW215969   0.493   4.417   2.522
 5024SOL     OW15970   4.832   3.874   0.797
 5024SOL    HW115971   4.890   3.810   0.748
 5024SOL    HW215972   4.848   3.866   0.896
 5025SOL     OW15973   4.611   1.498   4.787
 5025SOL    HW115974   4.700   1.532   4.756
 5025SOL    HW215975   4.606   1.503   4.887
 5026SOL     OW15976   5.181   6.977   4.491
 5026SOL    HW115977   5.129   6.921   4.556
 5026SOL    HW215978   5.250   6.920   4.446
 5027SOL     OW15979   5.220   5.938   0.981
 5027SOL    HW115980   5.281   6.017   0.975
 5027SOL    HW215981   5.165   5.945   1.065
 5028SOL     OW15982   6.037   1.785   2.049
 5028SOL    HW115983   6.132   1.753   2.050
 5028SOL    HW215984   6.016   1.827   1.961
 5029SOL     OW15985   5.907   1.833   1.814
 5029SOL    HW115986   5.813   1.836   1.847
 5029SOL    HW215987   5.911   1.780   1.729
 5030SOL     OW15988   0.589   4.150   6.321
 5030SOL    HW115989   0.661   4.168   6.254
 5030SOL    HW215990   0.625   4.162   6.413
 5031SOL     OW15991   6.255   7.004   6.134
 5031SOL    HW115992   6.351   0.006   6.137
 5031SOL    HW215993   6.211   0.018   6.054
 5032SOL     OW15994   3.262   3.264   5.733
 5032SOL    HW115995   3.191   3.327   5.703
 5032SOL    HW215996   3.235   3.170   5.714
 5033SOL     OW15997   2.169   0.263   6.195
 5033SOL    HW115998   2.267   0.270   6.217
 5033SOL    HW215999   2.143   0.339   6.135
 5034SOL     OW16000   4.372   6.291   4.625
 5034SOL    HW116001   4.418   6.276   4.713
 5034SOL    HW216002   4.277   6.260   4.633
 5035SOL     OW16003   2.120   3.244   3.934
 5035SOL    HW116004   2.156   3.171   3.991
 5035SOL    HW216005   2.135   3.222   3.838
 5036SOL     OW16006   0.723   2.612   4.555
 5036SOL    HW116007   0.800   2.553   4.531
 5036SOL    HW216008   0.754   2.685   4.616
 5037SOL     OW16009   4.309   4.096   1.023
 5037SOL    HW116010   4.215   4.127   1.035
 5037SOL    HW216011   4.309   4.005   0.981
 5038SOL     OW16012   3.578   3.763   3.684
 5038SOL    HW116013   3.632   3.753   3.600
 5038SOL    HW216014   3.632   3.730   3.762
 5039SOL     OW16015   1.247   3.953   6.318
 5039SOL    HW116016   1.297   3.960   6.404
 5039SOL    HW216017   1.306   3.913   6.248
 5040SOL     OW16018   0.026   1.355   5.729
 5040SOL    HW116019   7.011   1.290   5.793
 5040SOL    HW216020   0.109   1.392   5.768
 5041SOL     OW16021   6.904   2.291   1.059
 5041SOL    HW116022   6.961   2.212   1.083
 5041SOL    HW216023   6.943   2.374   1.099
 5042SOL     OW16024   1.228   2.674   6.400
 5042SOL    HW116025   1.280   2.661   6.316
 5042SOL    HW216026   1.284   2.722   6.467
 5043SOL     OW16027   3.340   6.775   1.856
 5043SOL    HW116028   3.298   6.859   1.890
 5043SOL    HW216029   3.439   6.778   1.872
 5044SOL     OW16030   6.459   5.005   0.194
 5044SOL    HW116031   6.411   4.979   0.110
 5044SOL    HW216032   6.393   5.043   0.259
 5045SOL     OW16033   5.899   2.651   6.686
 5045SOL    HW116034   5.866   2.579   6.625
 5045SOL    HW216035   5.928   2.730   6.632
 5046SOL     OW16036   3.625   3.317   2.710
 5046SOL    HW116037   3.584   3.359   2.629
 5046SOL    HW216038   3.687   3.244   2.681
 5047SOL     OW16039   2.164   3.520   3.779
 5047SOL    HW116040   2.185   3.606   3.827
 5047SOL    HW216041   2.148   3.448   3.846
 5048SOL     OW16042   2.358   0.884   6.047
 5048SOL    HW116043   2.438   0.926   6.004
 5048SOL    HW216044   2.378   0.789   6.069
 5049SOL     OW16045   4.352   1.561   6.535
 5049SOL    HW116046   4.359   1.461   6.536
 5049SOL    HW216047   4.432   1.601   6.579
 5050SOL     OW16048   1.716   0.251   0.817
 5050SOL    HW116049   1.758   0.299   0.894
 5050SOL    HW216050   1.787   0.205   0.763
 5051SOL     OW16051   4.830   4.996   1.411
 5051SOL    HW116052   4.777   5.062   1.358
 5051SOL    HW216053   4.854   4.918   1.353
 5052SOL     OW16054   2.663   1.633   5.190
 5052SOL    HW116055   2.622   1.591   5.271
 5052SOL    HW216056   2.706   1.720   5.215
 5053SOL     OW16057   6.870   1.007   1.746
 5053SOL    HW116058   6.870   1.080   1.678
 5053SOL    HW216059   6.867   1.047   1.838
 5054SOL     OW16060   3.653   5.377   3.965
 5054SOL    HW116061   3.568   5.337   4.000
 5054SOL    HW216062   3.717   5.391   4.040
 5055SOL     OW16063   0.012   3.887   6.084
 5055SOL    HW116064   0.105   3.892   6.121
 5055SOL    HW216065   0.007   3.941   6.000
 5056SOL     OW16066   5.909   4.124   4.096
 5056SOL    HW116067   5.985   4.145   4.034
 5056SOL    HW216068   5.829   4.099   4.042
 5057SOL     OW16069   1.120   5.523   2.265
 5057SOL    HW116070   1.176   5.459   2.212
 5057SOL    HW216071   1.166   5.611   2.269
 5058SOL     OW16072   2.863   5.384   5.694
 5058SOL    HW116073   2.941   5.327   5.718
 5058SOL    HW216074   2.846   5.451   5.766
 5059SOL     OW16075   6.954   0.253   2.278
 5059SOL    HW116076   6.999   0.341   2.263
 5059SOL    HW216077   6.891   0.234   2.202
 5060SOL     OW16078   6.880   2.381   5.998
 5060SOL    HW116079   6.788   2.347   5.978
 5060SOL    HW216080   6.895   2.381   6.097
 5061SOL     OW16081   5.281   4.770   0.496
 5061SOL    HW116082   5.212   4.824   0.448
 5061SOL    HW216083   5.259   4.673   0.489
 5062SOL     OW16084   6.727   0.584   1.053
 5062SOL    HW116085   6.731   0.651   1.127
 5062SOL    HW216086   6.820   0.565   1.021
 5063SOL     OW16087   1.509   5.947   2.133
 5063SOL    HW116088   1.554   6.005   2.201
 5063SOL    HW216089   1.487   6.002   2.052
 5064SOL     OW16090   5.089   3.377   0.205
 5064SOL    HW116091   5.018   3.326   0.157
 5064SOL    HW216092   5.141   3.431   0.140
 5065SOL     OW16093   2.737   6.916   5.698
 5065SOL    HW116094   2.685   6.848   5.750
 5065SOL    HW216095   2.829   6.923   5.736
 5066SOL     OW16096   4.765   4.785   1.028
 5066SOL    HW116097   4.681   4.839   1.037
 5066SOL    HW216098   4.798   4.759   1.119
 5067SOL     OW16099   5.520   0.932   6.587
 5067SOL    HW116100   5.485   0.857   6.529
 5067SOL    HW216101   5.479   1.018   6.557
 5068SOL     OW16102   3.482   5.188   1.729
 5068SOL    HW116103   3.387   5.167   1.707
 5068SOL    HW216104   3.487   5.228   1.821
 5069SOL     OW16105   0.158   5.036   2.871
 5069SOL    HW116106   0.147   5.049   2.970
 5069SOL    HW216107   0.237   5.089   2.839
 5070SOL     OW16108   4.901   3.502   4.287
 5070SOL    HW116109   5.001   3.496   4.281
 5070SOL    HW216110   4.874   3.500   4.383
 5071SOL     OW16111   3.945   0.742   6.997
 5071SOL    HW116112   3.961   0.649   0.005
 5071SOL    HW216113   3.914   0.737   6.903
 5072SOL     OW16114   1.224   4.371   1.332
 5072SOL    HW116115   1.311   4.413   1.358
 5072SOL    HW216116   1.241   4.290   1.276
 5073SOL     OW16117   4.369   2.087   4.541
 5073SOL    HW116118   4.295   2.062   4.479
 5073SOL    HW216119   4.378   2.017   4.612
 5074SOL     OW16120   3.572   5.004   5.405
 5074SOL    HW116121   3.636   5.077   5.380
 5074SOL    HW216122   3.525   5.028   5.490
 5075SOL     OW16123   6.737   6.777   4.051
 5075SOL    HW116124   6.644   6.788   4.085
 5075SOL    HW216125   6.768   6.684   4.068
 5076SOL     OW16126   3.865   0.617   0.686
 5076SOL    HW116127   3.954   0.575   0.701
 5076SOL    HW216128   3.811   0.561   0.624
 5077SOL     OW16129   0.140   2.471   2.225
 5077SOL    HW116130   0.148   2.411   2.146
 5077SOL    HW216131   0.221   2.529   2.232
 5078SOL     OW16132   0.226   0.908   3.579
 5078SOL    HW116133   0.189   0.958   3.658
 5078SOL    HW216134   0.166   0.923   3.500
 5079SOL     OW16135   3.735   5.308   4.536
 5079SOL    HW116136   3.778   5.219   4.549
 5079SOL    HW216137   3.637   5.295   4.516
 5080SOL     OW16138   5.908   6.952   5.802
 5080SOL    HW116139   5.812   6.948   5.830
 5080SOL    HW216140   5.921   0.002   5.738
 5081SOL     OW16141   3.258   3.397   2.793
 5081SOL    HW116142   3.349   3.435   2.774
 5081SOL    HW216143   3.257   3.360   2.886
 5082SOL     OW16144   6.676   0.311   6.316
 5082SOL    HW116145   6.754   0.254   6.341
 5082SOL    HW216146   6.708   0.396   6.275
 5083SOL     OW16147   1.374   5.447   2.118
 5083SOL    HW116148   1.306   5.473   2.049
 5083SOL    HW216149   1.425   5.529   2.146
 5084SOL     OW16150   2.086   5.986   2.598
 5084SOL    HW116151   1.988   5.971   2.610
 5084SOL    HW216152   2.120   6.045   2.672
 5085SOL     OW16153   6.728   3.069   6.286
 5085SOL    HW116154   6.757   3.035   6.196
 5085SOL    HW216155   6.802   3.122   6.327
 5086SOL     OW16156   6.997   4.960   3.899
 5086SOL    HW116157   7.003   5.060   3.902
 5086SOL    HW216158   6.969   4.932   3.807
 5087SOL     OW16159   0.129   5.427   5.129
 5087SOL    HW116160   0.152   5.524   5.131
 5087SOL    HW216161   0.031   5.415   5.144
 5088SOL     OW16162   6.068   0.590   6.776
 5088SOL    HW116163   6.138   0.630   6.835
 5088SOL    HW216164   6.099   0.501   6.743
 5089SOL     OW16165   5.294   2.520   3.818
 5089SOL    HW116166   5.209   2.503   3.868
 5089SOL    HW216167   5.372   2.489   3.874
 5090SOL     OW16168   1.307   4.715   0.708
 5090SOL    HW116169   1.353   4.638   0.753
 5090SOL    HW216170   1.210   4.714   0.732
 5091SOL     OW16171   1.333   6.749   3.431
 5091SOL    HW116172   1.403   6.793   3.487
 5091SOL    HW216173   1.243   6.776   3.463
 5092SOL     OW16174   3.851   2.874   1.448
 5092SOL    HW116175   3.753   2.894   1.438
 5092SOL    HW216176   3.862   2.778   1.474
 5093SOL     OW16177   0.907   1.562   0.677
 5093SOL    HW116178   0.853   1.639   0.645
 5093SOL    HW216179   0.851   1.505   0.737
 5094SOL     OW16180   6.446   0.343   6.531
 5094SOL    HW116181   6.530   0.360   6.479
 5094SOL    HW216182   6.375   0.405   6.500
 5095SOL     OW16183   3.362   0.234   5.459
 5095SOL    HW116184   3.414   0.148   5.462
 5095SOL    HW216185   3.341   0.256   5.364
 5096SOL     OW16186   4.105   5.589   2.924
 5096SOL    HW116187   4.159   5.569   3.005
 5096SOL    HW216188   4.077   5.503   2.880
 5097SOL     OW16189   0.718   1.134   6.293
 5097SOL    HW116190   0.778   1.208   6.324
 5097SOL    HW216191   0.742   1.049   6.341
 5098SOL     OW16192   6.759   2.724   2.487
 5098SOL    HW116193   6.761   2.782   2.569
 5098SOL    HW216194   6.824   2.649   2.498
 5099SOL     OW16195   1.177   0.067   4.558
 5099SOL    HW116196   1.225   7.021   4.607
 5099SOL    HW216197   1.223   0.155   4.574
 5100SOL     OW16198   4.668   5.707   6.296
 5100SOL    HW116199   4.708   5.779   6.239
 5100SOL    HW216200   4.709   5.619   6.272
 5101SOL     OW16201   4.063   6.085   0.640
 5101SOL    HW116202   4.002   6.120   0.711
 5101SOL    HW216203   4.021   6.096   0.551
 5102SOL     OW16204   4.105   5.461   3.957
 5102SOL    HW116205   4.050   5.458   4.041
 5102SOL    HW216206   4.047   5.483   3.879
 5103SOL     OW16207   1.426   1.030   4.451
 5103SOL    HW116208   1.427   1.019   4.351
 5103SOL    HW216209   1.333   1.014   4.485
 5104SOL     OW16210   1.121   6.978   1.171
 5104SOL    HW116211   1.129   0.018   1.246
 5104SOL    HW216212   1.082   7.023   1.091
 5105SOL     OW16213   2.466   2.870   6.455
 5105SOL    HW116214   2.376   2.912   6.447
 5105SOL    HW216215   2.535   2.932   6.416
 5106SOL     OW16216   3.031   0.052   2.229
 5106SOL    HW116217   3.008   0.118   2.300
 5106SOL    HW216218   3.012   6.986   2.262
 5107SOL     OW16219   1.016   0.510   6.150
 5107SOL    HW116220   0.987   0.429   6.099
 5107SOL    HW216221   1.115   0.511   6.158
 5108SOL     OW16222   2.876   3.608   3.644
 5108SOL    HW116223   2.962   3.578   3.602
 5108SOL    HW216224   2.859   3.704   3.619
 5109SOL     OW16225   0.267   1.289   1.918
 5109SOL    HW116226   0.283   1.309   2.014
 5109SOL    HW216227   0.203   1.356   1.880
 5110SOL     OW16228   2.148   5.807   5.048
 5110SOL    HW116229   2.145   5.814   5.148
 5110SOL    HW216230   2.236   5.768   5.021
 5111SOL     OW16231   1.798   1.197   6.746
 5111SOL    HW116232   1.702   1.219   6.759
 5111SOL    HW216233   1.821   1.204   6.648
 5112SOL     OW16234   0.446   0.129   3.522
 5112SOL    HW116235   0.533   0.111   3.568
 5112SOL    HW216236   0.425   0.055   3.459
 5113SOL     OW16237   0.580   6.817   6.508
 5113SOL    HW116238   0.546   6.817   6.602
 5113SOL    HW216239   0.672   6.856   6.505
 5114SOL     OW16240   4.376   5.232   6.599
 5114SOL    HW116241   4.364   5.182   6.513
 5114SOL    HW216242   4.313   5.196   6.667
 5115SOL     OW16243   2.105   3.994   4.853
 5115SOL    HW116244   2.050   3.922   4.897
 5115SOL    HW216245   2.162   4.038   4.922
 5116SOL     OW16246   6.931   3.292   1.031
 5116SOL    HW116247   6.862   3.335   0.972
 5116SOL    HW216248   7.020   3.296   0.987
 5117SOL     OW16249   2.420   4.802   3.560
 5117SOL    HW116250   2.370   4.721   3.530
 5117SOL    HW216251   2.507   4.773   3.601
 5118SOL     OW16252   4.634   6.768   1.668
 5118SOL    HW116253   4.560   6.760   1.602
 5118SOL    HW216254   4.721   6.746   1.624
 5119SOL     OW16255   6.421   0.090   2.494
 5119SOL    HW116256   6.408   0.014   2.557
 5119SOL    HW216257   6.501   0.143   2.523
 5120SOL     OW16258   3.662   1.673   2.494
 5120SOL    HW116259   3.625   1.634   2.410
 5120SOL    HW216260   3.724   1.748   2.471
 5121SOL     OW16261   1.508   2.996   4.448
 5121SOL    HW116262   1.579   3.041   4.501
 5121SOL    HW216263   1.543   2.977   4.356
 5122SOL     OW16264   2.449   6.029   3.480
 5122SOL    HW116265   2.506   5.952   3.508
 5122SOL    HW216266   2.472   6.110   3.534
 5123SOL     OW16267   6.259   4.119   1.740
 5123SOL    HW116268   6.267   4.020   1.733
 5123SOL    HW216269   6.304   4.163   1.662
 5124SOL     OW16270   2.845   6.120   0.918
 5124SOL    HW116271   2.793   6.074   0.989
 5124SOL    HW216272   2.869   6.055   0.846
 5125SOL     OW16273   6.964   2.389   5.710
 5125SOL    HW116274   7.001   2.336   5.634
 5125SOL    HW216275   6.997   2.351   5.797
 5126SOL     OW16276   4.553   2.406   6.767
 5126SOL    HW116277   4.490   2.331   6.789
 5126SOL    HW216278   4.502   2.493   6.765
 5127SOL     OW16279   5.472   3.370   6.814
 5127SOL    HW116280   5.559   3.405   6.779
 5127SOL    HW216281   5.433   3.307   6.747
 5128SOL     OW16282   0.126   6.863   6.938
 5128SOL    HW116283   0.122   6.913   6.852
 5128SOL    HW216284   0.218   6.870   6.976
 5129SOL     OW16285   5.008   2.481   3.143
 5129SOL    HW116286   4.965   2.402   3.099
 5129SOL    HW216287   4.951   2.562   3.128
 5130SOL     OW16288   1.013   6.422   5.180
 5130SOL    HW116289   0.963   6.437   5.095
 5130SOL    HW216290   0.962   6.462   5.256
 5131SOL     OW16291   3.932   4.873   3.589
 5131SOL    HW116292   3.978   4.858   3.676
 5131SOL    HW216293   3.973   4.814   3.519
 5132SOL     OW16294   3.250   1.643   6.560
 5132SOL    HW116295   3.300   1.594   6.632
 5132SOL    HW216296   3.291   1.732   6.545
 5133SOL     OW16297   4.841   4.905   6.547
 5133SOL    HW116298   4.811   4.910   6.642
 5133SOL    HW216299   4.917   4.841   6.539
 5134SOL     OW16300   6.242   5.766   0.436
 5134SOL    HW116301   6.274   5.798   0.347
 5134SOL    HW216302   6.163   5.819   0.465
 5135SOL     OW16303   6.656   2.671   2.123
 5135SOL    HW116304   6.653   2.619   2.037
 5135SOL    HW216305   6.679   2.610   2.198
 5136SOL     OW16306   1.053   1.603   5.378
 5136SOL    HW116307   1.009   1.561   5.299
 5136SOL    HW216308   1.135   1.652   5.348
 5137SOL     OW16309   5.640   0.367   3.111
 5137SOL    HW116310   5.727   0.417   3.115
 5137SOL    HW216311   5.565   0.427   3.139
 5138SOL     OW16312   3.527   2.854   2.385
 5138SOL    HW116313   3.476   2.931   2.346
 5138SOL    HW216314   3.574   2.804   2.312
 5139SOL     OW16315   3.155   0.203   5.649
 5139SOL    HW116316   3.242   0.199   5.600
 5139SOL    HW216317   3.082   0.228   5.585
 5140SOL     OW16318   3.389   3.713   6.513
 5140SOL    HW116319   3.359   3.618   6.502
 5140SOL    HW216320   3.484   3.722   6.481
 5141SOL     OW16321   0.844   2.489   1.249
 5141SOL    HW116322   0.912   2.446   1.307
 5141SOL    HW216323   0.761   2.434   1.248
 5142SOL     OW16324   0.762   0.105   2.247
 5142SOL    HW116325   0.700   0.155   2.308
 5142SOL    HW216326   0.833   0.167   2.213
 5143SOL     OW16327   0.267   6.265   2.504
 5143SOL    HW116328   0.277   6.183   2.561
 5143SOL    HW216329   0.235   6.341   2.560
 5144SOL     OW16330   2.351   2.947   5.381
 5144SOL    HW116331   2.404   2.948   5.296
 5144SOL    HW216332   2.304   3.034   5.392
 5145SOL     OW16333   2.533   5.615   5.705
 5145SOL    HW116334   2.540   5.558   5.623
 5145SOL    HW216335   2.475   5.694   5.687
 5146SOL     OW16336   5.432   5.838   6.939
 5146SOL    HW116337   5.486   5.784   7.003
 5146SOL    HW216338   5.479   5.844   6.851
 5147SOL     OW16339   5.325   2.010   3.620
 5147SOL    HW116340   5.339   2.096   3.570
 5147SOL    HW216341   5.228   2.001   3.643
 5148SOL     OW16342   6.727   1.070   0.256
 5148SOL    HW116343   6.801   1.132   0.230
 5148SOL    HW216344   6.683   1.034   0.174
 5149SOL     OW16345   4.194   5.794   3.954
 5149SOL    HW116346   4.217   5.765   4.047
 5149SOL    HW216347   4.096   5.779   3.938
 5150SOL     OW16348   6.418   0.212   3.773
 5150SOL    HW116349   6.340   0.203   3.711
 5150SOL    HW216350   6.460   0.302   3.761
 5151SOL     OW16351   5.520   5.492   1.884
 5151SOL    HW116352   5.602   5.464   1.934
 5151SOL    HW216353   5.508   5.591   1.891
 5152SOL     OW16354   2.161   1.633   0.198
 5152SOL    HW116355   2.065   1.614   0.175
 5152SOL    HW216356   2.172   1.730   0.221
 5153SOL     OW16357   1.471   1.777   0.651
 5153SOL    HW116358   1.410   1.813   0.722
 5153SOL    HW216359   1.498   1.850   0.589
 5154SOL     OW16360   0.436   2.592   0.721
 5154SOL    HW116361   0.426   2.552   0.812
 5154SOL    HW216362   0.532   2.613   0.704
 5155SOL     OW16363   1.663   1.982   0.199
 5155SOL    HW116364   1.572   2.006   0.165
 5155SOL    HW216365   1.699   1.906   0.144
 5156SOL     OW16366   5.750   5.439   5.307
 5156SOL    HW116367   5.715   5.487   5.226
 5156SOL    HW216368   5.693   5.462   5.386
 5157SOL     OW16369   3.487   0.932   1.884
 5157SOL    HW116370   3.573   0.970   1.917
 5157SOL    HW216371   3.506   0.847   1.834
 5158SOL     OW16372   1.573   2.283   2.040
 5158SOL    HW116373   1.501   2.238   1.987
 5158SOL    HW216374   1.651   2.221   2.050
 5159SOL     OW16375   6.377   3.395   6.136
 5159SOL    HW116376   6.432   3.320   6.173
 5159SOL    HW216377   6.426   3.439   6.061
 5160SOL     OW16378   6.530   6.994   3.905
 5160SOL    HW116379   6.507   0.057   3.867
 5160SOL    HW216380   6.620   6.997   3.947
 5161SOL     OW16381   0.858   2.133   0.170
 5161SOL    HW116382   0.898   2.111   0.081
 5161SOL    HW216383   0.880   2.228   0.195
 5162SOL     OW16384   0.022   0.068   5.068
 5162SOL    HW116385   0.088   7.023   5.091
 5162SOL    HW216386   0.068   0.156   5.063
 5163SOL     OW16387   3.232   7.011   2.001
 5163SOL    HW116388   3.156   6.997   2.064
 5163SOL    HW216389   3.199   0.033   1.919
 5164SOL     OW16390   2.806   3.964   0.211
 5164SOL    HW116391   2.749   3.929   0.286
 5164SOL    HW216392   2.753   3.966   0.127
 5165SOL     OW16393   1.839   4.985   5.939
 5165SOL    HW116394   1.750   5.029   5.925
 5165SOL    HW216395   1.859   4.927   5.860
 5166SOL     OW16396   0.130   5.022   6.803
 5166SOL    HW116397   0.194   4.946   6.788
 5166SOL    HW216398   0.180   5.100   6.840
 5167SOL     OW16399   5.346   3.425   5.404
 5167SOL    HW116400   5.292   3.508   5.392
 5167SOL    HW216401   5.364   3.411   5.501
 5168SOL     OW16402   4.334   1.872   3.018
 5168SOL    HW116403   4.384   1.803   3.069
 5168SOL    HW216404   4.254   1.900   3.070
 5169SOL     OW16405   5.582   5.399   4.356
 5169SOL    HW116406   5.598   5.489   4.396
 5169SOL    HW216407   5.666   5.367   4.311
 5170SOL     OW16408   2.073   4.414   6.248
 5170SOL    HW116409   2.080   4.478   6.325
 5170SOL    HW216410   2.144   4.435   6.181
 5171SOL     OW16411   2.087   6.755   5.887
 5171SOL    HW116412   2.012   6.817   5.909
 5171SOL    HW216413   2.174   6.796   5.915
 5172SOL     OW16414   5.930   5.818   6.005
 5172SOL    HW116415   5.945   5.736   6.060
 5172SOL    HW216416   6.018   5.851   5.971
 5173SOL     OW16417   4.321   6.005   4.876
 5173SOL    HW116418   4.364   5.988   4.964
 5173SOL    HW216419   4.333   6.101   4.850
 5174SOL     OW16420   2.104   6.623   2.559
 5174SOL    HW116421   2.116   6.641   2.461
 5174SOL    HW216422   2.193   6.630   2.605
 5175SOL     OW16423   2.739   2.909   6.632
 5175SOL    HW116424   2.650   2.889   6.590
 5175SOL    HW216425   2.778   2.990   6.589
 5176SOL     OW16426   6.172   5.929   6.532
 5176SOL    HW116427   6.198   5.986   6.611
 5176SOL    HW216428   6.164   5.987   6.451
 5177SOL     OW16429   5.974   6.602   0.509
 5177SOL    HW116430   6.006   6.689   0.470
 5177SOL    HW216431   6.045   6.533   0.498
 5178SOL     OW16432   0.715   4.440   1.444
 5178SOL    HW116433   0.648   4.472   1.377
 5178SOL    HW216434   0.770   4.517   1.477
 5179SOL     OW16435   5.073   5.823   3.088
 5179SOL    HW116436   5.101   5.854   3.178
 5179SOL    HW216437   5.154   5.807   3.031
 5180SOL     OW16438   1.386   4.516   2.425
 5180SOL    HW116439   1.365   4.429   2.470
 5180SOL    HW216440   1.485   4.527   2.420
 5181SOL     OW16441   6.483   1.350   5.957
 5181SOL    HW116442   6.497   1.357   6.056
 5181SOL    HW216443   6.395   1.306   5.939
 5182SOL     OW16444   2.062   6.357   2.554
 5182SOL    HW116445   2.054   6.456   2.565
 5182SOL    HW216446   2.153   6.328   2.584
 5183SOL     OW16447   4.505   2.375   3.440
 5183SOL    HW116448   4.505   2.324   3.355
 5183SOL    HW216449   4.599   2.389   3.471
 5184SOL     OW16450   1.904   1.514   3.659
 5184SOL    HW116451   1.919   1.556   3.569
 5184SOL    HW216452   1.912   1.584   3.730
 5185SOL     OW16453   0.072   0.220   2.680
 5185SOL    HW116454   0.165   0.211   2.714
 5185SOL    HW216455   0.021   0.284   2.738
 5186SOL     OW16456   6.016   3.134   6.417
 5186SOL    HW116457   5.986   3.155   6.510
 5186SOL    HW216458   5.997   3.038   6.397
 5187SOL     OW16459   1.184   4.618   5.105
 5187SOL    HW116460   1.155   4.563   5.184
 5187SOL    HW216461   1.190   4.714   5.132
 5188SOL     OW16462   6.377   0.669   2.297
 5188SOL    HW116463   6.394   0.743   2.362
 5188SOL    HW216464   6.452   0.666   2.230
 5189SOL     OW16465   4.635   6.167   6.897
 5189SOL    HW116466   4.725   6.205   6.919
 5189SOL    HW216467   4.600   6.209   6.814
 5190SOL     OW16468   1.994   4.229   0.375
 5190SOL    HW116469   1.939   4.289   0.317
 5190SOL    HW216470   1.955   4.228   0.467
 5191SOL     OW16471   2.564   4.563   1.941
 5191SOL    HW116472   2.571   4.548   1.842
 5191SOL    HW216473   2.655   4.581   1.978
 5192SOL     OW16474   0.824   4.965   2.732
 5192SOL    HW116475   0.912   5.014   2.733
 5192SOL    HW216476   0.759   5.015   2.789
 5193SOL     OW16477   4.802   1.028   5.191
 5193SOL    HW116478   4.705   1.051   5.201
 5193SOL    HW216479   4.812   0.956   5.123
 5194SOL     OW16480   4.377   1.171   5.356
 5194SOL    HW116481   4.287   1.128   5.348
 5194SOL    HW216482   4.440   1.127   5.293
 5195SOL     OW16483   0.525   0.676   5.622
 5195SOL    HW116484   0.493   0.770   5.635
 5195SOL    HW216485   0.577   0.670   5.536
 5196SOL     OW16486   5.336   6.640   3.286
 5196SOL    HW116487   5.323   6.611   3.191
 5196SOL    HW216488   5.287   6.578   3.347
 5197SOL     OW16489   0.804   2.801   4.718
 5197SOL    HW116490   0.892   2.767   4.753
 5197SOL    HW216491   0.740   2.810   4.794
 5198SOL     OW16492   6.024   4.947   3.158
 5198SOL    HW116493   5.949   4.912   3.102
 5198SOL    HW216494   6.062   4.873   3.213
 5199SOL     OW16495   0.013   4.240   0.586
 5199SOL    HW116496   0.087   4.210   0.646
 5199SOL    HW216497   0.040   4.324   0.538
 5200SOL     OW16498   6.386   3.490   5.223
 5200SOL    HW116499   6.401   3.407   5.277
 5200SOL    HW216500   6.459   3.555   5.241
 5201SOL     OW16501   0.793   6.062   4.697
 5201SOL    HW116502   0.853   6.140   4.683
 5201SOL    HW216503   0.731   6.053   4.619
 5202SOL     OW16504   0.940   4.502   2.032
 5202SOL    HW116505   0.896   4.419   2.067
 5202SOL    HW216506   0.994   4.544   2.104
 5203SOL     OW16507   6.215   3.032   6.802
 5203SOL    HW116508   6.128   3.059   6.760
 5203SOL    HW216509   6.201   2.948   6.855
 5204SOL     OW16510   4.853   5.098   6.340
 5204SOL    HW116511   4.772   5.156   6.326
 5204SOL    HW216512   4.830   5.024   6.403
 5205SOL     OW16513   2.248   0.069   0.082
 5205SOL    HW116514   2.156   0.090   0.116
 5205SOL    HW216515   2.240   0.024   7.019
 5206SOL     OW16516   0.464   3.961   5.310
 5206SOL    HW116517   0.538   3.947   5.243
 5206SOL    HW216518   0.399   4.028   5.274
 5207SOL     OW16519   1.925   4.290   3.456
 5207SOL    HW116520   2.022   4.305   3.474
 5207SOL    HW216521   1.877   4.273   3.543
 5208SOL     OW16522   4.834   0.578   6.721
 5208SOL    HW116523   4.742   0.582   6.681
 5208SOL    HW216524   4.886   0.658   6.690
 5209SOL     OW16525   5.894   5.670   3.356
 5209SOL    HW116526   5.823   5.727   3.398
 5209SOL    HW216527   5.984   5.701   3.388
 5210SOL     OW16528   5.039   4.207   3.046
 5210SOL    HW116529   5.024   4.108   3.047
 5210SOL    HW216530   4.996   4.248   3.126
 5211SOL     OW16531   3.091   4.077   2.088
 5211SOL    HW116532   3.048   3.991   2.114
 5211SOL    HW216533   3.079   4.144   2.161
 5212SOL     OW16534   1.103   0.430   0.084
 5212SOL    HW116535   1.044   0.501   0.046
 5212SOL    HW216536   1.050   0.373   0.147
 5213SOL     OW16537   4.285   2.359   6.157
 5213SOL    HW116538   4.360   2.330   6.216
 5213SOL    HW216539   4.308   2.445   6.112
 5214SOL     OW16540   5.409   1.859   0.269
 5214SOL    HW116541   5.458   1.788   0.219
 5214SOL    HW216542   5.361   1.919   0.205
 5215SOL     OW16543   5.421   4.962   3.131
 5215SOL    HW116544   5.502   4.983   3.186
 5215SOL    HW216545   5.341   5.006   3.173
 5216SOL     OW16546   4.660   5.875   1.608
 5216SOL    HW116547   4.714   5.949   1.568
 5216SOL    HW216548   4.697   5.787   1.577
 5217SOL     OW16549   3.021   5.051   3.561
 5217SOL    HW116550   2.951   5.116   3.529
 5217SOL    HW216551   2.978   4.979   3.616
 5218SOL     OW16552   1.823   0.294   4.271
 5218SOL    HW116553   1.869   0.237   4.339
 5218SOL    HW216554   1.797   0.382   4.313
 5219SOL     OW16555   2.400   6.887   0.709
 5219SOL    HW116556   2.465   6.839   0.769
 5219SOL    HW216557   2.447   6.914   0.625
 5220SOL     OW16558   1.321   0.023   1.809
 5220SOL    HW116559   1.320   0.114   1.850
 5220SOL    HW216560   1.247   6.995   1.847
 5221SOL     OW16561   4.422   1.135   6.212
 5221SOL    HW116562   4.434   1.206   6.282
 5221SOL    HW216563   4.436   1.174   6.122
 5222SOL     OW16564   0.780   0.212   2.871
 5222SOL    HW116565   0.799   0.307   2.894
 5222SOL    HW216566   0.753   0.162   2.953
 5223SOL     OW16567   4.881   6.433   0.627
 5223SOL    HW116568   4.886   6.531   0.609
 5223SOL    HW216569   4.786   6.402   0.620
 5224SOL     OW16570   5.034   1.396   3.111
 5224SOL    HW116571   5.002   1.399   3.016
 5224SOL    HW216572   4.961   1.426   3.172
 5225SOL     OW16573   6.492   6.714   5.652
 5225SOL    HW116574   6.588   6.688   5.658
 5225SOL    HW216575   6.465   6.723   5.556
 5226SOL     OW16576   2.445   6.481   4.109
 5226SOL    HW116577   2.454   6.566   4.162
 5226SOL    HW216578   2.399   6.502   4.023
 5227SOL     OW16579   4.890   3.417   3.648
 5227SOL    HW116580   4.859   3.382   3.737
 5227SOL    HW216581   4.966   3.481   3.662
 5228SOL     OW16582   5.104   0.725   1.296
 5228SOL    HW116583   5.159   0.707   1.215
 5228SOL    HW216584   5.021   0.669   1.293
 5229SOL     OW16585   1.040   4.083   4.197
 5229SOL    HW116586   1.041   4.144   4.277
 5229SOL    HW216587   0.947   4.078   4.161
 5230SOL     OW16588   1.453   6.069   6.425
 5230SOL    HW116589   1.373   6.062   6.366
 5230SOL    HW216590   1.464   6.163   6.456
 5231SOL     OW16591   3.706   3.832   3.115
 5231SOL    HW116592   3.795   3.806   3.152
 5231SOL    HW216593   3.713   3.921   3.070
 5232SOL     OW16594   4.882   3.033   5.073
 5232SOL    HW116595   4.971   3.077   5.059
 5232SOL    HW216596   4.833   3.030   4.985
 5233SOL     OW16597   0.569   0.539   2.805
 5233SOL    HW116598   0.562   0.636   2.828
 5233SOL    HW216599   0.647   0.499   2.852
 5234SOL     OW16600   4.070   5.395   1.484
 5234SOL    HW116601   4.095   5.467   1.419
 5234SOL    HW216602   4.135   5.396   1.561
 5235SOL     OW16603   1.117   3.624   1.291
 5235SOL    HW116604   1.133   3.563   1.369
 5235SOL    HW216605   1.187   3.610   1.222
 5236SOL     OW16606   5.341   3.699   1.404
 5236SOL    HW116607   5.419   3.666   1.458
 5236SOL    HW216608   5.375   3.739   1.319
 5237SOL     OW16609   1.919   1.678   4.042
 5237SOL    HW116610   1.847   1.733   4.084
 5237SOL    HW216611   1.942   1.601   4.103
 5238SOL     OW16612   2.115   3.941   1.176
 5238SOL    HW116613   2.150   4.035   1.174
 5238SOL    HW216614   2.017   3.941   1.162
 5239SOL     OW16615   3.355   3.207   5.114
 5239SOL    HW116616   3.310   3.118   5.118
 5239SOL    HW216617   3.387   3.233   5.205
 5240SOL     OW16618   2.999   1.865   4.904
 5240SOL    HW116619   3.082   1.907   4.939
 5240SOL    HW216620   3.006   1.765   4.913
 5241SOL     OW16621   2.794   5.827   5.691
 5241SOL    HW116622   2.762   5.786   5.606
 5241SOL    HW216623   2.716   5.846   5.750
 5242SOL     OW16624   4.606   0.362   5.408
 5242SOL    HW116625   4.658   0.423   5.468
 5242SOL    HW216626   4.584   0.278   5.457
 5243SOL     OW16627   0.489   3.872   0.137
 5243SOL    HW116628   0.543   3.941   0.089
 5243SOL    HW216629   0.435   3.916   0.209
 5244SOL     OW16630   6.087   3.613   7.012
 5244SOL    HW116631   6.045   3.703   7.008
 5244SOL    HW216632   6.165   3.615   0.048
 5245SOL     OW16633   4.664   4.727   6.383
 5245SOL    HW116634   4.744   4.769   6.426
 5245SOL    HW216635   4.625   4.790   6.316
 5246SOL     OW16636   0.933   3.222   2.830
 5246SOL    HW116637   0.903   3.225   2.734
 5246SOL    HW216638   0.862   3.260   2.889
 5247SOL     OW16639   0.127   5.087   0.910
 5247SOL    HW116640   0.215   5.128   0.933
 5247SOL    HW216641   0.139   5.018   0.838
 5248SOL     OW16642   4.959   0.171   0.138
 5248SOL    HW116643   4.908   0.087   0.118
 5248SOL    HW216644   4.894   0.246   0.152
 5249SOL     OW16645   1.037   5.653   5.860
 5249SOL    HW116646   1.039   5.632   5.762
 5249SOL    HW216647   0.966   5.720   5.879
 5250SOL     OW16648   0.973   1.654   5.713
 5250SOL    HW116649   0.948   1.564   5.675
 5250SOL    HW216650   1.023   1.706   5.645
 5251SOL     OW16651   1.105   3.173   1.334
 5251SOL    HW116652   1.073   3.256   1.288
 5251SOL    HW216653   1.078   3.093   1.280
 5252SOL     OW16654   4.680   6.479   1.236
 5252SOL    HW116655   4.700   6.489   1.333
 5252SOL    HW216656   4.757   6.512   1.182
 5253SOL     OW16657   6.069   2.662   3.054
 5253SOL    HW116658   6.102   2.744   3.099
 5253SOL    HW216659   5.976   2.642   3.083
 5254SOL     OW16660   4.592   0.749   4.416
 5254SOL    HW116661   4.649   0.794   4.485
 5254SOL    HW216662   4.648   0.729   4.335
 5255SOL     OW16663   3.256   6.168   4.298
 5255SOL    HW116664   3.208   6.184   4.212
 5255SOL    HW216665   3.244   6.247   4.358
 5256SOL     OW16666   5.689   6.393   2.141
 5256SOL    HW116667   5.719   6.472   2.195
 5256SOL    HW216668   5.645   6.326   2.202
 5257SOL     OW16669   3.393   0.892   3.107
 5257SOL    HW116670   3.442   0.869   3.191
 5257SOL    HW216671   3.390   0.991   3.097
 5258SOL     OW16672   5.589   2.129   1.700
 5258SOL    HW116673   5.567   2.102   1.794
 5258SOL    HW216674   5.636   2.217   1.702
 5259SOL     OW16675   5.506   4.504   1.605
 5259SOL    HW116676   5.438   4.431   1.611
 5259SOL    HW216677   5.459   4.591   1.589
 5260SOL     OW16678   5.138   3.319   2.188
 5260SOL    HW116679   5.098   3.228   2.203
 5260SOL    HW216680   5.066   3.382   2.158
 5261SOL     OW16681   2.559   2.597   4.908
 5261SOL    HW116682   2.554   2.607   5.007
 5261SOL    HW216683   2.634   2.653   4.873
 5262SOL     OW16684   2.342   0.272   2.104
 5262SOL    HW116685   2.340   0.313   2.012
 5262SOL    HW216686   2.431   0.228   2.118
 5263SOL     OW16687   0.428   6.426   0.473
 5263SOL    HW116688   0.478   6.513   0.472
 5263SOL    HW216689   0.443   6.379   0.560
 5264SOL     OW16690   0.639   1.760   0.995
 5264SOL    HW116691   0.738   1.749   0.986
 5264SOL    HW216692   0.608   1.719   1.081
 5265SOL     OW16693   5.645   5.136   2.675
 5265SOL    HW116694   5.636   5.109   2.771
 5265SOL    HW216695   5.618   5.060   2.616
 5266SOL     OW16696   0.894   6.683   1.618
 5266SOL    HW116697   0.855   6.712   1.531
 5266SOL    HW216698   0.916   6.585   1.614
 5267SOL     OW16699   5.150   3.634   5.465
 5267SOL    HW116700   5.123   3.584   5.547
 5267SOL    HW216701   5.074   3.636   5.400
 5268SOL     OW16702   5.964   5.504   5.145
 5268SOL    HW116703   5.929   5.460   5.063
 5268SOL    HW216704   5.901   5.488   5.221
 5269SOL     OW16705   1.554   4.397   5.697
 5269SOL    HW116706   1.614   4.376   5.619
 5269SOL    HW216707   1.598   4.369   5.782
 5270SOL     OW16708   6.392   2.695   2.753
 5270SOL    HW116709   6.434   2.660   2.669
 5270SOL    HW216710   6.385   2.794   2.748
 5271SOL     OW16711   5.207   4.334   5.388
 5271SOL    HW116712   5.116   4.316   5.351
 5271SOL    HW216713   5.263   4.381   5.320
 5272SOL     OW16714   1.785   1.003   4.180
 5272SOL    HW116715   1.781   0.905   4.196
 5272SOL    HW216716   1.811   1.020   4.085
 5273SOL     OW16717   0.495   0.676   4.644
 5273SOL    HW116718   0.584   0.721   4.652
 5273SOL    HW216719   0.437   0.728   4.581
 5274SOL     OW16720   0.236   5.771   4.559
 5274SOL    HW116721   0.326   5.742   4.592
 5274SOL    HW216722   0.247   5.841   4.488
 5275SOL     OW16723   1.520   6.078   6.888
 5275SOL    HW116724   1.495   6.139   6.963
 5275SOL    HW216725   1.441   6.065   6.828
 5276SOL     OW16726   0.070   0.260   0.578
 5276SOL    HW116727   0.144   0.220   0.632
 5276SOL    HW216728   7.009   0.246   0.624
 5277SOL     OW16729   1.448   1.433   2.533
 5277SOL    HW116730   1.541   1.424   2.568
 5277SOL    HW216731   1.428   1.529   2.516
 5278SOL     OW16732   0.345   4.127   6.229
 5278SOL    HW116733   0.432   4.129   6.278
 5278SOL    HW216734   0.336   4.040   6.181
 5279SOL     OW16735   2.124   6.272   6.537
 5279SOL    HW116736   2.070   6.288   6.619
 5279SOL    HW216737   2.067   6.283   6.456
 5280SOL     OW16738   4.722   6.529   5.238
 5280SOL    HW116739   4.675   6.592   5.176
 5280SOL    HW216740   4.691   6.545   5.331
 5281SOL     OW16741   2.541   6.914   5.469
 5281SOL    HW116742   2.566   6.969   5.388
 5281SOL    HW216743   2.622   6.898   5.524
 5282SOL     OW16744   0.959   6.691   0.909
 5282SOL    HW116745   1.034   6.636   0.947
 5282SOL    HW216746   0.909   6.734   0.984
 5283SOL     OW16747   1.176   0.985   3.504
 5283SOL    HW116748   1.214   0.909   3.452
 5283SOL    HW216749   1.250   1.046   3.534
 5284SOL     OW16750   4.975   3.080   1.620
 5284SOL    HW116751   5.036   3.064   1.698
 5284SOL    HW216752   4.898   3.136   1.649
 5285SOL     OW16753   1.047   1.878   3.766
 5285SOL    HW116754   1.027   1.968   3.807
 5285SOL    HW216755   1.142   1.855   3.783
 5286SOL     OW16756   6.329   3.190   1.597
 5286SOL    HW116757   6.351   3.120   1.529
 5286SOL    HW216758   6.309   3.277   1.551
 5287SOL     OW16759   1.662   5.102   0.927
 5287SOL    HW116760   1.718   5.036   0.977
 5287SOL    HW216761   1.636   5.062   0.838
 5288SOL     OW16762   4.182   0.640   1.340
 5288SOL    HW116763   4.119   0.695   1.286
 5288SOL    HW216764   4.182   0.546   1.305
 5289SOL     OW16765   2.238   4.526   6.022
 5289SOL    HW116766   2.321   4.562   6.065
 5289SOL    HW216767   2.237   4.550   5.925
 5290SOL     OW16768   2.073   3.491   4.608
 5290SOL    HW116769   2.087   3.590   4.614
 5290SOL    HW216770   2.054   3.454   4.698
 5291SOL     OW16771   3.312   4.941   4.391
 5291SOL    HW116772   3.259   4.923   4.475
 5291SOL    HW216773   3.284   4.878   4.320
 5292SOL     OW16774   0.385   3.433   5.391
 5292SOL    HW116775   0.413   3.507   5.330
 5292SOL    HW216776   0.463   3.402   5.444
 5293SOL     OW16777   1.988   0.070   4.699
 5293SOL    HW116778   2.005   6.999   4.715
 5293SOL    HW216779   1.993   0.089   4.601
 5294SOL     OW16780   4.483   0.080   4.920
 5294SOL    HW116781   4.507   0.155   4.982
 5294SOL    HW216782   4.500   0.108   4.826
 5295SOL     OW16783   2.536   1.213   2.502
 5295SOL    HW116784   2.549   1.284   2.434
 5295SOL    HW216785   2.608   1.144   2.494
 5296SOL     OW16786   4.550   4.747   1.777
 5296SOL    HW116787   4.636   4.791   1.752
 5296SOL    HW216788   4.566   4.650   1.794
 5297SOL     OW16789   2.977   5.594   6.431
 5297SOL    HW116790   2.927   5.635   6.355
 5297SOL    HW216791   2.931   5.617   6.517
 5298SOL     OW16792   1.910   1.006   0.415
 5298SOL    HW116793   2.004   0.976   0.398
 5298SOL    HW216794   1.872   1.046   0.332
 5299SOL     OW16795   2.808   1.470   1.492
 5299SOL    HW116796   2.710   1.449   1.488
 5299SOL    HW216797   2.825   1.536   1.565
 5300SOL     OW16798   3.346   4.742   6.544
 5300SOL    HW116799   3.341   4.796   6.629
 5300SOL    HW216800   3.434   4.756   6.500
 5301SOL     OW16801   5.866   6.821   6.200
 5301SOL    HW116802   5.866   6.822   6.100
 5301SOL    HW216803   5.801   6.753   6.232
 5302SOL     OW16804   5.713   5.977   2.735
 5302SOL    HW116805   5.739   6.073   2.749
 5302SOL    HW216806   5.776   5.935   2.670
 5303SOL     OW16807   1.192   5.281   5.784
 5303SOL    HW116808   1.174   5.306   5.689
 5303SOL    HW216809   1.241   5.355   5.829
 5304SOL     OW16810   6.906   0.400   2.793
 5304SOL    HW116811   6.842   0.422   2.720
 5304SOL    HW216812   6.936   0.484   2.838
 5305SOL     OW16813   0.186   5.017   3.392
 5305SOL    HW116814   0.179   5.116   3.389
 5305SOL    HW216815   0.273   4.991   3.433
 5306SOL     OW16816   0.136   3.205   5.795
 5306SOL    HW116817   0.088   3.281   5.839
 5306SOL    HW216818   0.141   3.223   5.696
 5307SOL     OW16819   6.523   1.489   1.262
 5307SOL    HW116820   6.486   1.401   1.291
 5307SOL    HW216821   6.461   1.562   1.290
 5308SOL     OW16822   1.668   4.339   3.359
 5308SOL    HW116823   1.764   4.308   3.359
 5308SOL    HW216824   1.615   4.279   3.419
 5309SOL     OW16825   5.985   5.392   2.947
 5309SOL    HW116826   6.060   5.412   2.884
 5309SOL    HW216827   5.973   5.467   3.011
 5310SOL     OW16828   5.386   2.405   2.630
 5310SOL    HW116829   5.395   2.305   2.635
 5310SOL    HW216830   5.441   2.447   2.703
 5311SOL     OW16831   5.822   0.417   0.554
 5311SOL    HW116832   5.785   0.402   0.646
 5311SOL    HW216833   5.873   0.336   0.525
 5312SOL     OW16834   0.146   6.606   0.060
 5312SOL    HW116835   0.131   6.696   0.018
 5312SOL    HW216836   0.192   6.618   0.148
 5313SOL     OW16837   1.046   6.234   6.155
 5313SOL    HW116838   1.089   6.222   6.244
 5313SOL    HW216839   1.088   6.311   6.107
 5314SOL     OW16840   5.862   0.676   1.759
 5314SOL    HW116841   5.886   0.584   1.789
 5314SOL    HW216842   5.906   0.744   1.818
 5315SOL     OW16843   4.661   1.519   4.383
 5315SOL    HW116844   4.649   1.547   4.287
 5315SOL    HW216845   4.604   1.439   4.401
 5316SOL     OW16846   0.813   2.312   4.602
 5316SOL    HW116847   0.867   2.385   4.560
 5316SOL    HW216848   0.851   2.288   4.691
 5317SOL     OW16849   6.119   2.851   7.022
 5317SOL    HW116850   6.029   2.873   6.983
 5317SOL    HW216851   6.116   2.865   0.094
 5318SOL     OW16852   6.675   3.939   6.591
 5318SOL    HW116853   6.621   3.886   6.658
 5318SOL    HW216854   6.625   3.945   6.505
 5319SOL     OW16855   4.106   6.815   1.740
 5319SOL    HW116856   4.141   6.749   1.673
 5319SOL    HW216857   4.155   6.805   1.826
 5320SOL     OW16858   4.238   5.784   0.991
 5320SOL    HW116859   4.222   5.686   1.000
 5320SOL    HW216860   4.190   5.833   1.064
 5321SOL     OW16861   1.640   4.352   5.285
 5321SOL    HW116862   1.617   4.276   5.223
 5321SOL    HW216863   1.708   4.321   5.351
 5322SOL     OW16864   5.583   6.583   1.952
 5322SOL    HW116865   5.624   6.522   2.021
 5322SOL    HW216866   5.531   6.654   1.998
 5323SOL     OW16867   4.483   0.323   5.739
 5323SOL    HW116868   4.488   0.243   5.678
 5323SOL    HW216869   4.410   0.308   5.806
 5324SOL     OW16870   1.843   1.531   1.076
 5324SOL    HW116871   1.891   1.619   1.069
 5324SOL    HW216872   1.904   1.458   1.045
 5325SOL     OW16873   2.072   1.859   5.028
 5325SOL    HW116874   2.088   1.769   5.067
 5325SOL    HW216875   2.071   1.928   5.101
 5326SOL     OW16876   6.244   6.593   2.047
 5326SOL    HW116877   6.293   6.681   2.049
 5326SOL    HW216878   6.167   6.597   2.110
 5327SOL     OW16879   6.744   2.874   5.484
 5327SOL    HW116880   6.760   2.952   5.544
 5327SOL    HW216881   6.745   2.790   5.539
 5328SOL     OW16882   4.355   5.370   0.154
 5328SOL    HW116883   4.345   5.321   0.241
 5328SOL    HW216884   4.451   5.395   0.140
 5329SOL     OW16885   1.299   6.780   6.314
 5329SOL    HW116886   1.347   6.694   6.328
 5329SOL    HW216887   1.203   6.770   6.343
 5330SOL     OW16888   2.441   4.593   1.334
 5330SOL    HW116889   2.451   4.550   1.424
 5330SOL    HW216890   2.480   4.685   1.337
 5331SOL     OW16891   6.164   0.738   6.490
 5331SOL    HW116892   6.068   0.765   6.480
 5331SOL    HW216893   6.208   0.793   6.561
 5332SOL     OW16894   0.810   4.552   1.763
 5332SOL    HW116895   0.798   4.647   1.735
 5332SOL    HW216896   0.852   4.549   1.853
 5333SOL     OW16897   0.928   6.320   4.647
 5333SOL    HW116898   1.000   6.389   4.653
 5333SOL    HW216899   0.934   6.274   4.558
 5334SOL     OW16900   2.966   0.378   4.508
 5334SOL    HW116901   2.933   0.376   4.603
 5334SOL    HW216902   3.019   0.296   4.490
 5335SOL     OW16903   6.714   5.628   0.167
 5335SOL    HW116904   6.790   5.604   0.227
 5335SOL    HW216905   6.631   5.643   0.221
 5336SOL     OW16906   1.216   4.153   2.018
 5336SOL    HW116907   1.153   4.076   2.009
 5336SOL    HW216908   1.243   4.184   1.926
 5337SOL     OW16909   5.112   4.548   1.237
 5337SOL    HW116910   5.032   4.488   1.233
 5337SOL    HW216911   5.166   4.538   1.154
 5338SOL     OW16912   6.789   1.730   6.797
 5338SOL    HW116913   6.747   1.677   6.871
 5338SOL    HW216914   6.758   1.694   6.709
 5339SOL     OW16915   6.070   0.735   2.873
 5339SOL    HW116916   5.996   0.782   2.825
 5339SOL    HW216917   6.060   0.749   2.971
 5340SOL     OW16918   5.151   2.265   6.174
 5340SOL    HW116919   5.081   2.241   6.107
 5340SOL    HW216920   5.232   2.300   6.127
 5341SOL     OW16921   4.182   0.088   0.081
 5341SOL    HW116922   4.208   7.018   0.086
 5341SOL    HW216923   4.222   0.137   0.159
 5342SOL     OW16924   2.997   0.642   6.071
 5342SOL    HW116925   3.049   0.632   6.156
 5342SOL    HW216926   3.027   0.573   6.006
 5343SOL     OW16927   3.533   3.810   2.049
 5343SOL    HW116928   3.437   3.798   2.071
 5343SOL    HW216929   3.563   3.737   1.987
 5344SOL     OW16930   2.683   1.967   3.196
 5344SOL    HW116931   2.718   1.950   3.288
 5344SOL    HW216932   2.752   2.017   3.144
 5345SOL     OW16933   4.314   6.742   1.979
 5345SOL    HW116934   4.366   6.711   1.899
 5345SOL    HW216935   4.355   6.704   2.062
 5346SOL     OW16936   1.984   6.337   2.961
 5346SOL    HW116937   2.059   6.389   3.002
 5346SOL    HW216938   2.017   6.291   2.878
 5347SOL     OW16939   6.945   1.903   1.969
 5347SOL    HW116940   6.985   1.823   1.924
 5347SOL    HW216941   6.846   1.904   1.952
 5348SOL     OW16942   6.826   1.095   0.800
 5348SOL    HW116943   6.818   0.996   0.813
 5348SOL    HW216944   6.782   1.121   0.714
 5349SOL     OW16945   6.417   0.658   1.844
 5349SOL    HW116946   6.406   0.647   1.745
 5349SOL    HW216947   6.446   0.751   1.864
 5350SOL     OW16948   2.429   0.852   6.769
 5350SOL    HW116949   2.433   0.947   6.737
 5350SOL    HW216950   2.351   0.842   6.831
 5351SOL     OW16951   4.469   0.810   2.084
 5351SOL    HW116952   4.389   0.828   2.141
 5351SOL    HW216953   4.440   0.799   1.988
 5352SOL     OW16954   3.034   6.162   3.507
 5352SOL    HW116955   2.999   6.076   3.469
 5352SOL    HW216956   3.021   6.236   3.440
 5353SOL     OW16957   5.995   0.106   5.635
 5353SOL    HW116958   6.070   0.042   5.618
 5353SOL    HW216959   6.030   0.200   5.629
 5354SOL     OW16960   0.997   4.055   0.938
 5354SOL    HW116961   0.916   4.109   0.960
 5354SOL    HW216962   0.971   3.959   0.928
 5355SOL     OW16963   4.102   1.727   5.433
 5355SOL    HW116964   4.202   1.728   5.440
 5355SOL    HW216965   4.071   1.635   5.411
 5356SOL     OW16966   6.386   3.726   1.177
 5356SOL    HW116967   6.289   3.727   1.204
 5356SOL    HW216968   6.406   3.805   1.119
 5357SOL     OW16969   3.184   6.787   0.409
 5357SOL    HW116970   3.264   6.847   0.401
 5357SOL    HW216971   3.116   6.829   0.469
 5358SOL     OW16972   4.328   3.112   1.153
 5358SOL    HW116973   4.398   3.065   1.100
 5358SOL    HW216974   4.262   3.046   1.188
 5359SOL     OW16975   2.302   0.352   6.566
 5359SOL    HW116976   2.363   0.338   6.488
 5359SOL    HW216977   2.210   0.371   6.534
 5360SOL     OW16978   3.776   6.908   6.720
 5360SOL    HW116979   3.815   6.931   6.809
 5360SOL    HW216980   3.799   6.979   6.653
 5361SOL     OW16981   1.875   0.511   5.841
 5361SOL    HW116982   1.863   0.487   5.938
 5361SOL    HW216983   1.862   0.609   5.829
 5362SOL     OW16984   4.340   5.980   3.470
 5362SOL    HW116985   4.377   6.025   3.552
 5362SOL    HW216986   4.270   5.914   3.498
 5363SOL     OW16987   0.404   5.190   5.941
 5363SOL    HW116988   0.502   5.205   5.956
 5363SOL    HW216989   0.385   5.092   5.935
 5364SOL     OW16990   0.630   5.779   6.975
 5364SOL    HW116991   0.645   5.853   6.909
 5364SOL    HW216992   0.536   5.783   7.008
 5365SOL     OW16993   3.858   2.196   6.719
 5365SOL    HW116994   3.845   2.277   6.662
 5365SOL    HW216995   3.928   2.137   6.677
 5366SOL     OW16996   4.044   3.781   6.863
 5366SOL    HW116997   4.019   3.816   6.773
 5366SOL    HW216998   3.966   3.732   6.902
 5367SOL     OW16999   0.383   4.531   0.760
 5367SOL    HW117000   0.341   4.459   0.816
 5367SOL    HW217001   0.482   4.528   0.770
 5368SOL     OW17002   6.287   1.314   3.756
 5368SOL    HW117003   6.231   1.270   3.827
 5368SOL    HW217004   6.376   1.270   3.753
 5369SOL     OW17005   1.533   3.788   2.192
 5369SOL    HW117006   1.482   3.812   2.274
 5369SOL    HW217007   1.547   3.871   2.137
 5370SOL     OW17008   4.095   2.968   1.455
 5370SOL    HW117009   4.134   2.965   1.547
 5370SOL    HW217010   4.000   2.937   1.458
 5371SOL     OW17011   1.051   3.946   5.626
 5371SOL    HW117012   1.043   3.848   5.609
 5371SOL    HW217013   0.985   3.995   5.570
 5372SOL     OW17014   2.319   5.067   2.979
 5372SOL    HW117015   2.337   5.130   2.904
 5372SOL    HW217016   2.277   5.116   3.055
 5373SOL     OW17017   2.523   5.214   3.794
 5373SOL    HW117018   2.445   5.152   3.787
 5373SOL    HW217019   2.534   5.263   3.708
 5374SOL     OW17020   3.227   2.243   0.661
 5374SOL    HW117021   3.207   2.339   0.643
 5374SOL    HW217022   3.236   2.194   0.574
 5375SOL     OW17023   1.626   4.722   4.284
 5375SOL    HW117024   1.688   4.694   4.211
 5375SOL    HW217025   1.665   4.697   4.373
 5376SOL     OW17026   2.567   4.412   0.475
 5376SOL    HW117027   2.654   4.395   0.429
 5376SOL    HW217028   2.518   4.325   0.486
 5377SOL     OW17029   0.740   1.470   1.272
 5377SOL    HW117030   0.816   1.532   1.289
 5377SOL    HW217031   0.719   1.420   1.357
 5378SOL     OW17032   4.791   7.004   0.004
 5378SOL    HW117033   4.806   6.989   6.933
 5378SOL    HW217034   4.780   6.916   0.050
 5379SOL     OW17035   6.895   6.646   1.500
 5379SOL    HW117036   6.892   6.658   1.599
 5379SOL    HW217037   6.869   6.553   1.476
 5380SOL     OW17038   2.501   0.241   4.137
 5380SOL    HW117039   2.498   0.289   4.050
 5380SOL    HW217040   2.527   0.304   4.210
 5381SOL     OW17041   5.556   4.121   1.422
 5381SOL    HW117042   5.654   4.139   1.423
 5381SOL    HW217043   5.513   4.173   1.348
 5382SOL     OW17044   1.421   0.399   1.691
 5382SOL    HW117045   1.390   0.364   1.780
 5382SOL    HW217046   1.370   0.354   1.618
 5383SOL     OW17047   2.409   2.319   5.049
 5383SOL    HW117048   2.404   2.321   4.949
 5383SOL    HW217049   2.449   2.232   5.079
 5384SOL     OW17050   6.018   6.778   3.910
 5384SOL    HW117051   5.945   6.752   3.847
 5384SOL    HW217052   6.063   6.860   3.876
 5385SOL     OW17053   3.007   3.803   2.147
 5385SOL    HW117054   2.966   3.795   2.056
 5385SOL    HW217055   3.064   3.722   2.165
 5386SOL     OW17056   5.153   6.948   5.403
 5386SOL    HW117057   5.194   7.026   5.449
 5386SOL    HW217058   5.136   6.970   5.307
 5387SOL     OW17059   2.944   5.457   1.778
 5387SOL    HW117060   2.845   5.455   1.793
 5387SOL    HW217061   2.988   5.388   1.836
 5388SOL     OW17062   5.958   6.543   2.511
 5388SOL    HW117063   5.896   6.466   2.501
 5388SOL    HW217064   5.944   6.586   2.600
 5389SOL     OW17065   4.939   2.084   1.361
 5389SOL    HW117066   4.917   2.158   1.424
 5389SOL    HW217067   4.927   1.996   1.408
 5390SOL     OW17068   6.077   4.687   6.293
 5390SOL    HW117069   6.042   4.741   6.369
 5390SOL    HW217070   6.024   4.602   6.284
 5391SOL     OW17071   2.535   3.332   0.054
 5391SOL    HW117072   2.500   3.332   0.147
 5391SOL    HW217073   2.621   3.383   0.050
 5392SOL     OW17074   6.204   3.193   2.598
 5392SOL    HW117075   6.226   3.098   2.616
 5392SOL    HW217076   6.137   3.225   2.665
 5393SOL     OW17077   5.911   6.868   6.748
 5393SOL    HW117078   5.874   6.784   6.709
 5393SOL    HW217079   6.002   6.885   6.710
 5394SOL     OW17080   0.853   4.251   5.734
 5394SOL    HW117081   0.953   4.243   5.733
 5394SOL    HW217082   0.826   4.312   5.809
 5395SOL     OW17083   4.580   1.310   6.954
 5395SOL    HW117084   4.525   1.229   6.976
 5395SOL    HW217085   4.676   1.292   6.977
 5396SOL     OW17086   5.323   2.924   2.416
 5396SOL    HW117087   5.341   3.014   2.455
 5396SOL    HW217088   5.339   2.854   2.485
 5397SOL     OW17089   0.079   2.819   1.639
 5397SOL    HW117090   0.042   2.800   1.730
 5397SOL    HW217091   0.176   2.842   1.647
 5398SOL     OW17092   3.980   2.960   1.873
 5398SOL    HW117093   3.969   3.037   1.810
 5398SOL    HW217094   3.978   2.994   1.968
 5399SOL     OW17095   0.896   5.877   0.695
 5399SOL    HW117096   0.911   5.896   0.598
 5399SOL    HW217097   0.981   5.891   0.746
 5400SOL     OW17098   2.704   4.431   6.639
 5400SOL    HW117099   2.754   4.504   6.593
 5400SOL    HW217100   2.768   4.366   6.680
 5401SOL     OW17101   6.299   2.808   1.602
 5401SOL    HW117102   6.305   2.825   1.700
 5401SOL    HW217103   6.228   2.741   1.584
 5402SOL     OW17104   1.690   6.436   2.405
 5402SOL    HW117105   1.775   6.383   2.413
 5402SOL    HW217106   1.679   6.494   2.485
 5403SOL     OW17107   6.392   3.521   6.529
 5403SOL    HW117108   6.444   3.468   6.596
 5403SOL    HW217109   6.325   3.462   6.485
 5404SOL     OW17110   1.623   3.250   2.680
 5404SOL    HW117111   1.564   3.281   2.755
 5404SOL    HW217112   1.567   3.227   2.601
 5405SOL     OW17113   6.604   4.657   6.278
 5405SOL    HW117114   6.661   4.632   6.356
 5405SOL    HW217115   6.518   4.697   6.311
 5406SOL     OW17116   1.833   6.783   5.026
 5406SOL    HW117117   1.750   6.831   5.056
 5406SOL    HW217118   1.831   6.773   4.926
 5407SOL     OW17119   3.899   3.489   0.220
 5407SOL    HW117120   3.981   3.452   0.176
 5407SOL    HW217121   3.850   3.416   0.267
 5408SOL     OW17122   2.917   1.119   6.975
 5408SOL    HW117123   2.829   1.152   6.940
 5408SOL    HW217124   2.957   1.056   6.908
 5409SOL     OW17125   3.878   0.857   2.500
 5409SOL    HW117126   3.796   0.817   2.541
 5409SOL    HW217127   3.954   0.851   2.565
 5410SOL     OW17128   2.141   2.255   2.296
 5410SOL    HW117129   2.215   2.217   2.350
 5410SOL    HW217130   2.116   2.345   2.332
 5411SOL     OW17131   0.565   5.166   4.854
 5411SOL    HW117132   0.521   5.076   4.855
 5411SOL    HW217133   0.569   5.202   4.947
 5412SOL     OW17134   6.179   3.187   1.252
 5412SOL    HW117135   6.115   3.259   1.281
 5412SOL    HW217136   6.223   3.148   1.333
 5413SOL     OW17137   2.399   0.161   1.708
 5413SOL    HW117138   2.451   0.220   1.770
 5413SOL    HW217139   2.437   0.168   1.616
 5414SOL     OW17140   4.257   0.820   6.074
 5414SOL    HW117141   4.335   0.849   6.017
 5414SOL    HW217142   4.231   0.726   6.050
 5415SOL     OW17143   5.684   4.565   2.120
 5415SOL    HW117144   5.696   4.656   2.080
 5415SOL    HW217145   5.588   4.537   2.114
 5416SOL     OW17146   4.599   5.686   4.243
 5416SOL    HW117147   4.538   5.749   4.290
 5416SOL    HW217148   4.693   5.718   4.251
 5417SOL     OW17149   3.740   0.072   5.368
 5417SOL    HW117150   3.757   7.007   5.405
 5417SOL    HW217151   3.738   0.068   5.268
 5418SOL     OW17152   3.491   0.156   2.930
 5418SOL    HW117153   3.450   0.152   3.021
 5418SOL    HW217154   3.458   0.080   2.875
 5419SOL     OW17155   3.228   4.216   6.398
 5419SOL    HW117156   3.191   4.219   6.305
 5419SOL    HW217157   3.310   4.272   6.403
 5420SOL     OW17158   1.687   1.394   2.657
 5420SOL    HW117159   1.735   1.439   2.733
 5420SOL    HW217160   1.679   1.296   2.677
 5421SOL     OW17161   1.402   3.435   1.446
 5421SOL    HW117162   1.423   3.510   1.509
 5421SOL    HW217163   1.402   3.470   1.352
 5422SOL     OW17164   2.235   4.129   0.936
 5422SOL    HW117165   2.226   4.158   1.031
 5422SOL    HW217166   2.313   4.067   0.927
 5423SOL     OW17167   5.930   3.856   6.231
 5423SOL    HW117168   5.947   3.904   6.145
 5423SOL    HW217169   5.926   3.923   6.305
 5424SOL     OW17170   5.632   3.674   5.260
 5424SOL    HW117171   5.706   3.713   5.315
 5424SOL    HW217172   5.544   3.691   5.305
 5425SOL     OW17173   5.079   0.505   4.862
 5425SOL    HW117174   4.990   0.472   4.893
 5425SOL    HW217175   5.109   0.453   4.782
 5426SOL     OW17176   6.742   0.102   5.589
 5426SOL    HW117177   6.696   0.081   5.676
 5426SOL    HW217178   6.712   0.037   5.519
 5427SOL     OW17179   4.247   6.041   6.849
 5427SOL    HW117180   4.324   6.016   6.907
 5427SOL    HW217181   4.251   6.139   6.829
 5428SOL     OW17182   1.252   0.432   6.507
 5428SOL    HW117183   1.259   0.467   6.600
 5428SOL    HW217184   1.171   0.471   6.462
 5429SOL     OW17185   1.835   2.523   6.792
 5429SOL    HW117186   1.749   2.493   6.833
 5429SOL    HW217187   1.890   2.571   6.860
 5430SOL     OW17188   2.360   2.481   5.752
 5430SOL    HW117189   2.429   2.552   5.767
 5430SOL    HW217190   2.275   2.524   5.721
 5431SOL     OW17191   3.736   6.106   4.425
 5431SOL    HW117192   3.787   6.184   4.460
 5431SOL    HW217193   3.639   6.129   4.418
 5432SOL     OW17194   5.540   6.193   1.297
 5432SOL    HW117195   5.476   6.201   1.221
 5432SOL    HW217196   5.537   6.277   1.352
 5433SOL     OW17197   0.057   1.856   4.358
 5433SOL    HW117198   7.008   1.797   4.387
 5433SOL    HW217199   0.079   1.837   4.262
 5434SOL     OW17200   3.121   6.896   5.520
 5434SOL    HW117201   3.194   6.954   5.556
 5434SOL    HW217202   3.081   6.842   5.595
 5435SOL     OW17203   4.270   1.284   1.787
 5435SOL    HW117204   4.275   1.377   1.826
 5435SOL    HW217205   4.313   1.284   1.697
 5436SOL     OW17206   5.533   4.052   2.481
 5436SOL    HW117207   5.473   3.981   2.517
 5436SOL    HW217208   5.479   4.122   2.434
 5437SOL     OW17209   3.150   3.814   6.405
 5437SOL    HW117210   3.231   3.773   6.448
 5437SOL    HW217211   3.161   3.815   6.306
 5438SOL     OW17212   6.311   1.647   1.364
 5438SOL    HW117213   6.227   1.609   1.401
 5438SOL    HW217214   6.293   1.740   1.331
 5439SOL     OW17215   1.278   2.165   1.251
 5439SOL    HW117216   1.204   2.105   1.283
 5439SOL    HW217217   1.331   2.196   1.330
 5440SOL     OW17218   1.717   2.073   0.834
 5440SOL    HW117219   1.652   2.090   0.907
 5440SOL    HW217220   1.732   1.974   0.824
 5441SOL     OW17221   4.119   1.681   4.068
 5441SOL    HW117222   4.212   1.717   4.077
 5441SOL    HW217223   4.120   1.582   4.085
 5442SOL     OW17224   3.959   0.547   2.686
 5442SOL    HW117225   3.881   0.585   2.635
 5442SOL    HW217226   3.966   0.449   2.668
 5443SOL     OW17227   2.962   6.697   4.936
 5443SOL    HW117228   2.923   6.776   4.888
 5443SOL    HW217229   2.890   6.629   4.951
 5444SOL     OW17230   0.320   6.961   3.367
 5444SOL    HW117231   0.240   6.925   3.414
 5444SOL    HW217232   0.291   7.010   3.285
 5445SOL     OW17233   5.387   3.530   2.134
 5445SOL    HW117234   5.294   3.566   2.142
 5445SOL    HW217235   5.417   3.493   2.222
 5446SOL     OW17236   6.497   5.734   5.923
 5446SOL    HW117237   6.449   5.690   5.998
 5446SOL    HW217238   6.492   5.834   5.934
 5447SOL     OW17239   3.489   1.768   0.600
 5447SOL    HW117240   3.466   1.705   0.674
 5447SOL    HW217241   3.419   1.762   0.529
 5448SOL     OW17242   5.733   2.443   5.925
 5448SOL    HW117243   5.709   2.383   6.001
 5448SOL    HW217244   5.784   2.522   5.959
 5449SOL     OW17245   0.431   3.622   6.747
 5449SOL    HW117246   0.381   3.578   6.673
 5449SOL    HW217247   0.368   3.681   6.798
 5450SOL     OW17248   2.021   6.992   0.489
 5450SOL    HW117249   2.110   7.020   0.452
 5450SOL    HW217250   2.035   6.922   0.559
 5451SOL     OW17251   1.459   0.139   2.393
 5451SOL    HW117252   1.463   0.150   2.492
 5451SOL    HW217253   1.416   0.051   2.371
 5452SOL     OW17254   2.903   3.990   5.640
 5452SOL    HW117255   2.816   3.959   5.678
 5452SOL    HW217256   2.898   3.990   5.540
 5453SOL     OW17257   6.271   5.236   6.602
 5453SOL    HW117258   6.270   5.148   6.554
 5453SOL    HW217259   6.198   5.237   6.670
 5454SOL     OW17260   0.473   4.481   6.474
 5454SOL    HW117261   0.513   4.529   6.552
 5454SOL    HW217262   0.375   4.473   6.487
 5455SOL     OW17263   6.848   3.034   1.340
 5455SOL    HW117264   6.853   2.974   1.420
 5455SOL    HW217265   6.791   2.991   1.270
 5456SOL     OW17266   3.634   6.752   0.978
 5456SOL    HW117267   3.560   6.798   1.027
 5456SOL    HW217268   3.717   6.808   0.983
 5457SOL     OW17269   6.033   3.754   0.387
 5457SOL    HW117270   6.113   3.801   0.425
 5457SOL    HW217271   6.058   3.660   0.362
 5458SOL     OW17272   2.501   4.226   6.549
 5458SOL    HW117273   2.555   4.291   6.602
 5458SOL    HW217274   2.558   4.147   6.525
 5459SOL     OW17275   2.221   4.656   5.797
 5459SOL    HW117276   2.198   4.753   5.790
 5459SOL    HW217277   2.302   4.637   5.740
 5460SOL     OW17278   3.544   0.580   1.555
 5460SOL    HW117279   3.492   0.498   1.582
 5460SOL    HW217280   3.636   0.554   1.528
 5461SOL     OW17281   4.562   6.683   5.069
 5461SOL    HW117282   4.465   6.667   5.055
 5461SOL    HW217283   4.588   6.770   5.026
 5462SOL     OW17284   0.845   0.262   1.494
 5462SOL    HW117285   0.905   0.310   1.558
 5462SOL    HW217286   0.803   0.328   1.432
 5463SOL     OW17287   0.005   3.131   0.497
 5463SOL    HW117288   7.011   3.077   0.579
 5463SOL    HW217289   0.098   3.166   0.503
 5464SOL     OW17290   2.364   6.944   4.379
 5464SOL    HW117291   2.461   6.920   4.374
 5464SOL    HW217292   2.326   6.911   4.465
 5465SOL     OW17293   2.317   6.825   6.173
 5465SOL    HW117294   2.252   6.834   6.248
 5465SOL    HW217295   2.341   6.728   6.162
 5466SOL     OW17296   4.938   4.355   4.789
 5466SOL    HW117297   4.875   4.298   4.736
 5466SOL    HW217298   5.024   4.364   4.739
 5467SOL     OW17299   6.297   1.765   2.007
 5467SOL    HW117300   6.367   1.731   2.070
 5467SOL    HW217301   6.298   1.711   1.923
 5468SOL     OW17302   4.088   1.426   5.552
 5468SOL    HW117303   4.009   1.488   5.561
 5468SOL    HW217304   4.148   1.436   5.631
 5469SOL     OW17305   4.533   4.936   6.623
 5469SOL    HW117306   4.436   4.931   6.599
 5469SOL    HW217307   4.583   4.866   6.571
 5470SOL     OW17308   1.045   5.354   3.467
 5470SOL    HW117309   0.949   5.342   3.493
 5470SOL    HW217310   1.054   5.347   3.368
 5471SOL     OW17311   6.249   4.844   2.090
 5471SOL    HW117312   6.296   4.927   2.059
 5471SOL    HW217313   6.271   4.827   2.186
 5472SOL     OW17314   3.957   4.967   5.560
 5472SOL    HW117315   3.921   4.910   5.486
 5472SOL    HW217316   3.881   4.998   5.617
 5473SOL     OW17317   1.587   3.372   3.456
 5473SOL    HW117318   1.502   3.330   3.426
 5473SOL    HW217319   1.650   3.302   3.489
 5474SOL     OW17320   2.174   6.000   3.594
 5474SOL    HW117321   2.121   6.058   3.532
 5474SOL    HW217322   2.250   5.958   3.544
 5475SOL     OW17323   2.989   2.599   1.429
 5475SOL    HW117324   2.945   2.543   1.358
 5475SOL    HW217325   2.948   2.579   1.518
 5476SOL     OW17326   1.184   3.439   6.253
 5476SOL    HW117327   1.087   3.450   6.271
 5476SOL    HW217328   1.209   3.489   6.170
 5477SOL     OW17329   2.201   3.007   2.305
 5477SOL    HW117330   2.261   3.084   2.282
 5477SOL    HW217331   2.106   3.036   2.299
 5478SOL     OW17332   6.761   6.076   6.071
 5478SOL    HW117333   6.775   6.044   6.165
 5478SOL    HW217334   6.829   6.145   6.049
 5479SOL     OW17335   4.354   0.407   4.428
 5479SOL    HW117336   4.256   0.390   4.414
 5479SOL    HW217337   4.368   0.501   4.460
 5480SOL     OW17338   0.182   3.200   4.448
 5480SOL    HW117339   0.132   3.133   4.392
 5480SOL    HW217340   0.152   3.193   4.543
 5481SOL     OW17341   4.473   6.701   4.086
 5481SOL    HW117342   4.490   6.605   4.067
 5481SOL    HW217343   4.409   6.709   4.162
 5482SOL     OW17344   1.529   4.501   1.696
 5482SOL    HW117345   1.475   4.533   1.773
 5482SOL    HW217346   1.597   4.571   1.672
 5483SOL     OW17347   1.044   2.797   6.215
 5483SOL    HW117348   0.948   2.781   6.236
 5483SOL    HW217349   1.100   2.771   6.294
 5484SOL     OW17350   4.758   6.990   4.972
 5484SOL    HW117351   4.778   0.060   4.989
 5484SOL    HW217352   4.670   6.982   4.926
 5485SOL     OW17353   3.222   0.185   4.636
 5485SOL    HW117354   3.231   0.285   4.645
 5485SOL    HW217355   3.169   0.164   4.554
 5486SOL     OW17356   2.165   5.229   4.821
 5486SOL    HW117357   2.067   5.234   4.801
 5486SOL    HW217358   2.217   5.232   4.736
 5487SOL     OW17359   3.243   5.136   5.261
 5487SOL    HW117360   3.289   5.048   5.255
 5487SOL    HW217361   3.308   5.209   5.239
 5488SOL     OW17362   5.439   2.431   0.913
 5488SOL    HW117363   5.517   2.412   0.854
 5488SOL    HW217364   5.471   2.457   1.004
 5489SOL     OW17365   6.875   3.741   3.708
 5489SOL    HW117366   6.838   3.832   3.722
 5489SOL    HW217367   6.955   3.728   3.768
 5490SOL     OW17368   1.654   6.143   3.147
 5490SOL    HW117369   1.690   6.065   3.096
 5490SOL    HW217370   1.598   6.109   3.223
 5491SOL     OW17371   6.510   4.148   0.669
 5491SOL    HW117372   6.410   4.154   0.671
 5491SOL    HW217373   6.549   4.227   0.715
 5492SOL     OW17374   6.860   1.924   6.123
 5492SOL    HW117375   6.829   1.847   6.067
 5492SOL    HW217376   6.960   1.923   6.128
 5493SOL     OW17377   3.571   3.866   0.467
 5493SOL    HW117378   3.618   3.804   0.529
 5493SOL    HW217379   3.603   3.851   0.373
 5494SOL     OW17380   5.943   3.390   5.158
 5494SOL    HW117381   5.848   3.418   5.141
 5494SOL    HW217382   5.979   3.441   5.236
 5495SOL     OW17383   6.011   6.909   0.477
 5495SOL    HW117384   5.953   6.941   0.402
 5495SOL    HW217385   6.105   6.939   0.461
 5496SOL     OW17386   3.863   0.364   4.711
 5496SOL    HW117387   3.840   0.388   4.805
 5496SOL    HW217388   3.959   0.337   4.706
 5497SOL     OW17389   0.876   0.471   5.397
 5497SOL    HW117390   0.784   0.474   5.358
 5497SOL    HW217391   0.917   0.562   5.391
 5498SOL     OW17392   0.296   5.802   1.328
 5498SOL    HW117393   0.222   5.779   1.264
 5498SOL    HW217394   0.384   5.783   1.285
 5499SOL     OW17395   1.758   6.931   4.802
 5499SOL    HW117396   1.831   6.981   4.757
 5499SOL    HW217397   1.723   6.985   4.879
 5500SOL     OW17398   3.057   0.477   1.071
 5500SOL    HW117399   3.137   0.535   1.055
 5500SOL    HW217400   3.015   0.502   1.158
 5501SOL     OW17401   3.750   3.595   7.018
 5501SOL    HW117402   3.749   3.558   6.925
 5501SOL    HW217403   3.804   3.536   0.051
 5502SOL     OW17404   4.674   3.263   6.934
 5502SOL    HW117405   4.578   3.238   6.944
 5502SOL    HW217406   4.723   3.188   6.888
 5503SOL     OW17407   6.005   3.439   1.030
 5503SOL    HW117408   5.991   3.345   0.998
 5503SOL    HW217409   5.920   3.490   1.022
 5504SOL     OW17410   3.799   1.930   6.964
 5504SOL    HW117411   3.863   1.903   6.893
 5504SOL    HW217412   3.712   1.882   6.950
 5505SOL     OW17413   3.216   4.948   3.404
 5505SOL    HW117414   3.162   4.985   3.480
 5505SOL    HW217415   3.247   4.856   3.428
 5506SOL     OW17416   6.779   3.065   5.662
 5506SOL    HW117417   6.865   3.032   5.702
 5506SOL    HW217418   6.713   3.083   5.735
 5507SOL     OW17419   3.522   0.057   6.694
 5507SOL    HW117420   3.516   0.083   6.790
 5507SOL    HW217421   3.564   6.993   6.687
 5508SOL     OW17422   0.197   0.868   6.241
 5508SOL    HW117423   0.169   0.812   6.163
 5508SOL    HW217424   0.281   0.830   6.281
 5509SOL     OW17425   6.484   4.730   0.234
 5509SOL    HW117426   6.471   4.829   0.237
 5509SOL    HW217427   6.550   4.702   0.303
 5510SOL     OW17428   4.992   5.301   6.834
 5510SOL    HW117429   5.079   5.349   6.842
 5510SOL    HW217430   5.008   5.203   6.823
 5511SOL     OW17431   0.513   2.564   6.043
 5511SOL    HW117432   0.564   2.626   5.982
 5511SOL    HW217433   0.555   2.473   6.040
 5512SOL     OW17434   2.365   0.368   2.358
 5512SOL    HW117435   2.350   0.467   2.351
 5512SOL    HW217436   2.364   0.327   2.267
 5513SOL     OW17437   3.719   4.428   0.013
 5513SOL    HW117438   3.623   4.444   0.037
 5513SOL    HW217439   3.765   4.379   0.087
 5514SOL     OW17440   3.642   0.981   0.284
 5514SOL    HW117441   3.719   0.978   0.220
 5514SOL    HW217442   3.654   0.910   0.353
 5515SOL     OW17443   2.748   5.547   2.611
 5515SOL    HW117444   2.747   5.607   2.531
 5515SOL    HW217445   2.843   5.532   2.640
 5516SOL     OW17446   2.002   2.244   5.580
 5516SOL    HW117447   2.010   2.321   5.644
 5516SOL    HW217448   2.026   2.159   5.628
 5517SOL     OW17449   1.518   1.876   3.227
 5517SOL    HW117450   1.589   1.893   3.159
 5517SOL    HW217451   1.436   1.928   3.203
 5518SOL     OW17452   4.655   5.141   6.766
 5518SOL    HW117453   4.666   5.190   6.680
 5518SOL    HW217454   4.610   5.053   6.749
 5519SOL     OW17455   5.114   2.572   4.812
 5519SOL    HW117456   5.106   2.624   4.727
 5519SOL    HW217457   5.096   2.475   4.794
 5520SOL     OW17458   4.619   0.640   1.527
 5520SOL    HW117459   4.657   0.577   1.594
 5520SOL    HW217460   4.525   0.662   1.551
 5521SOL     OW17461   4.730   6.244   2.507
 5521SOL    HW117462   4.808   6.200   2.550
 5521SOL    HW217463   4.758   6.285   2.420
 5522SOL     OW17464   6.029   6.208   0.832
 5522SOL    HW117465   6.030   6.187   0.734
 5522SOL    HW217466   6.078   6.137   0.882
 5523SOL     OW17467   5.359   1.857   0.922
 5523SOL    HW117468   5.314   1.912   0.993
 5523SOL    HW217469   5.414   1.917   0.863
 5524SOL     OW17470   2.742   1.350   3.914
 5524SOL    HW117471   2.653   1.392   3.895
 5524SOL    HW217472   2.742   1.255   3.885
 5525SOL     OW17473   6.160   0.967   1.297
 5525SOL    HW117474   6.085   1.030   1.280
 5525SOL    HW217475   6.129   0.892   1.355
 5526SOL     OW17476   5.327   5.109   3.867
 5526SOL    HW117477   5.365   5.082   3.779
 5526SOL    HW217478   5.390   5.082   3.940
 5527SOL     OW17479   5.890   0.470   3.116
 5527SOL    HW117480   5.939   0.513   3.192
 5527SOL    HW217481   5.955   0.442   3.045
 5528SOL     OW17482   1.181   1.837   6.965
 5528SOL    HW117483   1.186   1.819   0.037
 5528SOL    HW217484   1.171   1.750   6.916
 5529SOL     OW17485   3.434   0.811   2.512
 5529SOL    HW117486   3.345   0.855   2.501
 5529SOL    HW217487   3.471   0.789   2.422
 5530SOL     OW17488   6.956   1.839   0.952
 5530SOL    HW117489   0.028   1.820   0.953
 5530SOL    HW217490   6.922   1.842   1.046
 5531SOL     OW17491   1.820   4.224   1.462
 5531SOL    HW117492   1.859   4.237   1.553
 5531SOL    HW217493   1.720   4.235   1.466
 5532SOL     OW17494   0.997   2.930   6.766
 5532SOL    HW117495   0.974   3.025   6.745
 5532SOL    HW217496   0.945   2.869   6.707
 5533SOL     OW17497   3.414   1.215   2.535
 5533SOL    HW117498   3.489   1.159   2.499
 5533SOL    HW217499   3.362   1.253   2.459
 5534SOL     OW17500   1.292   0.300   4.655
 5534SOL    HW117501   1.391   0.306   4.647
 5534SOL    HW217502   1.264   0.321   4.748
 5535SOL     OW17503   0.076   2.130   2.583
 5535SOL    HW117504   7.024   2.154   2.641
 5535SOL    HW217505   0.117   2.213   2.547
 5536SOL     OW17506   4.663   6.327   4.496
 5536SOL    HW117507   4.724   6.248   4.501
 5536SOL    HW217508   4.580   6.309   4.548
 5537SOL     OW17509   2.980   2.242   3.912
 5537SOL    HW117510   2.928   2.325   3.894
 5537SOL    HW217511   3.054   2.234   3.845
 5538SOL     OW17512   4.663   5.079   4.477
 5538SOL    HW117513   4.663   5.179   4.479
 5538SOL    HW217514   4.698   5.044   4.563
 5539SOL     OW17515   2.302   4.540   6.950
 5539SOL    HW117516   2.315   4.552   0.022
 5539SOL    HW217517   2.334   4.622   6.902
 5540SOL     OW17518   4.182   5.587   2.377
 5540SOL    HW117519   4.191   5.588   2.477
 5540SOL    HW217520   4.148   5.675   2.346
 5541SOL     OW17521   4.044   1.205   6.114
 5541SOL    HW117522   4.103   1.209   6.033
 5541SOL    HW217523   4.071   1.127   6.171
 5542SOL     OW17524   5.206   4.405   6.919
 5542SOL    HW117525   5.222   4.342   6.843
 5542SOL    HW217526   5.153   4.359   6.991
 5543SOL     OW17527   0.298   2.405   4.954
 5543SOL    HW117528   0.265   2.351   4.877
 5543SOL    HW217529   0.226   2.410   5.024
 5544SOL     OW17530   5.430   0.867   6.842
 5544SOL    HW117531   5.511   0.885   6.899
 5544SOL    HW217532   5.450   0.891   6.747
 5545SOL     OW17533   2.625   2.411   1.858
 5545SOL    HW117534   2.723   2.408   1.841
 5545SOL    HW217535   2.576   2.372   1.780
 5546SOL     OW17536   4.104   4.583   5.660
 5546SOL    HW117537   4.090   4.626   5.571
 5546SOL    HW217538   4.171   4.510   5.651
 5547SOL     OW17539   3.516   5.803   4.146
 5547SOL    HW117540   3.477   5.789   4.236
 5547SOL    HW217541   3.540   5.714   4.106
 5548SOL     OW17542   0.291   2.411   4.253
 5548SOL    HW117543   0.372   2.443   4.203
 5548SOL    HW217544   0.239   2.490   4.286
 5549SOL     OW17545   3.553   5.070   6.932
 5549SOL    HW117546   3.544   5.027   6.843
 5549SOL    HW217547   3.636   5.127   6.933
 5550SOL     OW17548   2.802   6.604   2.492
 5550SOL    HW117549   2.837   6.591   2.399
 5550SOL    HW217550   2.781   6.515   2.533
 5551SOL     OW17551   0.746   1.125   3.143
 5551SOL    HW117552   0.690   1.180   3.205
 5551SOL    HW217553   0.841   1.154   3.150
 5552SOL     OW17554   0.905   2.629   2.147
 5552SOL    HW117555   0.988   2.574   2.144
 5552SOL    HW217556   0.896   2.682   2.063
 5553SOL     OW17557   4.247   6.052   6.538
 5553SOL    HW117558   4.249   6.055   6.638
 5553SOL    HW217559   4.243   6.145   6.501
 5554SOL     OW17560   3.769   1.057   4.376
 5554SOL    HW117561   3.858   1.075   4.335
 5554SOL    HW217562   3.728   0.977   4.332
 5555SOL     OW17563   0.790   6.050   1.714
 5555SOL    HW117564   0.887   6.030   1.727
 5555SOL    HW217565   0.741   6.033   1.799
 5556SOL     OW17566   0.910   0.827   4.420
 5556SOL    HW117567   0.904   0.924   4.396
 5556SOL    HW217568   1.005   0.798   4.419
 5557SOL     OW17569   2.340   0.598   2.992
 5557SOL    HW117570   2.392   0.569   2.911
 5557SOL    HW217571   2.242   0.598   2.970
 5558SOL     OW17572   5.048   2.507   5.427
 5558SOL    HW117573   5.080   2.599   5.450
 5558SOL    HW217574   4.953   2.511   5.395
 5559SOL     OW17575   2.135   0.686   1.486
 5559SOL    HW117576   2.079   0.615   1.442
 5559SOL    HW217577   2.177   0.649   1.568
 5560SOL     OW17578   7.024   1.047   4.349
 5560SOL    HW117579   6.931   1.013   4.361
 5560SOL    HW217580   0.060   0.999   4.410
 5561SOL     OW17581   1.789   3.754   2.323
 5561SOL    HW117582   1.815   3.658   2.314
 5561SOL    HW217583   1.701   3.769   2.278
 5562SOL     OW17584   2.849   1.983   6.948
 5562SOL    HW117585   2.788   2.062   6.947
 5562SOL    HW217586   2.915   1.991   6.873
 5563SOL     OW17587   4.072   4.207   1.638
 5563SOL    HW117588   3.988   4.155   1.624
 5563SOL    HW217589   4.068   4.291   1.583
 5564SOL     OW17590   5.369   2.092   1.443
 5564SOL    HW117591   5.376   2.055   1.350
 5564SOL    HW217592   5.350   2.018   1.507
 5565SOL     OW17593   2.618   2.614   5.386
 5565SOL    HW117594   2.660   2.532   5.425
 5565SOL    HW217595   2.631   2.691   5.448
 5566SOL     OW17596   2.435   4.108   0.502
 5566SOL    HW117597   2.410   4.012   0.493
 5566SOL    HW217598   2.485   4.122   0.588
 5567SOL     OW17599   1.552   5.229   2.994
 5567SOL    HW117600   1.473   5.289   3.003
 5567SOL    HW217601   1.527   5.136   3.022
 5568SOL     OW17602   3.759   2.689   0.376
 5568SOL    HW117603   3.748   2.610   0.316
 5568SOL    HW217604   3.839   2.741   0.348
 5569SOL     OW17605   4.804   2.019   6.506
 5569SOL    HW117606   4.744   1.976   6.574
 5569SOL    HW217607   4.874   2.073   6.552
 5570SOL     OW17608   1.518   3.222   5.012
 5570SOL    HW117609   1.484   3.157   4.944
 5570SOL    HW217610   1.536   3.174   5.098
 5571SOL     OW17611   6.590   4.498   6.632
 5571SOL    HW117612   6.658   4.510   6.560
 5571SOL    HW217613   6.622   4.429   6.697
 5572SOL     OW17614   0.157   3.221   4.742
 5572SOL    HW117615   0.147   3.215   4.841
 5572SOL    HW217616   0.195   3.311   4.717
 5573SOL     OW17617   0.011   4.037   0.019
 5573SOL    HW117618   7.004   4.109   0.080
 5573SOL    HW217619   6.984   3.954   0.035
 5574SOL     OW17620   1.240   0.000   3.958
 5574SOL    HW117621   1.306   0.031   3.890
 5574SOL    HW217622   1.170   6.971   3.913
 5575SOL     OW17623   1.074   1.049   2.029
 5575SOL    HW117624   1.016   1.129   2.015
 5575SOL    HW217625   1.137   1.040   1.952
 5576SOL     OW17626   5.641   6.399   5.934
 5576SOL    HW117627   5.573   6.425   6.003
 5576SOL    HW217628   5.728   6.443   5.955
 5577SOL     OW17629   2.397   4.625   4.639
 5577SOL    HW117630   2.482   4.678   4.639
 5577SOL    HW217631   2.398   4.560   4.715
 5578SOL     OW17632   3.112   2.069   6.315
 5578SOL    HW117633   3.026   2.035   6.353
 5578SOL    HW217634   3.177   1.994   6.305
 5579SOL     OW17635   5.015   5.347   2.068
 5579SOL    HW117636   5.025   5.354   2.168
 5579SOL    HW217637   5.069   5.270   2.035
 5580SOL     OW17638   5.328   1.127   1.451
 5580SOL    HW117639   5.238   1.083   1.438
 5580SOL    HW217640   5.334   1.164   1.543
 5581SOL     OW17641   2.884   2.611   0.673
 5581SOL    HW117642   2.800   2.581   0.628
 5581SOL    HW217643   2.963   2.577   0.622
 5582SOL     OW17644   3.922   3.206   3.072
 5582SOL    HW117645   3.927   3.305   3.087
 5582SOL    HW217646   3.828   3.175   3.090
 5583SOL     OW17647   4.484   0.558   6.798
 5583SOL    HW117648   4.425   0.607   6.734
 5583SOL    HW217649   4.558   0.618   6.829
 5584SOL     OW17650   4.859   3.455   3.378
 5584SOL    HW117651   4.839   3.465   3.476
 5584SOL    HW217652   4.848   3.360   3.351
 5585SOL     OW17653   0.608   7.019   4.548
 5585SOL    HW117654   0.559   6.935   4.571
 5585SOL    HW217655   0.542   0.064   4.522
 5586SOL     OW17656   2.662   1.173   6.931
 5586SOL    HW117657   2.626   1.246   6.989
 5586SOL    HW217658   2.664   1.204   6.836
 5587SOL     OW17659   3.183   6.730   3.577
 5587SOL    HW117660   3.272   6.695   3.608
 5587SOL    HW217661   3.151   6.799   3.642
 5588SOL     OW17662   5.056   6.646   6.216
 5588SOL    HW117663   4.990   6.702   6.267
 5588SOL    HW217664   5.128   6.616   6.279
 5589SOL     OW17665   2.614   3.827   0.354
 5589SOL    HW117666   2.522   3.832   0.392
 5589SOL    HW217667   2.667   3.758   0.403
 5590SOL     OW17668   6.758   0.280   3.559
 5590SOL    HW117669   6.684   0.218   3.533
 5590SOL    HW217670   6.740   0.315   3.651
 5591SOL     OW17671   5.271   0.112   0.707
 5591SOL    HW117672   5.295   0.154   0.795
 5591SOL    HW217673   5.224   0.180   0.650
 5592SOL     OW17674   1.306   2.736   2.285
 5592SOL    HW117675   1.276   2.739   2.380
 5592SOL    HW217676   1.263   2.659   2.238
 5593SOL     OW17677   2.454   4.548   4.904
 5593SOL    HW117678   2.519   4.595   4.845
 5593SOL    HW217679   2.504   4.494   4.972
 5594SOL     OW17680   3.150   1.472   6.783
 5594SOL    HW117681   3.221   1.432   6.724
 5594SOL    HW217682   3.083   1.520   6.726
 5595SOL     OW17683   0.845   2.820   6.558
 5595SOL    HW117684   0.860   2.896   6.496
 5595SOL    HW217685   0.837   2.735   6.506
 5596SOL     OW17686   4.817   3.129   4.733
 5596SOL    HW117687   4.834   3.191   4.810
 5596SOL    HW217688   4.775   3.045   4.767
 5597SOL     OW17689   7.022   1.857   6.836
 5597SOL    HW117690   0.045   1.812   6.763
 5597SOL    HW217691   6.931   1.816   6.846
 5598SOL     OW17692   6.560   1.248   3.748
 5598SOL    HW117693   6.623   1.172   3.762
 5598SOL    HW217694   6.605   1.334   3.774
 5599SOL     OW17695   5.960   2.838   3.398
 5599SOL    HW117696   5.921   2.891   3.322
 5599SOL    HW217697   5.912   2.751   3.407
 5600SOL     OW17698   1.988   2.939   2.040
 5600SOL    HW117699   1.954   2.956   1.948
 5600SOL    HW217700   1.986   3.025   2.092
 5601SOL     OW17701   5.800   2.974   5.699
 5601SOL    HW117702   5.862   2.896   5.711
 5601SOL    HW217703   5.784   3.017   5.788
 5602SOL     OW17704   6.118   2.155   3.028
 5602SOL    HW117705   6.156   2.063   3.020
 5602SOL    HW217706   6.166   2.217   2.966
 5603SOL     OW17707   3.468   2.253   6.355
 5603SOL    HW117708   3.512   2.168   6.385
 5603SOL    HW217709   3.423   2.238   6.268
 5604SOL     OW17710   1.040   6.048   3.769
 5604SOL    HW117711   1.126   6.100   3.772
 5604SOL    HW217712   0.998   6.058   3.679
 5605SOL     OW17713   4.210   0.560   3.939
 5605SOL    HW117714   4.259   0.633   3.892
 5605SOL    HW217715   4.127   0.596   3.980
 5606SOL     OW17716   4.762   3.401   0.654
 5606SOL    HW117717   4.783   3.362   0.744
 5606SOL    HW217718   4.832   3.469   0.631
 5607SOL     OW17719   6.909   2.488   3.039
 5607SOL    HW117720   6.831   2.488   2.977
 5607SOL    HW217721   6.962   2.405   3.025
 5608SOL     OW17722   5.554   0.301   4.196
 5608SOL    HW117723   5.622   0.373   4.187
 5608SOL    HW217724   5.544   0.254   4.108
 5609SOL     OW17725   6.402   0.698   0.517
 5609SOL    HW117726   6.462   0.734   0.588
 5609SOL    HW217727   6.320   0.755   0.510
 5610SOL     OW17728   5.744   5.922   5.854
 5610SOL    HW117729   5.658   5.872   5.842
 5610SOL    HW217730   5.809   5.866   5.904
 5611SOL     OW17731   6.561   3.851   1.856
 5611SOL    HW117732   6.530   3.876   1.948
 5611SOL    HW217733   6.505   3.775   1.822
 5612SOL     OW17734   4.363   2.301   0.976
 5612SOL    HW117735   4.389   2.297   0.880
 5612SOL    HW217736   4.326   2.392   0.996
 5613SOL     OW17737   6.190   5.055   5.790
 5613SOL    HW117738   6.101   5.042   5.833
 5613SOL    HW217739   6.257   4.997   5.836
 5614SOL     OW17740   4.821   1.695   5.222
 5614SOL    HW117741   4.854   1.631   5.291
 5614SOL    HW217742   4.881   1.775   5.218
 5615SOL     OW17743   0.764   3.173   3.348
 5615SOL    HW117744   0.758   3.073   3.356
 5615SOL    HW217745   0.807   3.197   3.261
 5616SOL     OW17746   1.551   3.257   1.739
 5616SOL    HW117747   1.646   3.231   1.725
 5616SOL    HW217748   1.495   3.224   1.663
 5617SOL     OW17749   1.087   5.381   6.207
 5617SOL    HW117750   1.061   5.477   6.211
 5617SOL    HW217751   1.032   5.329   6.272
 5618SOL     OW17752   4.532   6.994   2.534
 5618SOL    HW117753   4.501   6.980   2.440
 5618SOL    HW217754   4.469   6.947   2.597
 5619SOL     OW17755   3.351   3.223   3.208
 5619SOL    HW117756   3.253   3.230   3.221
 5619SOL    HW217757   3.374   3.242   3.112
 5620SOL     OW17758   5.250   4.405   4.893
 5620SOL    HW117759   5.222   4.375   4.802
 5620SOL    HW217760   5.260   4.325   4.952
 5621SOL     OW17761   1.076   2.665   6.789
 5621SOL    HW117762   1.143   2.628   6.852
 5621SOL    HW217763   1.064   2.763   6.806
 5622SOL     OW17764   5.097   5.843   3.958
 5622SOL    HW117765   5.044   5.784   3.896
 5622SOL    HW217766   5.054   5.843   4.048
 5623SOL     OW17767   4.758   4.729   4.109
 5623SOL    HW117768   4.807   4.669   4.171
 5623SOL    HW217769   4.666   4.747   4.144
 5624SOL     OW17770   4.867   3.811   3.687
 5624SOL    HW117771   4.864   3.909   3.668
 5624SOL    HW217772   4.893   3.762   3.604
 5625SOL     OW17773   3.110   6.280   6.087
 5625SOL    HW117774   3.167   6.226   6.148
 5625SOL    HW217775   3.020   6.237   6.078
 5626SOL     OW17776   1.597   5.427   6.587
 5626SOL    HW117777   1.597   5.522   6.559
 5626SOL    HW217778   1.591   5.368   6.507
 5627SOL     OW17779   1.207   5.508   0.894
 5627SOL    HW117780   1.304   5.531   0.889
 5627SOL    HW217781   1.176   5.476   0.804
 5628SOL     OW17782   1.671   3.115   0.272
 5628SOL    HW117783   1.676   3.200   0.219
 5628SOL    HW217784   1.733   3.120   0.350
 5629SOL     OW17785   6.786   3.738   4.297
 5629SOL    HW117786   6.803   3.830   4.333
 5629SOL    HW217787   6.697   3.735   4.253
 5630SOL     OW17788   1.381   3.723   0.452
 5630SOL    HW117789   1.435   3.781   0.392
 5630SOL    HW217790   1.401   3.745   0.547
 5631SOL     OW17791   3.778   0.451   1.469
 5631SOL    HW117792   3.789   0.367   1.416
 5631SOL    HW217793   3.801   0.433   1.565
 5632SOL     OW17794   3.970   5.979   6.894
 5632SOL    HW117795   4.059   6.014   6.863
 5632SOL    HW217796   3.984   5.904   6.958
 5633SOL     OW17797   1.104   5.966   5.547
 5633SOL    HW117798   1.018   5.920   5.567
 5633SOL    HW217799   1.121   6.037   5.616
 5634SOL     OW17800   2.572   1.101   1.812
 5634SOL    HW117801   2.530   1.054   1.735
 5634SOL    HW217802   2.511   1.175   1.843
 5635SOL     OW17803   3.529   0.777   2.263
 5635SOL    HW117804   3.446   0.817   2.223
 5635SOL    HW217805   3.603   0.782   2.196
 5636SOL     OW17806   5.752   0.771   5.647
 5636SOL    HW117807   5.712   0.790   5.558
 5636SOL    HW217808   5.826   0.837   5.665
 5637SOL     OW17809   5.002   6.871   4.669
 5637SOL    HW117810   5.000   6.847   4.766
 5637SOL    HW217811   4.912   6.903   4.640
 5638SOL     OW17812   6.701   5.157   0.248
 5638SOL    HW117813   6.684   5.149   0.346
 5638SOL    HW217814   6.637   5.099   0.198
 5639SOL     OW17815   3.673   0.443   1.946
 5639SOL    HW117816   3.629   0.358   1.917
 5639SOL    HW217817   3.648   0.462   2.041
 5640SOL     OW17818   2.808   7.006   3.688
 5640SOL    HW117819   2.775   6.964   3.772
 5640SOL    HW217820   2.740   6.994   3.615
 5641SOL     OW17821   6.608   4.395   3.829
 5641SOL    HW117822   6.548   4.335   3.776
 5641SOL    HW217823   6.688   4.419   3.774
 5642SOL     OW17824   1.885   3.147   6.308
 5642SOL    HW117825   1.948   3.077   6.273
 5642SOL    HW217826   1.938   3.228   6.335
 5643SOL     OW17827   6.159   2.516   4.026
 5643SOL    HW117828   6.060   2.523   4.025
 5643SOL    HW217829   6.186   2.421   4.013
 5644SOL     OW17830   3.812   0.461   5.845
 5644SOL    HW117831   3.889   0.439   5.785
 5644SOL    HW217832   3.758   0.535   5.806
 5645SOL     OW17833   5.726   6.574   3.072
 5645SOL    HW117834   5.673   6.500   3.032
 5645SOL    HW217835   5.716   6.572   3.171
 5646SOL     OW17836   6.278   0.002   4.085
 5646SOL    HW117837   6.216   0.068   4.041
 5646SOL    HW217838   6.339   6.989   4.016
 5647SOL     OW17839   6.836   3.736   6.501
 5647SOL    HW117840   6.788   3.821   6.525
 5647SOL    HW217841   6.929   3.757   6.474
 5648SOL     OW17842   2.652   1.583   4.271
 5648SOL    HW117843   2.595   1.556   4.348
 5648SOL    HW217844   2.628   1.677   4.244
 5649SOL     OW17845   0.781   0.645   5.888
 5649SOL    HW117846   0.699   0.703   5.883
 5649SOL    HW217847   0.861   0.703   5.901
 5650SOL     OW17848   6.857   5.088   5.410
 5650SOL    HW117849   6.875   5.129   5.499
 5650SOL    HW217850   6.938   5.038   5.379
 5651SOL     OW17851   5.837   1.654   2.229
 5651SOL    HW117852   5.909   1.681   2.165
 5651SOL    HW217853   5.845   1.708   2.313
 5652SOL     OW17854   5.406   4.207   0.284
 5652SOL    HW117855   5.389   4.234   0.189
 5652SOL    HW217856   5.502   4.226   0.307
 5653SOL     OW17857   2.160   5.620   0.056
 5653SOL    HW117858   2.110   5.553   0.111
 5653SOL    HW217859   2.222   5.672   0.115
 5654SOL     OW17860   1.451   6.195   0.312
 5654SOL    HW117861   1.489   6.264   0.373
 5654SOL    HW217862   1.411   6.239   0.232
 5655SOL     OW17863   6.529   5.239   2.941
 5655SOL    HW117864   6.570   5.201   2.857
 5655SOL    HW217865   6.594   5.303   2.983
 5656SOL     OW17866   3.711   5.680   6.671
 5656SOL    HW117867   3.662   5.685   6.758
 5656SOL    HW217868   3.777   5.755   6.666
 5657SOL     OW17869   4.596   5.423   2.076
 5657SOL    HW117870   4.498   5.408   2.091
 5657SOL    HW217871   4.649   5.355   2.128
 5658SOL     OW17872   5.399   6.288   6.078
 5658SOL    HW117873   5.372   6.221   6.147
 5658SOL    HW217874   5.418   6.241   5.992
 5659SOL     OW17875   2.996   3.180   3.050
 5659SOL    HW117876   2.965   3.261   3.001
 5659SOL    HW217877   3.053   3.125   2.989
 5660SOL     OW17878   6.351   6.233   1.547
 5660SOL    HW117879   6.410   6.190   1.615
 5660SOL    HW217880   6.321   6.322   1.579
 5661SOL     OW17881   6.324   5.670   4.383
 5661SOL    HW117882   6.376   5.739   4.332
 5661SOL    HW217883   6.388   5.606   4.426
 5662SOL     OW17884   2.382   4.908   4.994
 5662SOL    HW117885   2.376   4.821   5.044
 5662SOL    HW217886   2.387   4.889   4.896
 5663SOL     OW17887   2.602   4.331   1.409
 5663SOL    HW117888   2.693   4.296   1.429
 5663SOL    HW217889   2.579   4.404   1.472
 5664SOL     OW17890   6.768   6.162   1.912
 5664SOL    HW117891   6.856   6.118   1.893
 5664SOL    HW217892   6.784   6.241   1.972
 5665SOL     OW17893   1.157   1.636   5.944
 5665SOL    HW117894   1.246   1.589   5.941
 5665SOL    HW217895   1.114   1.632   5.854
 5666SOL     OW17896   5.832   5.538   0.242
 5666SOL    HW117897   5.792   5.517   0.153
 5666SOL    HW217898   5.918   5.488   0.252
 5667SOL     OW17899   6.033   4.793   2.636
 5667SOL    HW117900   6.032   4.759   2.542
 5667SOL    HW217901   6.077   4.883   2.638
 5668SOL     OW17902   6.091   3.034   6.036
 5668SOL    HW117903   6.102   3.031   5.937
 5668SOL    HW217904   6.181   3.033   6.080
 5669SOL     OW17905   0.455   3.184   4.436
 5669SOL    HW117906   0.359   3.211   4.430
 5669SOL    HW217907   0.464   3.089   4.406
 5670SOL     OW17908   1.389   3.840   2.436
 5670SOL    HW117909   1.299   3.835   2.393
 5670SOL    HW217910   1.402   3.762   2.496
 5671SOL     OW17911   1.062   0.740   5.033
 5671SOL    HW117912   1.112   0.812   5.080
 5671SOL    HW217913   1.118   0.704   4.958
 5672SOL     OW17914   5.018   3.984   5.998
 5672SOL    HW117915   4.925   4.021   6.004
 5672SOL    HW217916   5.051   3.962   6.090
 5673SOL     OW17917   1.670   6.931   0.714
 5673SOL    HW117918   1.648   6.967   0.624
 5673SOL    HW217919   1.744   6.986   0.754
 5674SOL     OW17920   6.821   3.320   1.339
 5674SOL    HW117921   6.805   3.221   1.338
 5674SOL    HW217922   6.813   3.356   1.246
 5675SOL     OW17923   3.888   0.931   6.202
 5675SOL    HW117924   3.917   0.845   6.246
 5675SOL    HW217925   3.957   0.957   6.134
 5676SOL     OW17926   3.201   6.861   1.607
 5676SOL    HW117927   3.178   6.792   1.675
 5676SOL    HW217928   3.182   6.826   1.516
 5677SOL     OW17929   6.699   0.370   3.294
 5677SOL    HW117930   6.774   0.353   3.230
 5677SOL    HW217931   6.718   0.325   3.381
 5678SOL     OW17932   1.412   5.854   3.511
 5678SOL    HW117933   1.411   5.845   3.611
 5678SOL    HW217934   1.386   5.766   3.470
 5679SOL     OW17935   3.104   5.392   5.359
 5679SOL    HW117936   3.204   5.391   5.357
 5679SOL    HW217937   3.070   5.301   5.337
 5680SOL     OW17938   1.707   6.771   6.699
 5680SOL    HW117939   1.686   6.755   6.795
 5680SOL    HW217940   1.763   6.853   6.690
 5681SOL     OW17941   2.686   3.956   6.972
 5681SOL    HW117942   2.755   3.997   6.912
 5681SOL    HW217943   2.659   3.867   6.936
 5682SOL     OW17944   1.404   3.746   4.127
 5682SOL    HW117945   1.418   3.657   4.083
 5682SOL    HW217946   1.452   3.747   4.214
 5683SOL     OW17947   3.828   3.886   5.101
 5683SOL    HW117948   3.866   3.839   5.022
 5683SOL    HW217949   3.789   3.819   5.164
 5684SOL     OW17950   3.095   3.211   3.300
 5684SOL    HW117951   3.044   3.202   3.214
 5684SOL    HW217952   3.070   3.297   3.345
 5685SOL     OW17953   0.273   5.648   2.021
 5685SOL    HW117954   0.213   5.717   2.063
 5685SOL    HW217955   0.368   5.672   2.036
 5686SOL     OW17956   3.298   4.677   0.113
 5686SOL    HW117957   3.314   4.638   0.204
 5686SOL    HW217958   3.271   4.773   0.123
 5687SOL     OW17959   4.056   5.383   6.435
 5687SOL    HW117960   4.090   5.454   6.373
 5687SOL    HW217961   4.095   5.397   6.526
 5688SOL     OW17962   5.677   1.803   1.998
 5688SOL    HW117963   5.706   1.761   2.084
 5688SOL    HW217964   5.596   1.755   1.963
 5689SOL     OW17965   4.349   3.209   6.170
 5689SOL    HW117966   4.343   3.112   6.194
 5689SOL    HW217967   4.436   3.246   6.204
 5690SOL     OW17968   4.399   6.491   2.539
 5690SOL    HW117969   4.372   6.447   2.454
 5690SOL    HW217970   4.350   6.577   2.550
 5691SOL     OW17971   2.557   0.410   3.920
 5691SOL    HW117972   2.573   0.345   3.845
 5691SOL    HW217973   2.459   0.421   3.933
 5692SOL     OW17974   5.738   2.936   6.567
 5692SOL    HW117975   5.785   2.878   6.500
 5692SOL    HW217976   5.657   2.890   6.601
 5693SOL     OW17977   5.001   2.289   2.568
 5693SOL    HW117978   4.998   2.253   2.475
 5693SOL    HW217979   5.014   2.214   2.633
 5694SOL     OW17980   1.333   1.774   3.892
 5694SOL    HW117981   1.332   1.688   3.840
 5694SOL    HW217982   1.325   1.754   3.990
 5695SOL     OW17983   2.083   3.262   3.367
 5695SOL    HW117984   2.064   3.352   3.406
 5695SOL    HW217985   1.997   3.213   3.352
 5696SOL     OW17986   3.162   0.366   5.917
 5696SOL    HW117987   3.247   0.402   5.956
 5696SOL    HW217988   3.106   0.327   5.990
 5697SOL     OW17989   6.277   3.709   0.178
 5697SOL    HW117990   6.339   3.660   0.117
 5697SOL    HW217991   6.328   3.746   0.255
 5698SOL     OW17992   1.232   4.146   3.147
 5698SOL    HW117993   1.305   4.214   3.140
 5698SOL    HW217994   1.234   4.103   3.237
 5699SOL     OW17995   6.778   2.680   4.924
 5699SOL    HW117996   6.755   2.777   4.919
 5699SOL    HW217997   6.877   2.670   4.927
 5700SOL     OW17998   0.775   5.832   3.661
 5700SOL    HW117999   0.692   5.807   3.709
 5700SOL    HW218000   0.751   5.871   3.572
 5701SOL     OW18001   5.428   4.307   2.336
 5701SOL    HW118002   5.389   4.395   2.362
 5701SOL    HW218003   5.528   4.315   2.329
 5702SOL     OW18004   2.470   0.215   6.957
 5702SOL    HW118005   2.555   0.234   7.006
 5702SOL    HW218006   2.420   0.142   7.003
 5703SOL     OW18007   4.912   4.246   1.838
 5703SOL    HW118008   4.823   4.204   1.852
 5703SOL    HW218009   4.929   4.314   1.908
 5704SOL     OW18010   5.122   3.884   3.256
 5704SOL    HW118011   5.091   3.865   3.163
 5704SOL    HW218012   5.050   3.862   3.321
 5705SOL     OW18013   6.160   1.681   3.234
 5705SOL    HW118014   6.224   1.739   3.285
 5705SOL    HW218015   6.067   1.717   3.244
 5706SOL     OW18016   2.056   1.465   6.641
 5706SOL    HW118017   1.983   1.533   6.650
 5706SOL    HW218018   2.033   1.400   6.569
 5707SOL     OW18019   2.791   1.265   6.693
 5707SOL    HW118020   2.862   1.333   6.673
 5707SOL    HW218021   2.703   1.297   6.659
 5708SOL     OW18022   6.699   0.077   1.639
 5708SOL    HW118023   6.725   0.102   1.545
 5708SOL    HW218024   6.649   7.016   1.637
 5709SOL     OW18025   1.274   2.013   1.675
 5709SOL    HW118026   1.259   1.971   1.764
 5709SOL    HW218027   1.302   1.942   1.610
 5710SOL     OW18028   3.458   4.363   6.374
 5710SOL    HW118029   3.481   4.393   6.282
 5710SOL    HW218030   3.518   4.408   6.440
 5711SOL     OW18031   5.093   1.132   4.643
 5711SOL    HW118032   5.192   1.124   4.657
 5711SOL    HW218033   5.046   1.124   4.731
 5712SOL     OW18034   6.486   6.155   6.943
 5712SOL    HW118035   6.548   6.134   6.867
 5712SOL    HW218036   6.410   6.090   6.943
 5713SOL     OW18037   0.295   2.662   2.438
 5713SOL    HW118038   0.354   2.698   2.511
 5713SOL    HW218039   0.352   2.629   2.363
 5714SOL     OW18040   2.108   0.735   6.198
 5714SOL    HW118041   2.055   0.813   6.164
 5714SOL    HW218042   2.206   0.755   6.190
 5715SOL     OW18043   1.089   6.904   3.759
 5715SOL    HW118044   1.144   6.985   3.743
 5715SOL    HW218045   1.082   6.851   3.674
 5716SOL     OW18046   2.069   2.341   4.998
 5716SOL    HW118047   2.164   2.335   5.029
 5716SOL    HW218048   2.007   2.321   5.075
 5717SOL     OW18049   0.525   3.924   6.743
 5717SOL    HW118050   0.480   3.848   6.696
 5717SOL    HW218051   0.543   3.998   6.678
 5718SOL     OW18052   2.428   4.986   5.611
 5718SOL    HW118053   2.416   4.887   5.624
 5718SOL    HW218054   2.484   5.002   5.530
 5719SOL     OW18055   2.213   0.528   0.696
 5719SOL    HW118056   2.207   0.626   0.716
 5719SOL    HW218057   2.307   0.498   0.705
 5720SOL     OW18058   1.183   5.717   3.953
 5720SOL    HW118059   1.139   5.635   3.916
 5720SOL    HW218060   1.115   5.790   3.963
 5721SOL     OW18061   6.927   4.433   0.842
 5721SOL    HW118062   6.974   4.383   0.769
 5721SOL    HW218063   6.921   4.374   0.923
 5722SOL     OW18064   5.456   1.500   4.188
 5722SOL    HW118065   5.449   1.490   4.287
 5722SOL    HW218066   5.366   1.488   4.147
 5723SOL     OW18067   1.397   4.324   1.102
 5723SOL    HW118068   1.478   4.268   1.118
 5723SOL    HW218069   1.339   4.281   1.033
 5724SOL     OW18070   4.776   2.467   5.939
 5724SOL    HW118071   4.711   2.399   5.972
 5724SOL    HW218072   4.782   2.543   6.004
 5725SOL     OW18073   5.227   5.969   5.597
 5725SOL    HW118074   5.283   6.052   5.601
 5725SOL    HW218075   5.208   5.946   5.501
 5726SOL     OW18076   4.399   3.917   5.656
 5726SOL    HW118077   4.462   3.853   5.612
 5726SOL    HW218078   4.428   4.011   5.639
 5727SOL     OW18079   5.826   2.242   3.852
 5727SOL    HW118080   5.738   2.255   3.806
 5727SOL    HW218081   5.852   2.327   3.898
 5728SOL     OW18082   4.775   0.572   5.493
 5728SOL    HW118083   4.780   0.571   5.593
 5728SOL    HW218084   4.851   0.626   5.457
 5729SOL     OW18085   1.272   2.872   4.502
 5729SOL    HW118086   1.213   2.950   4.525
 5729SOL    HW218087   1.354   2.904   4.454
 5730SOL     OW18088   3.907   5.255   0.666
 5730SOL    HW118089   3.896   5.170   0.716
 5730SOL    HW218090   3.824   5.276   0.615
 5731SOL     OW18091   4.259   1.685   4.817
 5731SOL    HW118092   4.261   1.619   4.893
 5731SOL    HW218093   4.185   1.662   4.755
 5732SOL     OW18094   5.387   4.221   4.201
 5732SOL    HW118095   5.435   4.214   4.289
 5732SOL    HW218096   5.371   4.317   4.180
 5733SOL     OW18097   2.740   7.025   1.488
 5733SOL    HW118098   2.747   0.033   1.582
 5733SOL    HW218099   2.755   6.926   1.488
 5734SOL     OW18100   1.463   6.336   6.487
 5734SOL    HW118101   1.491   6.349   6.392
 5734SOL    HW218102   1.535   6.368   6.548
 5735SOL     OW18103   5.275   0.971   1.779
 5735SOL    HW118104   5.244   0.878   1.760
 5735SOL    HW218105   5.199   1.035   1.762
 5736SOL     OW18106   5.933   4.020   6.451
 5736SOL    HW118107   5.956   3.983   6.541
 5736SOL    HW218108   5.993   4.097   6.430
 5737SOL     OW18109   5.153   5.816   2.240
 5737SOL    HW118110   5.215   5.887   2.208
 5737SOL    HW218111   5.153   5.813   2.339
 5738SOL     OW18112   2.325   0.828   0.954
 5738SOL    HW118113   2.268   0.830   1.036
 5738SOL    HW218114   2.407   0.773   0.972
 5739SOL     OW18115   2.480   0.967   5.793
 5739SOL    HW118116   2.421   1.047   5.797
 5739SOL    HW218117   2.575   0.995   5.808
 5740SOL     OW18118   4.940   3.599   2.971
 5740SOL    HW118119   4.905   3.523   2.916
 5740SOL    HW218120   5.000   3.563   3.042
 5741SOL     OW18121   1.656   3.464   4.358
 5741SOL    HW118122   1.624   3.425   4.445
 5741SOL    HW218123   1.749   3.434   4.340
 5742SOL     OW18124   5.927   6.764   3.023
 5742SOL    HW118125   5.969   6.781   3.112
 5742SOL    HW218126   5.851   6.700   3.033
 5743SOL     OW18127   3.553   5.774   0.292
 5743SOL    HW118128   3.595   5.713   0.224
 5743SOL    HW218129   3.625   5.820   0.344
 5744SOL     OW18130   5.187   6.451   3.445
 5744SOL    HW118131   5.252   6.403   3.504
 5744SOL    HW218132   5.145   6.387   3.381
 5745SOL     OW18133   0.962   3.056   2.318
 5745SOL    HW118134   1.024   3.132   2.300
 5745SOL    HW218135   0.922   3.024   2.232
 5746SOL     OW18136   5.270   0.179   2.798
 5746SOL    HW118137   5.358   0.156   2.758
 5746SOL    HW218138   5.266   0.144   2.892
 5747SOL     OW18139   1.475   6.748   1.086
 5747SOL    HW118140   1.520   6.709   1.006
 5747SOL    HW218141   1.483   6.848   1.084
 5748SOL     OW18142   6.841   6.111   0.299
 5748SOL    HW118143   6.766   6.115   0.233
 5748SOL    HW218144   6.872   6.204   0.320
 5749SOL     OW18145   1.794   5.751   5.856
 5749SOL    HW118146   1.860   5.797   5.916
 5749SOL    HW218147   1.752   5.674   5.906
 5750SOL     OW18148   6.876   2.830   4.302
 5750SOL    HW118149   6.889   2.767   4.378
 5750SOL    HW218150   6.782   2.864   4.304
 5751SOL     OW18151   1.243   3.965   4.537
 5751SOL    HW118152   1.176   3.955   4.610
 5751SOL    HW218153   1.203   3.936   4.450
 5752SOL     OW18154   5.299   0.695   0.118
 5752SOL    HW118155   5.363   0.618   0.118
 5752SOL    HW218156   5.265   0.710   0.026
 5753SOL     OW18157   3.201   4.114   4.490
 5753SOL    HW118158   3.133   4.076   4.553
 5753SOL    HW218159   3.272   4.161   4.542
 5754SOL     OW18160   0.022   6.094   1.092
 5754SOL    HW118161   0.040   6.071   1.188
 5754SOL    HW218162   7.021   6.190   1.086
 5755SOL     OW18163   0.920   3.530   6.601
 5755SOL    HW118164   0.852   3.513   6.671
 5755SOL    HW218165   1.003   3.567   6.643
 5756SOL     OW18166   6.056   5.882   2.056
 5756SOL    HW118167   6.058   5.935   2.141
 5756SOL    HW218168   6.144   5.891   2.010
 5757SOL     OW18169   6.892   1.242   3.790
 5757SOL    HW118170   6.855   1.229   3.882
 5757SOL    HW218171   6.872   1.335   3.760
 5758SOL     OW18172   6.182   6.564   2.723
 5758SOL    HW118173   6.229   6.594   2.806
 5758SOL    HW218174   6.092   6.607   2.719
 5759SOL     OW18175   3.159   0.301   2.084
 5759SOL    HW118176   3.141   0.314   1.987
 5759SOL    HW218177   3.146   0.204   2.107
 5760SOL     OW18178   1.669   2.597   0.307
 5760SOL    HW118179   1.660   2.681   0.253
 5760SOL    HW218180   1.598   2.596   0.378
 5761SOL     OW18181   6.760   6.954   4.655
 5761SOL    HW118182   6.697   6.881   4.682
 5761SOL    HW218183   6.846   6.944   4.705
 5762SOL     OW18184   0.742   5.483   6.193
 5762SOL    HW118185   0.782   5.572   6.214
 5762SOL    HW218186   0.667   5.465   6.257
 5763SOL     OW18187   5.578   0.044   0.579
 5763SOL    HW118188   5.551   6.996   0.518
 5763SOL    HW218189   5.523   0.125   0.560
 5764SOL     OW18190   4.332   6.409   4.046
 5764SOL    HW118191   4.269   6.333   4.028
 5764SOL    HW218192   4.341   6.423   4.145
 5765SOL     OW18193   6.405   4.886   2.354
 5765SOL    HW118194   6.487   4.940   2.373
 5765SOL    HW218195   6.334   4.909   2.420
 5766SOL     OW18196   0.622   1.221   4.218
 5766SOL    HW118197   0.619   1.187   4.124
 5766SOL    HW218198   0.548   1.179   4.271
 5767SOL     OW18199   4.061   6.701   6.878
 5767SOL    HW118200   4.084   6.795   6.850
 5767SOL    HW218201   4.015   6.704   6.966
 5768SOL     OW18202   1.062   1.184   5.358
 5768SOL    HW118203   1.134   1.233   5.308
 5768SOL    HW218204   1.017   1.246   5.421
 5769SOL     OW18205   1.525   3.553   5.695
 5769SOL    HW118206   1.592   3.483   5.720
 5769SOL    HW218207   1.574   3.634   5.661
 5770SOL     OW18208   1.855   4.140   2.040
 5770SOL    HW118209   1.791   4.166   1.967
 5770SOL    HW218210   1.858   4.041   2.049
 5771SOL     OW18211   3.248   5.155   3.831
 5771SOL    HW118212   3.236   5.127   3.735
 5771SOL    HW218213   3.162   5.195   3.864
 5772SOL     OW18214   3.401   6.972   2.798
 5772SOL    HW118215   3.473   6.912   2.831
 5772SOL    HW218216   3.312   6.929   2.812
 5773SOL     OW18217   5.617   1.199   2.354
 5773SOL    HW118218   5.677   1.205   2.275
 5773SOL    HW218219   5.638   1.116   2.406
 5774SOL     OW18220   0.843   6.584   2.881
 5774SOL    HW118221   0.796   6.659   2.927
 5774SOL    HW218222   0.849   6.604   2.783
 5775SOL     OW18223   6.393   5.133   1.422
 5775SOL    HW118224   6.371   5.175   1.334
 5775SOL    HW218225   6.367   5.036   1.419
 5776SOL     OW18226   2.567   0.900   4.158
 5776SOL    HW118227   2.487   0.941   4.201
 5776SOL    HW218228   2.648   0.956   4.178
 5777SOL     OW18229   1.896   6.808   1.759
 5777SOL    HW118230   1.889   6.907   1.772
 5777SOL    HW218231   1.953   6.788   1.680
 5778SOL     OW18232   0.121   0.951   1.051
 5778SOL    HW118233   0.147   0.888   0.978
 5778SOL    HW218234   0.047   1.011   1.019
 5779SOL     OW18235   5.983   1.209   6.264
 5779SOL    HW118236   5.955   1.164   6.348
 5779SOL    HW218237   5.953   1.155   6.185
 5780SOL     OW18238   5.456   5.052   4.113
 5780SOL    HW118239   5.378   5.086   4.166
 5780SOL    HW218240   5.525   5.016   4.175
 5781SOL     OW18241   1.331   5.494   5.878
 5781SOL    HW118242   1.293   5.578   5.916
 5781SOL    HW218243   1.429   5.507   5.860
 5782SOL     OW18244   0.488   0.661   0.446
 5782SOL    HW118245   0.462   0.573   0.486
 5782SOL    HW218246   0.413   0.726   0.458
 5783SOL     OW18247   2.416   2.366   0.458
 5783SOL    HW118248   2.391   2.315   0.541
 5783SOL    HW218249   2.338   2.418   0.426
 5784SOL     OW18250   6.674   6.133   6.764
 5784SOL    HW118251   6.771   6.110   6.767
 5784SOL    HW218252   6.636   6.107   6.675
 5785SOL     OW18253   1.196   1.176   0.263
 5785SOL    HW118254   1.155   1.128   0.340
 5785SOL    HW218255   1.188   1.120   0.180
 5786SOL     OW18256   6.157   5.372   1.450
 5786SOL    HW118257   6.238   5.430   1.442
 5786SOL    HW218258   6.138   5.354   1.547
 5787SOL     OW18259   2.259   3.068   6.472
 5787SOL    HW118260   2.189   3.072   6.401
 5787SOL    HW218261   2.215   3.064   6.562
 5788SOL     OW18262   2.929   0.603   3.371
 5788SOL    HW118263   3.009   0.651   3.335
 5788SOL    HW218264   2.858   0.600   3.301
 5789SOL     OW18265   3.925   4.743   6.101
 5789SOL    HW118266   3.982   4.676   6.055
 5789SOL    HW218267   3.904   4.818   6.038
 5790SOL     OW18268   1.357   3.258   3.352
 5790SOL    HW118269   1.266   3.278   3.388
 5790SOL    HW218270   1.349   3.218   3.261
 5791SOL     OW18271   2.061   0.590   2.930
 5791SOL    HW118272   2.059   0.676   2.981
 5791SOL    HW218273   1.985   0.588   2.865
 5792SOL     OW18274   0.024   2.682   2.499
 5792SOL    HW118275   0.120   2.678   2.472
 5792SOL    HW218276   0.016   2.731   2.586
 5793SOL     OW18277   0.136   1.075   3.790
 5793SOL    HW118278   0.133   1.004   3.860
 5793SOL    HW218279   0.048   1.122   3.786
 5794SOL     OW18280   5.330   4.662   6.246
 5794SOL    HW118281   5.323   4.562   6.254
 5794SOL    HW218282   5.242   4.703   6.272
 5795SOL     OW18283   5.530   4.096   6.727
 5795SOL    HW118284   5.502   4.062   6.816
 5795SOL    HW218285   5.623   4.132   6.732
 5796SOL     OW18286   3.726   2.566   0.859
 5796SOL    HW118287   3.708   2.505   0.782
 5796SOL    HW218288   3.697   2.659   0.836
 5797SOL     OW18289   3.614   2.916   6.079
 5797SOL    HW118290   3.631   3.011   6.054
 5797SOL    HW218291   3.699   2.864   6.076
 5798SOL     OW18292   6.730   5.395   4.212
 5798SOL    HW118293   6.735   5.372   4.309
 5798SOL    HW218294   6.784   5.477   4.193
 5799SOL     OW18295   5.306   0.516   3.627
 5799SOL    HW118296   5.359   0.447   3.577
 5799SOL    HW218297   5.368   0.588   3.660
 5800SOL     OW18298   5.966   5.284   0.323
 5800SOL    HW118299   5.937   5.262   0.230
 5800SOL    HW218300   5.896   5.255   0.388
 5801SOL     OW18301   2.356   1.155   2.915
 5801SOL    HW118302   2.303   1.077   2.948
 5801SOL    HW218303   2.443   1.160   2.964
 5802SOL     OW18304   0.160   2.573   4.442
 5802SOL    HW118305   0.201   2.575   4.534
 5802SOL    HW218306   0.222   2.617   4.377
 5803SOL     OW18307   1.842   5.042   0.662
 5803SOL    HW118308   1.766   5.105   0.677
 5803SOL    HW218309   1.808   4.949   0.656
 5804SOL     OW18310   6.403   3.241   5.769
 5804SOL    HW118311   6.482   3.230   5.829
 5804SOL    HW218312   6.411   3.327   5.718
 5805SOL     OW18313   5.912   3.094   6.700
 5805SOL    HW118314   5.843   3.036   6.656
 5805SOL    HW218315   5.869   3.144   6.775
 5806SOL     OW18316   0.372   6.853   7.020
 5806SOL    HW118317   0.368   6.802   0.080
 5806SOL    HW218318   0.467   6.874   6.998
 5807SOL     OW18319   2.113   3.649   1.902
 5807SOL    HW118320   2.080   3.697   1.984
 5807SOL    HW218321   2.176   3.576   1.929
 5808SOL     OW18322   6.626   2.479   3.225
 5808SOL    HW118323   6.656   2.547   3.158
 5808SOL    HW218324   6.534   2.447   3.201
 5809SOL     OW18325   6.568   3.105   4.034
 5809SOL    HW118326   6.597   3.167   3.962
 5809SOL    HW218327   6.564   3.153   4.121
 5810SOL     OW18328   2.683   2.282   2.488
 5810SOL    HW118329   2.764   2.265   2.432
 5810SOL    HW218330   2.617   2.209   2.474
 5811SOL     OW18331   2.730   1.437   3.145
 5811SOL    HW118332   2.638   1.398   3.150
 5811SOL    HW218333   2.727   1.523   3.094
 5812SOL     OW18334   4.345   0.490   4.791
 5812SOL    HW118335   4.381   0.532   4.874
 5812SOL    HW218336   4.351   0.555   4.715
 5813SOL     OW18337   1.370   1.028   5.337
 5813SOL    HW118338   1.407   1.025   5.429
 5813SOL    HW218339   1.444   1.033   5.271
 5814SOL     OW18340   0.397   5.193   1.016
 5814SOL    HW118341   0.349   5.214   1.101
 5814SOL    HW218342   0.488   5.158   1.037
 5815SOL     OW18343   3.477   1.439   3.423
 5815SOL    HW118344   3.519   1.478   3.342
 5815SOL    HW218345   3.443   1.512   3.482
 5816SOL     OW18346   4.838   6.664   0.809
 5816SOL    HW118347   4.764   6.727   0.833
 5816SOL    HW218348   4.798   6.578   0.776
 5817SOL     OW18349   5.337   2.185   5.289
 5817SOL    HW118350   5.344   2.132   5.373
 5817SOL    HW218351   5.423   2.179   5.238
 5818SOL     OW18352   6.249   6.405   5.957
 5818SOL    HW118353   6.323   6.418   5.892
 5818SOL    HW218354   6.161   6.414   5.910
 5819SOL     OW18355   5.733   0.436   0.807
 5819SOL    HW118356   5.642   0.399   0.826
 5819SOL    HW218357   5.789   0.429   0.889
 5820SOL     OW18358   6.170   6.075   2.917
 5820SOL    HW118359   6.151   6.047   3.011
 5820SOL    HW218360   6.186   6.174   2.915
 5821SOL     OW18361   3.874   0.474   1.736
 5821SOL    HW118362   3.973   0.487   1.745
 5821SOL    HW218363   3.831   0.481   1.826
 5822SOL     OW18364   0.463   1.237   2.596
 5822SOL    HW118365   0.442   1.246   2.693
 5822SOL    HW218366   0.404   1.166   2.556
 5823SOL     OW18367   2.317   2.508   4.284
 5823SOL    HW118368   2.244   2.536   4.220
 5823SOL    HW218369   2.282   2.511   4.377
 5824SOL     OW18370   4.422   0.667   3.536
 5824SOL    HW118371   4.360   0.593   3.511
 5824SOL    HW218372   4.517   0.640   3.518
 5825SOL     OW18373   2.664   0.963   0.625
 5825SOL    HW118374   2.706   0.874   0.645
 5825SOL    HW218375   2.616   0.996   0.706
 5826SOL     OW18376   6.444   0.564   4.705
 5826SOL    HW118377   6.474   0.509   4.783
 5826SOL    HW218378   6.407   0.504   4.634
 5827SOL     OW18379   0.971   5.218   5.245
 5827SOL    HW118380   0.907   5.147   5.217
 5827SOL    HW218381   1.016   5.191   5.330
 5828SOL     OW18382   6.892   3.054   1.841
 5828SOL    HW118383   6.915   2.958   1.857
 5828SOL    HW218384   6.795   3.069   1.858
 5829SOL     OW18385   1.438   1.486   1.952
 5829SOL    HW118386   1.348   1.501   1.992
 5829SOL    HW218387   1.496   1.437   2.017
 5830SOL     OW18388   2.085   1.118   5.610
 5830SOL    HW118389   2.085   1.173   5.694
 5830SOL    HW218390   2.109   1.024   5.633
 5831SOL     OW18391   5.772   5.963   3.200
 5831SOL    HW118392   5.754   5.881   3.145
 5831SOL    HW218393   5.690   6.020   3.202
 5832SOL     OW18394   3.605   3.733   4.881
 5832SOL    HW118395   3.587   3.693   4.790
 5832SOL    HW218396   3.544   3.811   4.895
 5833SOL     OW18397   3.936   3.187   4.805
 5833SOL    HW118398   3.963   3.170   4.710
 5833SOL    HW218399   4.009   3.237   4.852
 5834SOL     OW18400   6.092   0.591   0.259
 5834SOL    HW118401   6.078   0.638   0.172
 5834SOL    HW218402   6.167   0.525   0.249
 5835SOL     OW18403   5.060   2.356   4.037
 5835SOL    HW118404   5.007   2.426   3.990
 5835SOL    HW218405   5.121   2.398   4.104
 5836SOL     OW18406   3.503   6.252   2.593
 5836SOL    HW118407   3.566   6.223   2.666
 5836SOL    HW218408   3.521   6.199   2.511
 5837SOL     OW18409   5.090   4.791   6.285
 5837SOL    HW118410   5.014   4.829   6.232
 5837SOL    HW218411   5.065   4.788   6.382
 5838SOL     OW18412   0.313   1.989   4.983
 5838SOL    HW118413   0.317   2.076   4.934
 5838SOL    HW218414   0.218   1.965   5.003
 5839SOL     OW18415   0.128   3.300   2.610
 5839SOL    HW118416   0.092   3.386   2.576
 5839SOL    HW218417   0.091   3.224   2.557
 5840SOL     OW18418   2.008   5.025   6.959
 5840SOL    HW118419   2.010   5.125   6.954
 5840SOL    HW218420   1.914   4.993   6.944
 5841SOL     OW18421   6.712   2.454   2.876
 5841SOL    HW118422   6.678   2.548   2.880
 5841SOL    HW218423   6.746   2.434   2.784
 5842SOL     OW18424   4.110   3.107   0.513
 5842SOL    HW118425   4.051   3.039   0.556
 5842SOL    HW218426   4.078   3.125   0.420
 5843SOL     OW18427   1.549   2.809   1.589
 5843SOL    HW118428   1.607   2.801   1.670
 5843SOL    HW218429   1.464   2.855   1.613
 5844SOL     OW18430   0.956   5.984   0.454
 5844SOL    HW118431   0.927   6.076   0.428
 5844SOL    HW218432   0.964   5.928   0.372
 5845SOL     OW18433   0.974   2.107   4.521
 5845SOL    HW118434   0.916   2.179   4.560
 5845SOL    HW218435   0.917   2.039   4.476
 5846SOL     OW18436   0.238   3.019   6.172
 5846SOL    HW118437   0.309   2.978   6.115
 5846SOL    HW218438   0.268   3.111   6.201
 5847SOL     OW18439   2.094   2.499   3.259
 5847SOL    HW118440   2.177   2.552   3.239
 5847SOL    HW218441   2.118   2.404   3.278
 5848SOL     OW18442   1.207   4.908   3.796
 5848SOL    HW118443   1.120   4.919   3.749
 5848SOL    HW218444   1.220   4.984   3.860
 5849SOL     OW18445   3.500   6.835   5.430
 5849SOL    HW118446   3.595   6.852   5.453
 5849SOL    HW218447   3.456   6.921   5.403
 5850SOL     OW18448   1.038   4.169   2.941
 5850SOL    HW118449   1.091   4.135   3.019
 5850SOL    HW218450   1.098   4.187   2.864
 5851SOL     OW18451   5.618   3.095   2.389
 5851SOL    HW118452   5.604   3.070   2.293
 5851SOL    HW218453   5.688   3.036   2.429
 5852SOL     OW18454   3.896   5.771   2.783
 5852SOL    HW118455   3.898   5.687   2.839
 5852SOL    HW218456   3.913   5.748   2.688
 5853SOL     OW18457   3.777   4.069   5.655
 5853SOL    HW118458   3.799   4.151   5.603
 5853SOL    HW218459   3.800   4.083   5.751
 5854SOL     OW18460   0.515   1.143   6.685
 5854SOL    HW118461   0.435   1.178   6.734
 5854SOL    HW218462   0.523   1.044   6.702
 5855SOL     OW18463   1.438   1.144   4.936
 5855SOL    HW118464   1.340   1.127   4.930
 5855SOL    HW218465   1.463   1.216   4.872
 5856SOL     OW18466   1.937   5.234   3.853
 5856SOL    HW118467   1.886   5.173   3.792
 5856SOL    HW218468   1.953   5.187   3.940
 5857SOL     OW18469   0.230   2.632   6.098
 5857SOL    HW118470   0.159   2.573   6.061
 5857SOL    HW218471   0.319   2.587   6.089
 5858SOL     OW18472   3.220   6.785   2.887
 5858SOL    HW118473   3.124   6.806   2.868
 5858SOL    HW218474   3.234   6.772   2.985
 5859SOL     OW18475   6.465   5.454   1.444
 5859SOL    HW118476   6.474   5.364   1.488
 5859SOL    HW218477   6.538   5.514   1.476
 5860SOL     OW18478   1.662   3.785   1.471
 5860SOL    HW118479   1.754   3.770   1.508
 5860SOL    HW218480   1.619   3.861   1.519
 5861SOL     OW18481   5.963   1.962   3.615
 5861SOL    HW118482   5.902   2.003   3.547
 5861SOL    HW218483   5.909   1.922   3.689
 5862SOL     OW18484   4.719   4.402   3.579
 5862SOL    HW118485   4.668   4.400   3.665
 5862SOL    HW218486   4.810   4.362   3.593
 5863SOL     OW18487   1.813   1.001   0.663
 5863SOL    HW118488   1.768   1.085   0.694
 5863SOL    HW218489   1.844   1.012   0.569
 5864SOL     OW18490   4.793   5.046   0.651
 5864SOL    HW118491   4.828   5.135   0.623
 5864SOL    HW218492   4.816   5.031   0.748
 5865SOL     OW18493   3.946   0.925   3.419
 5865SOL    HW118494   3.871   0.927   3.354
 5865SOL    HW218495   3.991   0.835   3.415
 5866SOL     OW18496   3.866   0.668   6.745
 5866SOL    HW118497   3.875   0.767   6.734
 5866SOL    HW218498   3.928   0.622   6.682
 5867SOL     OW18499   0.206   2.716   0.727
 5867SOL    HW118500   0.300   2.689   0.707
 5867SOL    HW218501   0.206   2.798   0.785
 5868SOL     OW18502   1.262   0.024   4.926
 5868SOL    HW118503   1.221   0.093   4.867
 5868SOL    HW218504   1.301   6.977   4.870
 5869SOL     OW18505   2.641   5.095   3.542
 5869SOL    HW118506   2.734   5.129   3.557
 5869SOL    HW218507   2.578   5.173   3.540
 5870SOL     OW18508   5.399   4.923   4.582
 5870SOL    HW118509   5.480   4.901   4.636
 5870SOL    HW218510   5.423   4.990   4.512
 5871SOL     OW18511   2.567   3.177   6.666
 5871SOL    HW118512   2.536   3.100   6.722
 5871SOL    HW218513   2.503   3.192   6.591
 5872SOL     OW18514   3.900   5.941   4.290
 5872SOL    HW118515   3.893   5.841   4.294
 5872SOL    HW218516   3.831   5.981   4.349
 5873SOL     OW18517   2.446   3.562   0.285
 5873SOL    HW118518   2.356   3.543   0.324
 5873SOL    HW218519   2.439   3.641   0.223
 5874SOL     OW18520   1.718   4.374   0.456
 5874SOL    HW118521   1.719   4.461   0.407
 5874SOL    HW218522   1.643   4.318   0.421
 5875SOL     OW18523   4.715   2.060   0.319
 5875SOL    HW118524   4.762   2.063   0.408
 5875SOL    HW218525   4.704   2.152   0.284
 5876SOL     OW18526   3.885   4.321   5.927
 5876SOL    HW118527   3.817   4.351   5.861
 5876SOL    HW218528   3.874   4.223   5.945
 5877SOL     OW18529   6.507   0.175   2.221
 5877SOL    HW118530   6.489   0.182   2.319
 5877SOL    HW218531   6.502   0.080   2.193
 5878SOL     OW18532   5.246   4.761   2.250
 5878SOL    HW118533   5.179   4.791   2.183
 5878SOL    HW218534   5.317   4.707   2.205
 5879SOL     OW18535   3.867   3.094   5.390
 5879SOL    HW118536   3.926   3.017   5.365
 5879SOL    HW218537   3.819   3.127   5.308
 5880SOL     OW18538   6.228   2.450   6.214
 5880SOL    HW118539   6.249   2.548   6.221
 5880SOL    HW218540   6.195   2.430   6.122
 5881SOL     OW18541   1.640   6.520   2.654
 5881SOL    HW118542   1.547   6.545   2.679
 5881SOL    HW218543   1.696   6.511   2.736
 5882SOL     OW18544   1.705   4.882   5.620
 5882SOL    HW118545   1.608   4.862   5.606
 5882SOL    HW218546   1.741   4.825   5.693
 5883SOL     OW18547   6.535   4.561   0.004
 5883SOL    HW118548   6.509   4.637   0.063
 5883SOL    HW218549   6.635   4.554   0.001
 5884SOL     OW18550   6.837   1.408   2.547
 5884SOL    HW118551   6.819   1.404   2.646
 5884SOL    HW218552   6.769   1.354   2.499
 5885SOL     OW18553   6.771   5.250   0.640
 5885SOL    HW118554   6.756   5.183   0.566
 5885SOL    HW218555   6.750   5.207   0.728
 5886SOL     OW18556   1.922   4.260   3.754
 5886SOL    HW118557   1.937   4.170   3.796
 5886SOL    HW218558   1.824   4.278   3.747
 5887SOL     OW18559   2.623   2.966   0.710
 5887SOL    HW118560   2.614   2.884   0.654
 5887SOL    HW218561   2.716   2.971   0.747
 5888SOL     OW18562   2.790   6.751   1.491
 5888SOL    HW118563   2.717   6.736   1.425
 5888SOL    HW218564   2.767   6.707   1.578
 5889SOL     OW18565   5.962   0.892   1.907
 5889SOL    HW118566   5.969   0.975   1.852
 5889SOL    HW218567   5.945   0.916   2.002
 5890SOL     OW18568   2.126   5.154   3.185
 5890SOL    HW118569   2.161   5.087   3.251
 5890SOL    HW218570   2.075   5.225   3.235
 5891SOL     OW18571   2.563   3.604   6.647
 5891SOL    HW118572   2.542   3.661   6.568
 5891SOL    HW218573   2.489   3.538   6.661
 5892SOL     OW18574   0.917   3.232   0.175
 5892SOL    HW118575   0.828   3.274   0.155
 5892SOL    HW218576   0.926   3.147   0.124
 5893SOL     OW18577   0.623   6.560   0.749
 5893SOL    HW118578   0.597   6.654   0.772
 5893SOL    HW218579   0.720   6.557   0.726
 5894SOL     OW18580   1.994   5.675   6.865
 5894SOL    HW118581   2.071   5.638   6.916
 5894SOL    HW218582   2.003   5.775   6.857
 5895SOL     OW18583   5.382   3.883   3.363
 5895SOL    HW118584   5.404   3.915   3.455
 5895SOL    HW218585   5.283   3.881   3.352
 5896SOL     OW18586   5.669   2.580   2.290
 5896SOL    HW118587   5.585   2.580   2.236
 5896SOL    HW218588   5.668   2.657   2.354
 5897SOL     OW18589   3.608   2.130   0.535
 5897SOL    HW118590   3.650   2.052   0.489
 5897SOL    HW218591   3.590   2.106   0.631
 5898SOL     OW18592   2.169   1.496   6.353
 5898SOL    HW118593   2.236   1.487   6.427
 5898SOL    HW218594   2.175   1.416   6.293
 5899SOL     OW18595   0.374   6.276   6.688
 5899SOL    HW118596   0.346   6.333   6.766
 5899SOL    HW218597   0.308   6.285   6.614
 5900SOL     OW18598   5.898   6.391   2.957
 5900SOL    HW118599   5.996   6.379   2.975
 5900SOL    HW218600   5.869   6.481   2.990
 5901SOL     OW18601   2.202   0.981   4.953
 5901SOL    HW118602   2.228   1.015   4.863
 5901SOL    HW218603   2.218   0.882   4.957
 5902SOL     OW18604   4.501   3.510   5.963
 5902SOL    HW118605   4.494   3.498   5.864
 5902SOL    HW218606   4.546   3.430   6.003
 5903SOL     OW18607   6.312   1.974   5.322
 5903SOL    HW118608   6.228   1.992   5.373
 5903SOL    HW218609   6.338   2.055   5.270
 5904SOL     OW18610   0.732   5.086   1.360
 5904SOL    HW118611   0.666   5.132   1.420
 5904SOL    HW218612   0.789   5.024   1.414
 5905SOL     OW18613   5.820   1.926   4.236
 5905SOL    HW118614   5.843   1.960   4.145
 5905SOL    HW218615   5.784   1.833   4.229
 5906SOL     OW18616   4.452   1.245   5.692
 5906SOL    HW118617   4.540   1.278   5.659
 5906SOL    HW218618   4.401   1.204   5.616
 5907SOL     OW18619   1.675   3.775   5.662
 5907SOL    HW118620   1.641   3.808   5.574
 5907SOL    HW218621   1.690   3.853   5.723
 5908SOL     OW18622   4.657   3.993   6.479
 5908SOL    HW118623   4.704   4.060   6.536
 5908SOL    HW218624   4.596   4.040   6.415
 5909SOL     OW18625   6.416   4.819   3.674
 5909SOL    HW118626   6.451   4.877   3.601
 5909SOL    HW218627   6.411   4.724   3.642
 5910SOL     OW18628   3.471   4.953   0.629
 5910SOL    HW118629   3.531   4.874   0.645
 5910SOL    HW218630   3.413   4.935   0.550
 5911SOL     OW18631   6.130   6.794   6.956
 5911SOL    HW118632   6.204   6.811   6.890
 5911SOL    HW218633   6.142   6.853   0.009
 5912SOL     OW18634   0.783   3.628   5.056
 5912SOL    HW118635   0.735   3.585   4.979
 5912SOL    HW218636   0.880   3.633   5.035
 5913SOL     OW18637   1.471   2.247   4.666
 5913SOL    HW118638   1.388   2.262   4.613
 5913SOL    HW218639   1.494   2.329   4.718
 5914SOL     OW18640   1.791   5.901   0.778
 5914SOL    HW118641   1.700   5.864   0.760
 5914SOL    HW218642   1.846   5.832   0.826
 5915SOL     OW18643   5.200   3.160   4.277
 5915SOL    HW118644   5.164   3.143   4.185
 5915SOL    HW218645   5.299   3.147   4.277
 5916SOL     OW18646   2.973   0.006   6.157
 5916SOL    HW118647   2.958   0.098   6.193
 5916SOL    HW218648   3.071   7.017   6.141
 5917SOL     OW18649   3.540   4.062   2.655
 5917SOL    HW118650   3.515   4.048   2.559
 5917SOL    HW218651   3.635   4.091   2.661
 5918SOL     OW18652   2.532   2.562   4.135
 5918SOL    HW118653   2.605   2.494   4.138
 5918SOL    HW218654   2.459   2.535   4.198
 5919SOL     OW18655   1.503   2.441   7.013
 5919SOL    HW118656   1.442   2.481   0.055
 5919SOL    HW218657   1.452   2.421   6.930
 5920SOL     OW18658   2.356   5.391   6.972
 5920SOL    HW118659   2.315   5.449   0.016
 5920SOL    HW218660   2.349   5.295   6.999
 5921SOL     OW18661   3.435   5.515   5.762
 5921SOL    HW118662   3.415   5.436   5.704
 5921SOL    HW218663   3.488   5.485   5.841
 5922SOL     OW18664   6.019   4.266   1.744
 5922SOL    HW118665   6.002   4.304   1.835
 5922SOL    HW218666   6.098   4.205   1.748
 5923SOL     OW18667   6.760   0.765   3.520
 5923SOL    HW118668   6.727   0.728   3.607
 5923SOL    HW218669   6.752   0.695   3.449
 5924SOL     OW18670   5.908   1.567   5.005
 5924SOL    HW118671   5.837   1.636   4.992
 5924SOL    HW218672   5.933   1.527   4.917
 5925SOL     OW18673   6.326   5.611   0.657
 5925SOL    HW118674   6.297   5.676   0.587
 5925SOL    HW218675   6.393   5.548   0.618
 5926SOL     OW18676   3.593   5.237   2.547
 5926SOL    HW118677   3.557   5.158   2.597
 5926SOL    HW218678   3.674   5.210   2.495
 5927SOL     OW18679   2.517   5.405   2.600
 5927SOL    HW118680   2.527   5.317   2.555
 5927SOL    HW218681   2.606   5.435   2.635
 5928SOL     OW18682   0.582   6.461   1.536
 5928SOL    HW118683   0.633   6.526   1.479
 5928SOL    HW218684   0.530   6.400   1.477
 5929SOL     OW18685   1.419   7.021   5.663
 5929SOL    HW118686   1.415   6.979   5.572
 5929SOL    HW218687   1.490   6.975   5.717
 5930SOL     OW18688   6.472   1.465   5.149
 5930SOL    HW118689   6.544   1.411   5.193
 5930SOL    HW218690   6.383   1.423   5.168
 5931SOL     OW18691   6.173   5.184   1.230
 5931SOL    HW118692   6.156   5.243   1.310
 5931SOL    HW218693   6.144   5.232   1.147
 5932SOL     OW18694   2.567   0.118   0.220
 5932SOL    HW118695   2.557   0.129   0.319
 5932SOL    HW218696   2.543   0.024   0.194
 5933SOL     OW18697   5.963   3.514   2.737
 5933SOL    HW118698   5.912   3.598   2.719
 5933SOL    HW218699   6.027   3.529   2.813
 5934SOL     OW18700   3.086   3.529   2.187
 5934SOL    HW118701   3.026   3.523   2.267
 5934SOL    HW218702   3.104   3.437   2.151
 5935SOL     OW18703   4.021   3.794   2.907
 5935SOL    HW118704   3.984   3.825   2.820
 5935SOL    HW218705   4.070   3.708   2.895
 5936SOL     OW18706   5.829   5.931   6.246
 5936SOL    HW118707   5.737   5.909   6.215
 5936SOL    HW218708   5.892   5.932   6.168
 5937SOL     OW18709   1.214   4.326   0.240
 5937SOL    HW118710   1.173   4.417   0.244
 5937SOL    HW218711   1.300   4.331   0.189
 5938SOL     OW18712   1.841   4.338   1.193
 5938SOL    HW118713   1.863   4.296   1.281
 5938SOL    HW218714   1.751   4.307   1.163
 5939SOL     OW18715   2.253   1.217   2.647
 5939SOL    HW118716   2.261   1.196   2.745
 5939SOL    HW218717   2.320   1.162   2.597
 5940SOL     OW18718   4.231   5.295   3.646
 5940SOL    HW118719   4.325   5.318   3.670
 5940SOL    HW218720   4.197   5.361   3.579
 5941SOL     OW18721   6.801   3.798   2.881
 5941SOL    HW118722   6.839   3.836   2.797
 5941SOL    HW218723   6.702   3.813   2.883
 5942SOL     OW18724   6.348   2.229   5.232
 5942SOL    HW118725   6.286   2.204   5.158
 5942SOL    HW218726   6.411   2.300   5.200
 5943SOL     OW18727   0.995   5.142   0.676
 5943SOL    HW118728   1.089   5.109   0.677
 5943SOL    HW218729   0.948   5.112   0.760
 5944SOL     OW18730   5.106   1.815   2.966
 5944SOL    HW118731   5.075   1.745   2.902
 5944SOL    HW218732   5.033   1.881   2.981
 5945SOL     OW18733   6.683   4.785   5.969
 5945SOL    HW118734   6.775   4.745   5.974
 5945SOL    HW218735   6.679   4.864   6.030
 5946SOL     OW18736   3.870   2.773   5.256
 5946SOL    HW118737   3.845   2.849   5.196
 5946SOL    HW218738   3.944   2.720   5.214
 5947SOL     OW18739   4.356   3.872   1.362
 5947SOL    HW118740   4.318   3.868   1.454
 5947SOL    HW218741   4.448   3.832   1.362
 5948SOL     OW18742   3.513   5.586   3.366
 5948SOL    HW118743   3.500   5.643   3.285
 5948SOL    HW218744   3.430   5.586   3.421
 5949SOL     OW18745   4.657   4.484   2.484
 5949SOL    HW118746   4.573   4.520   2.526
 5949SOL    HW218747   4.715   4.561   2.455
 5950SOL     OW18748   6.358   2.468   3.714
 5950SOL    HW118749   6.395   2.406   3.644
 5950SOL    HW218750   6.430   2.497   3.776
 5951SOL     OW18751   1.999   6.730   3.905
 5951SOL    HW118752   1.942   6.648   3.914
 5951SOL    HW218753   1.970   6.797   3.974
 5952SOL     OW18754   6.828   6.421   4.891
 5952SOL    HW118755   6.894   6.483   4.848
 5952SOL    HW218756   6.868   6.330   4.898
 5953SOL     OW18757   0.403   3.301   6.206
 5953SOL    HW118758   0.389   3.358   6.125
 5953SOL    HW218759   0.318   3.299   6.260
 5954SOL     OW18760   1.211   5.262   6.808
 5954SOL    HW118761   1.115   5.288   6.794
 5954SOL    HW218762   1.241   5.291   6.898
 5955SOL     OW18763   5.018   5.180   2.953
 5955SOL    HW118764   4.992   5.100   3.007
 5955SOL    HW218765   4.953   5.255   2.971
 5956SOL     OW18766   6.620   2.008   6.822
 5956SOL    HW118767   6.548   1.940   6.807
 5956SOL    HW218768   6.709   1.963   6.820
 5957SOL     OW18769   4.830   6.851   5.741
 5957SOL    HW118770   4.770   6.931   5.748
 5957SOL    HW218771   4.807   6.799   5.659
 5958SOL     OW18772   0.966   5.336   2.734
 5958SOL    HW118773   0.977   5.369   2.640
 5958SOL    HW218774   1.047   5.284   2.760
 5959SOL     OW18775   1.965   1.170   6.973
 5959SOL    HW118776   1.902   1.153   0.022
 5959SOL    HW218777   1.915   1.165   6.886
 5960SOL     OW18778   3.458   6.728   4.870
 5960SOL    HW118779   3.403   6.708   4.952
 5960SOL    HW218780   3.491   6.822   4.875
 5961SOL     OW18781   2.720   1.222   5.966
 5961SOL    HW118782   2.679   1.135   5.992
 5961SOL    HW218783   2.753   1.269   6.048
 5962SOL     OW18784   5.425   5.392   2.901
 5962SOL    HW118785   5.374   5.316   2.861
 5962SOL    HW218786   5.514   5.400   2.857
 5963SOL     OW18787   3.932   3.880   2.054
 5963SOL    HW118788   3.936   3.853   2.150
 5963SOL    HW218789   3.920   3.979   2.048
 5964SOL     OW18790   1.257   4.156   5.576
 5964SOL    HW118791   1.218   4.237   5.619
 5964SOL    HW218792   1.188   4.084   5.573
 5965SOL     OW18793   2.093   1.390   4.460
 5965SOL    HW118794   2.055   1.346   4.542
 5965SOL    HW218795   2.158   1.329   4.416
 5966SOL     OW18796   1.524   6.634   4.268
 5966SOL    HW118797   1.501   6.557   4.328
 5966SOL    HW218798   1.445   6.660   4.214
 5967SOL     OW18799   4.763   6.791   1.904
 5967SOL    HW118800   4.855   6.771   1.872
 5967SOL    HW218801   4.702   6.805   1.826
 5968SOL     OW18802   0.478   2.029   4.203
 5968SOL    HW118803   0.563   2.064   4.243
 5968SOL    HW218804   0.497   1.952   4.143
 5969SOL     OW18805   5.724   2.879   3.238
 5969SOL    HW118806   5.644   2.859   3.294
 5969SOL    HW218807   5.696   2.936   3.160
 5970SOL     OW18808   2.311   2.835   3.708
 5970SOL    HW118809   2.346   2.763   3.768
 5970SOL    HW218810   2.360   2.920   3.726
 5971SOL     OW18811   2.370   6.932   2.750
 5971SOL    HW118812   2.308   6.977   2.686
 5971SOL    HW218813   2.464   6.943   2.718
 5972SOL     OW18814   4.884   6.737   1.555
 5972SOL    HW118815   4.954   6.774   1.616
 5972SOL    HW218816   4.883   6.637   1.561
 5973SOL     OW18817   0.733   4.726   3.446
 5973SOL    HW118818   0.826   4.696   3.471
 5973SOL    HW218819   0.685   4.756   3.528
 5974SOL     OW18820   1.132   4.220   6.237
 5974SOL    HW118821   1.139   4.217   6.138
 5974SOL    HW218822   1.156   4.131   6.275
 5975SOL     OW18823   1.591   3.453   6.955
 5975SOL    HW118824   1.498   3.463   6.992
 5975SOL    HW218825   1.589   3.392   6.876
 5976SOL     OW18826   3.622   3.412   4.454
 5976SOL    HW118827   3.597   3.321   4.486
 5976SOL    HW218828   3.640   3.411   4.356
 5977SOL     OW18829   1.077   3.166   3.148
 5977SOL    HW118830   1.019   3.125   3.077
 5977SOL    HW218831   1.034   3.250   3.181
 5978SOL     OW18832   5.438   5.579   3.209
 5978SOL    HW118833   5.516   5.538   3.255
 5978SOL    HW218834   5.408   5.518   3.135
 5979SOL     OW18835   0.710   1.179   2.714
 5979SOL    HW118836   0.747   1.264   2.752
 5979SOL    HW218837   0.634   1.200   2.653
 5980SOL     OW18838   6.297   3.798   6.202
 5980SOL    HW118839   6.382   3.790   6.254
 5980SOL    HW218840   6.231   3.852   6.254
 5981SOL     OW18841   4.049   1.811   1.272
 5981SOL    HW118842   3.983   1.875   1.233
 5981SOL    HW218843   4.115   1.860   1.328
 5982SOL     OW18844   6.149   2.447   6.725
 5982SOL    HW118845   6.223   2.381   6.726
 5982SOL    HW218846   6.110   2.452   6.632
 5983SOL     OW18847   1.045   1.305   4.781
 5983SOL    HW118848   1.080   1.341   4.694
 5983SOL    HW218849   0.948   1.284   4.772
 5984SOL     OW18850   0.803   6.995   5.409
 5984SOL    HW118851   0.898   6.972   5.386
 5984SOL    HW218852   0.802   0.049   5.468
 5985SOL     OW18853   4.844   3.354   4.557
 5985SOL    HW118854   4.791   3.288   4.610
 5985SOL    HW218855   4.917   3.392   4.613
 5986SOL     OW18856   3.781   3.287   2.186
 5986SOL    HW118857   3.809   3.192   2.197
 5986SOL    HW218858   3.688   3.299   2.220
 5987SOL     OW18859   4.493   6.784   5.506
 5987SOL    HW118860   4.468   6.859   5.568
 5987SOL    HW218861   4.422   6.772   5.437
 5988SOL     OW18862   3.685   0.181   4.006
 5988SOL    HW118863   3.648   0.101   4.053
 5988SOL    HW218864   3.622   0.259   4.018
 5989SOL     OW18865   2.819   1.045   6.425
 5989SOL    HW118866   2.809   1.144   6.415
 5989SOL    HW218867   2.834   1.022   6.521
 5990SOL     OW18868   3.347   5.169   2.289
 5990SOL    HW118869   3.273   5.108   2.261
 5990SOL    HW218870   3.361   5.160   2.388
 5991SOL     OW18871   3.507   5.369   3.694
 5991SOL    HW118872   3.584   5.394   3.635
 5991SOL    HW218873   3.540   5.357   3.788
 5992SOL     OW18874   4.301   1.654   4.430
 5992SOL    HW118875   4.366   1.684   4.500
 5992SOL    HW218876   4.210   1.687   4.454
 5993SOL     OW18877   3.514   5.601   3.956
 5993SOL    HW118878   3.587   5.533   3.958
 5993SOL    HW218879   3.513   5.647   3.868
 5994SOL     OW18880   6.572   2.893   1.518
 5994SOL    HW118881   6.569   2.935   1.427
 5994SOL    HW218882   6.481   2.855   1.540
 5995SOL     OW18883   0.900   4.653   1.442
 5995SOL    HW118884   0.899   4.639   1.343
 5995SOL    HW218885   0.904   4.751   1.463
 5996SOL     OW18886   0.674   5.233   5.921
 5996SOL    HW118887   0.639   5.294   5.850
 5996SOL    HW218888   0.771   5.251   5.936
 5997SOL     OW18889   0.614   0.511   1.670
 5997SOL    HW118890   0.560   0.591   1.642
 5997SOL    HW218891   0.567   0.427   1.642
 5998SOL     OW18892   4.343   1.660   3.561
 5998SOL    HW118893   4.309   1.617   3.477
 5998SOL    HW218894   4.420   1.720   3.540
 5999SOL     OW18895   2.478   2.335   3.039
 5999SOL    HW118896   2.527   2.288   2.966
 5999SOL    HW218897   2.390   2.290   3.054
 6000SOL     OW18898   4.526   6.444   3.033
 6000SOL    HW118899   4.441   6.447   3.086
 6000SOL    HW218900   4.591   6.383   3.078
 6001SOL     OW18901   6.206   1.717   0.098
 6001SOL    HW118902   6.113   1.751   0.106
 6001SOL    HW218903   6.269   1.794   0.091
 6002SOL     OW18904   1.772   0.005   1.889
 6002SOL    HW118905   1.768   6.936   1.919
 6002SOL    HW218906   1.773   0.065   1.969
 6003SOL     OW18907   5.262   3.962   3.851
 6003SOL    HW118908   5.238   3.900   3.926
 6003SOL    HW218909   5.189   4.029   3.839
 6004SOL     OW18910   0.424   3.531   1.386
 6004SOL    HW118911   0.419   3.441   1.427
 6004SOL    HW218912   0.345   3.585   1.415
 6005SOL     OW18913   2.826   5.967   2.708
 6005SOL    HW118914   2.847   5.937   2.615
 6005SOL    HW218915   2.907   5.958   2.765
 6006SOL     OW18916   2.262   5.526   6.753
 6006SOL    HW118917   2.303   5.617   6.761
 6006SOL    HW218918   2.274   5.477   6.839
 6007SOL     OW18919   5.328   2.409   4.453
 6007SOL    HW118920   5.422   2.385   4.429
 6007SOL    HW218921   5.329   2.493   4.508
 6008SOL     OW18922   4.353   5.293   0.429
 6008SOL    HW118923   4.389   5.211   0.386
 6008SOL    HW218924   4.393   5.304   0.520
 6009SOL     OW18925   3.314   1.635   4.121
 6009SOL    HW118926   3.396   1.577   4.116
 6009SOL    HW218927   3.301   1.664   4.216
 6010SOL     OW18928   1.426   2.911   3.669
 6010SOL    HW118929   1.426   2.941   3.574
 6010SOL    HW218930   1.512   2.939   3.712
 6011SOL     OW18931   6.795   2.918   2.157
 6011SOL    HW118932   6.763   2.983   2.089
 6011SOL    HW218933   6.739   2.834   2.151
 6012SOL     OW18934   0.331   3.269   1.094
 6012SOL    HW118935   0.359   3.190   1.149
 6012SOL    HW218936   0.259   3.319   1.141
 6013SOL     OW18937   5.738   0.459   2.049
 6013SOL    HW118938   5.665   0.500   2.103
 6013SOL    HW218939   5.826   0.483   2.089
 6014SOL     OW18940   5.124   0.419   1.243
 6014SOL    HW118941   5.053   0.480   1.277
 6014SOL    HW218942   5.214   0.460   1.259
 6015SOL     OW18943   5.239   1.292   4.984
 6015SOL    HW118944   5.277   1.230   5.053
 6015SOL    HW218945   5.160   1.340   5.023
 6016SOL     OW18946   1.652   6.767   5.249
 6016SOL    HW118947   1.630   6.724   5.336
 6016SOL    HW218948   1.681   6.861   5.265
 6017SOL     OW18949   6.694   3.892   2.478
 6017SOL    HW118950   6.769   3.896   2.543
 6017SOL    HW218951   6.698   3.806   2.428
 6018SOL     OW18952   2.476   5.401   0.885
 6018SOL    HW118953   2.429   5.418   0.798
 6018SOL    HW218954   2.408   5.389   0.958
 6019SOL     OW18955   5.302   6.819   3.510
 6019SOL    HW118956   5.258   6.909   3.505
 6019SOL    HW218957   5.326   6.789   3.417
 6020SOL     OW18958   3.054   0.352   2.577
 6020SOL    HW118959   3.113   0.358   2.496
 6020SOL    HW218960   3.110   0.348   2.659
 6021SOL     OW18961   4.070   0.697   3.326
 6021SOL    HW118962   4.026   0.643   3.254
 6021SOL    HW218963   4.065   0.649   3.413
 6022SOL     OW18964   4.256   0.995   5.752
 6022SOL    HW118965   4.337   0.963   5.801
 6022SOL    HW218966   4.200   0.916   5.726
 6023SOL     OW18967   0.413   2.099   2.518
 6023SOL    HW118968   0.359   2.133   2.595
 6023SOL    HW218969   0.420   2.171   2.449
 6024SOL     OW18970   0.715   5.322   2.163
 6024SOL    HW118971   0.798   5.268   2.175
 6024SOL    HW218972   0.636   5.261   2.154
 6025SOL     OW18973   4.108   2.210   2.249
 6025SOL    HW118974   4.033   2.168   2.300
 6025SOL    HW218975   4.071   2.257   2.168
 6026SOL     OW18976   1.014   4.617   5.777
 6026SOL    HW118977   0.936   4.597   5.718
 6026SOL    HW218978   1.060   4.700   5.745
 6027SOL     OW18979   3.118   3.377   0.668
 6027SOL    HW118980   3.139   3.469   0.636
 6027SOL    HW218981   3.161   3.310   0.608
 6028SOL     OW18982   1.197   5.000   6.894
 6028SOL    HW118983   1.197   5.086   6.843
 6028SOL    HW218984   1.136   4.934   6.849
 6029SOL     OW18985   1.477   5.268   1.628
 6029SOL    HW118986   1.421   5.226   1.557
 6029SOL    HW218987   1.443   5.361   1.646
 6030SOL     OW18988   1.647   6.999   1.460
 6030SOL    HW118989   1.640   6.956   1.550
 6030SOL    HW218990   1.714   6.949   1.404
 6031SOL     OW18991   5.512   0.090   4.457
 6031SOL    HW118992   5.480   0.106   4.550
 6031SOL    HW218993   5.441   0.117   4.392
 6032SOL     OW18994   0.222   3.839   2.944
 6032SOL    HW118995   0.173   3.926   2.934
 6032SOL    HW218996   0.166   3.775   2.997
 6033SOL     OW18997   0.522   0.401   4.576
 6033SOL    HW118998   0.503   0.491   4.614
 6033SOL    HW218999   0.545   0.338   4.651
 6034SOL     OW19000   2.262   4.290   4.808
 6034SOL    HW119001   2.262   4.191   4.823
 6034SOL    HW219002   2.308   4.335   4.885
 6035SOL     OW19003   5.679   0.535   4.096
 6035SOL    HW119004   5.673   0.633   4.079
 6035SOL    HW219005   5.772   0.512   4.127
 6036SOL     OW19006   0.791   1.273   3.820
 6036SOL    HW119007   0.731   1.217   3.878
 6036SOL    HW219008   0.853   1.213   3.770
 6037SOL     OW19009   6.937   5.636   4.962
 6037SOL    HW119010   6.943   5.552   5.016
 6037SOL    HW219011   6.868   5.624   4.890
 6038SOL     OW19012   5.261   4.325   5.996
 6038SOL    HW119013   5.246   4.232   5.965
 6038SOL    HW219014   5.352   4.355   5.970
 6039SOL     OW19015   3.798   3.389   3.605
 6039SOL    HW119016   3.759   3.297   3.597
 6039SOL    HW219017   3.795   3.435   3.516
 6040SOL     OW19018   1.295   1.583   0.080
 6040SOL    HW119019   1.278   1.653   0.149
 6040SOL    HW219020   1.223   1.586   0.011
 6041SOL     OW19021   0.778   2.867   0.324
 6041SOL    HW119022   0.783   2.961   0.357
 6041SOL    HW219023   0.685   2.847   0.292
 6042SOL     OW19024   5.933   5.260   4.479
 6042SOL    HW119025   5.954   5.171   4.521
 6042SOL    HW219026   6.009   5.323   4.496
 6043SOL     OW19027   0.536   4.595   4.206
 6043SOL    HW119028   0.512   4.674   4.149
 6043SOL    HW219029   0.621   4.613   4.255
 6044SOL     OW19030   0.960   0.692   1.191
 6044SOL    HW119031   0.973   0.760   1.264
 6044SOL    HW219032   0.878   0.714   1.140
 6045SOL     OW19033   0.188   3.563   0.719
 6045SOL    HW119034   0.117   3.518   0.665
 6045SOL    HW219035   0.278   3.539   0.682
 6046SOL     OW19036   2.654   3.150   0.472
 6046SOL    HW119037   2.675   3.080   0.539
 6046SOL    HW219038   2.707   3.134   0.389
 6047SOL     OW19039   0.357   6.480   4.883
 6047SOL    HW119040   0.279   6.437   4.838
 6047SOL    HW219041   0.442   6.447   4.842
 6048SOL     OW19042   5.407   6.116   4.921
 6048SOL    HW119043   5.501   6.149   4.908
 6048SOL    HW219044   5.406   6.016   4.908
 6049SOL     OW19045   6.320   5.471   0.923
 6049SOL    HW119046   6.234   5.426   0.948
 6049SOL    HW219047   6.309   5.515   0.834
 6050SOL     OW19048   5.269   4.736   5.421
 6050SOL    HW119049   5.348   4.706   5.367
 6050SOL    HW219050   5.244   4.829   5.394
 6051SOL     OW19051   2.418   2.075   3.248
 6051SOL    HW119052   2.508   2.045   3.216
 6051SOL    HW219053   2.377   2.135   3.179
 6052SOL     OW19054   6.741   1.215   0.516
 6052SOL    HW119055   6.730   1.234   0.419
 6052SOL    HW219056   6.677   1.142   0.543
 6053SOL     OW19057   1.911   0.090   6.057
 6053SOL    HW119058   1.874   0.170   6.104
 6053SOL    HW219059   1.992   0.057   6.105
 6054SOL     OW19060   2.435   4.504   6.647
 6054SOL    HW119061   2.420   4.595   6.687
 6054SOL    HW219062   2.526   4.471   6.672
 6055SOL     OW19063   4.934   0.679   3.739
 6055SOL    HW119064   4.900   0.585   3.730
 6055SOL    HW219065   4.993   0.701   3.662
 6056SOL     OW19066   5.101   3.115   6.651
 6056SOL    HW119067   5.192   3.152   6.672
 6056SOL    HW219068   5.043   3.124   6.732
 6057SOL     OW19069   2.833   0.560   6.424
 6057SOL    HW119070   2.762   0.510   6.473
 6057SOL    HW219071   2.914   0.501   6.414
 6058SOL     OW19072   5.322   1.201   3.955
 6058SOL    HW119073   5.300   1.167   4.046
 6058SOL    HW219074   5.417   1.232   3.953
 6059SOL     OW19075   6.804   6.036   6.360
 6059SOL    HW119076   6.752   6.122   6.368
 6059SOL    HW219077   6.765   5.967   6.420
 6060SOL     OW19078   3.149   6.247   6.493
 6060SOL    HW119079   3.159   6.325   6.554
 6060SOL    HW219080   3.052   6.228   6.479
 6061SOL     OW19081   1.877   1.660   6.615
 6061SOL    HW119082   1.829   1.702   6.537
 6061SOL    HW219083   1.938   1.728   6.656
 6062SOL     OW19084   1.770   0.527   4.409
 6062SOL    HW119085   1.860   0.551   4.445
 6062SOL    HW219086   1.699   0.557   4.473
 6063SOL     OW19087   4.797   6.613   6.930
 6063SOL    HW119088   4.764   6.557   6.854
 6063SOL    HW219089   4.889   6.645   6.910
 6064SOL     OW19090   0.582   5.624   3.719
 6064SOL    HW119091   0.587   5.535   3.674
 6064SOL    HW219092   0.569   5.611   3.817
 6065SOL     OW19093   5.914   6.562   1.104
 6065SOL    HW119094   5.849   6.522   1.040
 6065SOL    HW219095   5.951   6.490   1.163
 6066SOL     OW19096   4.117   2.382   6.513
 6066SOL    HW119097   4.051   2.386   6.438
 6066SOL    HW219098   4.161   2.292   6.513
 6067SOL     OW19099   5.761   2.190   6.757
 6067SOL    HW119100   5.794   2.143   6.839
 6067SOL    HW219101   5.736   2.284   6.781
 6068SOL     OW19102   5.020   1.898   5.172
 6068SOL    HW119103   5.093   1.860   5.115
 6068SOL    HW219104   5.057   1.969   5.232
 6069SOL     OW19105   5.927   3.914   4.364
 6069SOL    HW119106   5.857   3.911   4.293
 6069SOL    HW219107   5.983   3.831   4.358
 6070SOL     OW19108   3.917   2.835   6.973
 6070SOL    HW119109   3.968   2.898   6.914
 6070SOL    HW219110   3.919   2.743   6.932
 6071SOL     OW19111   5.083   6.328   5.409
 6071SOL    HW119112   5.071   6.405   5.472
 6071SOL    HW219113   5.010   6.329   5.341
 6072SOL     OW19114   6.950   1.821   0.679
 6072SOL    HW119115   6.920   1.846   0.771
 6072SOL    HW219116   6.984   1.727   0.680
 6073SOL     OW19117   6.454   2.060   1.126
 6073SOL    HW119118   6.519   2.116   1.075
 6073SOL    HW219119   6.437   2.101   1.215
 6074SOL     OW19120   0.649   0.420   4.928
 6074SOL    HW119121   0.738   0.412   4.885
 6074SOL    HW219122   0.608   0.330   4.938
 6075SOL     OW19123   5.097   4.432   6.592
 6075SOL    HW119124   5.052   4.490   6.660
 6075SOL    HW219125   5.175   4.384   6.634
 6076SOL     OW19126   2.301   6.906   3.687
 6076SOL    HW119127   2.252   6.820   3.670
 6076SOL    HW219128   2.361   6.895   3.766
 6077SOL     OW19129   5.668   5.415   2.718
 6077SOL    HW119130   5.761   5.449   2.733
 6077SOL    HW219131   5.669   5.315   2.715
 6078SOL     OW19132   2.187   4.524   3.613
 6078SOL    HW119133   2.119   4.520   3.686
 6078SOL    HW219134   2.279   4.521   3.652
 6079SOL     OW19135   2.068   1.428   0.773
 6079SOL    HW119136   2.115   1.345   0.802
 6079SOL    HW219137   2.027   1.414   0.683
 6080SOL     OW19138   5.635   2.299   2.851
 6080SOL    HW119139   5.711   2.339   2.901
 6080SOL    HW219140   5.653   2.304   2.753
 6081SOL     OW19141   0.576   3.712   2.608
 6081SOL    HW119142   0.483   3.741   2.632
 6081SOL    HW219143   0.626   3.688   2.691
 6082SOL     OW19144   3.625   1.753   4.310
 6082SOL    HW119145   3.718   1.719   4.295
 6082SOL    HW219146   3.593   1.797   4.226
 6083SOL     OW19147   1.947   6.457   0.597
 6083SOL    HW119148   2.026   6.470   0.537
 6083SOL    HW219149   1.875   6.521   0.572
 6084SOL     OW19150   6.940   5.187   6.315
 6084SOL    HW119151   0.005   5.227   6.313
 6084SOL    HW219152   6.948   5.088   6.329
 6085SOL     OW19153   5.066   4.464   1.544
 6085SOL    HW119154   4.969   4.445   1.561
 6085SOL    HW219155   5.083   4.465   1.446
 6086SOL     OW19156   2.899   1.701   3.113
 6086SOL    HW119157   2.954   1.771   3.158
 6086SOL    HW219158   2.904   1.616   3.166
 6087SOL     OW19159   4.025   0.360   0.581
 6087SOL    HW119160   4.087   0.285   0.558
 6087SOL    HW219161   4.076   0.445   0.588
 6088SOL     OW19162   6.977   7.005   5.621
 6088SOL    HW119163   6.899   0.040   5.606
 6088SOL    HW219164   7.024   6.989   5.535
 6089SOL     OW19165   6.548   3.369   0.326
 6089SOL    HW119166   6.623   3.426   0.361
 6089SOL    HW219167   6.538   3.288   0.384
 6090SOL     OW19168   0.484   5.666   3.989
 6090SOL    HW119169   0.391   5.672   3.954
 6090SOL    HW219170   0.482   5.635   4.084
 6091SOL     OW19171   5.892   2.114   1.501
 6091SOL    HW119172   5.837   2.038   1.465
 6091SOL    HW219173   5.838   2.164   1.569
 6092SOL     OW19174   1.571   2.362   1.203
 6092SOL    HW119175   1.527   2.321   1.282
 6092SOL    HW219176   1.652   2.310   1.178
 6093SOL     OW19177   1.225   3.537   0.766
 6093SOL    HW119178   1.246   3.631   0.791
 6093SOL    HW219179   1.309   3.482   0.769
 6094SOL     OW19180   0.926   0.819   0.886
 6094SOL    HW119181   0.959   0.768   0.806
 6094SOL    HW219182   0.976   0.905   0.893
 6095SOL     OW19183   6.235   4.168   5.296
 6095SOL    HW119184   6.223   4.254   5.345
 6095SOL    HW219185   6.155   4.150   5.239
 6096SOL     OW19186   3.963   1.634   2.969
 6096SOL    HW119187   3.927   1.704   2.908
 6096SOL    HW219188   4.058   1.614   2.944
 6097SOL     OW19189   3.198   1.765   1.673
 6097SOL    HW119190   3.261   1.751   1.749
 6097SOL    HW219191   3.203   1.860   1.642
 6098SOL     OW19192   1.551   1.291   6.386
 6098SOL    HW119193   1.551   1.382   6.345
 6098SOL    HW219194   1.495   1.292   6.469
 6099SOL     OW19195   5.914   4.990   4.616
 6099SOL    HW119196   5.931   4.952   4.525
 6099SOL    HW219197   5.839   4.940   4.659
 6100SOL     OW19198   7.018   1.918   0.297
 6100SOL    HW119199   0.016   1.970   0.379
 6100SOL    HW219200   7.006   1.980   0.220
 6101SOL     OW19201   5.644   0.841   3.955
 6101SOL    HW119202   5.635   0.940   3.940
 6101SOL    HW219203   5.735   0.821   3.990
 6102SOL     OW19204   2.887   0.352   5.248
 6102SOL    HW119205   2.805   0.380   5.299
 6102SOL    HW219206   2.889   0.400   5.160
 6103SOL     OW19207   6.227   1.095   5.303
 6103SOL    HW119208   6.224   1.031   5.226
 6103SOL    HW219209   6.134   1.127   5.323
 6104SOL     OW19210   1.727   3.388   0.886
 6104SOL    HW119211   1.775   3.332   0.954
 6104SOL    HW219212   1.779   3.387   0.800
 6105SOL     OW19213   3.402   5.349   4.717
 6105SOL    HW119214   3.306   5.331   4.742
 6105SOL    HW219215   3.409   5.359   4.618
 6106SOL     OW19216   3.238   5.429   4.404
 6106SOL    HW119217   3.189   5.386   4.480
 6106SOL    HW219218   3.191   5.514   4.379
 6107SOL     OW19219   2.296   5.160   5.761
 6107SOL    HW119220   2.343   5.228   5.818
 6107SOL    HW219221   2.362   5.096   5.723
 6108SOL     OW19222   6.088   1.836   4.109
 6108SOL    HW119223   6.016   1.853   4.042
 6108SOL    HW219224   6.172   1.811   4.062
 6109SOL     OW19225   6.421   4.449   2.004
 6109SOL    HW119226   6.443   4.504   1.923
 6109SOL    HW219227   6.414   4.353   1.978
 6110SOL     OW19228   3.467   2.118   4.277
 6110SOL    HW119229   3.521   2.065   4.211
 6110SOL    HW219230   3.415   2.188   4.228
 6111SOL     OW19231   0.517   4.513   3.075
 6111SOL    HW119232   0.436   4.466   3.110
 6111SOL    HW219233   0.530   4.599   3.124
 6112SOL     OW19234   1.282   2.274   1.763
 6112SOL    HW119235   1.372   2.316   1.750
 6112SOL    HW219236   1.285   2.179   1.732
 6113SOL     OW19237   2.260   5.538   5.395
 6113SOL    HW119238   2.357   5.563   5.392
 6113SOL    HW219239   2.251   5.445   5.433
 6114SOL     OW19240   5.292   5.426   1.002
 6114SOL    HW119241   5.325   5.342   0.959
 6114SOL    HW219242   5.232   5.474   0.938
 6115SOL     OW19243   6.062   4.666   2.374
 6115SOL    HW119244   6.008   4.729   2.319
 6115SOL    HW219245   6.133   4.624   2.318
 6116SOL     OW19246   3.158   2.482   1.105
 6116SOL    HW119247   3.233   2.417   1.118
 6116SOL    HW219248   3.189   2.574   1.129
 6117SOL     OW19249   5.680   6.519   4.229
 6117SOL    HW119250   5.780   6.517   4.237
 6117SOL    HW219251   5.640   6.528   4.321
 6118SOL     OW19252   6.065   0.170   2.833
 6118SOL    HW119253   5.990   0.115   2.869
 6118SOL    HW219254   6.036   0.211   2.746
 6119SOL     OW19255   6.327   5.208   3.694
 6119SOL    HW119256   6.422   5.191   3.668
 6119SOL    HW219257   6.325   5.262   3.778
 6120SOL     OW19258   2.935   1.014   3.410
 6120SOL    HW119259   3.030   1.016   3.379
 6120SOL    HW219260   2.925   1.074   3.489
 6121SOL     OW19261   6.613   2.050   4.386
 6121SOL    HW119262   6.619   2.148   4.368
 6121SOL    HW219263   6.529   2.030   4.437
 6122SOL     OW19264   4.856   6.046   3.833
 6122SOL    HW119265   4.821   6.135   3.804
 6122SOL    HW219266   4.895   6.054   3.925
 6123SOL     OW19267   6.864   1.476   1.752
 6123SOL    HW119268   6.809   1.417   1.812
 6123SOL    HW219269   6.850   1.448   1.657
 6124SOL     OW19270   2.554   0.305   5.132
 6124SOL    HW119271   2.548   0.348   5.222
 6124SOL    HW219272   2.627   0.348   5.079
 6125SOL     OW19273   2.055   4.990   2.552
 6125SOL    HW119274   2.132   4.956   2.498
 6125SOL    HW219275   2.036   4.928   2.628
 6126SOL     OW19276   4.476   5.581   2.340
 6126SOL    HW119277   4.383   5.556   2.311
 6126SOL    HW219278   4.483   5.573   2.440
 6127SOL     OW19279   2.013   3.751   2.135
 6127SOL    HW119280   2.057   3.820   2.193
 6127SOL    HW219281   1.930   3.718   2.180
 6128SOL     OW19282   4.875   2.532   1.147
 6128SOL    HW119283   4.932   2.484   1.214
 6128SOL    HW219284   4.815   2.597   1.195
 6129SOL     OW19285   5.813   4.325   3.390
 6129SOL    HW119286   5.785   4.229   3.393
 6129SOL    HW219287   5.733   4.382   3.372
 6130SOL     OW19288   5.609   4.612   2.738
 6130SOL    HW119289   5.568   4.651   2.820
 6130SOL    HW219290   5.559   4.529   2.713
 6131SOL     OW19291   6.517   1.044   5.275
 6131SOL    HW119292   6.502   1.045   5.177
 6131SOL    HW219293   6.430   1.057   5.323
 6132SOL     OW19294   6.475   2.344   0.656
 6132SOL    HW119295   6.412   2.406   0.702
 6132SOL    HW219296   6.435   2.253   0.650
 6133SOL     OW19297   1.345   4.659   0.432
 6133SOL    HW119298   1.323   4.700   0.521
 6133SOL    HW219299   1.442   4.633   0.431
 6134SOL     OW19300   4.634   3.099   0.258
 6134SOL    HW119301   4.541   3.094   0.295
 6134SOL    HW219302   4.696   3.137   0.327
 6135SOL     OW19303   5.715   0.176   2.345
 6135SOL    HW119304   5.654   0.182   2.267
 6135SOL    HW219305   5.711   0.260   2.399
 6136SOL     OW19306   6.946   1.648   2.422
 6136SOL    HW119307   6.961   1.604   2.510
 6136SOL    HW219308   6.964   1.746   2.430
 6137SOL     OW19309   3.011   6.553   6.086
 6137SOL    HW119310   3.065   6.470   6.072
 6137SOL    HW219311   2.915   6.534   6.062
 6138SOL     OW19312   4.696   6.854   2.876
 6138SOL    HW119313   4.604   6.818   2.889
 6138SOL    HW219314   4.763   6.782   2.896
 6139SOL     OW19315   2.516   5.552   3.847
 6139SOL    HW119316   2.445   5.550   3.776
 6139SOL    HW219317   2.605   5.536   3.806
 6140SOL     OW19318   1.724   5.869   1.780
 6140SOL    HW119319   1.717   5.817   1.865
 6140SOL    HW219320   1.714   5.807   1.702
 6141SOL     OW19321   6.721   5.967   5.549
 6141SOL    HW119322   6.622   5.962   5.561
 6141SOL    HW219323   6.766   5.943   5.635
 6142SOL     OW19324   0.356   4.090   2.668
 6142SOL    HW119325   0.339   3.991   2.669
 6142SOL    HW219326   0.445   4.108   2.627
 6143SOL     OW19327   6.781   4.566   6.456
 6143SOL    HW119328   6.871   4.587   6.493
 6143SOL    HW219329   6.781   4.473   6.419
 6144SOL     OW19330   0.287   4.743   4.375
 6144SOL    HW119331   0.353   4.770   4.446
 6144SOL    HW219332   0.336   4.720   4.292
 6145SOL     OW19333   5.374   5.649   3.572
 6145SOL    HW119334   5.445   5.678   3.508
 6145SOL    HW219335   5.299   5.607   3.520
 6146SOL     OW19336   5.304   1.322   3.193
 6146SOL    HW119337   5.390   1.360   3.158
 6146SOL    HW219338   5.228   1.380   3.164
 6147SOL     OW19339   0.941   3.385   3.229
 6147SOL    HW119340   0.882   3.434   3.166
 6147SOL    HW219341   0.937   3.428   3.319
 6148SOL     OW19342   5.888   5.857   3.870
 6148SOL    HW119343   5.958   5.909   3.918
 6148SOL    HW219344   5.798   5.897   3.888
 6149SOL     OW19345   2.449   0.171   4.604
 6149SOL    HW119346   2.350   0.170   4.591
 6149SOL    HW219347   2.470   0.148   4.699
 6150SOL     OW19348   4.193   5.525   5.873
 6150SOL    HW119349   4.101   5.490   5.888
 6150SOL    HW219350   4.189   5.598   5.805
 6151SOL     OW19351   4.531   0.656   5.747
 6151SOL    HW119352   4.555   0.684   5.654
 6151SOL    HW219353   4.525   0.557   5.752
 6152SOL     OW19354   6.538   5.107   5.832
 6152SOL    HW119355   6.615   5.083   5.773
 6152SOL    HW219356   6.504   5.023   5.876
 6153SOL     OW19357   5.043   4.203   0.100
 6153SOL    HW119358   5.089   4.169   0.182
 6153SOL    HW219359   4.973   4.138   0.071
 6154SOL     OW19360   5.014   2.891   3.481
 6154SOL    HW119361   5.046   2.831   3.554
 6154SOL    HW219362   5.085   2.901   3.412
 6155SOL     OW19363   1.908   3.680   4.139
 6155SOL    HW119364   1.960   3.677   4.224
 6155SOL    HW219365   1.908   3.589   4.097
 6156SOL     OW19366   6.126   0.525   4.402
 6156SOL    HW119367   6.052   0.524   4.334
 6156SOL    HW219368   6.102   0.465   4.478
 6157SOL     OW19369   1.241   1.636   3.412
 6157SOL    HW119370   1.295   1.564   3.456
 6157SOL    HW219371   1.265   1.725   3.453
 6158SOL     OW19372   4.469   0.511   0.565
 6158SOL    HW119373   4.532   0.584   0.592
 6158SOL    HW219374   4.417   0.480   0.644
 6159SOL     OW19375   5.603   3.064   0.018
 6159SOL    HW119376   5.668   3.133   7.012
 6159SOL    HW219377   5.638   2.973   7.022
 6160SOL     OW19378   6.670   4.730   1.413
 6160SOL    HW119379   6.685   4.677   1.330
 6160SOL    HW219380   6.572   4.742   1.428
 6161SOL     OW19381   5.673   0.772   6.294
 6161SOL    HW119382   5.592   0.747   6.347
 6161SOL    HW219383   5.749   0.712   6.318
 6162SOL     OW19384   6.036   5.144   4.009
 6162SOL    HW119385   5.977   5.189   4.076
 6162SOL    HW219386   6.014   5.178   3.918
 6163SOL     OW19387   0.013   4.225   2.058
 6163SOL    HW119388   6.998   4.238   1.968
 6163SOL    HW219389   0.063   4.308   2.083
 6164SOL     OW19390   4.530   2.792   0.407
 6164SOL    HW119391   4.487   2.882   0.404
 6164SOL    HW219392   4.526   2.756   0.501
 6165SOL     OW19393   4.397   6.679   0.579
 6165SOL    HW119394   4.410   6.587   0.543
 6165SOL    HW219395   4.460   6.742   0.534
 6166SOL     OW19396   3.643   1.494   6.877
 6166SOL    HW119397   3.702   1.521   6.953
 6166SOL    HW219398   3.555   1.463   6.912
 6167SOL     OW19399   0.112   5.010   3.145
 6167SOL    HW119400   0.016   4.985   3.150
 6167SOL    HW219401   0.148   5.021   3.238
 6168SOL     OW19402   0.631   2.724   1.376
 6168SOL    HW119403   0.538   2.761   1.383
 6168SOL    HW219404   0.638   2.669   1.293
 6169SOL     OW19405   1.879   4.497   1.937
 6169SOL    HW119406   1.825   4.418   1.909
 6169SOL    HW219407   1.975   4.469   1.946
 6170SOL     OW19408   6.703   2.132   3.487
 6170SOL    HW119409   6.750   2.072   3.552
 6170SOL    HW219410   6.744   2.223   3.490
 6171SOL     OW19411   6.298   0.886   6.666
 6171SOL    HW119412   6.236   0.928   6.733
 6171SOL    HW219413   6.374   0.843   6.714
 6172SOL     OW19414   1.082   4.389   4.043
 6172SOL    HW119415   1.093   4.434   4.131
 6172SOL    HW219416   1.100   4.454   3.969
 6173SOL     OW19417   5.854   6.346   3.443
 6173SOL    HW119418   5.924   6.356   3.372
 6173SOL    HW219419   5.765   6.333   3.399
 6174SOL     OW19420   6.364   2.527   2.371
 6174SOL    HW119421   6.392   2.608   2.424
 6174SOL    HW219422   6.444   2.468   2.356
 6175SOL     OW19423   3.592   2.037   6.464
 6175SOL    HW119424   3.515   1.992   6.510
 6175SOL    HW219425   3.674   1.981   6.473
 6176SOL     OW19426   3.580   3.806   6.163
 6176SOL    HW119427   3.532   3.889   6.191
 6176SOL    HW219428   3.540   3.770   6.079
 6177SOL     OW19429   5.740   6.092   1.658
 6177SOL    HW119430   5.682   6.131   1.730
 6177SOL    HW219431   5.804   6.027   1.699
 6178SOL     OW19432   4.319   4.724   1.943
 6178SOL    HW119433   4.262   4.642   1.944
 6178SOL    HW219434   4.401   4.707   1.889
 6179SOL     OW19435   5.500   4.789   4.833
 6179SOL    HW119436   5.407   4.762   4.858
 6179SOL    HW219437   5.543   4.836   4.910
 6180SOL     OW19438   2.881   4.638   6.556
 6180SOL    HW119439   2.841   4.715   6.606
 6180SOL    HW219440   2.972   4.618   6.593
 6181SOL     OW19441   6.082   6.382   6.772
 6181SOL    HW119442   5.983   6.390   6.782
 6181SOL    HW219443   6.112   6.442   6.698
 6182SOL     OW19444   3.083   2.469   0.533
 6182SOL    HW119445   3.160   2.443   0.475
 6182SOL    HW219446   3.005   2.410   0.513
 6183SOL     OW19447   0.040   6.869   0.594
 6183SOL    HW119448   0.021   6.780   0.635
 6183SOL    HW219449   0.045   6.938   0.665
 6184SOL     OW19450   3.321   6.389   5.417
 6184SOL    HW119451   3.295   6.470   5.469
 6184SOL    HW219452   3.349   6.317   5.481
 6185SOL     OW19453   3.939   3.551   5.050
 6185SOL    HW119454   3.846   3.519   5.069
 6185SOL    HW219455   3.935   3.623   4.980
 6186SOL     OW19456   1.074   1.765   2.662
 6186SOL    HW119457   1.014   1.746   2.584
 6186SOL    HW219458   1.080   1.684   2.720
 6187SOL     OW19459   3.254   1.812   6.255
 6187SOL    HW119460   3.339   1.778   6.297
 6187SOL    HW219461   3.261   1.803   6.156
 6188SOL     OW19462   2.162   1.515   5.107
 6188SOL    HW119463   2.255   1.538   5.136
 6188SOL    HW219464   2.105   1.496   5.188
 6189SOL     OW19465   6.714   5.144   0.895
 6189SOL    HW119466   6.630   5.092   0.876
 6189SOL    HW219467   6.779   5.085   0.942
 6190SOL     OW19468   0.511   3.145   3.905
 6190SOL    HW119469   0.467   3.234   3.917
 6190SOL    HW219470   0.601   3.158   3.864
 6191SOL     OW19471   2.982   4.000   0.589
 6191SOL    HW119472   2.971   3.902   0.573
 6191SOL    HW219473   3.078   4.020   0.604
 6192SOL     OW19474   3.159   1.559   1.043
 6192SOL    HW119475   3.168   1.625   0.968
 6192SOL    HW219476   3.223   1.582   1.116
 6193SOL     OW19477   4.432   5.669   6.914
 6193SOL    HW119478   4.453   5.727   6.834
 6193SOL    HW219479   4.380   5.589   6.884
 6194SOL     OW19480   5.465   0.009   6.572
 6194SOL    HW119481   5.412   0.069   6.632
 6194SOL    HW219482   5.560   0.008   6.602
 6195SOL     OW19483   5.353   6.138   6.303
 6195SOL    HW119484   5.361   6.194   6.385
 6195SOL    HW219485   5.420   6.065   6.305
 6196SOL     OW19486   6.030   3.264   3.270
 6196SOL    HW119487   6.022   3.220   3.181
 6196SOL    HW219488   6.099   3.217   3.325
 6197SOL     OW19489   0.768   5.389   1.091
 6197SOL    HW119490   0.694   5.335   1.050
 6197SOL    HW219491   0.832   5.328   1.138
 6198SOL     OW19492   5.471   1.735   6.568
 6198SOL    HW119493   5.483   1.807   6.499
 6198SOL    HW219494   5.493   1.647   6.527
 6199SOL     OW19495   1.979   6.787   6.239
 6199SOL    HW119496   1.996   6.882   6.264
 6199SOL    HW219497   1.881   6.768   6.241
 6200SOL     OW19498   1.606   0.553   0.840
 6200SOL    HW119499   1.522   0.498   0.838
 6200SOL    HW219500   1.630   0.580   0.746
 6201SOL     OW19501   0.166   4.661   3.120
 6201SOL    HW119502   0.071   4.639   3.098
 6201SOL    HW219503   0.200   4.729   3.056
 6202SOL     OW19504   6.006   0.954   2.678
 6202SOL    HW119505   5.935   0.994   2.736
 6202SOL    HW219506   6.086   1.014   2.677
 6203SOL     OW19507   6.029   0.128   1.968
 6203SOL    HW119508   6.124   0.103   1.950
 6203SOL    HW219509   6.004   0.103   2.061
 6204SOL     OW19510   1.140   6.280   4.892
 6204SOL    HW119511   1.222   6.305   4.944
 6204SOL    HW219512   1.166   6.238   4.806
 6205SOL     OW19513   5.618   4.567   3.418
 6205SOL    HW119514   5.644   4.606   3.506
 6205SOL    HW219515   5.623   4.638   3.347
 6206SOL     OW19516   5.704   1.821   3.438
 6206SOL    HW119517   5.607   1.799   3.448
 6206SOL    HW219518   5.759   1.758   3.493
 6207SOL     OW19519   0.475   6.145   3.970
 6207SOL    HW119520   0.553   6.107   3.919
 6207SOL    HW219521   0.508   6.181   4.058
 6208SOL     OW19522   4.742   3.697   5.731
 6208SOL    HW119523   4.681   3.758   5.680
 6208SOL    HW219524   4.719   3.602   5.712
 6209SOL     OW19525   3.764   2.112   1.530
 6209SOL    HW119526   3.842   2.129   1.470
 6209SOL    HW219527   3.679   2.115   1.477
 6210SOL     OW19528   5.676   1.342   4.422
 6210SOL    HW119529   5.691   1.322   4.519
 6210SOL    HW219530   5.729   1.422   4.396
 6211SOL     OW19531   5.878   3.942   4.915
 6211SOL    HW119532   5.960   3.926   4.861
 6211SOL    HW219533   5.843   3.856   4.952
 6212SOL     OW19534   5.571   4.337   4.704
 6212SOL    HW119535   5.625   4.256   4.725
 6212SOL    HW219536   5.526   4.370   4.787
 6213SOL     OW19537   4.365   5.665   0.631
 6213SOL    HW119538   4.351   5.589   0.567
 6213SOL    HW219539   4.285   5.725   0.630
 6214SOL     OW19540   6.313   0.005   0.178
 6214SOL    HW119541   6.271   0.076   0.122
 6214SOL    HW219542   6.340   0.043   0.266
 6215SOL     OW19543   5.756   2.283   5.064
 6215SOL    HW119544   5.784   2.368   5.109
 6215SOL    HW219545   5.733   2.302   4.968
 6216SOL     OW19546   4.571   1.789   4.512
 6216SOL    HW119547   4.659   1.787   4.559
 6216SOL    HW219548   4.552   1.699   4.473
 6217SOL     OW19549   0.994   4.361   2.636
 6217SOL    HW119550   1.079   4.309   2.626
 6217SOL    HW219551   0.933   4.339   2.560
 6218SOL     OW19552   4.453   6.411   0.461
 6218SOL    HW119553   4.367   6.387   0.506
 6218SOL    HW219554   4.528   6.358   0.501
 6219SOL     OW19555   2.206   1.050   6.941
 6219SOL    HW119556   2.187   0.952   6.937
 6219SOL    HW219557   2.120   1.101   6.937
 6220SOL     OW19558   3.229   6.526   1.033
 6220SOL    HW119559   3.143   6.491   0.996
 6220SOL    HW219560   3.229   6.518   1.132
 6221SOL     OW19561   5.094   5.805   5.942
 6221SOL    HW119562   5.012   5.756   5.913
 6221SOL    HW219563   5.123   5.771   6.031
 6222SOL     OW19564   6.507   1.750   2.201
 6222SOL    HW119565   6.554   1.668   2.235
 6222SOL    HW219566   6.437   1.778   2.267
 6223SOL     OW19567   0.177   5.165   4.534
 6223SOL    HW119568   0.276   5.178   4.540
 6223SOL    HW219569   0.147   5.173   4.439
 6224SOL     OW19570   3.748   6.915   0.054
 6224SOL    HW119571   3.810   6.956   7.014
 6224SOL    HW219572   3.708   6.986   0.111
 6225SOL     OW19573   4.650   6.120   6.151
 6225SOL    HW119574   4.693   6.106   6.240
 6225SOL    HW219575   4.715   6.092   6.079
 6226SOL     OW19576   0.825   0.954   3.855
 6226SOL    HW119577   0.729   0.944   3.829
 6226SOL    HW219578   0.858   0.869   3.893
 6227SOL     OW19579   3.146   4.622   5.888
 6227SOL    HW119580   3.215   4.659   5.825
 6227SOL    HW219581   3.061   4.673   5.877
 6228SOL     OW19582   1.171   2.978   3.783
 6228SOL    HW119583   1.271   2.980   3.783
 6228SOL    HW219584   1.137   3.037   3.856
 6229SOL     OW19585   0.700   3.783   4.257
 6229SOL    HW119586   0.753   3.857   4.299
 6229SOL    HW219587   0.733   3.767   4.164
 6230SOL     OW19588   0.641   0.922   1.471
 6230SOL    HW119589   0.609   0.942   1.378
 6230SOL    HW219590   0.630   1.004   1.528
 6231SOL     OW19591   2.301   5.244   5.456
 6231SOL    HW119592   2.369   5.235   5.383
 6231SOL    HW219593   2.332   5.194   5.537
 6232SOL     OW19594   4.194   0.507   6.263
 6232SOL    HW119595   4.184   0.545   6.172
 6232SOL    HW219596   4.208   0.408   6.257
 6233SOL     OW19597   0.100   3.284   1.284
 6233SOL    HW119598   0.007   3.256   1.308
 6233SOL    HW219599   0.162   3.259   1.358
 6234SOL     OW19600   5.161   5.135   4.422
 6234SOL    HW119601   5.160   5.146   4.323
 6234SOL    HW219602   5.085   5.077   4.450
 6235SOL     OW19603   0.462   0.811   2.165
 6235SOL    HW119604   0.539   0.874   2.167
 6235SOL    HW219605   0.454   0.770   2.074
 6236SOL     OW19606   6.755   5.624   1.255
 6236SOL    HW119607   6.794   5.716   1.253
 6236SOL    HW219608   6.670   5.623   1.202
 6237SOL     OW19609   3.289   1.298   2.048
 6237SOL    HW119610   3.305   1.380   1.994
 6237SOL    HW219611   3.246   1.228   1.990
 6238SOL     OW19612   2.200   1.236   3.646
 6238SOL    HW119613   2.143   1.231   3.565
 6238SOL    HW219614   2.293   1.210   3.623
 6239SOL     OW19615   4.584   1.271   4.414
 6239SOL    HW119616   4.617   1.211   4.486
 6239SOL    HW219617   4.538   1.217   4.344
 6240SOL     OW19618   4.048   3.666   3.814
 6240SOL    HW119619   4.092   3.585   3.776
 6240SOL    HW219620   3.951   3.665   3.792
 6241SOL     OW19621   3.614   0.031   3.570
 6241SOL    HW119622   3.712   0.034   3.587
 6241SOL    HW219623   3.598   0.013   3.473
 6242SOL     OW19624   2.834   2.084   4.087
 6242SOL    HW119625   2.785   2.022   4.025
 6242SOL    HW219626   2.906   2.131   4.035
 6243SOL     OW19627   4.280   1.744   6.928
 6243SOL    HW119628   4.255   1.673   6.993
 6243SOL    HW219629   4.353   1.801   6.966
 6244SOL     OW19630   4.519   2.545   1.876
 6244SOL    HW119631   4.480   2.461   1.913
 6244SOL    HW219632   4.459   2.581   1.804
 6245SOL     OW19633   0.393   5.040   2.325
 6245SOL    HW119634   0.477   4.987   2.331
 6245SOL    HW219635   0.382   5.075   2.232
 6246SOL     OW19636   6.971   6.960   4.840
 6246SOL    HW119637   0.035   6.974   4.800
 6246SOL    HW219638   6.965   7.010   4.926
 6247SOL     OW19639   6.349   6.308   3.375
 6247SOL    HW119640   6.398   6.222   3.358
 6247SOL    HW219641   6.384   6.350   3.459
 6248SOL     OW19642   4.080   3.317   4.999
 6248SOL    HW119643   4.016   3.387   5.030
 6248SOL    HW219644   4.128   3.278   5.078
 6249SOL     OW19645   5.372   3.567   2.679
 6249SOL    HW119646   5.345   3.526   2.766
 6249SOL    HW219647   5.341   3.509   2.604
 6250SOL     OW19648   5.311   6.663   6.346
 6250SOL    HW119649   5.353   6.629   6.431
 6250SOL    HW219650   5.283   6.758   6.359
 6251SOL     OW19651   2.935   1.075   4.500
 6251SOL    HW119652   2.928   1.116   4.591
 6251SOL    HW219653   2.934   0.975   4.508
 6252SOL     OW19654   3.197   5.423   0.134
 6252SOL    HW119655   3.118   5.377   0.172
 6252SOL    HW219656   3.178   5.452   0.040
 6253SOL     OW19657   3.973   6.386   4.042
 6253SOL    HW119658   3.960   6.434   4.128
 6253SOL    HW219659   4.030   6.441   3.981
 6254SOL     OW19660   0.338   0.300   1.738
 6254SOL    HW119661   0.305   0.213   1.776
 6254SOL    HW219662   0.411   0.282   1.671
 6255SOL     OW19663   1.166   1.601   0.797
 6255SOL    HW119664   1.215   1.559   0.720
 6255SOL    HW219665   1.068   1.586   0.786
 6256SOL     OW19666   6.129   5.412   2.032
 6256SOL    HW119667   6.136   5.394   2.130
 6256SOL    HW219668   6.060   5.483   2.016
 6257SOL     OW19669   3.717   4.679   1.042
 6257SOL    HW119670   3.817   4.669   1.041
 6257SOL    HW219671   3.681   4.644   1.128
 6258SOL     OW19672   4.324   5.355   4.593
 6258SOL    HW119673   4.292   5.389   4.682
 6258SOL    HW219674   4.245   5.327   4.538
 6259SOL     OW19675   4.382   0.811   5.285
 6259SOL    HW119676   4.303   0.872   5.276
 6259SOL    HW219677   4.360   0.738   5.350
 6260SOL     OW19678   2.391   1.548   0.836
 6260SOL    HW119679   2.294   1.552   0.815
 6260SOL    HW219680   2.442   1.520   0.754
 6261SOL     OW19681   3.476   0.136   0.949
 6261SOL    HW119682   3.533   0.142   0.867
 6261SOL    HW219683   3.380   0.144   0.923
 6262SOL     OW19684   6.052   1.178   2.431
 6262SOL    HW119685   6.052   1.078   2.426
 6262SOL    HW219686   6.087   1.207   2.520
 6263SOL     OW19687   6.523   5.956   6.069
 6263SOL    HW119688   6.475   6.037   6.037
 6263SOL    HW219689   6.618   5.978   6.088
 6264SOL     OW19690   2.290   5.770   0.354
 6264SOL    HW119691   2.351   5.792   0.278
 6264SOL    HW219692   2.306   5.835   0.429
 6265SOL     OW19693   4.248   6.049   6.064
 6265SOL    HW119694   4.149   6.044   6.081
 6265SOL    HW219695   4.275   6.145   6.055
 6266SOL     OW19696   3.763   5.558   3.047
 6266SOL    HW119697   3.832   5.486   3.045
 6266SOL    HW219698   3.672   5.516   3.054
 6267SOL     OW19699   0.631   6.364   4.703
 6267SOL    HW119700   0.729   6.387   4.708
 6267SOL    HW219701   0.601   6.369   4.608
 6268SOL     OW19702   3.095   1.712   0.755
 6268SOL    HW119703   3.131   1.629   0.713
 6268SOL    HW219704   3.168   1.780   0.762
 6269SOL     OW19705   6.830   5.856   6.744
 6269SOL    HW119706   6.840   5.772   6.797
 6269SOL    HW219707   6.734   5.866   6.717
 6270SOL     OW19708   1.777   6.496   0.956
 6270SOL    HW119709   1.725   6.576   0.927
 6270SOL    HW219710   1.732   6.453   1.034
 6271SOL     OW19711   6.799   2.976   6.052
 6271SOL    HW119712   6.799   2.878   6.070
 6271SOL    HW219713   6.890   3.005   6.025
 6272SOL     OW19714   0.284   1.220   6.826
 6272SOL    HW119715   0.237   1.307   6.814
 6272SOL    HW219716   0.331   1.219   6.914
 6273SOL     OW19717   0.271   6.671   2.842
 6273SOL    HW119718   0.292   6.668   2.744
 6273SOL    HW219719   0.336   6.731   2.888
 6274SOL     OW19720   3.056   5.700   3.874
 6274SOL    HW119721   3.149   5.668   3.891
 6274SOL    HW219722   3.002   5.693   3.958
 6275SOL     OW19723   2.671   5.806   6.714
 6275SOL    HW119724   2.692   5.859   6.631
 6275SOL    HW219725   2.711   5.851   6.793
 6276SOL     OW19726   1.475   5.137   2.735
 6276SOL    HW119727   1.522   5.193   2.804
 6276SOL    HW219728   1.473   5.042   2.765
 6277SOL     OW19729   4.962   2.434   1.382
 6277SOL    HW119730   5.023   2.363   1.415
 6277SOL    HW219731   4.950   2.504   1.453
 6278SOL     OW19732   4.535   2.348   0.733
 6278SOL    HW119733   4.509   2.340   0.636
 6278SOL    HW219734   4.566   2.441   0.751
 6279SOL     OW19735   2.992   6.558   1.639
 6279SOL    HW119736   3.055   6.576   1.714
 6279SOL    HW219737   2.936   6.478   1.660
 6280SOL     OW19738   5.042   2.113   6.599
 6280SOL    HW119739   5.012   2.137   6.691
 6280SOL    HW219740   5.140   2.091   6.600
 6281SOL     OW19741   5.130   4.689   5.851
 6281SOL    HW119742   5.086   4.640   5.926
 6281SOL    HW219743   5.223   4.715   5.879
 6282SOL     OW19744   0.666   3.538   5.883
 6282SOL    HW119745   0.667   3.439   5.869
 6282SOL    HW219746   0.577   3.566   5.919
 6283SOL     OW19747   2.526   6.708   4.898
 6283SOL    HW119748   2.602   6.648   4.924
 6283SOL    HW219749   2.486   6.676   4.813
 6284SOL     OW19750   1.409   2.916   5.932
 6284SOL    HW119751   1.388   3.000   5.882
 6284SOL    HW219752   1.497   2.880   5.900
 6285SOL     OW19753   1.381   3.566   2.818
 6285SOL    HW119754   1.433   3.626   2.758
 6285SOL    HW219755   1.442   3.500   2.861
 6286SOL     OW19756   0.685   2.026   6.552
 6286SOL    HW119757   0.650   2.110   6.593
 6286SOL    HW219758   0.677   2.032   6.452
 6287SOL     OW19759   4.033   4.822   4.682
 6287SOL    HW119760   4.022   4.888   4.757
 6287SOL    HW219761   4.068   4.736   4.718
 6288SOL     OW19762   2.716   3.471   5.667
 6288SOL    HW119763   2.652   3.457   5.592
 6288SOL    HW219764   2.772   3.552   5.649
 6289SOL     OW19765   1.946   4.666   4.383
 6289SOL    HW119766   2.043   4.646   4.398
 6289SOL    HW219767   1.912   4.726   4.456
 6290SOL     OW19768   6.079   0.136   3.940
 6290SOL    HW119769   6.036   0.225   3.923
 6290SOL    HW219770   6.086   0.085   3.854
 6291SOL     OW19771   3.827   3.630   1.993
 6291SOL    HW119772   3.808   3.607   2.088
 6291SOL    HW219773   3.886   3.710   1.989
 6292SOL     OW19774   1.440   4.667   5.000
 6292SOL    HW119775   1.353   4.631   5.035
 6292SOL    HW219776   1.513   4.601   5.018
 6293SOL     OW19777   2.745   1.639   6.329
 6293SOL    HW119778   2.690   1.720   6.346
 6293SOL    HW219779   2.841   1.659   6.347
 6294SOL     OW19780   1.950   1.344   2.063
 6294SOL    HW119781   1.889   1.286   2.009
 6294SOL    HW219782   1.961   1.305   2.155
 6295SOL     OW19783   4.320   3.740   6.316
 6295SOL    HW119784   4.235   3.793   6.313
 6295SOL    HW219785   4.366   3.755   6.404
 6296SOL     OW19786   0.591   2.664   6.623
 6296SOL    HW119787   0.659   2.608   6.578
 6296SOL    HW219788   0.633   2.749   6.655
 6297SOL     OW19789   6.516   0.948   3.938
 6297SOL    HW119790   6.566   0.987   4.014
 6297SOL    HW219791   6.421   0.929   3.966
 6298SOL     OW19792   0.050   6.558   0.692
 6298SOL    HW119793   0.131   6.554   0.750
 6298SOL    HW219794   0.066   6.506   0.608
 6299SOL     OW19795   3.878   1.634   4.280
 6299SOL    HW119796   3.855   1.536   4.280
 6299SOL    HW219797   3.922   1.658   4.194
 6300SOL     OW19798   3.065   2.227   0.901
 6300SOL    HW119799   3.134   2.211   0.830
 6300SOL    HW219800   3.048   2.325   0.909
 6301SOL     OW19801   4.021   6.525   6.676
 6301SOL    HW119802   4.029   6.581   6.759
 6301SOL    HW219803   4.070   6.439   6.689
 6302SOL     OW19804   1.336   3.502   0.054
 6302SOL    HW119805   1.268   3.573   0.072
 6302SOL    HW219806   1.318   3.423   0.113
 6303SOL     OW19807   0.021   4.816   4.492
 6303SOL    HW119808   7.017   4.721   4.492
 6303SOL    HW219809   0.099   4.826   4.430
 6304SOL     OW19810   3.120   1.000   4.254
 6304SOL    HW119811   3.200   0.974   4.201
 6304SOL    HW219812   3.146   1.069   4.322
 6305SOL     OW19813   0.753   6.046   6.006
 6305SOL    HW119814   0.655   6.050   6.024
 6305SOL    HW219815   0.780   6.121   5.946
 6306SOL     OW19816   0.357   4.354   4.643
 6306SOL    HW119817   0.391   4.376   4.552
 6306SOL    HW219818   0.312   4.435   4.682
 6307SOL     OW19819   4.000   3.072   2.465
 6307SOL    HW119820   3.947   3.054   2.383
 6307SOL    HW219821   3.940   3.069   2.546
 6308SOL     OW19822   1.089   2.056   0.532
 6308SOL    HW119823   1.112   1.984   0.598
 6308SOL    HW219824   1.166   2.120   0.524
 6309SOL     OW19825   1.811   6.334   4.759
 6309SOL    HW119826   1.872   6.344   4.837
 6309SOL    HW219827   1.716   6.343   4.789
 6310SOL     OW19828   1.038   0.007   4.148
 6310SOL    HW119829   0.968   7.022   4.077
 6310SOL    HW219830   1.129   0.001   4.107
 6311SOL     OW19831   6.552   1.364   6.521
 6311SOL    HW119832   6.559   1.463   6.511
 6311SOL    HW219833   6.615   1.320   6.457
 6312SOL     OW19834   3.162   5.776   0.541
 6312SOL    HW119835   3.154   5.684   0.580
 6312SOL    HW219836   3.249   5.816   0.570
 6313SOL     OW19837   5.752   4.721   3.634
 6313SOL    HW119838   5.716   4.784   3.704
 6313SOL    HW219839   5.842   4.690   3.662
 6314SOL     OW19840   1.784   5.979   2.651
 6314SOL    HW119841   1.734   5.895   2.670
 6314SOL    HW219842   1.721   6.057   2.653
 6315SOL     OW19843   2.219   1.541   3.699
 6315SOL    HW119844   2.189   1.554   3.794
 6315SOL    HW219845   2.178   1.457   3.662
 6316SOL     OW19846   4.397   0.634   5.030
 6316SOL    HW119847   4.383   0.579   5.112
 6316SOL    HW219848   4.474   0.696   5.043
 6317SOL     OW19849   4.766   4.523   2.809
 6317SOL    HW119850   4.767   4.617   2.773
 6317SOL    HW219851   4.695   4.471   2.761
 6318SOL     OW19852   6.373   6.869   6.838
 6318SOL    HW119853   6.385   6.836   6.745
 6318SOL    HW219854   6.439   6.824   6.899
 6319SOL     OW19855   4.666   2.167   4.550
 6319SOL    HW119856   4.711   2.229   4.487
 6319SOL    HW219857   4.588   2.123   4.503
 6320SOL     OW19858   6.803   2.082   5.469
 6320SOL    HW119859   6.777   2.123   5.381
 6320SOL    HW219860   6.742   2.005   5.490
 6321SOL     OW19861   0.484   2.808   0.317
 6321SOL    HW119862   0.521   2.824   0.226
 6321SOL    HW219863   0.394   2.765   0.310
 6322SOL     OW19864   1.771   1.528   3.237
 6322SOL    HW119865   1.797   1.523   3.140
 6322SOL    HW219866   1.673   1.544   3.244
 6323SOL     OW19867   2.322   4.944   0.877
 6323SOL    HW119868   2.225   4.919   0.875
 6323SOL    HW219869   2.334   5.032   0.830
 6324SOL     OW19870   4.717   3.418   1.433
 6324SOL    HW119871   4.814   3.419   1.410
 6324SOL    HW219872   4.688   3.324   1.452
 6325SOL     OW19873   1.671   2.947   3.819
 6325SOL    HW119874   1.739   3.014   3.847
 6325SOL    HW219875   1.715   2.872   3.770
 6326SOL     OW19876   4.988   5.303   5.016
 6326SOL    HW119877   4.966   5.207   5.032
 6326SOL    HW219878   4.921   5.342   4.953
 6327SOL     OW19879   0.621   1.286   3.345
 6327SOL    HW119880   0.704   1.293   3.401
 6327SOL    HW219881   0.557   1.222   3.387
 6328SOL     OW19882   4.577   3.783   5.487
 6328SOL    HW119883   4.564   3.690   5.453
 6328SOL    HW219884   4.609   3.842   5.413
 6329SOL     OW19885   0.905   2.579   5.896
 6329SOL    HW119886   0.938   2.566   5.990
 6329SOL    HW219887   0.859   2.496   5.865
 6330SOL     OW19888   4.793   1.635   3.960
 6330SOL    HW119889   4.788   1.561   3.893
 6330SOL    HW219890   4.751   1.717   3.923
 6331SOL     OW19891   1.023   3.414   3.802
 6331SOL    HW119892   0.928   3.442   3.787
 6331SOL    HW219893   1.072   3.486   3.851
 6332SOL     OW19894   3.538   1.809   6.873
 6332SOL    HW119895   3.438   1.806   6.869
 6332SOL    HW219896   3.573   1.717   6.889
 6333SOL     OW19897   5.779   0.695   0.505
 6333SOL    HW119898   5.834   0.759   0.559
 6333SOL    HW219899   5.800   0.602   0.532
 6334SOL     OW19900   1.945   1.414   1.718
 6334SOL    HW119901   1.935   1.385   1.813
 6334SOL    HW219902   1.886   1.493   1.700
 6335SOL     OW19903   6.921   4.081   6.222
 6335SOL    HW119904   6.956   3.994   6.187
 6335SOL    HW219905   6.842   4.109   6.168
 6336SOL     OW19906   0.482   4.349   5.331
 6336SOL    HW119907   0.396   4.301   5.343
 6336SOL    HW219908   0.543   4.329   5.408
 6337SOL     OW19909   6.189   0.237   4.993
 6337SOL    HW119910   6.216   0.214   4.899
 6337SOL    HW219911   6.163   0.154   5.042
 6338SOL     OW19912   1.144   1.123   3.210
 6338SOL    HW119913   1.218   1.168   3.260
 6338SOL    HW219914   1.173   1.031   3.184
 6339SOL     OW19915   6.933   3.729   3.287
 6339SOL    HW119916   7.006   3.726   3.219
 6339SOL    HW219917   6.946   3.656   3.354
 6340SOL     OW19918   2.767   5.086   0.218
 6340SOL    HW119919   2.729   4.996   0.197
 6340SOL    HW219920   2.694   5.149   0.241
 6341SOL     OW19921   0.017   5.244   1.993
 6341SOL    HW119922   0.030   5.206   2.084
 6341SOL    HW219923   0.033   5.173   1.924
 6342SOL     OW19924   2.138   0.970   1.529
 6342SOL    HW119925   2.108   0.880   1.500
 6342SOL    HW219926   2.119   0.981   1.627
 6343SOL     OW19927   1.427   5.698   0.280
 6343SOL    HW119928   1.444   5.797   0.287
 6343SOL    HW219929   1.340   5.676   0.325
 6344SOL     OW19930   1.102   1.398   4.521
 6344SOL    HW119931   1.033   1.467   4.500
 6344SOL    HW219932   1.084   1.316   4.467
 6345SOL     OW19933   5.717   2.934   2.741
 6345SOL    HW119934   5.737   2.972   2.651
 6345SOL    HW219935   5.786   2.867   2.765
 6346SOL     OW19936   0.434   4.616   5.012
 6346SOL    HW119937   0.466   4.521   5.012
 6346SOL    HW219938   0.492   4.671   4.953
 6347SOL     OW19939   2.096   2.489   3.791
 6347SOL    HW119940   2.086   2.585   3.765
 6347SOL    HW219941   2.015   2.438   3.761
 6348SOL     OW19942   1.073   2.498   6.576
 6348SOL    HW119943   1.113   2.537   6.493
 6348SOL    HW219944   1.062   2.571   6.644
 6349SOL     OW19945   5.516   0.646   0.854
 6349SOL    HW119946   5.484   0.694   0.936
 6349SOL    HW219947   5.615   0.635   0.858
 6350SOL     OW19948   0.904   6.399   1.529
 6350SOL    HW119949   0.859   6.369   1.613
 6350SOL    HW219950   0.993   6.354   1.520
 6351SOL     OW19951   5.987   3.368   1.406
 6351SOL    HW119952   5.899   3.377   1.359
 6351SOL    HW219953   5.971   3.337   1.500
 6352SOL     OW19954   3.883   0.629   4.263
 6352SOL    HW119955   3.867   0.614   4.361
 6352SOL    HW219956   3.881   0.541   4.215
 6353SOL     OW19957   3.563   6.234   4.972
 6353SOL    HW119958   3.493   6.274   5.031
 6353SOL    HW219959   3.558   6.134   4.977
 6354SOL     OW19960   4.936   5.036   2.376
 6354SOL    HW119961   5.035   5.026   2.373
 6354SOL    HW219962   4.906   5.040   2.472
 6355SOL     OW19963   3.423   5.839   1.167
 6355SOL    HW119964   3.479   5.835   1.250
 6355SOL    HW219965   3.326   5.831   1.192
 6356SOL     OW19966   0.065   6.461   6.582
 6356SOL    HW119967   0.074   6.389   6.651
 6356SOL    HW219968   0.120   6.438   6.502
 6357SOL     OW19969   4.680   1.498   3.175
 6357SOL    HW119970   4.676   1.401   3.150
 6357SOL    HW219971   4.751   1.512   3.243
 6358SOL     OW19972   0.993   1.700   4.561
 6358SOL    HW119973   0.929   1.682   4.636
 6358SOL    HW219974   1.084   1.719   4.599
 6359SOL     OW19975   5.753   5.691   1.617
 6359SOL    HW119976   5.660   5.673   1.585
 6359SOL    HW219977   5.796   5.605   1.643
 6360SOL     OW19978   1.939   2.364   0.886
 6360SOL    HW119979   1.965   2.327   0.797
 6360SOL    HW219980   2.021   2.400   0.932
 6361SOL     OW19981   0.672   1.312   1.478
 6361SOL    HW119982   0.719   1.268   1.554
 6361SOL    HW219983   0.574   1.311   1.494
 6362SOL     OW19984   1.473   4.904   0.201
 6362SOL    HW119985   1.469   4.819   0.148
 6362SOL    HW219986   1.446   4.981   0.143
 6363SOL     OW19987   1.323   3.308   1.885
 6363SOL    HW119988   1.403   3.288   1.829
 6363SOL    HW219989   1.316   3.239   1.958
 6364SOL     OW19990   2.996   1.583   3.644
 6364SOL    HW119991   2.911   1.555   3.598
 6364SOL    HW219992   2.997   1.548   3.737
 6365SOL     OW19993   6.214   6.862   3.007
 6365SOL    HW119994   6.128   6.827   3.045
 6365SOL    HW219995   6.270   6.785   2.976
 6366SOL     OW19996   5.683   0.858   5.404
 6366SOL    HW119997   5.668   0.805   5.321
 6366SOL    HW219998   5.680   0.955   5.383
 6367SOL     OW19999   1.287   2.287   3.971
 6367SOL    HW120000   1.342   2.216   4.016
 6367SOL    HW220001   1.240   2.247   3.892
 6368SOL     OW20002   4.927   3.368   4.941
 6368SOL    HW120003   4.933   3.311   5.023
 6368SOL    HW220004   4.889   3.457   4.965
 6369SOL     OW20005   4.374   4.709   0.492
 6369SOL    HW120006   4.294   4.767   0.507
 6369SOL    HW220007   4.423   4.697   0.578
 6370SOL     OW20008   5.671   4.533   4.542
 6370SOL    HW120009   5.725   4.481   4.475
 6370SOL    HW220010   5.646   4.473   4.618
 6371SOL     OW20011   5.653   4.684   0.859
 6371SOL    HW120012   5.748   4.716   0.850
 6371SOL    HW220013   5.613   4.673   0.769
 6372SOL     OW20014   6.568   1.492   1.557
 6372SOL    HW120015   6.654   1.445   1.536
 6372SOL    HW220016   6.508   1.489   1.477
 6373SOL     OW20017   4.982   3.102   2.092
 6373SOL    HW120018   4.898   3.081   2.041
 6373SOL    HW220019   5.061   3.072   2.038
 6374SOL     OW20020   4.972   3.412   6.162
 6374SOL    HW120021   4.933   3.486   6.106
 6374SOL    HW220022   4.923   3.406   6.248
 6375SOL     OW20023   4.839   1.210   2.120
 6375SOL    HW120024   4.820   1.250   2.210
 6375SOL    HW220025   4.759   1.160   2.088
 6376SOL     OW20026   2.884   0.478   0.218
 6376SOL    HW120027   2.815   0.444   0.155
 6376SOL    HW220028   2.955   0.527   0.166
 6377SOL     OW20029   0.170   0.563   6.935
 6377SOL    HW120030   0.120   0.480   6.912
 6377SOL    HW220031   0.231   0.546   7.013
 6378SOL     OW20032   5.921   4.182   2.205
 6378SOL    HW120033   5.996   4.234   2.165
 6378SOL    HW220034   5.844   4.242   2.222
 6379SOL     OW20035   1.988   5.595   6.069
 6379SOL    HW120036   2.020   5.689   6.057
 6379SOL    HW220037   1.917   5.592   6.140
 6380SOL     OW20038   1.551   3.057   5.206
 6380SOL    HW120039   1.504   2.976   5.170
 6380SOL    HW220040   1.632   3.028   5.258
 6381SOL     OW20041   3.561   4.148   0.268
 6381SOL    HW120042   3.553   4.164   0.366
 6381SOL    HW220043   3.565   4.235   0.220
 6382SOL     OW20044   1.478   1.125   0.628
 6382SOL    HW120045   1.528   1.201   0.667
 6382SOL    HW220046   1.473   1.136   0.528
 6383SOL     OW20047   2.464   2.474   2.189
 6383SOL    HW120048   2.548   2.433   2.153
 6383SOL    HW220049   2.472   2.484   2.288
 6384SOL     OW20050   6.431   2.862   1.853
 6384SOL    HW120051   6.430   2.786   1.919
 6384SOL    HW220052   6.422   2.948   1.903
 6385SOL     OW20053   6.510   3.667   0.692
 6385SOL    HW120054   6.554   3.723   0.762
 6385SOL    HW220055   6.560   3.580   0.683
 6386SOL     OW20056   3.223   3.320   0.149
 6386SOL    HW120057   3.222   3.386   0.224
 6386SOL    HW220058   3.200   3.229   0.184
 6387SOL     OW20059   6.734   0.145   6.689
 6387SOL    HW120060   6.696   0.053   6.682
 6387SOL    HW220061   6.679   0.199   6.753
 6388SOL     OW20062   5.759   5.419   1.983
 6388SOL    HW120063   5.814   5.359   1.926
 6388SOL    HW220064   5.776   5.398   2.080
 6389SOL     OW20065   6.801   6.646   0.423
 6389SOL    HW120066   6.862   6.590   0.366
 6389SOL    HW220067   6.816   6.624   0.519
 6390SOL     OW20068   5.376   0.258   6.809
 6390SOL    HW120069   5.354   0.178   6.865
 6390SOL    HW220070   5.475   0.274   6.811
 6391SOL     OW20071   1.502   2.111   4.922
 6391SOL    HW120072   1.588   2.061   4.928
 6391SOL    HW220073   1.493   2.151   4.831
 6392SOL     OW20074   4.272   0.365   4.158
 6392SOL    HW120075   4.343   0.344   4.225
 6392SOL    HW220076   4.289   0.456   4.119
 6393SOL     OW20077   1.779   4.785   0.693
 6393SOL    HW120078   1.862   4.731   0.683
 6393SOL    HW220079   1.730   4.757   0.775
 6394SOL     OW20080   2.035   4.974   1.908
 6394SOL    HW120081   2.108   4.947   1.970
 6394SOL    HW220082   1.976   4.895   1.889
 6395SOL     OW20083   1.955   4.404   4.546
 6395SOL    HW120084   1.970   4.418   4.644
 6395SOL    HW220085   1.977   4.488   4.496
 6396SOL     OW20086   2.200   2.634   5.533
 6396SOL    HW120087   2.189   2.557   5.470
 6396SOL    HW220088   2.294   2.667   5.530
 6397SOL     OW20089   6.369   3.490   4.846
 6397SOL    HW120090   6.417   3.574   4.872
 6397SOL    HW220091   6.299   3.469   4.913
 6398SOL     OW20092   2.165   0.440   2.546
 6398SOL    HW120093   2.239   0.457   2.611
 6398SOL    HW220094   2.202   0.401   2.462
 6399SOL     OW20095   3.012   0.055   0.252
 6399SOL    HW120096   3.094   0.032   0.199
 6399SOL    HW220097   3.029   0.138   0.305
 6400SOL     OW20098   0.440   6.899   2.500
 6400SOL    HW120099   0.520   6.851   2.467
 6400SOL    HW220100   0.450   6.997   2.482
 6401SOL     OW20101   3.849   5.110   2.692
 6401SOL    HW120102   3.819   5.205   2.701
 6401SOL    HW220103   3.948   5.106   2.694
 6402SOL     OW20104   3.301   4.722   5.698
 6402SOL    HW120105   3.320   4.641   5.641
 6402SOL    HW220106   3.273   4.798   5.639
 6403SOL     OW20107   5.251   5.524   5.588
 6403SOL    HW120108   5.166   5.492   5.629
 6403SOL    HW220109   5.267   5.619   5.615
 6404SOL     OW20110   4.874   5.680   6.935
 6404SOL    HW120111   4.908   5.588   6.954
 6404SOL    HW220112   4.815   5.710   7.010
 6405SOL     OW20113   4.572   1.390   2.646
 6405SOL    HW120114   4.650   1.336   2.614
 6405SOL    HW220115   4.504   1.330   2.688
 6406SOL     OW20116   0.466   3.368   2.347
 6406SOL    HW120117   0.526   3.314   2.288
 6406SOL    HW220118   0.378   3.383   2.302
 6407SOL     OW20119   0.652   6.916   2.132
 6407SOL    HW120120   0.598   6.945   2.054
 6407SOL    HW220121   0.677   6.997   2.186
 6408SOL     OW20122   6.812   1.129   1.968
 6408SOL    HW120123   6.739   1.190   1.937
 6408SOL    HW220124   6.864   1.173   2.041
 6409SOL     OW20125   5.651   4.523   3.120
 6409SOL    HW120126   5.632   4.425   3.112
 6409SOL    HW220127   5.569   4.574   3.096
 6410SOL     OW20128   2.097   1.307   0.309
 6410SOL    HW120129   2.174   1.338   0.364
 6410SOL    HW220130   2.041   1.385   0.281
 6411SOL     OW20131   0.457   2.975   2.437
 6411SOL    HW120132   0.445   3.062   2.485
 6411SOL    HW220133   0.463   2.901   2.505
 6412SOL     OW20134   3.619   0.591   6.854
 6412SOL    HW120135   3.709   0.630   6.841
 6412SOL    HW220136   3.570   0.643   6.924
 6413SOL     OW20137   4.979   6.592   3.515
 6413SOL    HW120138   5.066   6.545   3.498
 6413SOL    HW220139   4.984   6.639   3.603
 6414SOL     OW20140   2.844   0.638   0.465
 6414SOL    HW120141   2.827   0.566   0.397
 6414SOL    HW220142   2.880   0.720   0.419
 6415SOL     OW20143   0.992   1.572   3.508
 6415SOL    HW120144   0.984   1.603   3.603
 6415SOL    HW220145   1.088   1.573   3.481
 6416SOL     OW20146   3.279   5.099   6.923
 6416SOL    HW120147   3.379   5.109   6.927
 6416SOL    HW220148   3.237   5.190   6.920
 6417SOL     OW20149   4.432   3.116   6.950
 6417SOL    HW120150   4.402   3.083   6.860
 6417SOL    HW220151   4.365   3.089   7.019
 6418SOL     OW20152   5.073   4.936   0.405
 6418SOL    HW120153   5.121   5.012   0.447
 6418SOL    HW220154   5.033   4.966   0.318
 6419SOL     OW20155   1.054   6.495   0.046
 6419SOL    HW120156   1.105   6.426   7.022
 6419SOL    HW220157   0.956   6.481   0.032
 6420SOL     OW20158   2.647   4.669   3.724
 6420SOL    HW120159   2.665   4.656   3.822
 6420SOL    HW220160   2.727   4.710   3.680
 6421SOL     OW20161   4.850   0.121   1.804
 6421SOL    HW120162   4.755   0.103   1.777
 6421SOL    HW220163   4.852   0.154   1.898
 6422SOL     OW20164   6.920   3.000   4.642
 6422SOL    HW120165   6.978   2.919   4.633
 6422SOL    HW220166   6.918   3.049   4.554
 6423SOL     OW20167   0.973   4.329   4.942
 6423SOL    HW120168   0.953   4.334   5.040
 6423SOL    HW220169   0.995   4.235   4.917
 6424SOL     OW20170   6.828   4.325   6.036
 6424SOL    HW120171   6.845   4.354   5.942
 6424SOL    HW220172   6.731   4.332   6.056
 6425SOL     OW20173   0.217   6.179   4.108
 6425SOL    HW120174   0.227   6.091   4.063
 6425SOL    HW220175   0.152   6.235   4.056
 6426SOL     OW20176   4.813   5.298   4.152
 6426SOL    HW120177   4.822   5.199   4.163
 6426SOL    HW220178   4.717   5.324   4.156
 6427SOL     OW20179   4.079   3.703   3.492
 6427SOL    HW120180   4.078   3.649   3.408
 6427SOL    HW220181   4.069   3.642   3.570
 6428SOL     OW20182   5.613   3.131   0.291
 6428SOL    HW120183   5.568   3.094   0.372
 6428SOL    HW220184   5.579   3.084   0.209
 6429SOL     OW20185   2.075   1.627   5.542
 6429SOL    HW120186   2.138   1.576   5.600
 6429SOL    HW220187   2.125   1.696   5.490
 6430SOL     OW20188   5.970   1.241   4.782
 6430SOL    HW120189   6.055   1.192   4.763
 6430SOL    HW220190   5.963   1.319   4.720
 6431SOL     OW20191   3.491   5.472   2.511
 6431SOL    HW120192   3.393   5.479   2.531
 6431SOL    HW220193   3.520   5.377   2.522
 6432SOL     OW20194   4.872   3.071   5.733
 6432SOL    HW120195   4.827   3.017   5.804
 6432SOL    HW220196   4.836   3.044   5.643
 6433SOL     OW20197   3.566   5.262   5.888
 6433SOL    HW120198   3.570   5.344   5.945
 6433SOL    HW220199   3.610   5.186   5.937
 6434SOL     OW20200   5.499   5.202   5.995
 6434SOL    HW120201   5.463   5.263   5.924
 6434SOL    HW220202   5.563   5.137   5.954
 6435SOL     OW20203   4.829   1.224   0.937
 6435SOL    HW120204   4.738   1.218   0.978
 6435SOL    HW220205   4.846   1.317   0.905
 6436SOL     OW20206   0.397   3.483   3.654
 6436SOL    HW120207   0.352   3.489   3.744
 6436SOL    HW220208   0.352   3.412   3.599
 6437SOL     OW20209   1.606   2.766   5.839
 6437SOL    HW120210   1.532   2.702   5.817
 6437SOL    HW220211   1.694   2.725   5.814
 6438SOL     OW20212   0.650   5.102   0.408
 6438SOL    HW120213   0.652   5.018   0.463
 6438SOL    HW220214   0.561   5.147   0.420
 6439SOL     OW20215   5.476   6.889   2.470
 6439SOL    HW120216   5.498   6.798   2.436
 6439SOL    HW220217   5.558   6.932   2.508
 6440SOL     OW20218   2.593   1.621   5.951
 6440SOL    HW120219   2.560   1.565   6.027
 6440SOL    HW220220   2.603   1.565   5.869
 6441SOL     OW20221   0.445   2.286   1.865
 6441SOL    HW120222   0.539   2.303   1.896
 6441SOL    HW220223   0.447   2.238   1.778
 6442SOL     OW20224   2.478   2.102   4.744
 6442SOL    HW120225   2.488   2.056   4.656
 6442SOL    HW220226   2.556   2.163   4.759
 6443SOL     OW20227   3.736   3.023   6.468
 6443SOL    HW120228   3.782   3.080   6.400
 6443SOL    HW220229   3.747   3.065   6.559
 6444SOL     OW20230   0.002   4.041   4.882
 6444SOL    HW120231   7.012   3.945   4.859
 6444SOL    HW220232   0.098   4.053   4.905
 6445SOL     OW20233   4.012   3.154   3.340
 6445SOL    HW120234   3.937   3.105   3.385
 6445SOL    HW220235   3.996   3.156   3.241
 6446SOL     OW20236   1.453   0.895   0.249
 6446SOL    HW120237   1.471   0.894   0.348
 6446SOL    HW220238   1.398   0.815   0.225
 6447SOL     OW20239   5.673   3.749   1.759
 6447SOL    HW120240   5.770   3.735   1.739
 6447SOL    HW220241   5.647   3.690   1.836
 6448SOL     OW20242   4.512   4.688   1.276
 6448SOL    HW120243   4.576   4.706   1.350
 6448SOL    HW220244   4.513   4.590   1.254
 6449SOL     OW20245   3.684   5.351   0.530
 6449SOL    HW120246   3.594   5.310   0.515
 6449SOL    HW220247   3.675   5.450   0.535
 6450SOL     OW20248   6.073   3.467   6.744
 6450SOL    HW120249   6.070   3.384   6.798
 6450SOL    HW220250   6.129   3.536   6.791
 6451SOL     OW20251   4.377   2.723   1.702
 6451SOL    HW120252   4.321   2.803   1.720
 6451SOL    HW220253   4.467   2.751   1.668
 6452SOL     OW20254   4.015   1.990   5.340
 6452SOL    HW120255   4.055   1.907   5.301
 6452SOL    HW220256   4.010   2.061   5.269
 6453SOL     OW20257   2.129   0.309   2.925
 6453SOL    HW120258   2.078   0.393   2.908
 6453SOL    HW220259   2.073   0.245   2.978
 6454SOL     OW20260   5.083   2.760   4.384
 6454SOL    HW120261   5.012   2.828   4.401
 6454SOL    HW220262   5.048   2.669   4.403
 6455SOL     OW20263   6.813   2.992   4.034
 6455SOL    HW120264   6.825   2.911   4.092
 6455SOL    HW220265   6.721   3.029   4.047
 6456SOL     OW20266   6.522   2.085   2.337
 6456SOL    HW120267   6.597   2.020   2.351
 6456SOL    HW220268   6.481   2.109   2.425
 6457SOL     OW20269   2.447   6.383   2.463
 6457SOL    HW120270   2.409   6.455   2.521
 6457SOL    HW220271   2.400   6.297   2.480
 6458SOL     OW20272   0.009   7.006   4.467
 6458SOL    HW120273   6.938   7.011   4.487
 6458SOL    HW220274   0.056   0.057   4.510
 6459SOL     OW20275   0.272   3.169   3.127
 6459SOL    HW120276   0.318   3.081   3.113
 6459SOL    HW220277   0.335   3.233   3.171
 6460SOL     OW20278   1.625   5.224   6.376
 6460SOL    HW120279   1.650   5.135   6.414
 6460SOL    HW220280   1.600   5.213   6.279
 6461SOL     OW20281   0.704   6.268   1.079
 6461SOL    HW120282   0.669   6.265   0.986
 6461SOL    HW220283   0.803   6.286   1.077
 6462SOL     OW20284   2.011   3.796   5.040
 6462SOL    HW120285   2.074   3.719   5.025
 6462SOL    HW220286   2.049   3.857   5.109
 6463SOL     OW20287   4.999   2.906   0.957
 6463SOL    HW120288   4.980   2.997   0.920
 6463SOL    HW220289   4.956   2.837   0.898
 6464SOL     OW20290   0.648   3.987   3.825
 6464SOL    HW120291   0.708   3.955   3.752
 6464SOL    HW220292   0.606   3.908   3.870
 6465SOL     OW20293   2.885   0.891   3.740
 6465SOL    HW120294   2.873   0.987   3.765
 6465SOL    HW220295   2.799   0.854   3.705
 6466SOL     OW20296   6.977   5.250   6.675
 6466SOL    HW120297   6.956   5.167   6.623
 6466SOL    HW220298   7.013   5.225   6.765
 6467SOL     OW20299   2.224   2.473   6.439
 6467SOL    HW120300   2.251   2.377   6.445
 6467SOL    HW220301   2.159   2.484   6.363
 6468SOL     OW20302   1.539   0.319   1.203
 6468SOL    HW120303   1.554   0.327   1.302
 6468SOL    HW220304   1.461   0.259   1.186
 6469SOL     OW20305   2.181   1.254   1.377
 6469SOL    HW120306   2.190   1.166   1.425
 6469SOL    HW220307   2.229   1.325   1.429
 6470SOL     OW20308   6.356   1.495   0.070
 6470SOL    HW120309   6.315   1.585   0.055
 6470SOL    HW220310   6.383   1.487   0.166
 6471SOL     OW20311   0.137   6.422   5.904
 6471SOL    HW120312   0.133   6.480   5.986
 6471SOL    HW220313   0.233   6.406   5.880
 6472SOL     OW20314   7.000   6.056   2.204
 6472SOL    HW120315   6.945   5.979   2.237
 6472SOL    HW220316   6.946   6.110   2.139
 6473SOL     OW20317   2.669   0.880   3.361
 6473SOL    HW120318   2.620   0.963   3.331
 6473SOL    HW220319   2.758   0.905   3.398
 6474SOL     OW20320   3.442   6.570   3.667
 6474SOL    HW120321   3.488   6.659   3.669
 6474SOL    HW220322   3.505   6.499   3.699
 6475SOL     OW20323   5.591   5.773   3.113
 6475SOL    HW120324   5.530   5.698   3.141
 6475SOL    HW220325   5.615   5.761   3.017
 6476SOL     OW20326   4.699   3.253   6.051
 6476SOL    HW120327   4.799   3.265   6.053
 6476SOL    HW220328   4.662   3.269   6.142
 6477SOL     OW20329   0.341   6.302   0.719
 6477SOL    HW120330   0.399   6.272   0.795
 6477SOL    HW220331   0.263   6.241   0.709
 6478SOL     OW20332   1.659   6.291   1.142
 6478SOL    HW120333   1.648   6.193   1.129
 6478SOL    HW220334   1.680   6.310   1.238
 6479SOL     OW20335   4.878   6.057   3.364
 6479SOL    HW120336   4.859   6.154   3.380
 6479SOL    HW220337   4.801   6.002   3.398
 6480SOL     OW20338   3.652   1.675   5.980
 6480SOL    HW120339   3.652   1.762   6.029
 6480SOL    HW220340   3.618   1.602   6.041
 6481SOL     OW20341   4.211   3.368   1.874
 6481SOL    HW120342   4.254   3.453   1.844
 6481SOL    HW220343   4.247   3.292   1.819
 6482SOL     OW20344   4.906   3.418   5.491
 6482SOL    HW120345   4.961   3.336   5.476
 6482SOL    HW220346   4.926   3.486   5.420
 6483SOL     OW20347   2.153   5.790   5.307
 6483SOL    HW120348   2.178   5.699   5.338
 6483SOL    HW220349   2.219   5.857   5.343
 6484SOL     OW20350   4.266   1.454   3.720
 6484SOL    HW120351   4.313   1.524   3.668
 6484SOL    HW220352   4.313   1.439   3.807
 6485SOL     OW20353   2.289   5.173   5.059
 6485SOL    HW120354   2.243   5.196   4.973
 6485SOL    HW220355   2.320   5.078   5.056
 6486SOL     OW20356   6.770   4.669   2.406
 6486SOL    HW120357   6.845   4.719   2.450
 6486SOL    HW220358   6.807   4.592   2.355
 6487SOL     OW20359   6.576   5.007   3.523
 6487SOL    HW120360   6.555   5.067   3.600
 6487SOL    HW220361   6.595   5.062   3.442
 6488SOL     OW20362   3.440   5.246   3.994
 6488SOL    HW120363   3.446   5.181   4.070
 6488SOL    HW220364   3.376   5.211   3.926
 6489SOL     OW20365   5.587   3.396   4.753
 6489SOL    HW120366   5.547   3.485   4.776
 6489SOL    HW220367   5.652   3.408   4.678
 6490SOL     OW20368   2.196   2.507   0.324
 6490SOL    HW120369   2.199   2.480   0.227
 6490SOL    HW220370   2.104   2.540   0.346
 6491SOL     OW20371   1.642   6.754   1.695
 6491SOL    HW120372   1.739   6.743   1.719
 6491SOL    HW220373   1.589   6.772   1.777
 6492SOL     OW20374   3.987   3.839   4.023
 6492SOL    HW120375   4.036   3.783   3.955
 6492SOL    HW220376   3.934   3.909   3.975
 6493SOL     OW20377   1.071   4.578   3.824
 6493SOL    HW120378   1.156   4.596   3.775
 6493SOL    HW220379   0.998   4.559   3.758
 6494SOL     OW20380   6.235   0.640   1.103
 6494SOL    HW120381   6.287   0.708   1.051
 6494SOL    HW220382   6.168   0.596   1.042
 6495SOL     OW20383   7.021   0.275   3.447
 6495SOL    HW120384   0.074   0.284   3.507
 6495SOL    HW220385   6.939   0.309   3.494
 6496SOL     OW20386   3.338   2.122   1.809
 6496SOL    HW120387   3.333   2.212   1.765
 6496SOL    HW220388   3.433   2.090   1.809
 6497SOL     OW20389   0.309   1.615   0.734
 6497SOL    HW120390   0.364   1.676   0.677
 6497SOL    HW220391   0.366   1.540   0.768
 6498SOL     OW20392   2.328   4.214   4.530
 6498SOL    HW120393   2.294   4.263   4.610
 6498SOL    HW220394   2.370   4.278   4.466
 6499SOL     OW20395   4.848   2.288   3.046
 6499SOL    HW120396   4.828   2.244   3.133
 6499SOL    HW220397   4.780   2.260   2.978
 6500SOL     OW20398   1.113   3.537   3.483
 6500SOL    HW120399   1.182   3.573   3.420
 6500SOL    HW220400   1.142   3.447   3.517
 6501SOL     OW20401   6.178   1.183   2.968
 6501SOL    HW120402   6.100   1.134   3.006
 6501SOL    HW220403   6.228   1.229   3.041
 6502SOL     OW20404   0.760   3.246   1.525
 6502SOL    HW120405   0.768   3.153   1.490
 6502SOL    HW220406   0.815   3.308   1.469
 6503SOL     OW20407   6.797   3.276   5.479
 6503SOL    HW120408   6.718   3.335   5.464
 6503SOL    HW220409   6.770   3.198   5.536
 6504SOL     OW20410   3.295   0.217   6.145
 6504SOL    HW120411   3.364   0.288   6.164
 6504SOL    HW220412   3.322   0.132   6.189
 6505SOL     OW20413   0.130   6.717   0.949
 6505SOL    HW120414   0.201   6.697   0.881
 6505SOL    HW220415   0.043   6.730   0.902
 6506SOL     OW20416   0.586   3.781   2.065
 6506SOL    HW120417   0.654   3.753   1.997
 6506SOL    HW220418   0.633   3.806   2.150
 6507SOL     OW20419   4.140   5.510   0.951
 6507SOL    HW120420   4.169   5.414   0.957
 6507SOL    HW220421   4.128   5.534   0.855
 6508SOL     OW20422   6.480   0.442   3.643
 6508SOL    HW120423   6.486   0.512   3.715
 6508SOL    HW220424   6.572   0.425   3.607
 6509SOL     OW20425   2.535   1.671   0.215
 6509SOL    HW120426   2.488   1.603   0.271
 6509SOL    HW220427   2.628   1.641   0.196
 6510SOL     OW20428   3.177   5.153   4.969
 6510SOL    HW120429   3.254   5.166   5.032
 6510SOL    HW220430   3.101   5.211   4.998
 6511SOL     OW20431   2.842   2.280   0.486
 6511SOL    HW120432   2.811   2.203   0.541
 6511SOL    HW220433   2.768   2.347   0.478
 6512SOL     OW20434   5.010   0.614   0.193
 6512SOL    HW120435   5.109   0.622   0.198
 6512SOL    HW220436   4.983   0.576   0.105
 6513SOL     OW20437   2.730   4.727   3.246
 6513SOL    HW120438   2.688   4.638   3.230
 6513SOL    HW220439   2.659   4.794   3.269
 6514SOL     OW20440   5.029   6.078   5.324
 6514SOL    HW120441   5.041   6.145   5.396
 6514SOL    HW220442   4.955   6.107   5.263
 6515SOL     OW20443   0.493   4.815   2.764
 6515SOL    HW120444   0.454   4.864   2.686
 6515SOL    HW220445   0.540   4.879   2.824
 6516SOL     OW20446   6.122   2.108   2.592
 6516SOL    HW120447   6.125   2.096   2.492
 6516SOL    HW220448   6.027   2.104   2.623
 6517SOL     OW20449   6.381   3.771   0.477
 6517SOL    HW120450   6.452   3.740   0.539
 6517SOL    HW220451   6.317   3.831   0.527
 6518SOL     OW20452   1.055   0.900   2.251
 6518SOL    HW120453   1.067   0.954   2.168
 6518SOL    HW220454   1.057   0.960   2.331
 6519SOL     OW20455   1.375   1.269   3.317
 6519SOL    HW120456   1.430   1.291   3.236
 6519SOL    HW220457   1.428   1.286   3.400
 6520SOL     OW20458   6.446   5.588   0.210
 6520SOL    HW120459   6.370   5.601   0.274
 6520SOL    HW220460   6.473   5.492   0.210
 6521SOL     OW20461   1.516   4.990   4.303
 6521SOL    HW120462   1.567   4.904   4.315
 6521SOL    HW220463   1.469   5.012   4.389
 6522SOL     OW20464   2.683   2.926   5.368
 6522SOL    HW120465   2.649   2.925   5.462
 6522SOL    HW220466   2.618   2.976   5.310
 6523SOL     OW20467   6.291   6.662   0.907
 6523SOL    HW120468   6.225   6.703   0.844
 6523SOL    HW220469   6.254   6.577   0.943
 6524SOL     OW20470   3.128   2.946   1.314
 6524SOL    HW120471   3.158   2.900   1.231
 6524SOL    HW220472   3.075   3.028   1.290
 6525SOL     OW20473   1.523   4.900   3.588
 6525SOL    HW120474   1.484   4.978   3.637
 6525SOL    HW220475   1.564   4.837   3.653
 6526SOL     OW20476   6.795   6.632   0.700
 6526SOL    HW120477   6.881   6.582   0.689
 6526SOL    HW220478   6.719   6.567   0.707
 6527SOL     OW20479   5.780   1.562   1.106
 6527SOL    HW120480   5.846   1.634   1.127
 6527SOL    HW220481   5.692   1.603   1.083
 6528SOL     OW20482   4.516   6.873   0.424
 6528SOL    HW120483   4.497   6.833   0.334
 6528SOL    HW220484   4.592   6.938   0.416
 6529SOL     OW20485   4.699   0.451   1.919
 6529SOL    HW120486   4.604   0.438   1.891
 6529SOL    HW220487   4.708   0.538   1.969
 6530SOL     OW20488   0.689   2.481   3.428
 6530SOL    HW120489   0.646   2.511   3.343
 6530SOL    HW220490   0.679   2.551   3.498
 6531SOL     OW20491   3.596   3.830   3.970
 6531SOL    HW120492   3.499   3.853   3.968
 6531SOL    HW220493   3.609   3.741   4.014
 6532SOL     OW20494   0.620   6.282   0.825
 6532SOL    HW120495   0.661   6.224   0.755
 6532SOL    HW220496   0.598   6.371   0.786
 6533SOL     OW20497   4.690   4.714   1.493
 6533SOL    HW120498   4.719   4.621   1.515
 6533SOL    HW220499   4.730   4.778   1.559
 6534SOL     OW20500   6.956   4.506   3.496
 6534SOL    HW120501   0.017   4.512   3.448
 6534SOL    HW220502   6.882   4.503   3.429
 6535SOL     OW20503   5.385   4.331   5.617
 6535SOL    HW120504   5.325   4.347   5.538
 6535SOL    HW220505   5.343   4.265   5.678
 6536SOL     OW20506   0.301   4.733   5.772
 6536SOL    HW120507   0.222   4.680   5.803
 6536SOL    HW220508   0.373   4.670   5.742
 6537SOL     OW20509   6.902   5.551   3.751
 6537SOL    HW120510   6.913   5.491   3.671
 6537SOL    HW220511   6.929   5.502   3.833
 6538SOL     OW20512   0.917   2.809   4.326
 6538SOL    HW120513   0.838   2.864   4.298
 6538SOL    HW220514   0.935   2.739   4.257
 6539SOL     OW20515   4.195   6.303   6.761
 6539SOL    HW120516   4.242   6.295   6.673
 6539SOL    HW220517   4.204   6.396   6.795
 6540SOL     OW20518   0.252   2.729   5.562
 6540SOL    HW120519   0.165   2.756   5.521
 6540SOL    HW220520   0.310   2.810   5.575
 6541SOL     OW20521   4.371   1.699   5.453
 6541SOL    HW120522   4.397   1.608   5.420
 6541SOL    HW220523   4.403   1.711   5.547
 6542SOL     OW20524   1.795   3.781   2.633
 6542SOL    HW120525   1.812   3.810   2.539
 6542SOL    HW220526   1.776   3.861   2.690
 6543SOL     OW20527   3.801   1.438   4.664
 6543SOL    HW120528   3.781   1.514   4.602
 6543SOL    HW220529   3.844   1.363   4.614
 6544SOL     OW20530   0.356   0.274   0.417
 6544SOL    HW120531   0.305   0.305   0.498
 6544SOL    HW220532   0.300   0.207   0.367
 6545SOL     OW20533   4.859   5.911   1.019
 6545SOL    HW120534   4.938   5.909   1.081
 6545SOL    HW220535   4.820   5.820   1.012
 6546SOL     OW20536   4.815   5.394   5.795
 6546SOL    HW120537   4.760   5.311   5.793
 6546SOL    HW220538   4.836   5.422   5.701
 6547SOL     OW20539   0.690   6.287   5.284
 6547SOL    HW120540   0.753   6.355   5.322
 6547SOL    HW220541   0.737   6.199   5.276
 6548SOL     OW20542   0.959   1.763   6.045
 6548SOL    HW120543   1.037   1.705   6.021
 6548SOL    HW220544   0.962   1.847   5.991
 6549SOL     OW20545   3.575   1.833   2.678
 6549SOL    HW120546   3.481   1.830   2.712
 6549SOL    HW220547   3.589   1.762   2.610
 6550SOL     OW20548   5.978   6.301   2.208
 6550SOL    HW120549   5.904   6.313   2.274
 6550SOL    HW220550   5.940   6.278   2.119
 6551SOL     OW20551   3.171   5.164   0.470
 6551SOL    HW120552   3.127   5.245   0.431
 6551SOL    HW220553   3.151   5.159   0.567
 6552SOL     OW20554   2.136   4.329   0.095
 6552SOL    HW120555   2.177   4.248   0.136
 6552SOL    HW220556   2.176   4.411   0.136
 6553SOL     OW20557   0.686   1.936   3.777
 6553SOL    HW120558   0.589   1.962   3.768
 6553SOL    HW220559   0.720   1.906   3.688
 6554SOL     OW20560   1.649   2.560   3.842
 6554SOL    HW120561   1.686   2.617   3.769
 6554SOL    HW220562   1.612   2.476   3.804
 6555SOL     OW20563   1.550   3.710   4.367
 6555SOL    HW120564   1.574   3.615   4.386
 6555SOL    HW220565   1.549   3.762   4.452
 6556SOL     OW20566   4.934   3.055   2.753
 6556SOL    HW120567   4.911   3.029   2.847
 6556SOL    HW220568   4.883   2.998   2.689
 6557SOL     OW20569   2.192   1.146   2.152
 6557SOL    HW120570   2.140   1.115   2.072
 6557SOL    HW220571   2.128   1.177   2.223
 6558SOL     OW20572   5.602   6.059   1.035
 6558SOL    HW120573   5.614   6.117   1.116
 6558SOL    HW220574   5.668   5.984   1.038
 6559SOL     OW20575   6.937   2.302   6.283
 6559SOL    HW120576   7.013   2.347   6.330
 6559SOL    HW220577   6.908   2.221   6.336
 6560SOL     OW20578   6.305   4.362   6.648
 6560SOL    HW120579   6.374   4.432   6.667
 6560SOL    HW220580   6.344   4.291   6.589
 6561SOL     OW20581   2.498   4.784   0.679
 6561SOL    HW120582   2.543   4.700   0.707
 6561SOL    HW220583   2.430   4.810   0.748
 6562SOL     OW20584   4.927   2.847   1.483
 6562SOL    HW120585   4.939   2.932   1.534
 6562SOL    HW220586   4.948   2.770   1.542
 6563SOL     OW20587   6.478   5.293   5.353
 6563SOL    HW120588   6.404   5.361   5.350
 6563SOL    HW220589   6.448   5.215   5.408
 6564SOL     OW20590   5.393   3.273   2.263
 6564SOL    HW120591   5.434   3.221   2.188
 6564SOL    HW220592   5.299   3.297   2.238
 6565SOL     OW20593   5.211   6.830   2.320
 6565SOL    HW120594   5.146   6.893   2.364
 6565SOL    HW220595   5.303   6.849   2.352
 6566SOL     OW20596   5.410   5.548   3.848
 6566SOL    HW120597   5.405   5.603   3.765
 6566SOL    HW220598   5.363   5.596   3.922
 6567SOL     OW20599   3.592   0.410   2.663
 6567SOL    HW120600   3.622   0.319   2.691
 6567SOL    HW220601   3.499   0.426   2.696
 6568SOL     OW20602   4.903   0.894   0.738
 6568SOL    HW120603   4.898   0.993   0.723
 6568SOL    HW220604   4.962   0.853   0.669
 6569SOL     OW20605   0.923   4.756   4.014
 6569SOL    HW120606   0.965   4.695   3.948
 6569SOL    HW220607   0.983   4.766   4.093
 6570SOL     OW20608   4.224   0.069   2.261
 6570SOL    HW120609   4.294   0.140   2.254
 6570SOL    HW220610   4.193   0.062   2.356
 6571SOL     OW20611   2.497   6.612   3.198
 6571SOL    HW120612   2.523   6.596   3.293
 6571SOL    HW220613   2.433   6.689   3.194
 6572SOL     OW20614   1.713   6.252   3.833
 6572SOL    HW120615   1.673   6.195   3.904
 6572SOL    HW220616   1.705   6.206   3.744
 6573SOL     OW20617   0.058   2.241   3.025
 6573SOL    HW120618   0.045   2.146   3.051
 6573SOL    HW220619   0.118   2.286   3.091
 6574SOL     OW20620   1.382   4.671   2.215
 6574SOL    HW120621   1.437   4.754   2.224
 6574SOL    HW220622   1.374   4.627   2.305
 6575SOL     OW20623   6.624   1.910   3.327
 6575SOL    HW120624   6.672   1.979   3.381
 6575SOL    HW220625   6.575   1.954   3.252
 6576SOL     OW20626   3.902   0.038   1.583
 6576SOL    HW120627   3.864   0.073   1.669
 6576SOL    HW220628   3.857   6.979   1.559
 6577SOL     OW20629   3.564   0.877   4.326
 6577SOL    HW120630   3.594   0.800   4.270
 6577SOL    HW220631   3.478   0.855   4.371
 6578SOL     OW20632   1.525   4.710   0.876
 6578SOL    HW120633   1.501   4.671   0.965
 6578SOL    HW220634   1.452   4.771   0.846
 6579SOL     OW20635   1.150   1.344   3.676
 6579SOL    HW120636   1.071   1.311   3.624
 6579SOL    HW220637   1.147   1.307   3.769
 6580SOL     OW20638   2.632   2.000   0.402
 6580SOL    HW120639   2.666   1.907   0.405
 6580SOL    HW220640   2.579   2.014   0.319
 6581SOL     OW20641   0.703   1.952   1.236
 6581SOL    HW120642   0.694   1.909   1.146
 6581SOL    HW220643   0.787   2.005   1.240
 6582SOL     OW20644   5.222   0.847   3.124
 6582SOL    HW120645   5.175   0.920   3.175
 6582SOL    HW220646   5.312   0.832   3.164
 6583SOL     OW20647   2.947   4.427   0.828
 6583SOL    HW120648   3.039   4.388   0.821
 6583SOL    HW220649   2.949   4.507   0.888
 6584SOL     OW20650   4.294   2.564   6.391
 6584SOL    HW120651   4.257   2.569   6.298
 6584SOL    HW220652   4.246   2.492   6.441
 6585SOL     OW20653   5.659   0.038   1.754
 6585SOL    HW120654   5.627   0.129   1.729
 6585SOL    HW220655   5.610   0.006   1.836
 6586SOL     OW20656   6.563   1.058   6.219
 6586SOL    HW120657   6.642   1.106   6.258
 6586SOL    HW220658   6.546   0.975   6.273
 6587SOL     OW20659   2.980   5.093   4.756
 6587SOL    HW120660   2.890   5.050   4.765
 6587SOL    HW220661   3.028   5.089   4.843
 6588SOL     OW20662   0.960   1.921   0.298
 6588SOL    HW120663   1.001   1.970   0.375
 6588SOL    HW220664   0.912   1.987   0.239
 6589SOL     OW20665   6.543   6.227   1.773
 6589SOL    HW120666   6.624   6.200   1.825
 6589SOL    HW220667   6.465   6.235   1.836
 6590SOL     OW20668   1.245   6.237   4.633
 6590SOL    HW120669   1.338   6.224   4.598
 6590SOL    HW220670   1.219   6.334   4.624
 6591SOL     OW20671   6.322   3.264   3.837
 6591SOL    HW120672   6.330   3.229   3.930
 6591SOL    HW220673   6.412   3.287   3.801
 6592SOL     OW20674   6.226   0.370   4.146
 6592SOL    HW120675   6.246   0.319   4.062
 6592SOL    HW220676   6.236   0.309   4.225
 6593SOL     OW20677   2.228   1.455   2.135
 6593SOL    HW120678   2.149   1.430   2.079
 6593SOL    HW220679   2.199   1.522   2.204
 6594SOL     OW20680   5.271   0.036   6.944
 6594SOL    HW120681   5.245   7.012   6.862
 6594SOL    HW220682   5.291   6.998   7.018
 6595SOL     OW20683   0.832   1.849   5.129
 6595SOL    HW120684   0.736   1.866   5.105
 6595SOL    HW220685   0.888   1.851   5.047
 6596SOL     OW20686   5.049   1.123   2.416
 6596SOL    HW120687   5.050   1.223   2.427
 6596SOL    HW220688   5.033   1.080   2.505
 6597SOL     OW20689   1.019   4.461   1.034
 6597SOL    HW120690   1.017   4.375   1.085
 6597SOL    HW220691   1.022   4.441   0.936
 6598SOL     OW20692   1.236   5.058   3.401
 6598SOL    HW120693   1.267   5.118   3.475
 6598SOL    HW220694   1.211   4.969   3.438
 6599SOL     OW20695   0.375   5.897   6.473
 6599SOL    HW120696   0.385   5.875   6.376
 6599SOL    HW220697   0.404   5.819   6.528
 6600SOL     OW20698   4.825   6.586   4.667
 6600SOL    HW120699   4.831   6.562   4.570
 6600SOL    HW220700   4.787   6.678   4.676
 6601SOL     OW20701   1.302   2.715   1.879
 6601SOL    HW120702   1.390   2.673   1.899
 6601SOL    HW220703   1.315   2.788   1.811
 6602SOL     OW20704   6.772   5.285   1.170
 6602SOL    HW120705   6.831   5.218   1.214
 6602SOL    HW220706   6.828   5.355   1.126
 6603SOL     OW20707   0.214   4.518   2.096
 6603SOL    HW120708   0.266   4.481   2.019
 6603SOL    HW220709   0.270   4.516   2.179
 6604SOL     OW20710   1.505   5.709   3.094
 6604SOL    HW120711   1.592   5.713   3.143
 6604SOL    HW220712   1.502   5.785   3.028
 6605SOL     OW20713   0.058   5.282   1.308
 6605SOL    HW120714   0.006   5.198   1.290
 6605SOL    HW220715   0.091   5.319   1.221
 6606SOL     OW20716   1.579   3.901   2.916
 6606SOL    HW120717   1.579   3.814   2.965
 6606SOL    HW220718   1.656   3.903   2.852
 6607SOL     OW20719   6.264   3.195   4.114
 6607SOL    HW120720   6.284   3.155   4.203
 6607SOL    HW220721   6.279   3.294   4.117
 6608SOL     OW20722   1.017   0.207   5.564
 6608SOL    HW120723   0.927   0.203   5.607
 6608SOL    HW220724   1.017   0.280   5.495
 6609SOL     OW20725   3.763   2.454   0.179
 6609SOL    HW120726   3.812   2.385   0.125
 6609SOL    HW220727   3.741   2.532   0.121
 6610SOL     OW20728   2.876   5.797   1.130
 6610SOL    HW120729   2.842   5.888   1.153
 6610SOL    HW220730   2.870   5.737   1.209
 6611SOL     OW20731   3.253   1.563   4.405
 6611SOL    HW120732   3.220   1.657   4.413
 6611SOL    HW220733   3.209   1.507   4.475
 6612SOL     OW20734   1.015   0.046   0.178
 6612SOL    HW120735   0.988   0.099   0.097
 6612SOL    HW220736   1.034   6.978   0.151
 6613SOL     OW20737   4.635   6.274   0.677
 6613SOL    HW120738   4.633   6.264   0.777
 6613SOL    HW220739   4.628   6.183   0.635
 6614SOL     OW20740   4.265   4.680   1.149
 6614SOL    HW120741   4.333   4.676   1.223
 6614SOL    HW220742   4.181   4.722   1.183
 6615SOL     OW20743   3.565   5.503   6.011
 6615SOL    HW120744   3.551   5.515   6.109
 6615SOL    HW220745   3.659   5.529   5.987
 6616SOL     OW20746   4.232   1.314   0.058
 6616SOL    HW120747   4.205   1.410   0.062
 6616SOL    HW220748   4.305   1.296   0.123
 6617SOL     OW20749   3.325   0.821   3.538
 6617SOL    HW120750   3.262   0.885   3.581
 6617SOL    HW220751   3.361   0.758   3.608
 6618SOL     OW20752   5.849   2.298   4.173
 6618SOL    HW120753   5.816   2.218   4.123
 6618SOL    HW220754   5.889   2.269   4.260
 6619SOL     OW20755   5.009   5.001   3.788
 6619SOL    HW120756   5.006   4.922   3.850
 6619SOL    HW220757   5.013   5.085   3.841
 6620SOL     OW20758   0.994   2.674   3.349
 6620SOL    HW120759   0.960   2.755   3.396
 6620SOL    HW220760   0.969   2.677   3.252
 6621SOL     OW20761   2.873   3.404   3.878
 6621SOL    HW120762   2.879   3.465   3.957
 6621SOL    HW220763   2.870   3.458   3.794
 6622SOL     OW20764   0.152   4.839   1.190
 6622SOL    HW120765   0.131   4.935   1.175
 6622SOL    HW220766   0.129   4.814   1.284
 6623SOL     OW20767   2.968   3.859   3.438
 6623SOL    HW120768   3.019   3.893   3.360
 6623SOL    HW220769   2.975   3.923   3.514
 6624SOL     OW20770   2.869   2.189   2.725
 6624SOL    HW120771   2.851   2.270   2.669
 6624SOL    HW220772   2.961   2.195   2.763
 6625SOL     OW20773   6.822   3.855   5.527
 6625SOL    HW120774   6.769   3.803   5.594
 6625SOL    HW220775   6.853   3.941   5.569
 6626SOL     OW20776   3.240   5.554   5.080
 6626SOL    HW120777   3.237   5.638   5.135
 6626SOL    HW220778   3.307   5.565   5.007
 6627SOL     OW20779   2.613   5.953   4.284
 6627SOL    HW120780   2.624   5.926   4.380
 6627SOL    HW220781   2.600   5.872   4.228
 6628SOL     OW20782   3.810   6.945   3.219
 6628SOL    HW120783   3.824   6.968   3.122
 6628SOL    HW220784   3.896   6.954   3.268
 6629SOL     OW20785   4.602   5.388   4.988
 6629SOL    HW120786   4.545   5.466   4.965
 6629SOL    HW220787   4.568   5.306   4.941
 6630SOL     OW20788   1.726   0.676   0.047
 6630SOL    HW120789   1.785   0.709   0.120
 6630SOL    HW220790   1.638   0.724   0.050
 6631SOL     OW20791   2.394   3.031   5.972
 6631SOL    HW120792   2.351   3.059   5.886
 6631SOL    HW220793   2.489   3.063   5.974
 6632SOL     OW20794   1.302   0.563   6.794
 6632SOL    HW120795   1.278   0.470   6.822
 6632SOL    HW220796   1.401   0.572   6.789
 6633SOL     OW20797   4.195   5.586   6.329
 6633SOL    HW120798   4.199   5.633   6.240
 6633SOL    HW220799   4.281   5.537   6.344
 6634SOL     OW20800   3.192   2.172   4.115
 6634SOL    HW120801   3.284   2.165   4.076
 6634SOL    HW220802   3.124   2.166   4.042
 6635SOL     OW20803   4.889   5.265   5.301
 6635SOL    HW120804   4.792   5.282   5.287
 6635SOL    HW220805   4.939   5.289   5.218
 6636SOL     OW20806   4.443   1.274   0.243
 6636SOL    HW120807   4.503   1.209   0.196
 6636SOL    HW220808   4.497   1.332   0.303
 6637SOL     OW20809   0.064   2.045   0.032
 6637SOL    HW120810   0.153   2.003   0.050
 6637SOL    HW220811   0.010   1.984   7.001
 6638SOL     OW20812   3.368   3.496   3.671
 6638SOL    HW120813   3.342   3.592   3.664
 6638SOL    HW220814   3.286   3.439   3.667
 6639SOL     OW20815   5.157   2.292   1.523
 6639SOL    HW120816   5.205   2.207   1.504
 6639SOL    HW220817   5.164   2.315   1.620
 6640SOL     OW20818   1.472   4.122   5.151
 6640SOL    HW120819   1.397   4.173   5.193
 6640SOL    HW220820   1.505   4.053   5.215
 6641SOL     OW20821   6.135   2.373   0.163
 6641SOL    HW120822   6.084   2.393   0.079
 6641SOL    HW220823   6.233   2.385   0.145
 6642SOL     OW20824   1.060   5.795   6.993
 6642SOL    HW120825   1.141   5.740   7.012
 6642SOL    HW220826   1.009   5.754   6.918
 6643SOL     OW20827   3.189   5.987   6.217
 6643SOL    HW120828   3.258   5.940   6.161
 6643SOL    HW220829   3.235   6.032   6.294
 6644SOL     OW20830   2.289   0.042   4.141
 6644SOL    HW120831   2.296   0.010   4.235
 6644SOL    HW220832   2.347   0.122   4.128
 6645SOL     OW20833   5.057   2.629   6.099
 6645SOL    HW120834   5.137   2.588   6.145
 6645SOL    HW220835   5.005   2.683   6.165
 6646SOL     OW20836   4.357   6.910   5.039
 6646SOL    HW120837   4.394   6.997   5.006
 6646SOL    HW220838   4.266   6.896   5.000
 6647SOL     OW20839   3.904   4.896   0.273
 6647SOL    HW120840   3.830   4.857   0.218
 6647SOL    HW220841   3.881   4.990   0.299
 6648SOL     OW20842   2.976   5.555   5.037
 6648SOL    HW120843   3.074   5.561   5.053
 6648SOL    HW220844   2.945   5.461   5.051
 6649SOL     OW20845   4.573   2.884   6.083
 6649SOL    HW120846   4.632   2.847   6.155
 6649SOL    HW220847   4.624   2.951   6.029
 6650SOL     OW20848   1.795   1.093   5.549
 6650SOL    HW120849   1.892   1.102   5.525
 6650SOL    HW220850   1.757   1.013   5.502
 6651SOL     OW20851   6.931   1.811   5.579
 6651SOL    HW120852   6.903   1.907   5.571
 6651SOL    HW220853   7.004   1.803   5.647
 6652SOL     OW20854   0.073   4.312   0.124
 6652SOL    HW120855   0.103   4.364   0.044
 6652SOL    HW220856   0.133   4.332   0.201
 6653SOL     OW20857   5.646   4.454   6.753
 6653SOL    HW120858   5.647   4.354   6.743
 6653SOL    HW220859   5.590   4.478   6.832
 6654SOL     OW20860   6.154   3.092   3.011
 6654SOL    HW120861   6.182   3.043   3.094
 6654SOL    HW220862   6.208   3.176   3.002
 6655SOL     OW20863   0.064   6.158   1.544
 6655SOL    HW120864   6.999   6.119   1.553
 6655SOL    HW220865   0.086   6.210   1.627
 6656SOL     OW20866   4.109   1.229   2.907
 6656SOL    HW120867   4.062   1.141   2.899
 6656SOL    HW220868   4.191   1.228   2.850
 6657SOL     OW20869   5.380   1.520   4.847
 6657SOL    HW120870   5.320   1.599   4.857
 6657SOL    HW220871   5.330   1.437   4.874
 6658SOL     OW20872   6.834   5.814   5.134
 6658SOL    HW120873   6.760   5.773   5.186
 6658SOL    HW220874   6.868   5.747   5.067
 6659SOL     OW20875   0.749   5.693   1.416
 6659SOL    HW120876   0.707   5.677   1.327
 6659SOL    HW220877   0.681   5.728   1.480
 6660SOL     OW20878   0.174   0.433   4.849
 6660SOL    HW120879   0.099   0.477   4.900
 6660SOL    HW220880   0.219   0.367   4.908
 6661SOL     OW20881   4.128   5.848   3.609
 6661SOL    HW120882   4.207   5.835   3.668
 6661SOL    HW220883   4.062   5.908   3.655
 6662SOL     OW20884   3.357   6.489   2.527
 6662SOL    HW120885   3.297   6.485   2.446
 6662SOL    HW220886   3.347   6.405   2.580
 6663SOL     OW20887   1.110   4.336   5.753
 6663SOL    HW120888   1.200   4.369   5.783
 6663SOL    HW220889   1.043   4.409   5.761
 6664SOL     OW20890   3.392   0.337   1.615
 6664SOL    HW120891   3.461   0.275   1.655
 6664SOL    HW220892   3.349   0.293   1.537
 6665SOL     OW20893   2.665   0.517   6.901
 6665SOL    HW120894   2.676   0.575   6.820
 6665SOL    HW220895   2.572   0.479   6.904
 6666SOL     OW20896   3.782   6.279   5.580
 6666SOL    HW120897   3.778   6.239   5.672
 6666SOL    HW220898   3.713   6.350   5.571
 6667SOL     OW20899   1.634   5.701   6.519
 6667SOL    HW120900   1.595   5.731   6.432
 6667SOL    HW220901   1.704   5.765   6.548
 6668SOL     OW20902   6.793   3.906   0.138
 6668SOL    HW120903   6.755   3.947   0.055
 6668SOL    HW220904   6.732   3.833   0.169
 6669SOL     OW20905   1.735   2.239   3.363
 6669SOL    HW120906   1.713   2.215   3.268
 6669SOL    HW220907   1.716   2.336   3.379
 6670SOL     OW20908   3.257   3.639   0.658
 6670SOL    HW120909   3.191   3.711   0.642
 6670SOL    HW220910   3.346   3.666   0.620
 6671SOL     OW20911   4.512   5.120   0.299
 6671SOL    HW120912   4.582   5.181   0.335
 6671SOL    HW220913   4.537   5.025   0.320
 6672SOL     OW20914   1.139   1.937   1.009
 6672SOL    HW120915   1.220   1.962   1.062
 6672SOL    HW220916   1.083   2.018   0.993
 6673SOL     OW20917   6.466   2.806   4.161
 6673SOL    HW120918   6.496   2.804   4.066
 6673SOL    HW220919   6.366   2.810   4.164
 6674SOL     OW20920   6.844   0.818   0.836
 6674SOL    HW120921   6.822   0.804   0.932
 6674SOL    HW220922   6.933   0.776   0.816
 6675SOL     OW20923   5.148   0.222   0.492
 6675SOL    HW120924   5.057   0.181   0.494
 6675SOL    HW220925   5.195   0.192   0.409
 6676SOL     OW20926   0.921   3.687   4.586
 6676SOL    HW120927   0.957   3.679   4.493
 6676SOL    HW220928   0.913   3.596   4.627
 6677SOL     OW20929   0.554   1.756   6.169
 6677SOL    HW120930   0.550   1.745   6.070
 6677SOL    HW220931   0.624   1.695   6.206
 6678SOL     OW20932   2.880   4.222   6.376
 6678SOL    HW120933   2.896   4.319   6.361
 6678SOL    HW220934   2.935   4.190   6.453
 6679SOL     OW20935   1.689   0.529   3.711
 6679SOL    HW120936   1.743   0.459   3.758
 6679SOL    HW220937   1.746   0.609   3.693
 6680SOL     OW20938   6.500   5.268   1.177
 6680SOL    HW120939   6.599   5.276   1.174
 6680SOL    HW220940   6.463   5.333   1.243
 6681SOL     OW20941   2.597   5.749   1.714
 6681SOL    HW120942   2.525   5.681   1.700
 6681SOL    HW220943   2.686   5.704   1.716
 6682SOL     OW20944   3.140   5.465   6.094
 6682SOL    HW120945   3.045   5.445   6.118
 6682SOL    HW220946   3.198   5.389   6.124
 6683SOL     OW20947   6.942   5.421   5.790
 6683SOL    HW120948   6.881   5.495   5.820
 6683SOL    HW220949   6.977   5.373   5.871
 6684SOL     OW20950   2.702   5.579   6.969
 6684SOL    HW120951   2.659   5.583   0.033
 6684SOL    HW220952   2.663   5.503   6.917
 6685SOL     OW20953   4.839   2.735   0.768
 6685SOL    HW120954   4.853   2.805   0.698
 6685SOL    HW220955   4.862   2.645   0.732
 6686SOL     OW20956   4.905   5.022   5.031
 6686SOL    HW120957   4.985   4.964   5.041
 6686SOL    HW220958   4.823   4.968   5.051
 6687SOL     OW20959   0.120   1.486   1.636
 6687SOL    HW120960   0.027   1.522   1.640
 6687SOL    HW220961   0.149   1.477   1.541
 6688SOL     OW20962   4.200   5.699   0.192
 6688SOL    HW120963   4.158   5.761   0.259
 6688SOL    HW220964   4.205   5.607   0.230
 6689SOL     OW20965   3.003   4.418   5.577
 6689SOL    HW120966   3.035   4.385   5.488
 6689SOL    HW220967   3.046   4.364   5.650
 6690SOL     OW20968   0.710   1.016   0.055
 6690SOL    HW120969   0.804   0.994   0.081
 6690SOL    HW220970   0.694   1.114   0.071
 6691SOL     OW20971   2.608   1.527   2.487
 6691SOL    HW120972   2.705   1.501   2.484
 6691SOL    HW220973   2.582   1.546   2.581
 6692SOL     OW20974   4.346   5.943   2.713
 6692SOL    HW120975   4.361   6.041   2.704
 6692SOL    HW220976   4.271   5.926   2.778
 6693SOL     OW20977   3.301   0.880   5.355
 6693SOL    HW120978   3.285   0.978   5.366
 6693SOL    HW220979   3.379   0.853   5.411
 6694SOL     OW20980   4.403   4.137   1.295
 6694SOL    HW120981   4.377   4.060   1.354
 6694SOL    HW220982   4.369   4.121   1.203
 6695SOL     OW20983   2.685   2.495   0.458
 6695SOL    HW120984   2.693   2.545   0.371
 6695SOL    HW220985   2.591   2.462   0.468
 6696SOL     OW20986   4.156   3.362   4.461
 6696SOL    HW120987   4.155   3.419   4.378
 6696SOL    HW220988   4.177   3.419   4.540
 6697SOL     OW20989   4.599   2.172   1.969
 6697SOL    HW120990   4.547   2.132   1.894
 6697SOL    HW220991   4.551   2.157   2.055
 6698SOL     OW20992   3.760   4.377   1.538
 6698SOL    HW120993   3.664   4.391   1.562
 6698SOL    HW220994   3.790   4.287   1.570
 6699SOL     OW20995   1.118   3.185   5.707
 6699SOL    HW120996   1.218   3.179   5.704
 6699SOL    HW220997   1.088   3.182   5.803
 6700SOL     OW20998   5.600   0.042   0.910
 6700SOL    HW120999   5.521   7.009   0.897
 6700SOL    HW221000   5.674   0.013   0.848
 6701SOL     OW21001   5.996   6.699   1.745
 6701SOL    HW121002   5.972   6.666   1.837
 6701SOL    HW221003   6.072   6.763   1.752
 6702SOL     OW21004   3.522   3.006   1.085
 6702SOL    HW121005   3.600   2.951   1.113
 6702SOL    HW221006   3.457   2.949   1.035
 6703SOL     OW21007   0.233   1.299   0.337
 6703SOL    HW121008   0.144   1.297   0.292
 6703SOL    HW221009   0.272   1.207   0.337
 6704SOL     OW21010   3.374   0.006   5.290
 6704SOL    HW121011   3.350   0.087   5.237
 6704SOL    HW221012   3.292   6.976   5.304
 6705SOL     OW21013   6.852   4.428   2.287
 6705SOL    HW121014   6.790   4.349   2.293
 6705SOL    HW221015   6.946   4.398   2.302
 6706SOL     OW21016   0.277   6.844   1.146
 6706SOL    HW121017   0.233   6.875   1.230
 6706SOL    HW221018   0.208   6.803   1.086
 6707SOL     OW21019   3.793   1.325   2.449
 6707SOL    HW121020   3.860   1.334   2.522
 6707SOL    HW221021   3.718   1.389   2.464
 6708SOL     OW21022   0.503   3.238   6.911
 6708SOL    HW121023   0.483   3.297   6.990
 6708SOL    HW221024   0.602   3.227   6.903
 6709SOL     OW21025   2.203   4.231   2.227
 6709SOL    HW121026   2.246   4.291   2.160
 6709SOL    HW221027   2.113   4.267   2.251
 6710SOL     OW21028   4.702   1.656   0.477
 6710SOL    HW121029   4.624   1.692   0.528
 6710SOL    HW221030   4.669   1.605   0.398
 6711SOL     OW21031   3.519   6.034   5.856
 6711SOL    HW121032   3.541   6.000   5.948
 6711SOL    HW221033   3.466   5.966   5.807
 6712SOL     OW21034   5.430   4.619   1.320
 6712SOL    HW121035   5.396   4.694   1.263
 6712SOL    HW221036   5.488   4.655   1.393
 6713SOL     OW21037   1.336   4.813   4.601
 6713SOL    HW121038   1.406   4.754   4.562
 6713SOL    HW221039   1.281   4.760   4.667
 6714SOL     OW21040   5.528   0.995   1.843
 6714SOL    HW121041   5.567   0.906   1.866
 6714SOL    HW221042   5.436   0.982   1.805
 6715SOL     OW21043   1.681   0.103   6.401
 6715SOL    HW121044   1.741   0.121   6.323
 6715SOL    HW221045   1.606   0.169   6.402
 6716SOL     OW21046   0.501   5.756   2.067
 6716SOL    HW121047   0.458   5.832   2.114
 6716SOL    HW221048   0.589   5.735   2.110
 6717SOL     OW21049   5.753   1.932   6.022
 6717SOL    HW121050   5.851   1.924   6.036
 6717SOL    HW221051   5.731   1.912   5.926
 6718SOL     OW21052   4.894   1.465   0.847
 6718SOL    HW121053   4.885   1.543   0.785
 6718SOL    HW221054   4.962   1.486   0.917
 6719SOL     OW21055   1.702   1.700   7.023
 6719SOL    HW121056   1.791   1.666   0.026
 6719SOL    HW221057   1.633   1.629   0.012
 6720SOL     OW21058   1.607   0.879   6.114
 6720SOL    HW121059   1.561   0.955   6.159
 6720SOL    HW221060   1.554   0.850   6.035
 6721SOL     OW21061   6.326   6.852   1.397
 6721SOL    HW121062   6.322   6.754   1.378
 6721SOL    HW221063   6.236   6.883   1.428
 6722SOL     OW21064   5.378   3.767   0.174
 6722SOL    HW121065   5.406   3.672   0.192
 6722SOL    HW221066   5.454   3.828   0.198
 6723SOL     OW21067   1.433   3.273   5.355
 6723SOL    HW121068   1.465   3.204   5.290
 6723SOL    HW221069   1.502   3.287   5.425
 6724SOL     OW21070   2.049   3.929   4.150
 6724SOL    HW121071   2.054   3.986   4.232
 6724SOL    HW221072   2.055   3.833   4.176
 6725SOL     OW21073   5.024   2.808   3.910
 6725SOL    HW121074   5.044   2.852   3.998
 6725SOL    HW221075   4.935   2.840   3.877
 6726SOL     OW21076   0.576   0.853   5.956
 6726SOL    HW121077   0.588   0.929   6.019
 6726SOL    HW221078   0.517   0.783   5.998
 6727SOL     OW21079   1.491   5.362   5.509
 6727SOL    HW121080   1.486   5.391   5.605
 6727SOL    HW221081   1.507   5.264   5.505
 6728SOL     OW21082   3.980   1.388   3.731
 6728SOL    HW121083   3.943   1.338   3.653
 6728SOL    HW221084   4.061   1.439   3.703
 6729SOL     OW21085   3.860   0.971   2.238
 6729SOL    HW121086   3.952   1.003   2.214
 6729SOL    HW221087   3.861   0.937   2.332
 6730SOL     OW21088   6.566   1.875   0.631
 6730SOL    HW121089   6.601   1.876   0.725
 6730SOL    HW221090   6.522   1.962   0.610
 6731SOL     OW21091   4.172   0.582   6.010
 6731SOL    HW121092   4.183   0.494   5.964
 6731SOL    HW221093   4.119   0.643   5.952
 6732SOL     OW21094   6.747   4.993   5.699
 6732SOL    HW121095   6.762   4.898   5.727
 6732SOL    HW221096   6.833   5.031   5.665
 6733SOL     OW21097   4.733   4.875   5.246
 6733SOL    HW121098   4.639   4.888   5.214
 6733SOL    HW221099   4.746   4.922   5.333
 6734SOL     OW21100   5.938   1.916   4.495
 6734SOL    HW121101   5.898   1.999   4.535
 6734SOL    HW221102   5.915   1.911   4.398
 6735SOL     OW21103   6.161   2.552   3.572
 6735SOL    HW121104   6.229   2.517   3.636
 6735SOL    HW221105   6.115   2.476   3.526
 6736SOL     OW21106   3.758   3.607   0.660
 6736SOL    HW121107   3.850   3.605   0.619
 6736SOL    HW221108   3.749   3.531   0.724
 6737SOL     OW21109   6.578   3.391   0.661
 6737SOL    HW121110   6.628   3.320   0.710
 6737SOL    HW221111   6.480   3.371   0.665
 6738SOL     OW21112   1.955   5.859   4.043
 6738SOL    HW121113   2.033   5.892   3.989
 6738SOL    HW221114   1.989   5.801   4.117
 6739SOL     OW21115   6.974   0.333   5.586
 6739SOL    HW121116   6.895   0.317   5.644
 6739SOL    HW221117   6.946   0.331   5.490
 6740SOL     OW21118   0.167   0.193   2.418
 6740SOL    HW121119   0.148   0.216   2.513
 6740SOL    HW221120   0.085   0.208   2.363
 6741SOL     OW21121   3.728   1.917   0.397
 6741SOL    HW121122   3.674   1.857   0.338
 6741SOL    HW221123   3.778   1.982   0.340
 6742SOL     OW21124   6.043   4.408   3.285
 6742SOL    HW121125   6.016   4.475   3.216
 6742SOL    HW221126   5.963   4.357   3.315
 6743SOL     OW21127   3.766   3.972   6.957
 6743SOL    HW121128   3.738   3.911   6.883
 6743SOL    HW221129   3.779   3.920   0.014
 6744SOL     OW21130   6.313   6.774   5.842
 6744SOL    HW121131   6.373   6.782   5.922
 6744SOL    HW221132   6.360   6.723   5.770
 6745SOL     OW21133   0.203   4.247   5.368
 6745SOL    HW121134   0.131   4.206   5.423
 6745SOL    HW221135   0.227   4.185   5.293
 6746SOL     OW21136   1.014   2.407   3.025
 6746SOL    HW121137   1.067   2.365   2.951
 6746SOL    HW221138   0.943   2.343   3.055
 6747SOL     OW21139   1.013   6.328   5.646
 6747SOL    HW121140   0.971   6.418   5.636
 6747SOL    HW221141   1.052   6.299   5.559
 6748SOL     OW21142   1.879   0.620   5.124
 6748SOL    HW121143   1.968   0.644   5.163
 6748SOL    HW221144   1.809   0.683   5.159
 6749SOL     OW21145   4.326   4.843   2.526
 6749SOL    HW121146   4.359   4.806   2.439
 6749SOL    HW221147   4.262   4.917   2.508
 6750SOL     OW21148   3.671   0.845   5.251
 6750SOL    HW121149   3.677   0.943   5.265
 6750SOL    HW221150   3.618   0.803   5.325
 6751SOL     OW21151   4.559   0.148   4.664
 6751SOL    HW121152   4.547   0.241   4.628
 6751SOL    HW221153   4.492   0.087   4.621
 6752SOL     OW21154   1.950   4.612   2.424
 6752SOL    HW121155   2.017   4.607   2.498
 6752SOL    HW221156   1.982   4.676   2.354
 6753SOL     OW21157   3.910   3.234   6.842
 6753SOL    HW121158   3.928   3.239   6.744
 6753SOL    HW221159   3.978   3.288   6.891
 6754SOL     OW21160   6.232   1.650   0.648
 6754SOL    HW121161   6.151   1.694   0.686
 6754SOL    HW221162   6.258   1.695   0.562
 6755SOL     OW21163   2.964   6.008   6.028
 6755SOL    HW121164   2.937   5.914   6.004
 6755SOL    HW221165   3.038   6.005   6.094
 6756SOL     OW21166   3.773   2.744   6.471
 6756SOL    HW121167   3.856   2.718   6.520
 6756SOL    HW221168   3.769   2.844   6.463
 6757SOL     OW21169   4.138   0.362   1.296
 6757SOL    HW121170   4.234   0.348   1.320
 6757SOL    HW221171   4.098   0.275   1.266
 6758SOL     OW21172   5.387   2.500   3.166
 6758SOL    HW121173   5.439   2.582   3.188
 6758SOL    HW221174   5.367   2.449   3.250
 6759SOL     OW21175   0.572   1.909   2.639
 6759SOL    HW121176   0.533   1.998   2.612
 6759SOL    HW221177   0.548   1.840   2.571
 6760SOL     OW21178   5.218   2.227   4.871
 6760SOL    HW121179   5.129   2.220   4.917
 6760SOL    HW221180   5.263   2.138   4.874
 6761SOL     OW21181   3.644   1.712   5.322
 6761SOL    HW121182   3.638   1.809   5.297
 6761SOL    HW221183   3.600   1.657   5.251
 6762SOL     OW21184   6.835   5.076   4.665
 6762SOL    HW121185   6.927   5.038   4.676
 6762SOL    HW221186   6.815   5.138   4.741
 6763SOL     OW21187   6.148   6.271   4.413
 6763SOL    HW121188   6.189   6.323   4.338
 6763SOL    HW221189   6.050   6.290   4.417
 6764SOL     OW21190   0.929   4.859   1.068
 6764SOL    HW121191   0.857   4.810   1.117
 6764SOL    HW221192   1.014   4.807   1.074
 6765SOL     OW21193   0.074   3.769   2.520
 6765SOL    HW121194   0.061   3.672   2.498
 6765SOL    HW221195   0.169   3.784   2.547
 6766SOL     OW21196   5.600   0.220   1.269
 6766SOL    HW121197   5.679   0.223   1.331
 6766SOL    HW221198   5.515   0.224   1.323
 6767SOL     OW21199   3.314   0.389   0.858
 6767SOL    HW121200   3.301   0.439   0.944
 6767SOL    HW221201   3.399   0.419   0.815
 6768SOL     OW21202   1.805   0.688   6.813
 6768SOL    HW121203   1.874   0.624   6.781
 6768SOL    HW221204   1.804   0.690   6.913
 6769SOL     OW21205   4.602   2.880   1.634
 6769SOL    HW121206   4.595   2.934   1.551
 6769SOL    HW221207   4.605   2.941   1.714
 6770SOL     OW21208   0.210   0.862   1.479
 6770SOL    HW121209   0.127   0.832   1.432
 6770SOL    HW221210   0.192   0.948   1.526
 6771SOL     OW21211   4.498   1.692   3.181
 6771SOL    HW121212   4.533   1.778   3.215
 6771SOL    HW221213   4.570   1.622   3.184
 6772SOL     OW21214   3.501   1.436   4.090
 6772SOL    HW121215   3.555   1.369   4.040
 6772SOL    HW221216   3.503   1.415   4.188
 6773SOL     OW21217   0.384   3.938   0.936
 6773SOL    HW121218   0.385   3.988   1.023
 6773SOL    HW221219   0.333   3.853   0.948
 6774SOL     OW21220   0.754   2.750   6.198
 6774SOL    HW121221   0.755   2.850   6.201
 6774SOL    HW221222   0.659   2.718   6.196
 6775SOL     OW21223   2.040   4.536   0.411
 6775SOL    HW121224   2.071   4.600   0.482
 6775SOL    HW221225   2.088   4.448   0.422
 6776SOL     OW21226   5.984   5.866   7.004
 6776SOL    HW121227   5.999   5.802   6.929
 6776SOL    HW221228   5.894   5.851   0.018
 6777SOL     OW21229   4.823   5.281   6.580
 6777SOL    HW121230   4.891   5.293   6.653
 6777SOL    HW221231   4.859   5.217   6.512
 6778SOL     OW21232   0.323   5.652   3.153
 6778SOL    HW121233   0.268   5.684   3.229
 6778SOL    HW221234   0.322   5.720   3.079
 6779SOL     OW21235   6.964   4.127   6.616
 6779SOL    HW121236   7.016   4.079   6.686
 6779SOL    HW221237   7.019   4.134   6.532
 6780SOL     OW21238   0.629   2.652   1.915
 6780SOL    HW121239   0.659   2.630   1.822
 6780SOL    HW221240   0.531   2.670   1.916
 6781SOL     OW21241   5.894   4.599   5.433
 6781SOL    HW121242   5.963   4.662   5.396
 6781SOL    HW221243   5.806   4.647   5.442
 6782SOL     OW21244   5.765   1.652   2.866
 6782SOL    HW121245   5.800   1.564   2.898
 6782SOL    HW221246   5.667   1.657   2.885
 6783SOL     OW21247   0.275   6.045   6.790
 6783SOL    HW121248   0.283   6.143   6.770
 6783SOL    HW221249   0.233   5.999   6.712
 6784SOL     OW21250   3.606   3.136   0.535
 6784SOL    HW121251   3.596   3.142   0.436
 6784SOL    HW221252   3.626   3.041   0.560
 6785SOL     OW21253   5.776   6.014   2.033
 6785SOL    HW121254   5.742   5.922   2.053
 6785SOL    HW221255   5.870   6.009   1.999
 6786SOL     OW21256   1.648   3.198   6.494
 6786SOL    HW121257   1.580   3.213   6.423
 6786SOL    HW221258   1.740   3.212   6.456
 6787SOL     OW21259   1.341   3.656   2.034
 6787SOL    HW121260   1.351   3.558   2.014
 6787SOL    HW221261   1.414   3.684   2.097
 6788SOL     OW21262   3.023   5.203   0.702
 6788SOL    HW121263   3.077   5.263   0.761
 6788SOL    HW221264   2.995   5.253   0.620
 6789SOL     OW21265   0.183   6.222   3.385
 6789SOL    HW121266   0.212   6.314   3.360
 6789SOL    HW221267   0.108   6.193   3.325
 6790SOL     OW21268   1.449   3.461   0.360
 6790SOL    HW121269   1.377   3.413   0.311
 6790SOL    HW221270   1.413   3.546   0.398
 6791SOL     OW21271   3.648   3.689   6.435
 6791SOL    HW121272   3.696   3.604   6.456
 6791SOL    HW221273   3.636   3.697   6.336
 6792SOL     OW21274   0.290   4.743   0.591
 6792SOL    HW121275   0.325   4.652   0.613
 6792SOL    HW221276   0.336   4.812   0.647
 6793SOL     OW21277   6.076   1.908   1.126
 6793SOL    HW121278   5.994   1.894   1.181
 6793SOL    HW221279   6.050   1.935   1.033
 6794SOL     OW21280   4.659   0.811   4.951
 6794SOL    HW121281   4.659   0.796   5.050
 6794SOL    HW221282   4.598   0.887   4.929
 6795SOL     OW21283   2.792   5.943   6.923
 6795SOL    HW121284   2.868   6.008   6.915
 6795SOL    HW221285   2.811   5.879   6.997
 6796SOL     OW21286   4.274   2.302   2.935
 6796SOL    HW121287   4.210   2.280   3.009
 6796SOL    HW221288   4.286   2.222   2.876
 6797SOL     OW21289   0.055   3.146   2.234
 6797SOL    HW121290   0.011   3.125   2.146
 6797SOL    HW221291   0.063   3.062   2.288
 6798SOL     OW21292   6.331   6.880   2.045
 6798SOL    HW121293   6.323   6.872   2.144
 6798SOL    HW221294   6.332   6.976   2.018
 6799SOL     OW21295   5.390   6.041   1.994
 6799SOL    HW121296   5.397   6.006   2.087
 6799SOL    HW221297   5.469   6.099   1.974
 6800SOL     OW21298   3.029   4.321   0.030
 6800SOL    HW121299   3.022   4.256   0.106
 6800SOL    HW221300   2.950   4.383   0.032
 6801SOL     OW21301   1.498   1.861   2.721
 6801SOL    HW121302   1.493   1.960   2.731
 6801SOL    HW221303   1.472   1.818   2.808
 6802SOL     OW21304   2.080   5.184   2.757
 6802SOL    HW121305   2.091   5.114   2.686
 6802SOL    HW221306   2.168   5.229   2.773
 6803SOL     OW21307   5.357   2.624   0.007
 6803SOL    HW121308   5.294   2.673   0.067
 6803SOL    HW221309   5.448   2.663   0.016
 6804SOL     OW21310   1.537   6.820   3.916
 6804SOL    HW121311   1.526   6.770   3.830
 6804SOL    HW221312   1.516   6.917   3.901
 6805SOL     OW21313   5.060   0.774   4.749
 6805SOL    HW121314   5.083   0.682   4.781
 6805SOL    HW221315   5.140   0.815   4.706
 6806SOL     OW21316   4.800   0.066   5.472
 6806SOL    HW121317   4.826   0.159   5.449
 6806SOL    HW221318   4.843   0.002   5.409
 6807SOL     OW21319   3.366   3.004   0.146
 6807SOL    HW121320   3.277   3.039   0.175
 6807SOL    HW221321   3.393   3.049   0.060
 6808SOL     OW21322   1.915   2.903   4.893
 6808SOL    HW121323   1.887   2.953   4.974
 6808SOL    HW221324   2.015   2.908   4.883
 6809SOL     OW21325   2.347   3.882   6.800
 6809SOL    HW121326   2.442   3.865   6.823
 6809SOL    HW221327   2.295   3.797   6.806
 6810SOL     OW21328   5.413   2.135   2.696
 6810SOL    HW121329   5.357   2.079   2.757
 6810SOL    HW221330   5.492   2.171   2.746
 6811SOL     OW21331   5.291   5.325   1.818
 6811SOL    HW121332   5.219   5.394   1.822
 6811SOL    HW221333   5.380   5.370   1.823
 6812SOL     OW21334   3.633   2.862   2.670
 6812SOL    HW121335   3.624   2.873   2.571
 6812SOL    HW221336   3.558   2.806   2.704
 6813SOL     OW21337   4.850   3.936   1.495
 6813SOL    HW121338   4.903   3.899   1.571
 6813SOL    HW221339   4.796   4.014   1.527
 6814SOL     OW21340   2.343   3.859   0.441
 6814SOL    HW121341   2.258   3.875   0.392
 6814SOL    HW221342   2.338   3.772   0.490
 6815SOL     OW21343   2.406   6.972   2.008
 6815SOL    HW121344   2.310   6.996   2.023
 6815SOL    HW221345   2.464   0.022   2.037
 6816SOL     OW21346   6.381   4.180   1.476
 6816SOL    HW121347   6.343   4.128   1.399
 6816SOL    HW221348   6.449   4.125   1.523
 6817SOL     OW21349   0.262   1.984   5.878
 6817SOL    HW121350   0.241   1.912   5.812
 6817SOL    HW221351   0.196   1.978   5.954
 6818SOL     OW21352   3.238   5.933   2.572
 6818SOL    HW121353   3.322   5.958   2.525
 6818SOL    HW221354   3.198   6.014   2.614
 6819SOL     OW21355   3.330   1.219   3.728
 6819SOL    HW121356   3.321   1.304   3.780
 6819SOL    HW221357   3.287   1.230   3.638
 6820SOL     OW21358   1.565   4.598   3.639
 6820SOL    HW121359   1.556   4.504   3.669
 6820SOL    HW221360   1.574   4.600   3.539
 6821SOL     OW21361   2.400   1.901   4.514
 6821SOL    HW121362   2.312   1.949   4.516
 6821SOL    HW221363   2.387   1.807   4.547
 6822SOL     OW21364   4.967   2.252   5.899
 6822SOL    HW121365   5.002   2.282   5.811
 6822SOL    HW221366   4.911   2.325   5.939
 6823SOL     OW21367   3.057   2.837   1.819
 6823SOL    HW121368   3.015   2.849   1.729
 6823SOL    HW221369   3.076   2.926   1.859
 6824SOL     OW21370   1.284   4.829   6.425
 6824SOL    HW121371   1.276   4.815   6.326
 6824SOL    HW221372   1.293   4.927   6.444
 6825SOL     OW21373   4.788   0.184   4.245
 6825SOL    HW121374   4.855   0.112   4.265
 6825SOL    HW221375   4.826   0.273   4.271
 6826SOL     OW21376   1.106   2.681   2.810
 6826SOL    HW121377   1.137   2.588   2.791
 6826SOL    HW221378   1.180   2.733   2.853
 6827SOL     OW21379   5.912   6.254   5.243
 6827SOL    HW121380   5.828   6.275   5.293
 6827SOL    HW221381   5.896   6.177   5.181
 6828SOL     OW21382   1.655   2.048   1.411
 6828SOL    HW121383   1.712   2.048   1.328
 6828SOL    HW221384   1.712   2.022   1.490
 6829SOL     OW21385   5.114   5.200   3.581
 6829SOL    HW121386   5.181   5.230   3.513
 6829SOL    HW221387   5.157   5.136   3.644
 6830SOL     OW21388   5.495   2.274   4.001
 6830SOL    HW121389   5.546   2.218   4.066
 6830SOL    HW221390   5.400   2.244   3.998
 6831SOL     OW21391   0.057   1.085   5.829
 6831SOL    HW121392   0.139   1.104   5.776
 6831SOL    HW221393   0.076   1.010   5.893
 6832SOL     OW21394   3.031   4.826   2.419
 6832SOL    HW121395   3.036   4.795   2.514
 6832SOL    HW221396   3.119   4.864   2.391
 6833SOL     OW21397   3.921   5.533   0.255
 6833SOL    HW121398   3.921   5.433   0.257
 6833SOL    HW221399   3.941   5.568   0.347
 6834SOL     OW21400   4.089   5.384   2.573
 6834SOL    HW121401   4.057   5.364   2.666
 6834SOL    HW221402   4.010   5.398   2.513
 6835SOL     OW21403   4.072   6.567   4.596
 6835SOL    HW121404   4.047   6.554   4.500
 6835SOL    HW221405   3.993   6.549   4.654
 6836SOL     OW21406   2.998   5.890   6.443
 6836SOL    HW121407   2.995   5.937   6.354
 6836SOL    HW221408   2.995   5.791   6.428
 6837SOL     OW21409   0.952   2.964   2.051
 6837SOL    HW121410   1.049   2.960   2.072
 6837SOL    HW221411   0.934   2.914   1.967
 6838SOL     OW21412   2.757   1.484   0.148
 6838SOL    HW121413   2.808   1.529   0.075
 6838SOL    HW221414   2.675   1.441   0.109
 6839SOL     OW21415   4.240   0.908   1.402
 6839SOL    HW121416   4.208   0.934   1.493
 6839SOL    HW221417   4.234   0.808   1.392
 6840SOL     OW21418   1.154   1.545   6.242
 6840SOL    HW121419   1.134   1.588   6.154
 6840SOL    HW221420   1.245   1.504   6.238
 6841SOL     OW21421   6.706   3.508   6.132
 6841SOL    HW121422   6.737   3.508   6.227
 6841SOL    HW221423   6.769   3.452   6.077
 6842SOL     OW21424   2.330   4.233   3.212
 6842SOL    HW121425   2.336   4.252   3.310
 6842SOL    HW221426   2.349   4.317   3.160
 6843SOL     OW21427   4.019   6.660   0.404
 6843SOL    HW121428   4.022   6.565   0.436
 6843SOL    HW221429   3.991   6.662   0.308
 6844SOL     OW21430   5.388   0.440   5.469
 6844SOL    HW121431   5.349   0.531   5.482
 6844SOL    HW221432   5.457   0.423   5.539
 6845SOL     OW21433   5.090   1.988   2.140
 6845SOL    HW121434   5.061   2.038   2.222
 6845SOL    HW221435   5.174   1.937   2.160
 6846SOL     OW21436   2.243   3.964   0.166
 6846SOL    HW121437   2.151   3.950   0.203
 6846SOL    HW221438   2.281   4.050   0.202
 6847SOL     OW21439   6.865   3.266   4.089
 6847SOL    HW121440   6.856   3.166   4.085
 6847SOL    HW221441   6.912   3.291   4.174
 6848SOL     OW21442   6.308   4.361   3.191
 6848SOL    HW121443   6.321   4.414   3.107
 6848SOL    HW221444   6.219   4.383   3.231
 6849SOL     OW21445   2.665   4.052   6.448
 6849SOL    HW121446   2.746   4.081   6.397
 6849SOL    HW221447   2.587   4.045   6.385
 6850SOL     OW21448   4.054   1.111   4.347
 6850SOL    HW121449   4.071   1.182   4.279
 6850SOL    HW221450   4.087   1.023   4.312
 6851SOL     OW21451   2.283   2.951   3.284
 6851SOL    HW121452   2.283   3.051   3.274
 6851SOL    HW221453   2.298   2.909   3.194
 6852SOL     OW21454   3.269   4.472   0.408
 6852SOL    HW121455   3.218   4.554   0.432
 6852SOL    HW221456   3.303   4.428   0.491
 6853SOL     OW21457   4.991   3.676   6.380
 6853SOL    HW121458   4.957   3.583   6.366
 6853SOL    HW221459   5.075   3.689   6.327
 6854SOL     OW21460   5.649   6.032   6.431
 6854SOL    HW121461   5.723   6.016   6.365
 6854SOL    HW221462   5.616   5.945   6.465
 6855SOL     OW21463   4.260   5.038   3.521
 6855SOL    HW121464   4.207   4.990   3.591
 6855SOL    HW221465   4.350   5.061   3.557
 6856SOL     OW21466   0.216   1.978   6.373
 6856SOL    HW121467   0.275   1.942   6.445
 6856SOL    HW221468   0.261   2.056   6.329
 6857SOL     OW21469   0.668   3.876   5.136
 6857SOL    HW121470   0.669   3.935   5.055
 6857SOL    HW221471   0.723   3.795   5.118
 6858SOL     OW21472   2.105   3.944   1.845
 6858SOL    HW121473   2.173   3.886   1.799
 6858SOL    HW221474   2.029   3.887   1.877
 6859SOL     OW21475   1.667   1.759   2.510
 6859SOL    HW121476   1.595   1.792   2.571
 6859SOL    HW221477   1.626   1.703   2.439
 6860SOL     OW21478   0.913   6.564   1.285
 6860SOL    HW121479   0.826   6.530   1.251
 6860SOL    HW221480   0.945   6.506   1.360
 6861SOL     OW21481   6.499   3.132   6.146
 6861SOL    HW121482   6.414   3.085   6.168
 6861SOL    HW221483   6.575   3.087   6.192
 6862SOL     OW21484   0.969   4.197   4.457
 6862SOL    HW121485   0.876   4.234   4.450
 6862SOL    HW221486   1.031   4.270   4.488
 6863SOL     OW21487   5.816   1.340   5.407
 6863SOL    HW121488   5.803   1.410   5.337
 6863SOL    HW221489   5.814   1.383   5.497
 6864SOL     OW21490   1.077   3.754   5.974
 6864SOL    HW121491   0.996   3.744   5.917
 6864SOL    HW221492   1.153   3.701   5.935
 6865SOL     OW21493   2.562   6.967   3.557
 6865SOL    HW121494   2.478   6.968   3.611
 6865SOL    HW221495   2.559   0.015   3.489
 6866SOL     OW21496   1.210   4.618   0.202
 6866SOL    HW121497   1.266   4.632   0.284
 6866SOL    HW221498   1.260   4.651   0.122
 6867SOL     OW21499   2.225   3.547   6.371
 6867SOL    HW121500   2.305   3.487   6.376
 6867SOL    HW221501   2.236   3.623   6.434
 6868SOL     OW21502   2.822   5.521   3.831
 6868SOL    HW121503   2.849   5.601   3.886
 6868SOL    HW221504   2.889   5.506   3.758
 6869SOL     OW21505   3.444   0.990   6.043
 6869SOL    HW121506   3.417   0.937   6.123
 6869SOL    HW221507   3.514   1.056   6.068
 6870SOL     OW21508   6.007   2.185   0.514
 6870SOL    HW121509   6.011   2.205   0.612
 6870SOL    HW221510   6.003   2.271   0.462
 6871SOL     OW21511   6.516   3.541   2.461
 6871SOL    HW121512   6.524   3.570   2.366
 6871SOL    HW221513   6.457   3.604   2.511
 6872SOL     OW21514   1.846   3.905   1.159
 6872SOL    HW121515   1.760   3.901   1.211
 6872SOL    HW221516   1.829   3.882   1.063
 6873SOL     OW21517   0.975   4.370   3.213
 6873SOL    HW121518   0.918   4.296   3.177
 6873SOL    HW221519   1.065   4.334   3.236
 6874SOL     OW21520   5.605   6.586   3.328
 6874SOL    HW121521   5.569   6.496   3.305
 6874SOL    HW221522   5.531   6.653   3.328
 6875SOL     OW21523   2.733   1.196   0.473
 6875SOL    HW121524   2.777   1.172   0.386
 6875SOL    HW221525   2.715   1.112   0.525
 6876SOL     OW21526   5.103   5.458   3.841
 6876SOL    HW121527   5.203   5.465   3.835
 6876SOL    HW221528   5.063   5.472   3.751
 6877SOL     OW21529   0.900   3.435   1.392
 6877SOL    HW121530   0.920   3.461   1.298
 6877SOL    HW221531   0.983   3.439   1.447
 6878SOL     OW21532   1.952   0.670   4.758
 6878SOL    HW121533   1.953   0.767   4.781
 6878SOL    HW221534   1.942   0.616   4.842
 6879SOL     OW21535   1.671   1.062   1.067
 6879SOL    HW121536   1.599   1.034   1.003
 6879SOL    HW221537   1.630   1.081   1.156
 6880SOL     OW21538   1.549   5.432   0.265
 6880SOL    HW121539   1.535   5.530   0.277
 6880SOL    HW221540   1.483   5.382   0.322
 6881SOL     OW21541   0.534   2.885   0.560
 6881SOL    HW121542   0.576   2.803   0.599
 6881SOL    HW221543   0.482   2.860   0.478
 6882SOL     OW21544   2.289   6.271   6.851
 6882SOL    HW121545   2.197   6.276   6.813
 6882SOL    HW221546   2.314   6.175   6.865
 6883SOL     OW21547   4.659   0.308   1.173
 6883SOL    HW121548   4.661   0.298   1.074
 6883SOL    HW221549   4.637   0.403   1.197
 6884SOL     OW21550   1.792   3.936   3.273
 6884SOL    HW121551   1.830   3.848   3.243
 6884SOL    HW221552   1.847   4.010   3.236
 6885SOL     OW21553   6.158   5.431   4.476
 6885SOL    HW121554   6.251   5.451   4.507
 6885SOL    HW221555   6.094   5.495   4.518
 6886SOL     OW21556   4.881   2.668   7.024
 6886SOL    HW121557   4.825   2.633   0.072
 6886SOL    HW221558   4.950   2.731   0.034
 6887SOL     OW21559   5.783   5.519   5.925
 6887SOL    HW121560   5.729   5.583   5.979
 6887SOL    HW221561   5.880   5.539   5.935
 6888SOL     OW21562   5.943   4.355   6.576
 6888SOL    HW121563   5.993   4.314   6.500
 6888SOL    HW221564   5.987   4.440   6.604
 6889SOL     OW21565   0.016   2.746   6.250
 6889SOL    HW121566   0.007   2.709   6.342
 6889SOL    HW221567   0.105   2.718   6.212
 6890SOL     OW21568   4.608   4.558   3.398
 6890SOL    HW121569   4.649   4.496   3.464
 6890SOL    HW221570   4.548   4.623   3.445
 6891SOL     OW21571   1.746   1.393   1.327
 6891SOL    HW121572   1.787   1.442   1.251
 6891SOL    HW221573   1.765   1.295   1.318
 6892SOL     OW21574   3.523   1.186   4.482
 6892SOL    HW121575   3.590   1.116   4.460
 6892SOL    HW221576   3.466   1.204   4.402
 6893SOL     OW21577   6.344   3.128   0.676
 6893SOL    HW121578   6.261   3.091   0.719
 6893SOL    HW221579   6.330   3.225   0.655
 6894SOL     OW21580   6.285   4.875   0.476
 6894SOL    HW121581   6.319   4.815   0.549
 6894SOL    HW221582   6.215   4.826   0.423
 6895SOL     OW21583   0.779   6.504   2.443
 6895SOL    HW121584   0.683   6.475   2.448
 6895SOL    HW221585   0.824   6.458   2.366
 6896SOL     OW21586   4.738   1.212   4.920
 6896SOL    HW121587   4.826   1.165   4.913
 6896SOL    HW221588   4.731   1.260   5.007
 6897SOL     OW21589   4.997   2.804   5.146
 6897SOL    HW121590   4.964   2.709   5.142
 6897SOL    HW221591   4.924   2.865   5.116
 6898SOL     OW21592   1.422   6.238   1.441
 6898SOL    HW121593   1.495   6.274   1.500
 6898SOL    HW221594   1.443   6.143   1.418
 6899SOL     OW21595   6.372   5.917   2.210
 6899SOL    HW121596   6.436   5.859   2.159
 6899SOL    HW221597   6.415   6.005   2.231
 6900SOL     OW21598   6.484   3.707   4.965
 6900SOL    HW121599   6.402   3.762   4.950
 6900SOL    HW221600   6.503   3.702   5.063
 6901SOL     OW21601   5.040   5.032   6.862
 6901SOL    HW121602   5.084   5.039   6.951
 6901SOL    HW221603   5.065   4.945   6.819
 6902SOL     OW21604   0.494   6.080   6.118
 6902SOL    HW121605   0.446   6.165   6.135
 6902SOL    HW221606   0.439   6.021   6.058
 6903SOL     OW21607   1.109   5.996   4.621
 6903SOL    HW121608   1.059   5.988   4.707
 6903SOL    HW221609   1.159   6.083   4.620
 6904SOL     OW21610   6.981   0.446   6.535
 6904SOL    HW121611   7.019   0.496   6.457
 6904SOL    HW221612   6.963   0.352   6.509
 6905SOL     OW21613   5.217   6.041   5.866
 6905SOL    HW121614   5.202   6.002   5.775
 6905SOL    HW221615   5.188   5.974   5.935
 6906SOL     OW21616   3.163   0.956   3.706
 6906SOL    HW121617   3.081   0.899   3.712
 6906SOL    HW221618   3.147   1.043   3.752
 6907SOL     OW21619   5.800   1.964   1.001
 6907SOL    HW121620   5.738   1.885   0.993
 6907SOL    HW221621   5.748   2.048   0.991
 6908SOL     OW21622   2.997   5.361   0.467
 6908SOL    HW121623   3.061   5.424   0.511
 6908SOL    HW221624   2.905   5.378   0.501
 6909SOL     OW21625   5.699   4.817   1.983
 6909SOL    HW121626   5.780   4.813   1.925
 6909SOL    HW221627   5.617   4.820   1.926
 6910SOL     OW21628   1.188   2.481   2.444
 6910SOL    HW121629   1.132   2.562   2.426
 6910SOL    HW221630   1.131   2.409   2.484
 6911SOL     OW21631   1.693   6.236   6.083
 6911SOL    HW121632   1.779   6.191   6.110
 6911SOL    HW221633   1.686   6.237   5.983
 6912SOL     OW21634   2.592   3.717   6.886
 6912SOL    HW121635   2.553   3.663   6.960
 6912SOL    HW221636   2.600   3.661   6.803
 6913SOL     OW21637   4.895   6.132   5.984
 6913SOL    HW121638   4.852   6.163   5.900
 6913SOL    HW221639   4.960   6.201   6.016
 6914SOL     OW21640   5.930   2.972   2.252
 6914SOL    HW121641   5.956   2.894   2.195
 6914SOL    HW221642   5.880   3.038   2.196
 6915SOL     OW21643   6.896   3.347   3.824
 6915SOL    HW121644   6.862   3.440   3.813
 6915SOL    HW221645   6.889   3.320   3.920
 6916SOL     OW21646   4.898   6.241   6.531
 6916SOL    HW121647   4.940   6.208   6.616
 6916SOL    HW221648   4.889   6.165   6.467
 6917SOL     OW21649   3.862   6.640   1.671
 6917SOL    HW121650   3.817   6.724   1.639
 6917SOL    HW221651   3.956   6.661   1.698
 6918SOL     OW21652   2.370   3.650   0.593
 6918SOL    HW121653   2.287   3.665   0.645
 6918SOL    HW221654   2.379   3.552   0.573
 6919SOL     OW21655   5.511   6.152   3.650
 6919SOL    HW121656   5.588   6.110   3.601
 6919SOL    HW221657   5.425   6.112   3.617
 6920SOL     OW21658   6.187   1.384   6.267
 6920SOL    HW121659   6.101   1.335   6.262
 6920SOL    HW221660   6.222   1.381   6.361
 6921SOL     OW21661   4.533   0.268   4.217
 6921SOL    HW121662   4.625   0.234   4.234
 6921SOL    HW221663   4.488   0.288   4.304
 6922SOL     OW21664   1.984   4.719   6.326
 6922SOL    HW121665   1.901   4.773   6.311
 6922SOL    HW221666   2.017   4.734   6.419
 6923SOL     OW21667   5.843   6.875   2.202
 6923SOL    HW121668   5.868   6.859   2.106
 6923SOL    HW221669   5.883   6.962   2.233
 6924SOL     OW21670   3.362   5.671   2.223
 6924SOL    HW121671   3.435   5.686   2.289
 6924SOL    HW221672   3.329   5.759   2.189
 6925SOL     OW21673   5.711   6.616   5.294
 6925SOL    HW121674   5.654   6.697   5.312
 6925SOL    HW221675   5.756   6.587   5.378
 6926SOL     OW21676   3.294   2.368   0.332
 6926SOL    HW121677   3.319   2.402   0.241
 6926SOL    HW221678   3.369   2.311   0.367
 6927SOL     OW21679   4.730   0.384   0.627
 6927SOL    HW121680   4.774   0.469   0.598
 6927SOL    HW221681   4.634   0.384   0.598
 6928SOL     OW21682   3.742   5.290   6.887
 6928SOL    HW121683   3.827   5.267   6.839
 6928SOL    HW221684   3.760   5.366   6.950
 6929SOL     OW21685   5.218   5.009   2.351
 6929SOL    HW121686   5.223   4.913   2.326
 6929SOL    HW221687   5.299   5.057   2.318
 6930SOL     OW21688   0.396   6.776   1.655
 6930SOL    HW121689   0.339   6.851   1.623
 6930SOL    HW221690   0.474   6.765   1.593
 6931SOL     OW21691   3.028   3.529   1.059
 6931SOL    HW121692   2.952   3.594   1.048
 6931SOL    HW221693   3.112   3.569   1.023
 6932SOL     OW21694   4.043   6.776   6.566
 6932SOL    HW121695   4.028   6.683   6.601
 6932SOL    HW221696   4.129   6.812   6.603
 6933SOL     OW21697   3.515   5.568   6.264
 6933SOL    HW121698   3.570   5.628   6.322
 6933SOL    HW221699   3.421   5.567   6.298
 6934SOL     OW21700   4.691   5.085   0.043
 6934SOL    HW121701   4.618   5.016   0.051
 6934SOL    HW221702   4.683   5.132   6.982
 6935SOL     OW21703   3.936   6.181   1.520
 6935SOL    HW121704   4.014   6.192   1.581
 6935SOL    HW221705   3.864   6.245   1.545
 6936SOL     OW21706   0.209   1.809   5.268
 6936SOL    HW121707   0.214   1.909   5.269
 6936SOL    HW221708   0.114   1.780   5.257
 6937SOL     OW21709   5.729   5.067   0.071
 6937SOL    HW121710   5.815   5.041   0.115
 6937SOL    HW221711   5.732   5.040   7.001
 6938SOL     OW21712   2.731   1.397   4.980
 6938SOL    HW121713   2.701   1.462   5.049
 6938SOL    HW221714   2.752   1.445   4.895
 6939SOL     OW21715   5.634   3.177   3.463
 6939SOL    HW121716   5.554   3.163   3.405
 6939SOL    HW221717   5.693   3.246   3.423
 6940SOL     OW21718   2.535   6.100   0.781
 6940SOL    HW121719   2.573   6.094   0.688
 6940SOL    HW221720   2.548   6.192   0.816
 6941SOL     OW21721   3.522   3.771   2.648
 6941SOL    HW121722   3.584   3.723   2.711
 6941SOL    HW221723   3.533   3.870   2.661
 6942SOL     OW21724   6.363   5.503   2.561
 6942SOL    HW121725   6.297   5.543   2.498
 6942SOL    HW221726   6.409   5.576   2.613
 6943SOL     OW21727   4.716   4.444   6.377
 6943SOL    HW121728   4.694   4.542   6.369
 6943SOL    HW221729   4.660   4.404   6.450
 6944SOL     OW21730   1.223   4.235   5.186
 6944SOL    HW121731   1.171   4.307   5.231
 6944SOL    HW221732   1.261   4.270   5.100
 6945SOL     OW21733   5.434   1.551   1.252
 6945SOL    HW121734   5.343   1.578   1.283
 6945SOL    HW221735   5.448   1.454   1.271
 6946SOL     OW21736   5.117   6.307   2.997
 6946SOL    HW121737   5.040   6.243   2.995
 6946SOL    HW221738   5.115   6.364   2.915
 6947SOL     OW21739   6.446   4.369   5.094
 6947SOL    HW121740   6.472   4.333   5.184
 6947SOL    HW221741   6.517   4.431   5.062
 6948SOL     OW21742   0.127   4.459   6.920
 6948SOL    HW121743   0.047   4.448   6.860
 6948SOL    HW221744   0.126   4.550   6.962
 6949SOL     OW21745   2.537   2.009   3.508
 6949SOL    HW121746   2.635   2.015   3.490
 6949SOL    HW221747   2.487   2.014   3.421
 6950SOL     OW21748   0.399   1.147   4.442
 6950SOL    HW121749   0.374   1.216   4.510
 6950SOL    HW221750   0.456   1.077   4.484
 6951SOL     OW21751   0.891   4.558   6.800
 6951SOL    HW121752   0.935   4.536   6.887
 6951SOL    HW221753   0.802   4.513   6.795
 6952SOL     OW21754   5.349   5.349   4.162
 6952SOL    HW121755   5.324   5.428   4.106
 6952SOL    HW221756   5.434   5.368   4.210
 6953SOL     OW21757   6.313   1.836   1.185
 6953SOL    HW121758   6.370   1.908   1.145
 6953SOL    HW221759   6.217   1.862   1.178
 6954SOL     OW21760   7.010   4.656   6.665
 6954SOL    HW121761   6.976   4.563   6.682
 6954SOL    HW221762   6.936   4.722   6.677
 6955SOL     OW21763   4.943   6.090   3.077
 6955SOL    HW121764   4.868   6.156   3.075
 6955SOL    HW221765   4.945   6.044   3.165
 6956SOL     OW21766   5.449   5.251   2.439
 6956SOL    HW121767   5.382   5.214   2.504
 6956SOL    HW221768   5.540   5.216   2.462
 6957SOL     OW21769   6.238   5.377   4.900
 6957SOL    HW121770   6.165   5.440   4.926
 6957SOL    HW221771   6.238   5.299   4.962
 6958SOL     OW21772   3.179   3.678   2.687
 6958SOL    HW121773   3.106   3.716   2.629
 6958SOL    HW221774   3.166   3.580   2.697
 6959SOL     OW21775   1.607   4.081   3.114
 6959SOL    HW121776   1.625   4.012   3.184
 6959SOL    HW221777   1.579   4.037   3.029
 6960SOL     OW21778   3.948   4.433   6.923
 6960SOL    HW121779   3.968   4.336   6.910
 6960SOL    HW221780   3.853   4.444   6.952
 6961SOL     OW21781   4.590   2.357   5.302
 6961SOL    HW121782   4.508   2.403   5.336
 6961SOL    HW221783   4.565   2.295   5.227
 6962SOL     OW21784   2.396   6.292   6.578
 6962SOL    HW121785   2.430   6.275   6.670
 6962SOL    HW221786   2.297   6.282   6.576
 6963SOL     OW21787   6.352   5.911   0.220
 6963SOL    HW121788   6.429   5.963   0.256
 6963SOL    HW221789   6.335   5.939   0.125
 6964SOL     OW21790   1.989   1.459   5.336
 6964SOL    HW121791   2.029   1.519   5.406
 6964SOL    HW221792   2.046   1.378   5.325
 6965SOL     OW21793   1.358   1.441   0.308
 6965SOL    HW121794   1.302   1.359   0.306
 6965SOL    HW221795   1.328   1.503   0.235
 6966SOL     OW21796   1.180   6.356   1.503
 6966SOL    HW121797   1.206   6.429   1.566
 6966SOL    HW221798   1.262   6.308   1.472
 6967SOL     OW21799   4.195   1.231   6.780
 6967SOL    HW121800   4.115   1.251   6.725
 6967SOL    HW221801   4.178   1.258   6.875
 6968SOL     OW21802   4.348   0.073   2.930
 6968SOL    HW121803   4.401   0.129   2.866
 6968SOL    HW221804   4.263   0.120   2.952
 6969SOL     OW21805   2.230   2.391   2.095
 6969SOL    HW121806   2.323   2.419   2.121
 6969SOL    HW221807   2.191   2.334   2.168
 6970SOL     OW21808   3.776   4.972   5.074
 6970SOL    HW121809   3.742   4.953   4.982
 6970SOL    HW221810   3.734   5.056   5.109
 6971SOL     OW21811   6.135   4.131   0.326
 6971SOL    HW121812   6.144   4.068   0.249
 6971SOL    HW221813   6.209   4.198   0.322
 6972SOL     OW21814   5.379   4.338   1.350
 6972SOL    HW121815   5.338   4.336   1.441
 6972SOL    HW221816   5.392   4.432   1.321
 6973SOL     OW21817   1.469   2.131   2.698
 6973SOL    HW121818   1.446   2.195   2.625
 6973SOL    HW221819   1.556   2.157   2.739
 6974SOL     OW21820   3.892   4.063   2.945
 6974SOL    HW121821   3.933   3.973   2.958
 6974SOL    HW221822   3.959   4.125   2.905
 6975SOL     OW21823   3.143   5.827   4.398
 6975SOL    HW121824   3.096   5.878   4.470
 6975SOL    HW221825   3.119   5.865   4.309
 6976SOL     OW21826   4.610   4.188   5.845
 6976SOL    HW121827   4.563   4.187   5.756
 6976SOL    HW221828   4.703   4.222   5.833
 6977SOL     OW21829   4.656   4.885   2.453
 6977SOL    HW121830   4.620   4.950   2.387
 6977SOL    HW221831   4.702   4.810   2.405
 6978SOL     OW21832   0.403   3.516   0.984
 6978SOL    HW121833   0.373   3.443   1.045
 6978SOL    HW221834   0.468   3.575   1.032
 6979SOL     OW21835   0.967   3.958   2.727
 6979SOL    HW121836   1.030   3.884   2.749
 6979SOL    HW221837   0.956   4.017   2.807
 6980SOL     OW21838   1.990   5.054   2.967
 6980SOL    HW121839   2.025   5.101   2.886
 6980SOL    HW221840   2.016   5.104   3.049
 6981SOL     OW21841   4.429   2.758   7.015
 6981SOL    HW121842   4.354   2.817   0.021
 6981SOL    HW221843   4.514   2.811   7.012
 6982SOL     OW21844   1.009   0.667   2.414
 6982SOL    HW121845   0.956   0.702   2.490
 6982SOL    HW221846   1.018   0.738   2.344
 6983SOL     OW21847   6.261   0.730   4.253
 6983SOL    HW121848   6.222   0.638   4.259
 6983SOL    HW221849   6.215   0.790   4.318
 6984SOL     OW21850   1.501   2.750   3.278
 6984SOL    HW121851   1.453   2.838   3.282
 6984SOL    HW221852   1.489   2.702   3.365
 6985SOL     OW21853   5.482   3.271   6.454
 6985SOL    HW121854   5.430   3.346   6.412
 6985SOL    HW221855   5.552   3.239   6.390
 6986SOL     OW21856   5.024   4.651   5.282
 6986SOL    HW121857   5.080   4.669   5.201
 6986SOL    HW221858   5.083   4.651   5.363
 6987SOL     OW21859   0.164   0.993   6.807
 6987SOL    HW121860   0.229   1.068   6.815
 6987SOL    HW221861   0.107   1.005   6.726
 6988SOL     OW21862   2.550   1.444   6.686
 6988SOL    HW121863   2.633   1.498   6.679
 6988SOL    HW221864   2.471   1.502   6.668
 6989SOL     OW21865   0.671   4.132   2.707
 6989SOL    HW121866   0.632   4.222   2.690
 6989SOL    HW221867   0.714   4.097   2.623
 6990SOL     OW21868   3.907   3.760   0.288
 6990SOL    HW121869   3.904   3.664   0.263
 6990SOL    HW221870   3.819   3.803   0.268
 6991SOL     OW21871   5.640   3.387   2.453
 6991SOL    HW121872   5.615   3.303   2.405
 6991SOL    HW221873   5.702   3.366   2.528
 6992SOL     OW21874   0.905   5.242   0.415
 6992SOL    HW121875   0.834   5.186   0.373
 6992SOL    HW221876   0.927   5.206   0.506
 6993SOL     OW21877   4.027   2.206   1.537
 6993SOL    HW121878   4.072   2.243   1.619
 6993SOL    HW221879   4.051   2.262   1.458
 6994SOL     OW21880   2.938   1.279   3.153
 6994SOL    HW121881   2.857   1.337   3.140
 6994SOL    HW221882   2.912   1.183   3.141
 6995SOL     OW21883   6.872   4.275   1.050
 6995SOL    HW121884   6.908   4.187   1.020
 6995SOL    HW221885   6.772   4.274   1.047
 6996SOL     OW21886   0.814   1.129   6.603
 6996SOL    HW121887   0.725   1.170   6.626
 6996SOL    HW221888   0.830   1.051   6.664
 6997SOL     OW21889   6.414   6.204   6.092
 6997SOL    HW121890   6.365   6.219   6.178
 6997SOL    HW221891   6.360   6.239   6.016
 6998SOL     OW21892   0.027   0.938   0.619
 6998SOL    HW121893   0.034   1.036   0.603
 6998SOL    HW221894   6.996   0.896   0.548
 6999SOL     OW21895   6.818   2.949   6.813
 6999SOL    HW121896   6.874   3.023   6.775
 6999SOL    HW221897   6.731   2.944   6.764
 7000SOL     OW21898   0.143   5.685   3.367
 7000SOL    HW121899   0.167   5.720   3.458
 7000SOL    HW221900   0.059   5.632   3.373
 7001SOL     OW21901   6.496   1.899   4.584
 7001SOL    HW121902   6.542   1.823   4.539
 7001SOL    HW221903   6.552   1.931   4.661
 7002SOL     OW21904   0.940   5.507   2.967
 7002SOL    HW121905   0.884   5.580   2.928
 7002SOL    HW221906   0.968   5.444   2.894
 7003SOL     OW21907   0.639   4.169   0.742
 7003SOL    HW121908   0.565   4.106   0.765
 7003SOL    HW221909   0.716   4.119   0.703
 7004SOL     OW21910   1.823   6.872   0.327
 7004SOL    HW121911   1.885   6.932   0.378
 7004SOL    HW221912   1.743   6.852   0.382
 7005SOL     OW21913   1.366   5.428   0.578
 7005SOL    HW121914   1.383   5.357   0.510
 7005SOL    HW221915   1.268   5.435   0.596
 7006SOL     OW21916   0.633   0.187   3.973
 7006SOL    HW121917   0.640   0.160   4.069
 7006SOL    HW221918   0.641   0.287   3.966
 7007SOL     OW21919   2.127   0.445   5.990
 7007SOL    HW121920   2.082   0.524   6.032
 7007SOL    HW221921   2.110   0.445   5.892
 7008SOL     OW21922   5.684   3.447   3.346
 7008SOL    HW121923   5.632   3.410   3.269
 7008SOL    HW221924   5.640   3.531   3.378
 7009SOL     OW21925   4.932   6.151   2.682
 7009SOL    HW121926   4.977   6.136   2.594
 7009SOL    HW221927   4.985   6.108   2.755
 7010SOL     OW21928   4.961   3.441   2.745
 7010SOL    HW121929   4.911   3.516   2.701
 7010SOL    HW221930   5.032   3.408   2.684
 7011SOL     OW21931   2.698   6.522   6.136
 7011SOL    HW121932   2.750   6.600   6.170
 7011SOL    HW221933   2.600   6.540   6.147
 7012SOL     OW21934   0.042   2.920   0.296
 7012SOL    HW121935   6.974   2.898   0.270
 7012SOL    HW221936   0.041   2.986   0.371
 7013SOL     OW21937   3.304   2.726   0.177
 7013SOL    HW121938   3.209   2.709   0.202
 7013SOL    HW221939   3.316   2.823   0.157
 7014SOL     OW21940   5.270   3.404   0.875
 7014SOL    HW121941   5.255   3.319   0.824
 7014SOL    HW221942   5.330   3.386   0.953
 7015SOL     OW21943   5.812   6.272   1.460
 7015SOL    HW121944   5.727   6.325   1.458
 7015SOL    HW221945   5.798   6.188   1.513
 7016SOL     OW21946   3.466   5.455   0.987
 7016SOL    HW121947   3.406   5.451   1.067
 7016SOL    HW221948   3.427   5.400   0.913
 7017SOL     OW21949   5.792   4.356   5.688
 7017SOL    HW121950   5.852   4.428   5.722
 7017SOL    HW221951   5.823   4.326   5.597
 7018SOL     OW21952   5.194   3.866   4.938
 7018SOL    HW121953   5.165   3.888   5.032
 7018SOL    HW221954   5.115   3.834   4.886
 7019SOL     OW21955   4.162   5.369   2.155
 7019SOL    HW121956   4.194   5.427   2.230
 7019SOL    HW221957   4.067   5.393   2.133
 7020SOL     OW21958   0.805   2.542   6.455
 7020SOL    HW121959   0.899   2.519   6.479
 7020SOL    HW221960   0.753   2.459   6.438
 7021SOL     OW21961   0.582   2.135   4.620
 7021SOL    HW121962   0.673   2.151   4.581
 7021SOL    HW221963   0.512   2.158   4.552
 7022SOL     OW21964   2.872   2.870   0.768
 7022SOL    HW121965   2.955   2.907   0.727
 7022SOL    HW221966   2.869   2.771   0.754
 7023SOL     OW21967   0.423   1.386   0.815
 7023SOL    HW121968   0.461   1.366   0.905
 7023SOL    HW221969   0.361   1.313   0.787
 7024SOL     OW21970   3.218   3.487   4.854
 7024SOL    HW121971   3.306   3.439   4.858
 7024SOL    HW221972   3.235   3.584   4.834
 7025SOL     OW21973   3.248   0.676   1.003
 7025SOL    HW121974   3.272   0.731   0.923
 7025SOL    HW221975   3.264   0.729   1.086
 7026SOL     OW21976   3.312   2.792   0.973
 7026SOL    HW121977   3.329   2.748   1.061
 7026SOL    HW221978   3.214   2.799   0.957
 7027SOL     OW21979   3.299   4.853   2.374
 7027SOL    HW121980   3.270   4.826   2.282
 7027SOL    HW221981   3.392   4.890   2.369
 7028SOL     OW21982   3.407   0.095   3.289
 7028SOL    HW121983   3.336   0.125   3.225
 7028SOL    HW221984   3.483   0.159   3.286
 7029SOL     OW21985   3.333   3.695   3.359
 7029SOL    HW121986   3.408   3.656   3.306
 7029SOL    HW221987   3.354   3.790   3.381
 7030SOL     OW21988   6.519   0.413   4.915
 7030SOL    HW121989   6.433   0.422   4.964
 7030SOL    HW221990   6.548   0.318   4.913
 7031SOL     OW21991   4.757   6.283   0.154
 7031SOL    HW121992   4.813   6.305   0.234
 7031SOL    HW221993   4.668   6.327   0.163
 7032SOL     OW21994   4.542   5.188   4.012
 7032SOL    HW121995   4.442   5.176   4.013
 7032SOL    HW221996   4.584   5.120   4.072
 7033SOL     OW21997   1.604   1.746   5.425
 7033SOL    HW121998   1.641   1.744   5.332
 7033SOL    HW221999   1.680   1.744   5.491
 7034SOL     OW22000   6.378   0.853   2.543
 7034SOL    HW122001   6.432   0.937   2.545
 7034SOL    HW222002   6.357   0.825   2.637
 7035SOL     OW22003   2.616   1.172   1.272
 7035SOL    HW122004   2.677   1.196   1.196
 7035SOL    HW222005   2.543   1.112   1.239
 7036SOL     OW22006   6.312   1.626   1.787
 7036SOL    HW122007   6.270   1.547   1.743
 7036SOL    HW222008   6.391   1.598   1.840
 7037SOL     OW22009   1.204   0.395   5.867
 7037SOL    HW122010   1.256   0.357   5.791
 7037SOL    HW222011   1.241   0.484   5.892
 7038SOL     OW22012   1.582   3.891   0.287
 7038SOL    HW122013   1.615   3.946   0.364
 7038SOL    HW222014   1.637   3.808   0.280
 7039SOL     OW22015   7.023   6.569   2.045
 7039SOL    HW122016   0.077   6.511   2.047
 7039SOL    HW222017   7.012   6.615   2.133
 7040SOL     OW22018   5.825   2.680   4.739
 7040SOL    HW122019   5.754   2.636   4.685
 7040SOL    HW222020   5.812   2.657   4.836
 7041SOL     OW22021   1.314   6.942   4.334
 7041SOL    HW122022   1.395   7.000   4.319
 7041SOL    HW222023   1.253   6.987   4.400
 7042SOL     OW22024   5.529   5.560   5.498
 7042SOL    HW122025   5.506   5.648   5.457
 7042SOL    HW222026   5.447   5.520   5.539
 7043SOL     OW22027   1.674   5.602   1.093
 7043SOL    HW122028   1.689   5.610   1.192
 7043SOL    HW222029   1.743   5.542   1.054
 7044SOL     OW22030   5.666   6.207   4.972
 7044SOL    HW122031   5.634   6.217   5.067
 7044SOL    HW222032   5.745   6.146   4.969
 7045SOL     OW22033   6.279   5.499   1.696
 7045SOL    HW122034   6.279   5.494   1.795
 7045SOL    HW222035   6.371   5.482   1.661
 7046SOL     OW22036   1.650   1.420   3.726
 7046SOL    HW122037   1.666   1.425   3.825
 7046SOL    HW222038   1.733   1.449   3.678
 7047SOL     OW22039   1.071   6.321   0.799
 7047SOL    HW122040   1.021   6.304   0.884
 7047SOL    HW222041   1.162   6.355   0.820
 7048SOL     OW22042   0.445   6.390   3.855
 7048SOL    HW122043   0.460   6.299   3.894
 7048SOL    HW222044   0.454   6.459   3.926
 7049SOL     OW22045   3.657   1.258   3.956
 7049SOL    HW122046   3.706   1.212   3.882
 7049SOL    HW222047   3.646   1.195   4.033
 7050SOL     OW22048   3.926   4.282   0.444
 7050SOL    HW122049   3.958   4.330   0.525
 7050SOL    HW222050   3.968   4.321   0.362
 7051SOL     OW22051   1.115   1.651   1.766
 7051SOL    HW122052   1.074   1.736   1.731
 7051SOL    HW222053   1.146   1.595   1.689
 7052SOL     OW22054   4.514   1.781   2.797
 7052SOL    HW122055   4.496   1.754   2.702
 7052SOL    HW222056   4.428   1.779   2.848
 7053SOL     OW22057   1.276   3.726   3.343
 7053SOL    HW122058   1.347   3.733   3.413
 7053SOL    HW222059   1.214   3.804   3.351
 7054SOL     OW22060   5.143   0.511   6.901
 7054SOL    HW122061   5.119   0.417   6.925
 7054SOL    HW222062   5.216   0.511   6.833
 7055SOL     OW22063   2.570   0.528   0.327
 7055SOL    HW122064   2.606   0.578   0.248
 7055SOL    HW222065   2.481   0.564   0.352
 7056SOL     OW22066   6.889   4.698   0.863
 7056SOL    HW122067   6.911   4.600   0.864
 7056SOL    HW222068   6.790   4.710   0.871
 7057SOL     OW22069   2.958   5.656   4.766
 7057SOL    HW122070   2.961   5.620   4.860
 7057SOL    HW222071   3.048   5.690   4.741
 7058SOL     OW22072   6.370   2.662   6.072
 7058SOL    HW122073   6.448   2.712   6.111
 7058SOL    HW222074   6.326   2.717   6.002
 7059SOL     OW22075   1.903   6.547   5.158
 7059SOL    HW122076   1.876   6.625   5.102
 7059SOL    HW222077   1.828   6.482   5.163
 7060SOL     OW22078   3.362   2.321   1.166
 7060SOL    HW122079   3.385   2.315   1.263
 7060SOL    HW222080   3.442   2.350   1.113
 7061SOL     OW22081   1.206   0.977   1.204
 7061SOL    HW122082   1.145   0.957   1.127
 7061SOL    HW222083   1.294   0.933   1.189
 7062SOL     OW22084   3.186   0.649   3.973
 7062SOL    HW122085   3.092   0.682   3.966
 7062SOL    HW222086   3.186   0.558   4.015
 7063SOL     OW22087   6.769   1.369   1.109
 7063SOL    HW122088   6.676   1.399   1.131
 7063SOL    HW222089   6.834   1.413   1.171
 7064SOL     OW22090   3.091   1.465   5.214
 7064SOL    HW122091   3.090   1.531   5.288
 7064SOL    HW222092   3.169   1.403   5.224
 7065SOL     OW22093   3.994   5.481   5.366
 7065SOL    HW122094   3.998   5.434   5.455
 7065SOL    HW222095   4.068   5.549   5.361
 7066SOL     OW22096   3.561   0.232   1.184
 7066SOL    HW122097   3.521   0.182   1.107
 7066SOL    HW222098   3.530   0.327   1.182
 7067SOL     OW22099   2.052   3.778   6.265
 7067SOL    HW122100   2.096   3.691   6.285
 7067SOL    HW222101   2.074   3.807   6.172
 7068SOL     OW22102   5.325   4.031   4.576
 7068SOL    HW122103   5.362   3.955   4.630
 7068SOL    HW222104   5.401   4.085   4.538
 7069SOL     OW22105   5.217   0.766   5.792
 7069SOL    HW122106   5.200   0.814   5.706
 7069SOL    HW222107   5.134   0.764   5.846
 7070SOL     OW22108   0.486   0.451   5.776
 7070SOL    HW122109   0.525   0.513   5.708
 7070SOL    HW222110   0.459   0.366   5.731
 7071SOL     OW22111   4.574   6.252   6.658
 7071SOL    HW122112   4.509   6.323   6.632
 7071SOL    HW222113   4.591   6.192   6.580
 7072SOL     OW22114   0.563   3.874   6.337
 7072SOL    HW122115   0.469   3.870   6.371
 7072SOL    HW222116   0.584   3.967   6.308
 7073SOL     OW22117   5.008   1.623   4.117
 7073SOL    HW122118   4.992   1.544   4.175
 7073SOL    HW222119   4.937   1.626   4.046
 7074SOL     OW22120   5.657   3.939   2.999
 7074SOL    HW122121   5.588   3.984   3.056
 7074SOL    HW222122   5.671   3.991   2.915
 7075SOL     OW22123   2.432   5.336   3.167
 7075SOL    HW122124   2.383   5.340   3.254
 7075SOL    HW222125   2.523   5.376   3.178
 7076SOL     OW22126   5.454   2.360   1.431
 7076SOL    HW122127   5.434   2.264   1.448
 7076SOL    HW222128   5.436   2.414   1.513
 7077SOL     OW22129   3.605   6.313   1.449
 7077SOL    HW122130   3.548   6.236   1.475
 7077SOL    HW222131   3.672   6.332   1.522
 7078SOL     OW22132   6.513   0.780   6.794
 7078SOL    HW122133   6.524   0.692   6.748
 7078SOL    HW222134   6.599   0.831   6.789
 7079SOL     OW22135   1.749   5.458   4.768
 7079SOL    HW122136   1.736   5.412   4.680
 7079SOL    HW222137   1.725   5.555   4.758
 7080SOL     OW22138   3.980   2.049   6.253
 7080SOL    HW122139   4.064   2.052   6.198
 7080SOL    HW222140   3.905   2.092   6.202
 7081SOL     OW22141   2.713   6.793   0.428
 7081SOL    HW122142   2.717   6.770   0.525
 7081SOL    HW222143   2.639   6.858   0.412
 7082SOL     OW22144   0.597   3.935   2.435
 7082SOL    HW122145   0.595   3.872   2.513
 7082SOL    HW222146   0.687   3.929   2.390
 7083SOL     OW22147   5.176   2.512   3.363
 7083SOL    HW122148   5.135   2.576   3.428
 7083SOL    HW222149   5.127   2.517   3.276
 7084SOL     OW22150   0.957   5.034   0.150
 7084SOL    HW122151   0.914   5.091   0.219
 7084SOL    HW222152   1.051   5.014   0.176
 7085SOL     OW22153   0.737   4.258   2.158
 7085SOL    HW122154   0.673   4.189   2.192
 7085SOL    HW222155   0.735   4.259   2.058
 7086SOL     OW22156   5.485   0.761   3.705
 7086SOL    HW122157   5.412   0.825   3.728
 7086SOL    HW222158   5.548   0.753   3.782
 7087SOL     OW22159   4.621   2.694   3.454
 7087SOL    HW122160   4.695   2.736   3.402
 7087SOL    HW222161   4.541   2.683   3.396
 7088SOL     OW22162   6.537   2.414   5.232
 7088SOL    HW122163   6.549   2.429   5.134
 7088SOL    HW222164   6.560   2.498   5.282
 7089SOL     OW22165   2.288   5.582   1.579
 7089SOL    HW122166   2.370   5.533   1.610
 7089SOL    HW222167   2.306   5.680   1.579
 7090SOL     OW22168   4.159   3.329   1.150
 7090SOL    HW122169   4.079   3.308   1.207
 7090SOL    HW222170   4.228   3.258   1.161
 7091SOL     OW22171   0.291   6.701   0.269
 7091SOL    HW122172   0.382   6.693   0.310
 7091SOL    HW222173   0.249   6.787   0.296
 7092SOL     OW22174   4.246   6.925   6.710
 7092SOL    HW122175   4.265   7.001   6.647
 7092SOL    HW222176   4.322   6.915   6.774
 7093SOL     OW22177   3.684   2.846   0.593
 7093SOL    HW122178   3.708   2.788   0.515
 7093SOL    HW222179   3.602   2.810   0.637
 7094SOL     OW22180   4.002   0.224   5.257
 7094SOL    HW122181   4.081   0.264   5.212
 7094SOL    HW222182   3.918   0.260   5.216
 7095SOL     OW22183   2.429   4.865   4.451
 7095SOL    HW122184   2.498   4.935   4.469
 7095SOL    HW222185   2.370   4.856   4.531
 7096SOL     OW22186   6.434   0.198   1.084
 7096SOL    HW122187   6.404   0.104   1.104
 7096SOL    HW222188   6.388   0.261   1.147
 7097SOL     OW22189   4.724   1.585   2.805
 7097SOL    HW122190   4.688   1.529   2.731
 7097SOL    HW222191   4.655   1.652   2.833
 7098SOL     OW22192   0.952   1.295   3.247
 7098SOL    HW122193   0.912   1.298   3.338
 7098SOL    HW222194   1.021   1.222   3.243
 7099SOL     OW22195   3.472   1.791   4.560
 7099SOL    HW122196   3.500   1.711   4.615
 7099SOL    HW222197   3.521   1.790   4.473
 7100SOL     OW22198   0.155   3.869   1.320
 7100SOL    HW122199   0.117   3.884   1.411
 7100SOL    HW222200   0.136   3.775   1.291
 7101SOL     OW22201   2.458   5.628   4.479
 7101SOL    HW122202   2.513   5.687   4.539
 7101SOL    HW222203   2.364   5.624   4.514
 7102SOL     OW22204   5.422   1.306   2.526
 7102SOL    HW122205   5.409   1.405   2.527
 7102SOL    HW222206   5.497   1.284   2.463
 7103SOL     OW22207   4.910   3.762   3.953
 7103SOL    HW122208   4.895   3.789   3.858
 7103SOL    HW222209   4.884   3.666   3.964
 7104SOL     OW22210   4.900   2.979   4.514
 7104SOL    HW122211   4.861   3.004   4.602
 7104SOL    HW222212   4.861   3.036   4.442
 7105SOL     OW22213   2.865   3.408   2.958
 7105SOL    HW122214   2.781   3.362   2.988
 7105SOL    HW222215   2.878   3.492   3.010
 7106SOL     OW22216   3.313   1.496   2.601
 7106SOL    HW122217   3.319   1.401   2.571
 7106SOL    HW222218   3.320   1.556   2.522
 7107SOL     OW22219   3.658   0.794   6.272
 7107SOL    HW122220   3.751   0.815   6.243
 7107SOL    HW222221   3.659   0.754   6.363
 7108SOL     OW22222   4.067   0.370   2.137
 7108SOL    HW122223   4.085   0.374   2.235
 7108SOL    HW222224   4.018   0.453   2.109
 7109SOL     OW22225   3.263   5.543   6.338
 7109SOL    HW122226   3.233   5.504   6.251
 7109SOL    HW222227   3.184   5.578   6.388
 7110SOL     OW22228   2.725   6.534   4.977
 7110SOL    HW122229   2.760   6.441   4.965
 7110SOL    HW222230   2.711   6.552   5.075
 7111SOL     OW22231   6.556   0.701   5.226
 7111SOL    HW122232   6.463   0.704   5.191
 7111SOL    HW222233   6.592   0.793   5.235
 7112SOL     OW22234   1.156   4.859   5.284
 7112SOL    HW122235   1.166   4.938   5.344
 7112SOL    HW222236   1.089   4.879   5.213
 7113SOL     OW22237   3.211   6.431   4.463
 7113SOL    HW122238   3.214   6.395   4.556
 7113SOL    HW222239   3.149   6.510   4.460
 7114SOL     OW22240   5.930   4.014   1.397
 7114SOL    HW122241   5.901   4.007   1.492
 7114SOL    HW222242   5.865   3.966   1.339
 7115SOL     OW22243   5.655   3.078   5.943
 7115SOL    HW122244   5.642   2.979   5.935
 7115SOL    HW222245   5.644   3.105   6.039
 7116SOL     OW22246   0.252   3.949   4.529
 7116SOL    HW122247   0.348   3.975   4.520
 7116SOL    HW222248   0.236   3.909   4.620
 7117SOL     OW22249   5.155   6.790   2.948
 7117SOL    HW122250   5.087   6.825   2.884
 7117SOL    HW222251   5.129   6.814   3.042
 7118SOL     OW22252   4.456   4.448   6.051
 7118SOL    HW122253   4.405   4.394   5.984
 7118SOL    HW222254   4.543   4.403   6.071
 7119SOL     OW22255   3.442   6.216   5.655
 7119SOL    HW122256   3.404   6.146   5.594
 7119SOL    HW222257   3.500   6.173   5.724
 7120SOL     OW22258   4.388   1.306   0.793
 7120SOL    HW122259   4.470   1.352   0.758
 7120SOL    HW222260   4.395   1.296   0.892
 7121SOL     OW22261   1.381   5.679   2.658
 7121SOL    HW122262   1.403   5.594   2.706
 7121SOL    HW222263   1.306   5.725   2.706
 7122SOL     OW22264   3.613   2.128   6.866
 7122SOL    HW122265   3.641   2.050   6.921
 7122SOL    HW222266   3.677   2.139   6.789
 7123SOL     OW22267   5.641   5.052   5.804
 7123SOL    HW122268   5.703   5.103   5.745
 7123SOL    HW222269   5.558   5.027   5.754
 7124SOL     OW22270   1.811   3.221   1.108
 7124SOL    HW122271   1.797   3.256   1.201
 7124SOL    HW222272   1.839   3.125   1.113
 7125SOL     OW22273   0.548   6.686   2.227
 7125SOL    HW122274   0.595   6.773   2.245
 7125SOL    HW222275   0.542   6.633   2.312
 7126SOL     OW22276   3.586   5.819   1.390
 7126SOL    HW122277   3.681   5.801   1.363
 7126SOL    HW222278   3.583   5.847   1.486
 7127SOL     OW22279   2.653   6.236   6.445
 7127SOL    HW122280   2.734   6.207   6.496
 7127SOL    HW222281   2.571   6.220   6.501
 7128SOL     OW22282   2.968   4.175   0.276
 7128SOL    HW122283   2.927   4.086   0.259
 7128SOL    HW222284   3.063   4.164   0.303
 7129SOL     OW22285   0.664   0.337   0.054
 7129SOL    HW122286   0.754   0.329   0.012
 7129SOL    HW222287   0.668   0.401   0.131
 7130SOL     OW22288   3.155   6.990   4.153
 7130SOL    HW122289   3.158   6.971   4.251
 7130SOL    HW222290   3.079   6.939   4.112
 7131SOL     OW22291   2.337   1.345   1.632
 7131SOL    HW122292   2.435   1.323   1.634
 7131SOL    HW222293   2.295   1.317   1.718
 7132SOL     OW22294   4.923   4.345   1.240
 7132SOL    HW122295   4.977   4.261   1.247
 7132SOL    HW222296   4.849   4.342   1.307
 7133SOL     OW22297   4.844   5.849   2.960
 7133SOL    HW122298   4.923   5.865   3.019
 7133SOL    HW222299   4.870   5.788   2.885
 7134SOL     OW22300   5.377   5.254   0.027
 7134SOL    HW122301   5.387   5.168   0.078
 7134SOL    HW222302   5.451   5.316   0.051
 7135SOL     OW22303   1.909   3.747   1.577
 7135SOL    HW122304   1.959   3.665   1.607
 7135SOL    HW222305   1.972   3.824   1.571
 7136SOL     OW22306   1.184   2.542   2.093
 7136SOL    HW122307   1.188   2.443   2.083
 7136SOL    HW222308   1.221   2.586   2.011
 7137SOL     OW22309   2.810   1.065   1.988
 7137SOL    HW122310   2.807   1.143   2.051
 7137SOL    HW222311   2.717   1.043   1.959
 7138SOL     OW22312   0.425   3.302   0.284
 7138SOL    HW122313   0.367   3.324   0.362
 7138SOL    HW222314   0.405   3.364   0.208
 7139SOL     OW22315   5.821   6.273   1.006
 7139SOL    HW122316   5.867   6.230   0.929
 7139SOL    HW222317   5.855   6.233   1.091
 7140SOL     OW22318   6.826   4.286   0.027
 7140SOL    HW122319   6.776   4.218   0.080
 7140SOL    HW222320   6.920   4.291   0.060
 7141SOL     OW22321   3.220   0.889   0.821
 7141SOL    HW122322   3.129   0.884   0.780
 7141SOL    HW222323   3.287   0.914   0.751
 7142SOL     OW22324   4.337   6.960   4.601
 7142SOL    HW122325   4.392   6.914   4.671
 7142SOL    HW222326   4.271   6.895   4.564
 7143SOL     OW22327   2.625   3.058   6.353
 7143SOL    HW122328   2.670   3.131   6.406
 7143SOL    HW222329   2.606   3.091   6.261
 7144SOL     OW22330   6.863   0.993   6.297
 7144SOL    HW122331   6.819   0.948   6.219
 7144SOL    HW222332   6.806   0.984   6.378
 7145SOL     OW22333   5.675   1.826   6.264
 7145SOL    HW122334   5.667   1.871   6.175
 7145SOL    HW222335   5.620   1.876   6.331
 7146SOL     OW22336   0.976   2.166   5.258
 7146SOL    HW122337   1.049   2.105   5.288
 7146SOL    HW222338   0.997   2.259   5.288
 7147SOL     OW22339   6.507   6.464   1.977
 7147SOL    HW122340   6.556   6.398   2.033
 7147SOL    HW222341   6.409   6.448   1.985
 7148SOL     OW22342   6.644   6.993   1.115
 7148SOL    HW122343   6.590   6.936   1.053
 7148SOL    HW222344   6.659   6.943   1.201
 7149SOL     OW22345   5.576   4.514   5.674
 7149SOL    HW122346   5.492   4.468   5.645
 7149SOL    HW222347   5.652   4.449   5.676
 7150SOL     OW22348   2.859   2.462   0.007
 7150SOL    HW122349   2.956   2.443   7.015
 7150SOL    HW222350   2.827   2.402   0.080
 7151SOL     OW22351   5.307   1.511   6.809
 7151SOL    HW122352   5.362   1.589   6.840
 7151SOL    HW222353   5.365   1.430   6.806
 7152SOL     OW22354   4.809   0.536   5.757
 7152SOL    HW122355   4.908   0.525   5.747
 7152SOL    HW222356   4.777   0.479   5.833
 7153SOL     OW22357   3.357   6.212   0.451
 7153SOL    HW122358   3.344   6.139   0.384
 7153SOL    HW222359   3.400   6.174   0.533
 7154SOL     OW22360   4.351   1.220   2.429
 7154SOL    HW122361   4.418   1.245   2.360
 7154SOL    HW222362   4.263   1.263   2.407
 7155SOL     OW22363   1.369   0.277   1.938
 7155SOL    HW122364   1.362   0.284   2.037
 7155SOL    HW222365   1.288   0.319   1.896
 7156SOL     OW22366   6.419   3.831   5.515
 7156SOL    HW122367   6.471   3.875   5.588
 7156SOL    HW222368   6.331   3.801   5.550
 7157SOL     OW22369   0.406   4.471   5.746
 7157SOL    HW122370   0.459   4.449   5.828
 7157SOL    HW222371   0.409   4.393   5.683
 7158SOL     OW22372   5.262   6.992   4.085
 7158SOL    HW122373   5.218   6.918   4.034
 7158SOL    HW222374   5.342   7.024   4.034
 7159SOL     OW22375   0.755   6.276   3.016
 7159SOL    HW122376   0.790   6.337   2.946
 7159SOL    HW222377   0.676   6.318   3.061
 7160SOL     OW22378   6.039   0.100   3.212
 7160SOL    HW122379   6.058   0.005   3.238
 7160SOL    HW222380   6.100   0.162   3.262
 7161SOL     OW22381   3.865   4.004   2.390
 7161SOL    HW122382   3.908   3.914   2.386
 7161SOL    HW222383   3.859   4.033   2.486
 7162SOL     OW22384   0.640   6.212   1.336
 7162SOL    HW122385   0.649   6.243   1.241
 7162SOL    HW222386   0.715   6.150   1.358
 7163SOL     OW22387   6.804   0.832   1.135
 7163SOL    HW122388   6.730   0.822   1.202
 7163SOL    HW222389   6.839   0.925   1.138
 7164SOL     OW22390   1.218   1.045   6.874
 7164SOL    HW122391   1.317   1.038   6.887
 7164SOL    HW222392   1.185   0.962   6.830
 7165SOL     OW22393   5.958   2.090   0.231
 7165SOL    HW122394   5.967   2.174   0.177
 7165SOL    HW222395   5.986   2.108   0.325
 7166SOL     OW22396   0.152   5.694   5.862
 7166SOL    HW122397   0.068   5.648   5.891
 7166SOL    HW222398   0.231   5.645   5.898
 7167SOL     OW22399   0.019   2.764   5.403
 7167SOL    HW122400   7.011   2.679   5.365
 7167SOL    HW222401   0.029   2.832   5.330
 7168SOL     OW22402   1.898   1.883   2.421
 7168SOL    HW122403   1.852   1.947   2.360
 7168SOL    HW222404   1.830   1.838   2.479
 7169SOL     OW22405   1.632   4.618   5.377
 7169SOL    HW122406   1.614   4.522   5.356
 7169SOL    HW222407   1.724   4.642   5.345
 7170SOL     OW22408   3.547   1.698   1.178
 7170SOL    HW122409   3.574   1.602   1.171
 7170SOL    HW222410   3.480   1.709   1.252
 7171SOL     OW22411   6.851   3.655   0.763
 7171SOL    HW122412   6.843   3.705   0.677
 7171SOL    HW222413   6.809   3.708   0.837
 7172SOL     OW22414   0.593   2.277   3.589
 7172SOL    HW122415   0.656   2.297   3.664
 7172SOL    HW222416   0.611   2.340   3.513
 7173SOL     OW22417   4.844   5.654   5.907
 7173SOL    HW122418   4.750   5.677   5.929
 7173SOL    HW222419   4.850   5.557   5.883
 7174SOL     OW22420   6.603   4.245   2.205
 7174SOL    HW122421   6.660   4.187   2.147
 7174SOL    HW222422   6.564   4.319   2.150
 7175SOL     OW22423   6.487   3.997   5.274
 7175SOL    HW122424   6.433   3.986   5.358
 7175SOL    HW222425   6.435   4.051   5.207
 7176SOL     OW22426   0.057   1.210   6.186
 7176SOL    HW122427   0.115   1.274   6.136
 7176SOL    HW222428   6.990   1.246   6.189
 7177SOL     OW22429   1.349   6.141   3.837
 7177SOL    HW122430   1.293   6.209   3.790
 7177SOL    HW222431   1.334   6.148   3.936
 7178SOL     OW22432   1.579   6.946   5.036
 7178SOL    HW122433   1.539   0.002   5.077
 7178SOL    HW222434   1.564   6.868   5.097
 7179SOL     OW22435   4.182   4.946   6.000
 7179SOL    HW122436   4.179   4.849   6.027
 7179SOL    HW222437   4.151   4.955   5.906
 7180SOL     OW22438   1.846   3.039   1.808
 7180SOL    HW122439   1.905   3.012   1.731
 7180SOL    HW222440   1.832   3.138   1.806
 7181SOL     OW22441   2.047   1.429   6.907
 7181SOL    HW122442   2.041   1.428   6.807
 7181SOL    HW222443   2.035   1.336   6.942
 7182SOL     OW22444   1.638   1.145   3.737
 7182SOL    HW122445   1.631   1.244   3.743
 7182SOL    HW222446   1.700   1.112   3.808
 7183SOL     OW22447   1.705   0.116   2.299
 7183SOL    HW122448   1.610   0.117   2.330
 7183SOL    HW222449   1.763   0.159   2.367
 7184SOL     OW22450   6.502   0.699   3.796
 7184SOL    HW122451   6.508   0.794   3.827
 7184SOL    HW222452   6.457   0.644   3.867
 7185SOL     OW22453   3.993   0.688   3.827
 7185SOL    HW122454   3.976   0.664   3.732
 7185SOL    HW222455   4.020   0.784   3.833
 7186SOL     OW22456   6.167   0.724   0.013
 7186SOL    HW122457   6.173   0.799   0.078
 7186SOL    HW222458   6.250   0.667   0.020
 7187SOL     OW22459   3.766   3.610   3.794
 7187SOL    HW122460   3.783   3.534   3.731
 7187SOL    HW222461   3.678   3.596   3.839
 7188SOL     OW22462   4.642   4.624   0.066
 7188SOL    HW122463   4.646   4.553   7.022
 7188SOL    HW222464   4.668   4.585   0.154
 7189SOL     OW22465   6.839   2.609   5.868
 7189SOL    HW122466   6.856   2.522   5.913
 7189SOL    HW222467   6.890   2.613   5.782
 7190SOL     OW22468   6.098   5.192   6.815
 7190SOL    HW122469   6.065   5.145   6.896
 7190SOL    HW222470   6.023   5.240   6.770
 7191SOL     OW22471   6.674   4.911   2.711
 7191SOL    HW122472   6.759   4.917   2.658
 7191SOL    HW222473   6.687   4.847   2.786
 7192SOL     OW22474   2.449   3.948   5.591
 7192SOL    HW122475   2.455   3.870   5.529
 7192SOL    HW222476   2.420   4.029   5.540
 7193SOL     OW22477   3.398   1.783   3.210
 7193SOL    HW122478   3.405   1.808   3.113
 7193SOL    HW222479   3.303   1.757   3.230
 7194SOL     OW22480   3.103   2.475   6.180
 7194SOL    HW122481   3.046   2.509   6.105
 7194SOL    HW222482   3.088   2.531   6.261
 7195SOL     OW22483   0.707   4.317   5.495
 7195SOL    HW122484   0.753   4.280   5.414
 7195SOL    HW222485   0.747   4.275   5.577
 7196SOL     OW22486   3.333   4.023   1.830
 7196SOL    HW122487   3.263   4.041   1.899
 7196SOL    HW222488   3.317   3.933   1.789
 7197SOL     OW22489   3.128   4.461   6.548
 7197SOL    HW122490   3.203   4.523   6.527
 7197SOL    HW222491   3.146   4.371   6.508
 7198SOL     OW22492   0.859   0.522   1.802
 7198SOL    HW122493   0.769   0.546   1.768
 7198SOL    HW222494   0.921   0.505   1.725
 7199SOL     OW22495   5.954   1.672   2.675
 7199SOL    HW122496   5.963   1.574   2.656
 7199SOL    HW222497   5.888   1.685   2.750
 7200SOL     OW22498   0.854   2.626   0.201
 7200SOL    HW122499   0.848   2.716   0.243
 7200SOL    HW222500   0.777   2.570   0.231
 7201SOL     OW22501   6.072   5.458   3.900
 7201SOL    HW122502   6.157   5.423   3.941
 7201SOL    HW222503   6.094   5.528   3.832
 7202SOL     OW22504   4.497   6.660   5.799
 7202SOL    HW122505   4.410   6.613   5.800
 7202SOL    HW222506   4.506   6.712   5.714
 7203SOL     OW22507   0.237   1.580   1.118
 7203SOL    HW122508   0.230   1.628   1.030
 7203SOL    HW222509   0.254   1.483   1.102
 7204SOL     OW22510   6.758   0.811   2.302
 7204SOL    HW122511   6.842   0.866   2.311
 7204SOL    HW222512   6.774   0.736   2.238
 7205SOL     OW22513   2.910   1.860   4.324
 7205SOL    HW122514   2.877   1.935   4.266
 7205SOL    HW222515   2.837   1.834   4.388
 7206SOL     OW22516   1.672   4.205   6.774
 7206SOL    HW122517   1.745   4.194   6.841
 7206SOL    HW222518   1.583   4.192   6.818
 7207SOL     OW22519   1.973   1.248   3.507
 7207SOL    HW122520   1.981   1.332   3.452
 7207SOL    HW222521   1.880   1.242   3.543
 7208SOL     OW22522   3.417   0.608   4.179
 7208SOL    HW122523   3.442   0.701   4.152
 7208SOL    HW222524   3.318   0.602   4.189
 7209SOL     OW22525   3.357   1.045   1.677
 7209SOL    HW122526   3.315   0.965   1.634
 7209SOL    HW222527   3.403   1.018   1.762
 7210SOL     OW22528   3.247   1.324   3.450
 7210SOL    HW122529   3.333   1.374   3.433
 7210SOL    HW222530   3.172   1.372   3.405
 7211SOL     OW22531   4.430   6.268   5.597
 7211SOL    HW122532   4.437   6.240   5.501
 7211SOL    HW222533   4.352   6.329   5.608
 7212SOL     OW22534   0.618   5.189   5.573
 7212SOL    HW122535   0.701   5.154   5.616
 7212SOL    HW222536   0.574   5.255   5.634
 7213SOL     OW22537   4.258   2.165   0.101
 7213SOL    HW122538   4.211   2.130   0.020
 7213SOL    HW222539   4.253   2.097   0.174
 7214SOL     OW22540   6.103   6.913   6.333
 7214SOL    HW122541   6.164   6.943   6.261
 7214SOL    HW222542   6.025   6.865   6.294
 7215SOL     OW22543   6.427   1.305   2.649
 7215SOL    HW122544   6.412   1.404   2.652
 7215SOL    HW222545   6.491   1.284   2.575
 7216SOL     OW22546   4.367   6.912   3.138
 7216SOL    HW122547   4.305   6.921   3.216
 7216SOL    HW222548   4.342   6.979   3.068
 7217SOL     OW22549   0.937   2.658   3.074
 7217SOL    HW122550   0.923   2.693   2.981
 7217SOL    HW222551   0.965   2.563   3.070
 7218SOL     OW22552   6.343   2.847   4.448
 7218SOL    HW122553   6.247   2.818   4.447
 7218SOL    HW222554   6.399   2.774   4.486
 7219SOL     OW22555   2.966   6.254   2.902
 7219SOL    HW122556   2.867   6.241   2.895
 7219SOL    HW222557   2.989   6.285   2.994
 7220SOL     OW22558   6.353   4.523   3.631
 7220SOL    HW122559   6.268   4.473   3.615
 7220SOL    HW222560   6.413   4.513   3.552
 7221SOL     OW22561   3.940   5.516   3.735
 7221SOL    HW122562   3.861   5.468   3.697
 7221SOL    HW222563   3.993   5.556   3.661
 7222SOL     OW22564   6.887   6.089   4.054
 7222SOL    HW122565   6.963   6.046   4.004
 7222SOL    HW222566   6.858   6.171   4.005
 7223SOL     OW22567   0.295   4.334   1.263
 7223SOL    HW122568   0.287   4.405   1.332
 7223SOL    HW222569   0.373   4.275   1.284
 7224SOL     OW22570   4.352   2.120   2.634
 7224SOL    HW122571   4.385   2.052   2.568
 7224SOL    HW222572   4.286   2.180   2.589
 7225SOL     OW22573   1.541   5.623   0.542
 7225SOL    HW122574   1.478   5.548   0.562
 7225SOL    HW222575   1.498   5.687   0.478
 7226SOL     OW22576   6.942   6.360   0.331
 7226SOL    HW122577   6.986   6.336   0.244
 7226SOL    HW222578   7.008   6.351   0.406
 7227SOL     OW22579   1.895   1.522   2.458
 7227SOL    HW122580   1.811   1.498   2.506
 7227SOL    HW222581   1.968   1.539   2.524
 7228SOL     OW22582   6.394   3.308   2.174
 7228SOL    HW122583   6.399   3.381   2.106
 7228SOL    HW222584   6.303   3.309   2.217
 7229SOL     OW22585   6.202   1.335   5.119
 7229SOL    HW122586   6.232   1.333   5.023
 7229SOL    HW222587   6.209   1.243   5.158
 7230SOL     OW22588   2.266   4.866   4.713
 7230SOL    HW122589   2.292   4.769   4.707
 7230SOL    HW222590   2.180   4.880   4.665
 7231SOL     OW22591   4.419   2.811   5.875
 7231SOL    HW122592   4.432   2.815   5.775
 7231SOL    HW222593   4.502   2.844   5.920
 7232SOL     OW22594   4.735   6.313   3.702
 7232SOL    HW122595   4.835   6.316   3.696
 7232SOL    HW222596   4.696   6.382   3.641
 7233SOL     OW22597   0.513   1.375   5.073
 7233SOL    HW122598   0.459   1.459   5.081
 7233SOL    HW222599   0.481   1.309   5.142
 7234SOL     OW22600   4.973   4.349   3.624
 7234SOL    HW122601   5.063   4.354   3.582
 7234SOL    HW222602   4.982   4.355   3.724
 7235SOL     OW22603   6.282   6.277   1.269
 7235SOL    HW122604   6.297   6.268   1.368
 7235SOL    HW222605   6.247   6.191   1.232
 7236SOL     OW22606   1.556   3.596   2.603
 7236SOL    HW122607   1.630   3.655   2.571
 7236SOL    HW222608   1.515   3.550   2.524
 7237SOL     OW22609   5.800   1.167   0.715
 7237SOL    HW122610   5.786   1.136   0.621
 7237SOL    HW222611   5.862   1.246   0.716
 7238SOL     OW22612   4.118   3.384   0.033
 7238SOL    HW122613   4.176   3.350   0.107
 7238SOL    HW222614   4.170   3.453   7.007
 7239SOL     OW22615   6.141   2.132   2.302
 7239SOL    HW122616   6.113   2.168   2.214
 7239SOL    HW222617   6.152   2.033   2.296
 7240SOL     OW22618   6.968   1.605   0.459
 7240SOL    HW122619   6.970   1.574   0.554
 7240SOL    HW222620   6.955   1.704   0.456
 7241SOL     OW22621   2.204   0.840   2.434
 7241SOL    HW122622   2.242   0.923   2.393
 7241SOL    HW222623   2.105   0.837   2.420
 7242SOL     OW22624   7.001   4.407   4.857
 7242SOL    HW122625   6.906   4.398   4.889
 7242SOL    HW222626   7.009   4.364   4.767
 7243SOL     OW22627   5.753   4.729   6.433
 7243SOL    HW122628   5.722   4.636   6.413
 7243SOL    HW222629   5.768   4.779   6.348
 7244SOL     OW22630   0.087   6.022   0.341
 7244SOL    HW122631   0.143   6.087   0.289
 7244SOL    HW222632   7.016   6.042   0.325
 7245SOL     OW22633   1.063   3.345   0.650
 7245SOL    HW122634   1.118   3.428   0.658
 7245SOL    HW222635   1.068   3.310   0.557
 7246SOL     OW22636   4.631   6.952   3.216
 7246SOL    HW122637   4.540   6.940   3.175
 7246SOL    HW222638   4.689   6.874   3.191
 7247SOL     OW22639   3.280   3.730   4.776
 7247SOL    HW122640   3.337   3.811   4.790
 7247SOL    HW222641   3.279   3.708   4.678
 7248SOL     OW22642   3.049   1.602   5.481
 7248SOL    HW122643   3.125   1.667   5.475
 7248SOL    HW222644   3.059   1.548   5.565
 7249SOL     OW22645   4.331   5.275   2.540
 7249SOL    HW122646   4.383   5.273   2.455
 7249SOL    HW222647   4.252   5.335   2.530
 7250SOL     OW22648   5.634   5.138   4.897
 7250SOL    HW122649   5.733   5.135   4.882
 7250SOL    HW222650   5.607   5.061   4.955
 7251SOL     OW22651   0.274   6.215   5.553
 7251SOL    HW122652   0.231   6.198   5.463
 7251SOL    HW222653   0.348   6.281   5.542
 7252SOL     OW22654   3.707   4.126   2.224
 7252SOL    HW122655   3.748   4.150   2.136
 7252SOL    HW222656   3.778   4.096   2.287
 7253SOL     OW22657   2.510   5.402   4.816
 7253SOL    HW122658   2.499   5.311   4.776
 7253SOL    HW222659   2.425   5.454   4.806
 7254SOL     OW22660   5.734   3.114   4.282
 7254SOL    HW122661   5.827   3.152   4.279
 7254SOL    HW222662   5.697   3.122   4.374
 7255SOL     OW22663   4.838   3.752   6.823
 7255SOL    HW122664   4.821   3.664   6.868
 7255SOL    HW222665   4.849   3.823   6.892
 7256SOL     OW22666   3.511   7.006   4.968
 7256SOL    HW122667   3.419   6.985   5.002
 7256SOL    HW222668   3.507   0.061   4.910
 7257SOL     OW22669   0.704   1.298   4.467
 7257SOL    HW122670   0.651   1.373   4.507
 7257SOL    HW222671   0.654   1.261   4.388
 7258SOL     OW22672   5.643   2.783   2.467
 7258SOL    HW122673   5.565   2.799   2.527
 7258SOL    HW222674   5.698   2.867   2.462
 7259SOL     OW22675   1.436   4.076   2.565
 7259SOL    HW122676   1.432   3.990   2.515
 7259SOL    HW222677   1.520   4.125   2.541
 7260SOL     OW22678   5.659   3.265   0.662
 7260SOL    HW122679   5.594   3.341   0.651
 7260SOL    HW222680   5.752   3.302   0.671
 7261SOL     OW22681   6.585   4.120   0.100
 7261SOL    HW122682   6.517   4.055   0.066
 7261SOL    HW222683   6.592   4.113   0.199
 7262SOL     OW22684   5.755   1.132   4.927
 7262SOL    HW122685   5.780   1.093   5.016
 7262SOL    HW222686   5.838   1.161   4.879
 7263SOL     OW22687   0.060   5.853   0.096
 7263SOL    HW122688   0.060   5.820   0.190
 7263SOL    HW222689   7.000   5.899   0.077
 7264SOL     OW22690   5.987   1.384   0.626
 7264SOL    HW122691   6.033   1.399   0.713
 7264SOL    HW222692   6.047   1.330   0.566
 7265SOL     OW22693   3.789   6.866   5.490
 7265SOL    HW122694   3.834   6.776   5.484
 7265SOL    HW222695   3.776   6.890   5.586
 7266SOL     OW22696   0.487   0.836   3.557
 7266SOL    HW122697   0.389   0.852   3.565
 7266SOL    HW222698   0.504   0.737   3.556
 7267SOL     OW22699   6.565   4.567   4.805
 7267SOL    HW122700   6.597   4.556   4.899
 7267SOL    HW222701   6.642   4.555   4.742
 7268SOL     OW22702   6.203   6.665   4.499
 7268SOL    HW122703   6.131   6.598   4.476
 7268SOL    HW222704   6.219   6.725   4.421
 7269SOL     OW22705   2.652   4.670   4.777
 7269SOL    HW122706   2.706   4.655   4.860
 7269SOL    HW222707   2.711   4.661   4.697
 7270SOL     OW22708   0.787   1.242   4.732
 7270SOL    HW122709   0.699   1.243   4.780
 7270SOL    HW222710   0.773   1.222   4.635
 7271SOL     OW22711   0.744   4.697   2.927
 7271SOL    HW122712   0.649   4.698   2.896
 7271SOL    HW222713   0.773   4.602   2.940
 7272SOL     OW22714   6.539   4.517   1.745
 7272SOL    HW122715   6.491   4.483   1.664
 7272SOL    HW222716   6.584   4.604   1.723
 7273SOL     OW22717   0.964   2.460   5.343
 7273SOL    HW122718   0.865   2.464   5.329
 7273SOL    HW222719   0.984   2.458   5.441
 7274SOL     OW22720   0.573   4.533   7.005
 7274SOL    HW122721   0.619   4.599   0.039
 7274SOL    HW222722   0.515   4.583   6.941
 7275SOL     OW22723   0.500   6.789   3.226
 7275SOL    HW122724   0.439   6.854   3.272
 7275SOL    HW222725   0.464   6.770   3.134
 7276SOL     OW22726   5.577   6.591   4.479
 7276SOL    HW122727   5.657   6.644   4.509
 7276SOL    HW222728   5.497   6.619   4.532
 7277SOL     OW22729   4.879   0.336   6.471
 7277SOL    HW122730   4.896   0.287   6.557
 7277SOL    HW222731   4.821   0.280   6.412
 7278SOL     OW22732   3.602   2.795   2.116
 7278SOL    HW122733   3.554   2.849   2.046
 7278SOL    HW222734   3.602   2.699   2.089
 7279SOL     OW22735   3.427   6.511   5.962
 7279SOL    HW122736   3.417   6.481   6.057
 7279SOL    HW222737   3.485   6.446   5.913
 7280SOL     OW22738   4.751   1.162   5.944
 7280SOL    HW122739   4.789   1.102   5.874
 7280SOL    HW222740   4.724   1.108   6.023
 7281SOL     OW22741   4.857   1.379   6.073
 7281SOL    HW122742   4.955   1.398   6.063
 7281SOL    HW222743   4.837   1.289   6.034
 7282SOL     OW22744   5.794   5.324   2.244
 7282SOL    HW122745   5.732   5.247   2.228
 7282SOL    HW222746   5.875   5.293   2.292
 7283SOL     OW22747   1.950   0.851   3.891
 7283SOL    HW122748   1.916   0.795   3.816
 7283SOL    HW222749   2.050   0.851   3.889
 7284SOL     OW22750   0.237   2.928   4.695
 7284SOL    HW122751   0.198   3.020   4.689
 7284SOL    HW222752   0.262   2.908   4.790
 7285SOL     OW22753   5.366   5.175   2.173
 7285SOL    HW122754   5.388   5.240   2.245
 7285SOL    HW222755   5.446   5.161   2.115
 7286SOL     OW22756   2.146   3.631   1.324
 7286SOL    HW122757   2.208   3.709   1.328
 7286SOL    HW222758   2.052   3.663   1.335
 7287SOL     OW22759   6.040   1.826   6.558
 7287SOL    HW122760   6.010   1.820   6.463
 7287SOL    HW222761   5.965   1.863   6.614
 7288SOL     OW22762   3.133   6.340   6.913
 7288SOL    HW122763   3.050   6.354   6.860
 7288SOL    HW222764   3.137   6.245   6.945
 7289SOL     OW22765   5.039   1.808   3.661
 7289SOL    HW122766   5.105   1.734   3.646
 7289SOL    HW222767   5.043   1.837   3.756
 7290SOL     OW22768   3.040   5.243   3.950
 7290SOL    HW122769   3.027   5.227   4.048
 7290SOL    HW222770   2.957   5.215   3.901
 7291SOL     OW22771   2.741   5.182   2.384
 7291SOL    HW122772   2.697   5.259   2.338
 7291SOL    HW222773   2.693   5.163   2.470
 7292SOL     OW22774   2.752   6.819   4.651
 7292SOL    HW122775   2.797   6.731   4.636
 7292SOL    HW222776   2.704   6.846   4.568
 7293SOL     OW22777   1.340   2.237   5.502
 7293SOL    HW122778   1.337   2.337   5.499
 7293SOL    HW222779   1.265   2.204   5.559
 7294SOL     OW22780   3.414   5.587   0.440
 7294SOL    HW122781   3.401   5.514   0.374
 7294SOL    HW222782   3.461   5.664   0.396
 7295SOL     OW22783   5.869   0.123   1.480
 7295SOL    HW122784   5.895   0.087   1.569
 7295SOL    HW222785   5.915   0.071   1.408
 7296SOL     OW22786   4.188   4.989   2.108
 7296SOL    HW122787   4.279   5.001   2.146
 7296SOL    HW222788   4.126   4.956   2.180
 7297SOL     OW22789   5.231   0.041   1.622
 7297SOL    HW122790   5.176   0.124   1.638
 7297SOL    HW222791   5.280   0.017   1.705
 7298SOL     OW22792   6.004   3.645   4.331
 7298SOL    HW122793   5.924   3.643   4.271
 7298SOL    HW222794   6.073   3.582   4.297
 7299SOL     OW22795   6.099   3.673   6.542
 7299SOL    HW122796   6.095   3.614   6.461
 7299SOL    HW222797   6.150   3.626   6.614
 7300SOL     OW22798   4.554   4.923   1.136
 7300SOL    HW122799   4.585   4.851   1.198
 7300SOL    HW222800   4.460   4.948   1.159
 7301SOL     OW22801   6.741   0.786   6.494
 7301SOL    HW122802   6.708   0.734   6.574
 7301SOL    HW222803   6.664   0.804   6.433
 7302SOL     OW22804   5.099   1.186   6.226
 7302SOL    HW122805   5.014   1.150   6.265
 7302SOL    HW222806   5.167   1.196   6.298
 7303SOL     OW22807   3.829   1.322   0.327
 7303SOL    HW122808   3.844   1.260   0.404
 7303SOL    HW222809   3.777   1.402   0.358
 7304SOL     OW22810   3.392   4.188   5.400
 7304SOL    HW122811   3.475   4.242   5.385
 7304SOL    HW222812   3.404   4.097   5.359
 7305SOL     OW22813   5.334   1.449   0.181
 7305SOL    HW122814   5.279   1.389   0.123
 7305SOL    HW222815   5.295   1.541   0.179
 7306SOL     OW22816   4.752   4.930   1.689
 7306SOL    HW122817   4.787   4.946   1.597
 7306SOL    HW222818   4.812   4.975   1.756
 7307SOL     OW22819   4.249   6.744   2.545
 7307SOL    HW122820   4.244   6.797   2.629
 7307SOL    HW222821   4.213   6.799   2.469
 7308SOL     OW22822   6.474   1.490   4.593
 7308SOL    HW122823   6.402   1.538   4.643
 7308SOL    HW222824   6.450   1.393   4.585
 7309SOL     OW22825   4.831   5.978   1.412
 7309SOL    HW122826   4.920   5.982   1.457
 7309SOL    HW222827   4.820   6.060   1.356
 7310SOL     OW22828   2.940   5.058   1.405
 7310SOL    HW122829   2.845   5.028   1.396
 7310SOL    HW222830   2.963   5.069   1.502
 7311SOL     OW22831   2.819   2.151   1.862
 7311SOL    HW122832   2.872   2.214   1.919
 7311SOL    HW222833   2.726   2.146   1.897
 7312SOL     OW22834   6.760   1.704   5.966
 7312SOL    HW122835   6.706   1.645   6.026
 7312SOL    HW222836   6.787   1.652   5.885
 7313SOL     OW22837   4.297   3.093   6.551
 7313SOL    HW122838   4.214   3.126   6.507
 7313SOL    HW222839   4.293   2.993   6.559
 7314SOL     OW22840   0.319   3.405   4.213
 7314SOL    HW122841   0.240   3.465   4.225
 7314SOL    HW222842   0.397   3.442   4.265
 7315SOL     OW22843   6.924   0.270   4.806
 7315SOL    HW122844   6.898   0.337   4.737
 7315SOL    HW222845   6.962   0.318   4.886
 7316SOL     OW22846   3.455   3.930   5.316
 7316SOL    HW122847   3.377   3.898   5.263
 7316SOL    HW222848   3.447   3.899   5.410
 7317SOL     OW22849   3.407   1.003   3.862
 7317SOL    HW122850   3.367   1.077   3.809
 7317SOL    HW222851   3.503   1.023   3.881
 7318SOL     OW22852   1.912   1.964   1.552
 7318SOL    HW122853   1.971   1.904   1.606
 7318SOL    HW222854   1.918   1.938   1.456
 7319SOL     OW22855   6.236   4.932   6.485
 7319SOL    HW122856   6.299   4.884   6.423
 7319SOL    HW222857   6.152   4.954   6.437
 7320SOL     OW22858   6.956   2.763   1.863
 7320SOL    HW122859   6.988   2.675   1.899
 7320SOL    HW222860   6.862   2.752   1.829
 7321SOL     OW22861   3.162   1.207   4.839
 7321SOL    HW122862   3.167   1.148   4.920
 7321SOL    HW222863   3.217   1.167   4.766
 7322SOL     OW22864   0.309   3.738   2.708
 7322SOL    HW122865   0.279   3.771   2.798
 7322SOL    HW222866   0.310   3.638   2.708
 7323SOL     OW22867   2.178   3.239   3.088
 7323SOL    HW122868   2.155   3.272   3.180
 7323SOL    HW222869   2.156   3.310   3.021
 7324SOL     OW22870   5.515   6.456   2.944
 7324SOL    HW122871   5.495   6.358   2.953
 7324SOL    HW222872   5.438   6.510   2.979
 7325SOL     OW22873   2.876   6.346   6.773
 7325SOL    HW122874   2.803   6.329   6.839
 7325SOL    HW222875   2.869   6.441   6.740
 7326SOL     OW22876   3.054   6.745   5.753
 7326SOL    HW122877   2.996   6.663   5.750
 7326SOL    HW222878   3.085   6.760   5.847
 7327SOL     OW22879   1.247   2.792   5.659
 7327SOL    HW122880   1.298   2.844   5.728
 7327SOL    HW222881   1.259   2.834   5.569
 7328SOL     OW22882   2.727   0.281   0.073
 7328SOL    HW122883   2.685   0.220   0.140
 7328SOL    HW222884   2.825   0.287   0.091
 7329SOL     OW22885   4.365   3.223   1.455
 7329SOL    HW122886   4.321   3.157   1.393
 7329SOL    HW222887   4.344   3.316   1.425
 7330SOL     OW22888   3.723   1.658   0.074
 7330SOL    HW122889   3.812   1.704   0.077
 7330SOL    HW222890   3.662   1.700   0.141
 7331SOL     OW22891   5.378   0.538   1.269
 7331SOL    HW122892   5.458   0.538   1.209
 7331SOL    HW222893   5.403   0.576   1.358
 7332SOL     OW22894   3.738   5.380   1.268
 7332SOL    HW122895   3.724   5.350   1.173
 7332SOL    HW222896   3.790   5.466   1.268
 7333SOL     OW22897   1.122   4.920   2.734
 7333SOL    HW122898   1.155   4.985   2.666
 7333SOL    HW222899   1.197   4.896   2.796
 7334SOL     OW22900   3.962   6.733   4.049
 7334SOL    HW122901   3.864   6.739   4.067
 7334SOL    HW222902   3.977   6.713   3.952
 7335SOL     OW22903   1.943   2.473   2.982
 7335SOL    HW122904   1.867   2.537   2.995
 7335SOL    HW222905   1.998   2.470   3.066
 7336SOL     OW22906   1.941   7.006   3.482
 7336SOL    HW122907   1.891   0.051   3.433
 7336SOL    HW222908   1.969   0.013   3.572
 7337SOL     OW22909   5.838   2.993   2.501
 7337SOL    HW122910   5.915   2.975   2.562
 7337SOL    HW222911   5.872   3.009   2.409
 7338SOL     OW22912   6.364   3.044   0.190
 7338SOL    HW122913   6.410   2.966   0.147
 7338SOL    HW222914   6.404   3.061   0.280
 7339SOL     OW22915   0.363   5.354   4.810
 7339SOL    HW122916   0.374   5.417   4.887
 7339SOL    HW222917   0.449   5.304   4.795
 7340SOL     OW22918   1.809   7.009   6.606
 7340SOL    HW122919   1.874   0.050   6.641
 7340SOL    HW222920   1.744   0.029   6.545
 7341SOL     OW22921   6.568   2.600   0.174
 7341SOL    HW122922   6.547   2.524   0.236
 7341SOL    HW222923   6.665   2.597   0.149
 7342SOL     OW22924   6.808   6.865   2.290
 7342SOL    HW122925   6.799   6.948   2.346
 7342SOL    HW222926   6.755   6.876   2.206
 7343SOL     OW22927   5.149   2.934   0.706
 7343SOL    HW122928   5.069   2.975   0.662
 7343SOL    HW222929   5.158   2.839   0.678
 7344SOL     OW22930   1.458   6.580   5.988
 7344SOL    HW122931   1.468   6.671   6.029
 7344SOL    HW222932   1.449   6.589   5.889
 7345SOL     OW22933   3.315   5.250   6.161
 7345SOL    HW122934   3.393   5.264   6.222
 7345SOL    HW222935   3.273   5.161   6.181
 7346SOL     OW22936   4.763   4.752   2.672
 7346SOL    HW122937   4.709   4.810   2.610
 7346SOL    HW222938   4.849   4.799   2.694
 7347SOL     OW22939   5.930   2.113   6.332
 7347SOL    HW122940   5.914   2.166   6.249
 7347SOL    HW222941   6.024   2.080   6.333
 7348SOL     OW22942   6.892   4.135   1.461
 7348SOL    HW122943   6.856   4.043   1.445
 7348SOL    HW222944   6.975   4.129   1.516
 7349SOL     OW22945   3.967   1.747   2.087
 7349SOL    HW122946   3.887   1.780   2.037
 7349SOL    HW222947   4.046   1.746   2.027
 7350SOL     OW22948   3.277   0.463   4.393
 7350SOL    HW122949   3.266   0.367   4.368
 7350SOL    HW222950   3.187   0.507   4.392
 7351SOL     OW22951   3.195   4.900   3.956
 7351SOL    HW122952   3.243   4.825   3.910
 7351SOL    HW222953   3.220   4.987   3.913
 7352SOL     OW22954   6.573   2.733   3.902
 7352SOL    HW122955   6.553   2.636   3.911
 7352SOL    HW222956   6.644   2.747   3.834
 7353SOL     OW22957   5.897   0.313   6.294
 7353SOL    HW122958   5.834   0.364   6.235
 7353SOL    HW222959   5.933   0.234   6.244
 7354SOL     OW22960   0.251   1.766   2.981
 7354SOL    HW122961   0.178   1.833   2.992
 7354SOL    HW222962   0.334   1.800   3.025
 7355SOL     OW22963   2.497   1.956   0.131
 7355SOL    HW122964   2.497   1.856   0.127
 7355SOL    HW222965   2.405   1.990   0.114
 7356SOL     OW22966   4.187   3.917   5.922
 7356SOL    HW122967   4.247   3.864   5.982
 7356SOL    HW222968   4.119   3.856   5.881
 7357SOL     OW22969   5.125   5.810   2.564
 7357SOL    HW122970   5.102   5.906   2.553
 7357SOL    HW222971   5.055   5.765   2.619
 7358SOL     OW22972   5.778   0.982   3.320
 7358SOL    HW122973   5.749   1.068   3.278
 7358SOL    HW222974   5.754   0.906   3.260
 7359SOL     OW22975   4.740   0.092   1.317
 7359SOL    HW122976   4.714   0.171   1.263
 7359SOL    HW222977   4.839   0.095   1.336
 7360SOL     OW22978   3.116   3.453   5.098
 7360SOL    HW122979   3.088   3.359   5.119
 7360SOL    HW222980   3.139   3.460   5.001
 7361SOL     OW22981   5.907   0.666   3.367
 7361SOL    HW122982   5.986   0.614   3.401
 7361SOL    HW222983   5.851   0.696   3.443
 7362SOL     OW22984   3.314   4.867   6.809
 7362SOL    HW122985   3.300   4.961   6.840
 7362SOL    HW222986   3.390   4.827   6.859
 7363SOL     OW22987   3.600   0.821   0.524
 7363SOL    HW122988   3.662   0.808   0.602
 7363SOL    HW222989   3.516   0.865   0.555
 7364SOL     OW22990   5.731   6.650   1.341
 7364SOL    HW122991   5.789   6.704   1.401
 7364SOL    HW222992   5.775   6.640   1.252
 7365SOL     OW22993   5.268   4.835   2.691
 7365SOL    HW122994   5.356   4.840   2.643
 7365SOL    HW222995   5.258   4.916   2.750
 7366SOL     OW22996   1.860   0.328   3.853
 7366SOL    HW122997   1.943   0.365   3.895
 7366SOL    HW222998   1.818   0.262   3.915
 7367SOL     OW22999   4.038   0.398   6.747
 7367SOL    HW123000   3.943   0.428   6.735
 7367SOL    HW223001   4.053   0.374   6.843
 7368SOL     OW23002   3.721   3.814   3.437
 7368SOL    HW123003   3.814   3.850   3.430
 7368SOL    HW223004   3.656   3.883   3.403
 7369SOL     OW23005   5.161   2.264   0.427
 7369SOL    HW123006   5.112   2.180   0.402
 7369SOL    HW223007   5.256   2.242   0.449
 7370SOL     OW23008   1.591   1.256   4.491
 7370SOL    HW123009   1.540   1.173   4.468
 7370SOL    HW223010   1.549   1.300   4.569
 7371SOL     OW23011   3.789   1.059   3.736
 7371SOL    HW123012   3.707   1.111   3.715
 7371SOL    HW223013   3.792   0.976   3.679
 7372SOL     OW23014   5.620   1.121   5.380
 7372SOL    HW123015   5.576   1.141   5.467
 7372SOL    HW223016   5.696   1.184   5.366
 7373SOL     OW23017   5.740   3.447   4.484
 7373SOL    HW123018   5.776   3.515   4.548
 7373SOL    HW223019   5.678   3.492   4.419
 7374SOL     OW23020   6.564   2.670   5.322
 7374SOL    HW123021   6.630   2.740   5.297
 7374SOL    HW223022   6.471   2.706   5.310
 7375SOL     OW23023   1.541   3.472   2.247
 7375SOL    HW123024   1.552   3.406   2.172
 7375SOL    HW223025   1.630   3.507   2.274
 7376SOL     OW23026   6.690   3.554   0.442
 7376SOL    HW123027   6.667   3.488   0.514
 7376SOL    HW223028   6.747   3.627   0.481
 7377SOL     OW23029   2.149   6.097   1.196
 7377SOL    HW123030   2.241   6.119   1.166
 7377SOL    HW223031   2.101   6.180   1.222
 7378SOL     OW23032   1.207   5.419   4.627
 7378SOL    HW123033   1.140   5.376   4.566
 7378SOL    HW223034   1.162   5.444   4.712
 7379SOL     OW23035   3.874   1.004   1.401
 7379SOL    HW123036   3.775   1.005   1.411
 7379SOL    HW223037   3.910   1.096   1.417
 7380SOL     OW23038   5.144   3.983   1.972
 7380SOL    HW123039   5.147   3.906   1.908
 7380SOL    HW223040   5.162   3.950   2.064
 7381SOL     OW23041   3.635   0.712   1.341
 7381SOL    HW123042   3.582   0.667   1.413
 7381SOL    HW223043   3.594   0.801   1.321
 7382SOL     OW23044   6.280   1.012   6.189
 7382SOL    HW123045   6.379   1.030   6.186
 7382SOL    HW223046   6.251   1.002   6.284
 7383SOL     OW23047   2.066   0.236   0.836
 7383SOL    HW123048   2.162   0.211   0.851
 7383SOL    HW223049   2.046   0.321   0.885
 7384SOL     OW23050   6.870   6.738   0.943
 7384SOL    HW123051   6.841   6.689   0.861
 7384SOL    HW223052   6.816   6.708   1.021
 7385SOL     OW23053   6.114   4.013   2.881
 7385SOL    HW123054   6.052   4.045   2.953
 7385SOL    HW223055   6.190   4.077   2.872
 7386SOL     OW23056   5.444   3.279   0.037
 7386SOL    HW123057   5.461   3.318   6.973
 7386SOL    HW223058   5.512   3.209   0.057
 7387SOL     OW23059   6.659   5.697   5.318
 7387SOL    HW123060   6.610   5.783   5.327
 7387SOL    HW223061   6.610   5.637   5.255
 7388SOL     OW23062   2.106   4.694   3.423
 7388SOL    HW123063   2.016   4.655   3.404
 7388SOL    HW223064   2.148   4.645   3.500
 7389SOL     OW23065   5.912   2.634   0.040
 7389SOL    HW123066   5.922   2.724   0.083
 7389SOL    HW223067   5.966   2.631   6.982
 7390SOL     OW23068   2.358   2.698   3.489
 7390SOL    HW123069   2.316   2.774   3.439
 7390SOL    HW223070   2.357   2.718   3.587
 7391SOL     OW23071   3.479   3.642   3.117
 7391SOL    HW123072   3.421   3.680   3.046
 7391SOL    HW223073   3.549   3.709   3.143
 7392SOL     OW23074   3.219   6.625   6.639
 7392SOL    HW123075   3.196   6.594   6.547
 7392SOL    HW223076   3.163   6.706   6.661
 7393SOL     OW23077   5.675   5.198   4.006
 7393SOL    HW123078   5.715   5.227   4.093
 7393SOL    HW223079   5.585   5.157   4.022
 7394SOL     OW23080   2.783   1.954   5.889
 7394SOL    HW123081   2.872   1.934   5.931
 7394SOL    HW223082   2.765   1.889   5.815
 7395SOL     OW23083   2.391   6.082   1.075
 7395SOL    HW123084   2.349   6.103   0.987
 7395SOL    HW223085   2.489   6.068   1.063
 7396SOL     OW23086   2.341   5.056   2.341
 7396SOL    HW123087   2.436   5.034   2.317
 7396SOL    HW223088   2.334   5.154   2.361
 7397SOL     OW23089   6.086   4.259   3.903
 7397SOL    HW123090   6.103   4.186   3.837
 7397SOL    HW223091   6.047   4.338   3.856
 7398SOL     OW23092   2.742   4.721   2.490
 7398SOL    HW123093   2.742   4.737   2.588
 7398SOL    HW223094   2.832   4.686   2.462
 7399SOL     OW23095   5.136   1.939   5.991
 7399SOL    HW123096   5.221   1.952   5.939
 7399SOL    HW223097   5.104   1.845   5.980
 7400SOL     OW23098   5.382   3.130   5.626
 7400SOL    HW123099   5.297   3.123   5.679
 7400SOL    HW223100   5.411   3.038   5.598
 7401SOL     OW23101   1.497   3.019   4.039
 7401SOL    HW123102   1.556   2.974   4.107
 7401SOL    HW223103   1.541   3.014   3.949
 7402SOL     OW23104   3.844   5.665   4.283
 7402SOL    HW123105   3.756   5.632   4.318
 7402SOL    HW223106   3.857   5.633   4.189
 7403SOL     OW23107   1.736   4.039   4.472
 7403SOL    HW123108   1.732   3.995   4.383
 7403SOL    HW223109   1.810   4.107   4.473
 7404SOL     OW23110   3.519   3.517   1.122
 7404SOL    HW123111   3.458   3.567   1.183
 7404SOL    HW223112   3.509   3.419   1.138
 7405SOL     OW23113   3.573   6.807   3.700
 7405SOL    HW123114   3.663   6.791   3.741
 7405SOL    HW223115   3.577   6.890   3.645
 7406SOL     OW23116   1.082   1.898   5.273
 7406SOL    HW123117   1.008   1.876   5.210
 7406SOL    HW223118   1.167   1.857   5.240
 7407SOL     OW23119   0.884   5.793   5.579
 7407SOL    HW123120   0.915   5.729   5.508
 7407SOL    HW223121   0.804   5.843   5.545
 7408SOL     OW23122   4.110   5.063   5.331
 7408SOL    HW123123   4.030   5.119   5.311
 7408SOL    HW223124   4.096   5.014   5.417
 7409SOL     OW23125   6.801   3.649   1.179
 7409SOL    HW123126   6.747   3.624   1.260
 7409SOL    HW223127   6.879   3.704   1.207
 7410SOL     OW23128   0.019   0.810   1.320
 7410SOL    HW123129   0.049   0.884   1.259
 7410SOL    HW223130   0.001   0.728   1.266
 7411SOL     OW23131   2.367   1.998   5.256
 7411SOL    HW123132   2.395   2.021   5.163
 7411SOL    HW223133   2.269   1.977   5.257
 7412SOL     OW23134   3.661   0.017   0.291
 7412SOL    HW123135   3.740   7.002   0.335
 7412SOL    HW223136   3.669   0.117   0.295
 7413SOL     OW23137   4.966   0.065   3.018
 7413SOL    HW123138   4.966   0.030   2.924
 7413SOL    HW223139   4.873   0.087   3.045
 7414SOL     OW23140   3.297   1.215   4.102
 7414SOL    HW123141   3.216   1.250   4.149
 7414SOL    HW223142   3.311   1.266   4.017
 7415SOL     OW23143   3.866   6.703   6.372
 7415SOL    HW123144   3.858   6.784   6.314
 7415SOL    HW223145   3.909   6.730   6.459
 7416SOL     OW23146   1.536   0.882   1.785
 7416SOL    HW123147   1.620   0.934   1.770
 7416SOL    HW223148   1.553   0.785   1.764
 7417SOL     OW23149   0.292   0.943   2.744
 7417SOL    HW123150   0.320   0.935   2.649
 7417SOL    HW223151   0.273   1.039   2.765
 7418SOL     OW23152   1.315   4.427   5.933
 7418SOL    HW123153   1.383   4.500   5.937
 7418SOL    HW223154   1.356   4.341   5.961
 7419SOL     OW23155   6.899   4.204   4.119
 7419SOL    HW123156   6.857   4.116   4.099
 7419SOL    HW223157   6.837   4.277   4.091
 7420SOL     OW23158   0.277   0.064   1.860
 7420SOL    HW123159   0.260   7.020   1.929
 7420SOL    HW223160   0.201   0.128   1.858
 7421SOL     OW23161   5.814   3.731   1.077
 7421SOL    HW123162   5.804   3.822   1.118
 7421SOL    HW223163   5.842   3.739   0.982
 7422SOL     OW23164   5.362   2.663   2.510
 7422SOL    HW123165   5.441   2.655   2.449
 7422SOL    HW223166   5.355   2.581   2.567
 7423SOL     OW23167   4.939   1.941   5.737
 7423SOL    HW123168   4.859   2.000   5.750
 7423SOL    HW223169   5.000   1.950   5.816
 7424SOL     OW23170   0.158   2.257   3.643
 7424SOL    HW123171   0.133   2.174   3.693
 7424SOL    HW223172   0.155   2.238   3.545
 7425SOL     OW23173   5.804   0.765   1.050
 7425SOL    HW123174   5.773   0.809   1.135
 7425SOL    HW223175   5.833   0.835   0.985
 7426SOL     OW23176   4.096   3.111   5.833
 7426SOL    HW123177   4.043   3.187   5.794
 7426SOL    HW223178   4.193   3.135   5.833
 7427SOL     OW23179   3.170   1.088   3.300
 7427SOL    HW123180   3.201   1.170   3.348
 7427SOL    HW223181   3.159   1.107   3.203
 7428SOL     OW23182   3.975   6.082   4.843
 7428SOL    HW123183   3.947   6.147   4.914
 7428SOL    HW223184   3.981   5.990   4.881
 7429SOL     OW23185   0.919   6.914   2.896
 7429SOL    HW123186   1.007   6.959   2.883
 7429SOL    HW223187   0.893   6.918   2.992
 7430SOL     OW23188   6.647   5.260   2.660
 7430SOL    HW123189   6.724   5.218   2.613
 7430SOL    HW223190   6.662   5.359   2.668
 7431SOL     OW23191   1.534   1.622   3.275
 7431SOL    HW123192   1.452   1.606   3.330
 7431SOL    HW223193   1.546   1.720   3.261
 7432SOL     OW23194   2.520   1.106   3.568
 7432SOL    HW123195   2.538   1.013   3.601
 7432SOL    HW223196   2.560   1.118   3.477
 7433SOL     OW23197   2.690   6.876   6.424
 7433SOL    HW123198   2.628   6.820   6.480
 7433SOL    HW223199   2.688   6.970   6.458
 7434SOL     OW23200   3.679   6.758   4.029
 7434SOL    HW123201   3.680   6.659   4.015
 7434SOL    HW223202   3.587   6.793   4.012
 7435SOL     OW23203   5.316   4.206   3.005
 7435SOL    HW123204   5.333   4.202   2.907
 7435SOL    HW223205   5.218   4.198   3.023
 7436SOL     OW23206   5.482   2.844   6.201
 7436SOL    HW123207   5.502   2.809   6.292
 7436SOL    HW223208   5.383   2.858   6.192
 7437SOL     OW23209   3.130   0.449   0.620
 7437SOL    HW123210   3.182   0.463   0.704
 7437SOL    HW223211   3.035   0.426   0.642
 7438SOL     OW23212   2.050   0.538   0.029
 7438SOL    HW123213   1.997   0.466   0.073
 7438SOL    HW223214   2.144   0.536   0.062
 7439SOL     OW23215   1.177   4.659   6.603
 7439SOL    HW123216   1.107   4.717   6.644
 7439SOL    HW223217   1.231   4.712   6.538
 7440SOL     OW23218   5.632   3.635   4.038
 7440SOL    HW123219   5.679   3.548   4.057
 7440SOL    HW223220   5.629   3.650   3.940
 7441SOL     OW23221   5.859   5.631   0.491
 7441SOL    HW123222   5.856   5.609   0.394
 7441SOL    HW223223   5.771   5.607   0.533
 7442SOL     OW23224   5.474   0.961   5.631
 7442SOL    HW123225   5.413   1.029   5.671
 7442SOL    HW223226   5.555   0.949   5.689
 7443SOL     OW23227   0.888   1.177   2.437
 7443SOL    HW123228   0.980   1.149   2.467
 7443SOL    HW223229   0.896   1.252   2.371
 7444SOL     OW23230   1.458   6.552   0.203
 7444SOL    HW123231   1.448   6.533   0.105
 7444SOL    HW223232   1.393   6.495   0.254
 7445SOL     OW23233   3.252   5.978   1.529
 7445SOL    HW123234   3.202   5.925   1.460
 7445SOL    HW223235   3.279   6.066   1.490
 7446SOL     OW23236   5.170   4.654   7.003
 7446SOL    HW123237   5.195   4.620   0.067
 7446SOL    HW223238   5.138   4.579   6.946
 7447SOL     OW23239   0.254   4.528   0.274
 7447SOL    HW123240   0.202   4.518   0.359
 7447SOL    HW223241   0.347   4.497   0.288
 7448SOL     OW23242   4.616   5.971   6.665
 7448SOL    HW123243   4.560   5.888   6.661
 7448SOL    HW223244   4.594   6.023   6.747
 7449SOL     OW23245   6.585   4.582   5.831
 7449SOL    HW123246   6.616   4.669   5.869
 7449SOL    HW223247   6.520   4.599   5.756
 7450SOL     OW23248   5.636   2.153   5.462
 7450SOL    HW123249   5.555   2.111   5.504
 7450SOL    HW223250   5.717   2.100   5.487
 7451SOL     OW23251   4.752   4.363   3.252
 7451SOL    HW123252   4.778   4.280   3.303
 7451SOL    HW223253   4.688   4.417   3.307
 7452SOL     OW23254   6.052   5.501   5.913
 7452SOL    HW123255   6.081   5.520   5.819
 7452SOL    HW223256   6.132   5.478   5.969
 7453SOL     OW23257   3.792   5.632   5.950
 7453SOL    HW123258   3.827   5.677   5.868
 7453SOL    HW223259   3.787   5.698   6.025
 7454SOL     OW23260   4.189   2.140   1.174
 7454SOL    HW123261   4.241   2.174   1.096
 7454SOL    HW223262   4.252   2.106   1.244
 7455SOL     OW23263   6.448   1.873   2.717
 7455SOL    HW123264   6.435   1.973   2.717
 7455SOL    HW223265   6.360   1.829   2.734
 7456SOL     OW23266   2.471   2.083   6.503
 7456SOL    HW123267   2.406   2.133   6.446
 7456SOL    HW223268   2.428   2.061   6.591
 7457SOL     OW23269   1.741   1.259   2.306
 7457SOL    HW123270   1.702   1.225   2.391
 7457SOL    HW223271   1.668   1.273   2.239
 7458SOL     OW23272   1.814   5.273   5.354
 7458SOL    HW123273   1.816   5.366   5.391
 7458SOL    HW223274   1.733   5.263   5.296
 7459SOL     OW23275   5.685   0.357   2.547
 7459SOL    HW123276   5.606   0.309   2.585
 7459SOL    HW223277   5.764   0.344   2.607
 7460SOL     OW23278   1.737   6.294   1.408
 7460SOL    HW123279   1.743   6.237   1.490
 7460SOL    HW223280   1.700   6.383   1.432
 7461SOL     OW23281   2.117   4.223   5.354
 7461SOL    HW123282   2.046   4.178   5.407
 7461SOL    HW223283   2.206   4.181   5.375
 7462SOL     OW23284   1.367   4.063   0.721
 7462SOL    HW123285   1.326   4.057   0.630
 7462SOL    HW223286   1.464   4.084   0.712
 7463SOL     OW23287   4.286   5.033   1.179
 7463SOL    HW123288   4.263   5.056   1.273
 7463SOL    HW223289   4.202   5.013   1.128
 7464SOL     OW23290   5.866   6.591   5.508
 7464SOL    HW123291   5.867   6.493   5.527
 7464SOL    HW223292   5.807   6.637   5.573
 7465SOL     OW23293   1.793   4.547   6.902
 7465SOL    HW123294   1.752   4.477   6.960
 7465SOL    HW223295   1.863   4.596   6.954
 7466SOL     OW23296   0.639   0.610   5.313
 7466SOL    HW123297   0.649   0.667   5.232
 7466SOL    HW223298   0.567   0.542   5.298
 7467SOL     OW23299   1.045   3.649   5.011
 7467SOL    HW123300   1.105   3.624   4.935
 7467SOL    HW223301   1.079   3.732   5.055
 7468SOL     OW23302   5.952   3.201   5.664
 7468SOL    HW123303   5.895   3.282   5.678
 7468SOL    HW223304   5.893   3.122   5.644
 7469SOL     OW23305   0.480   1.853   0.819
 7469SOL    HW123306   0.534   1.832   0.901
 7469SOL    HW223307   0.540   1.858   0.740
 7470SOL     OW23308   5.796   2.574   3.453
 7470SOL    HW123309   5.760   2.480   3.453
 7470SOL    HW223310   5.853   2.588   3.534
 7471SOL     OW23311   3.913   6.226   6.420
 7471SOL    HW123312   3.850   6.215   6.497
 7471SOL    HW223313   3.962   6.140   6.405
 7472SOL     OW23314   6.449   0.209   6.151
 7472SOL    HW123315   6.364   0.250   6.185
 7472SOL    HW223316   6.526   0.242   6.205
 7473SOL     OW23317   3.340   5.993   3.706
 7473SOL    HW123318   3.304   5.908   3.668
 7473SOL    HW223319   3.439   5.996   3.692
 7474SOL     OW23320   5.994   2.094   6.894
 7474SOL    HW123321   6.087   2.092   6.932
 7474SOL    HW223322   5.960   2.001   6.886
 7475SOL     OW23323   5.061   1.842   0.983
 7475SOL    HW123324   5.051   1.855   0.884
 7475SOL    HW223325   5.034   1.925   1.030
 7476SOL     OW23326   2.082   0.249   3.353
 7476SOL    HW123327   2.072   0.164   3.302
 7476SOL    HW223328   2.018   0.249   3.430
 7477SOL     OW23329   1.179   3.222   5.298
 7477SOL    HW123330   1.115   3.298   5.309
 7477SOL    HW223331   1.273   3.255   5.310
 7478SOL     OW23332   0.277   1.130   5.663
 7478SOL    HW123333   0.338   1.210   5.665
 7478SOL    HW223334   0.231   1.125   5.574
 7479SOL     OW23335   5.294   2.847   1.014
 7479SOL    HW123336   5.207   2.877   0.976
 7479SOL    HW223337   5.277   2.781   1.087
 7480SOL     OW23338   3.680   4.910   2.489
 7480SOL    HW123339   3.766   4.862   2.503
 7480SOL    HW223340   3.648   4.895   2.396
 7481SOL     OW23341   0.141   3.726   6.765
 7481SOL    HW123342   0.143   3.807   6.823
 7481SOL    HW223343   0.090   3.746   6.681
 7482SOL     OW23344   5.308   1.971   2.914
 7482SOL    HW123345   5.224   1.918   2.926
 7482SOL    HW223346   5.340   2.004   3.002
 7483SOL     OW23347   4.695   2.050   5.666
 7483SOL    HW123348   4.650   2.010   5.586
 7483SOL    HW223349   4.628   2.104   5.717
 7484SOL     OW23350   2.965   0.210   4.024
 7484SOL    HW123351   3.023   0.147   4.075
 7484SOL    HW223352   2.954   0.294   4.077
 7485SOL     OW23353   3.641   6.559   6.329
 7485SOL    HW123354   3.621   6.526   6.422
 7485SOL    HW223355   3.723   6.617   6.332
 7486SOL     OW23356   2.644   6.363   0.888
 7486SOL    HW123357   2.651   6.454   0.928
 7486SOL    HW223358   2.710   6.302   0.931
 7487SOL     OW23359   3.508   6.302   4.550
 7487SOL    HW123360   3.591   6.282   4.602
 7487SOL    HW223361   3.488   6.400   4.556
 7488SOL     OW23362   0.836   5.566   4.290
 7488SOL    HW123363   0.786   5.534   4.209
 7488SOL    HW223364   0.896   5.642   4.265
 7489SOL     OW23365   5.364   3.153   6.655
 7489SOL    HW123366   5.421   3.070   6.663
 7489SOL    HW223367   5.384   3.197   6.568
 7490SOL     OW23368   1.138   2.909   2.526
 7490SOL    HW123369   1.155   2.966   2.606
 7490SOL    HW223370   1.069   2.952   2.468
 7491SOL     OW23371   4.151   3.998   0.032
 7491SOL    HW123372   4.135   3.908   7.018
 7491SOL    HW223373   4.245   4.027   0.014
 7492SOL     OW23374   1.481   0.310   4.067
 7492SOL    HW123375   1.489   0.239   4.137
 7492SOL    HW223376   1.535   0.389   4.094
 7493SOL     OW23377   6.657   4.556   5.075
 7493SOL    HW123378   6.739   4.514   5.113
 7493SOL    HW223379   6.651   4.651   5.107
 7494SOL     OW23380   6.630   1.318   1.887
 7494SOL    HW123381   6.552   1.256   1.881
 7494SOL    HW223382   6.598   1.412   1.897
 7495SOL     OW23383   1.415   3.084   4.786
 7495SOL    HW123384   1.472   3.008   4.815
 7495SOL    HW223385   1.330   3.049   4.746
 7496SOL     OW23386   5.722   3.968   2.305
 7496SOL    HW123387   5.760   4.049   2.261
 7496SOL    HW223388   5.680   3.995   2.392
 7497SOL     OW23389   6.776   6.896   1.425
 7497SOL    HW123390   6.819   6.813   1.459
 7497SOL    HW223391   6.836   6.974   1.441
 7498SOL     OW23392   3.006   6.293   3.161
 7498SOL    HW123393   3.078   6.231   3.190
 7498SOL    HW223394   3.014   6.380   3.210
 7499SOL     OW23395   3.005   1.483   3.917
 7499SOL    HW123396   2.928   1.421   3.926
 7499SOL    HW223397   2.998   1.556   3.985
 7500SOL     OW23398   4.133   0.842   3.095
 7500SOL    HW123399   4.102   0.797   3.178
 7500SOL    HW223400   4.232   0.853   3.098
 7501SOL     OW23401   6.640   2.570   5.585
 7501SOL    HW123402   6.739   2.584   5.584
 7501SOL    HW223403   6.603   2.587   5.493
 7502SOL     OW23404   4.374   0.697   4.185
 7502SOL    HW123405   4.411   0.621   4.131
 7502SOL    HW223406   4.430   0.710   4.267
 7503SOL     OW23407   2.020   5.505   2.165
 7503SOL    HW123408   2.055   5.560   2.089
 7503SOL    HW223409   2.024   5.558   2.250
 7504SOL     OW23410   6.008   6.310   4.820
 7504SOL    HW123411   6.083   6.311   4.754
 7504SOL    HW223412   5.942   6.239   4.796
 7505SOL     OW23413   0.060   6.671   4.891
 7505SOL    HW123414   0.073   6.745   4.957
 7505SOL    HW223415   0.106   6.588   4.925
 7506SOL     OW23416   3.841   1.871   3.974
 7506SOL    HW123417   3.853   1.969   3.961
 7506SOL    HW223418   3.903   1.821   3.913
 7507SOL     OW23419   5.929   4.605   5.783
 7507SOL    HW123420   5.852   4.629   5.723
 7507SOL    HW223421   6.011   4.653   5.752
 7508SOL     OW23422   2.760   5.873   0.160
 7508SOL    HW123423   2.754   5.906   0.254
 7508SOL    HW223424   2.802   5.782   0.159
 7509SOL     OW23425   5.929   4.892   2.254
 7509SOL    HW123426   5.946   4.899   2.156
 7509SOL    HW223427   5.933   4.983   2.295
 7510SOL     OW23428   3.111   3.916   2.367
 7510SOL    HW123429   3.070   3.859   2.296
 7510SOL    HW223430   3.203   3.883   2.388
 7511SOL     OW23431   4.720   6.843   4.184
 7511SOL    HW123432   4.635   6.801   4.152
 7511SOL    HW223433   4.768   6.885   4.107
 7512SOL     OW23434   3.788   1.114   0.524
 7512SOL    HW123435   3.714   1.079   0.466
 7512SOL    HW223436   3.823   1.040   0.581
 7513SOL     OW23437   1.577   1.971   2.235
 7513SOL    HW123438   1.579   1.893   2.173
 7513SOL    HW223439   1.670   2.001   2.255
 7514SOL     OW23440   1.231   6.092   1.854
 7514SOL    HW123441   1.309   6.030   1.848
 7514SOL    HW223442   1.264   6.186   1.860
 7515SOL     OW23443   0.757   4.801   5.123
 7515SOL    HW123444   0.711   4.793   5.035
 7515SOL    HW223445   0.856   4.807   5.109
 7516SOL     OW23446   1.748   6.242   5.487
 7516SOL    HW123447   1.786   6.289   5.567
 7516SOL    HW223448   1.823   6.212   5.428
 7517SOL     OW23449   1.372   1.861   6.050
 7517SOL    HW123450   1.303   1.872   5.979
 7517SOL    HW223451   1.349   1.782   6.107
 7518SOL     OW23452   4.950   2.136   4.221
 7518SOL    HW123453   4.907   2.046   4.220
 7518SOL    HW223454   4.925   2.185   4.137
 7519SOL     OW23455   3.696   5.996   4.121
 7519SOL    HW123456   3.630   5.921   4.118
 7519SOL    HW223457   3.762   5.980   4.195
 7520SOL     OW23458   1.544   1.973   0.460
 7520SOL    HW123459   1.599   1.957   0.378
 7520SOL    HW223460   1.582   2.050   0.511
 7521SOL     OW23461   4.097   1.473   5.259
 7521SOL    HW123462   4.098   1.450   5.357
 7521SOL    HW223463   4.004   1.498   5.233
 7522SOL     OW23464   1.794   0.147   3.286
 7522SOL    HW123465   1.869   0.124   3.223
 7522SOL    HW223466   1.775   0.245   3.281
 7523SOL     OW23467   5.505   0.901   0.733
 7523SOL    HW123468   5.524   0.888   0.635
 7523SOL    HW223469   5.512   0.813   0.780
 7524SOL     OW23470   0.768   3.468   4.265
 7524SOL    HW123471   0.811   3.547   4.309
 7524SOL    HW223472   0.669   3.480   4.263
 7525SOL     OW23473   3.846   5.277   6.283
 7525SOL    HW123474   3.913   5.316   6.346
 7525SOL    HW223475   3.892   5.220   6.215
 7526SOL     OW23476   2.343   3.820   1.269
 7526SOL    HW123477   2.277   3.873   1.215
 7526SOL    HW223478   2.436   3.845   1.241
 7527SOL     OW23479   3.860   5.225   3.285
 7527SOL    HW123480   3.828   5.255   3.375
 7527SOL    HW223481   3.789   5.169   3.242
 7528SOL     OW23482   6.814   2.723   6.100
 7528SOL    HW123483   6.909   2.717   6.130
 7528SOL    HW223484   6.804   2.680   6.010
 7529SOL     OW23485   6.091   3.587   4.012
 7529SOL    HW123486   6.085   3.523   3.935
 7529SOL    HW223487   6.135   3.542   4.089
 7530SOL     OW23488   0.762   2.330   1.701
 7530SOL    HW123489   0.686   2.294   1.646
 7530SOL    HW223490   0.735   2.330   1.798
 7531SOL     OW23491   4.091   2.043   4.107
 7531SOL    HW123492   4.099   2.021   4.010
 7531SOL    HW223493   3.994   2.045   4.132
 7532SOL     OW23494   4.817   5.496   6.248
 7532SOL    HW123495   4.838   5.436   6.171
 7532SOL    HW223496   4.896   5.502   6.308
 7533SOL     OW23497   4.268   4.474   1.746
 7533SOL    HW123498   4.192   4.418   1.714
 7533SOL    HW223499   4.330   4.418   1.801
 7534SOL     OW23500   4.123   6.923   4.941
 7534SOL    HW123501   4.070   6.951   5.021
 7534SOL    HW223502   4.098   6.979   4.862
 7535SOL     OW23503   0.713   6.657   4.075
 7535SOL    HW123504   0.727   6.740   4.129
 7535SOL    HW223505   0.619   6.656   4.040
 7536SOL     OW23506   5.882   6.320   4.378
 7536SOL    HW123507   5.806   6.303   4.441
 7536SOL    HW223508   5.887   6.246   4.312
 7537SOL     OW23509   2.263   6.363   2.761
 7537SOL    HW123510   2.326   6.430   2.719
 7537SOL    HW223511   2.269   6.370   2.861
 7538SOL     OW23512   0.652   3.833   0.542
 7538SOL    HW123513   0.733   3.890   0.556
 7538SOL    HW223514   0.581   3.859   0.607
 7539SOL     OW23515   6.803   0.455   4.645
 7539SOL    HW123516   6.717   0.460   4.697
 7539SOL    HW223517   6.782   0.428   4.551
 7540SOL     OW23518   5.617   5.131   2.960
 7540SOL    HW123519   5.677   5.198   3.004
 7540SOL    HW223520   5.575   5.072   3.029
 7541SOL     OW23521   2.683   3.903   5.754
 7541SOL    HW123522   2.668   3.875   5.849
 7541SOL    HW223523   2.598   3.941   5.716
 7542SOL     OW23524   6.014   5.590   4.634
 7542SOL    HW123525   5.929   5.539   4.653
 7542SOL    HW223526   6.040   5.642   4.716
 7543SOL     OW23527   2.800   0.997   6.706
 7543SOL    HW123528   2.803   1.090   6.743
 7543SOL    HW223529   2.708   0.960   6.715
 7544SOL     OW23530   6.538   1.518   4.324
 7544SOL    HW123531   6.605   1.447   4.349
 7544SOL    HW223532   6.500   1.558   4.407
 7545SOL     OW23533   1.609   5.503   5.772
 7545SOL    HW123534   1.618   5.594   5.730
 7545SOL    HW223535   1.696   5.476   5.812
 7546SOL     OW23536   2.390   2.654   2.014
 7546SOL    HW123537   2.414   2.595   2.091
 7546SOL    HW223538   2.463   2.649   1.945
 7547SOL     OW23539   4.080   0.290   1.568
 7547SOL    HW123540   4.008   0.220   1.567
 7547SOL    HW223541   4.078   0.341   1.482
 7548SOL     OW23542   3.852   3.172   6.245
 7548SOL    HW123543   3.857   3.269   6.223
 7548SOL    HW223544   3.886   3.119   6.167
 7549SOL     OW23545   5.395   1.396   4.444
 7549SOL    HW123546   5.374   1.490   4.474
 7549SOL    HW223547   5.492   1.378   4.459
 7550SOL     OW23548   2.775   4.979   4.420
 7550SOL    HW123549   2.687   5.010   4.383
 7550SOL    HW223550   2.846   5.045   4.397
 7551SOL     OW23551   6.694   2.462   6.277
 7551SOL    HW123552   6.773   2.401   6.265
 7551SOL    HW223553   6.723   2.556   6.260
 7552SOL     OW23554   2.311   7.021   5.267
 7552SOL    HW123555   2.300   0.018   5.171
 7552SOL    HW223556   2.271   0.066   5.324
 7553SOL     OW23557   5.744   6.273   5.487
 7553SOL    HW123558   5.650   6.247   5.509
 7553SOL    HW223559   5.807   6.203   5.521
 7554SOL     OW23560   4.634   1.410   0.683
 7554SOL    HW123561   4.643   1.368   0.593
 7554SOL    HW223562   4.724   1.429   0.720
 7555SOL     OW23563   4.533   5.436   4.195
 7555SOL    HW123564   4.463   5.446   4.125
 7555SOL    HW223565   4.572   5.525   4.217
 7556SOL     OW23566   0.529   6.717   1.876
 7556SOL    HW123567   0.459   6.687   1.941
 7556SOL    HW223568   0.486   6.743   1.789
 7557SOL     OW23569   4.995   6.986   1.081
 7557SOL    HW123570   5.003   6.920   1.007
 7557SOL    HW223571   4.946   6.944   1.158
 7558SOL     OW23572   0.735   1.808   3.995
 7558SOL    HW123573   0.728   1.864   3.912
 7558SOL    HW223574   0.827   1.770   4.002
 7559SOL     OW23575   2.782   1.895   5.194
 7559SOL    HW123576   2.870   1.934   5.223
 7559SOL    HW223577   2.762   1.924   5.100
 7560SOL     OW23578   1.384   1.516   6.033
 7560SOL    HW123579   1.421   1.551   5.947
 7560SOL    HW223580   1.452   1.529   6.105
 7561SOL     OW23581   6.171   1.735   5.711
 7561SOL    HW123582   6.218   1.668   5.654
 7561SOL    HW223583   6.093   1.692   5.756
 7562SOL     OW23584   1.964   5.649   3.385
 7562SOL    HW123585   2.003   5.727   3.337
 7562SOL    HW223586   1.968   5.665   3.484
 7563SOL     OW23587   3.833   5.782   2.132
 7563SOL    HW123588   3.742   5.760   2.098
 7563SOL    HW223589   3.889   5.817   2.056
 7564SOL     OW23590   3.830   1.563   5.426
 7564SOL    HW123591   3.766   1.620   5.375
 7564SOL    HW223592   3.809   1.569   5.524
 7565SOL     OW23593   6.337   3.745   5.935
 7565SOL    HW123594   6.332   3.825   5.875
 7565SOL    HW223595   6.328   3.775   6.031
 7566SOL     OW23596   4.282   4.729   1.617
 7566SOL    HW123597   4.377   4.748   1.642
 7566SOL    HW223598   4.264   4.631   1.630
 7567SOL     OW23599   0.757   6.911   4.218
 7567SOL    HW123600   0.855   6.917   4.197
 7567SOL    HW223601   0.722   7.002   4.238
 7568SOL     OW23602   6.067   5.541   1.251
 7568SOL    HW123603   6.033   5.472   1.315
 7568SOL    HW223604   6.103   5.619   1.302
 7569SOL     OW23605   4.932   3.458   0.423
 7569SOL    HW123606   4.988   3.444   0.341
 7569SOL    HW223607   4.844   3.498   0.396
 7570SOL     OW23608   0.653   3.627   2.354
 7570SOL    HW123609   0.623   3.640   2.448
 7570SOL    HW223610   0.584   3.577   2.303
 7571SOL     OW23611   4.941   2.164   2.330
 7571SOL    HW123612   4.898   2.237   2.277
 7571SOL    HW223613   4.893   2.078   2.314
 7572SOL     OW23614   4.549   0.331   3.609
 7572SOL    HW123615   4.485   0.352   3.683
 7572SOL    HW223616   4.502   0.276   3.539
 7573SOL     OW23617   4.062   6.504   6.095
 7573SOL    HW123618   4.105   6.451   6.169
 7573SOL    HW223619   3.988   6.559   6.133
 7574SOL     OW23620   0.874   2.734   3.773
 7574SOL    HW123621   0.822   2.785   3.842
 7574SOL    HW223622   0.967   2.719   3.807
 7575SOL     OW23623   0.268   6.588   2.349
 7575SOL    HW123624   0.264   6.575   2.250
 7575SOL    HW223625   0.184   6.632   2.380
 7576SOL     OW23626   5.124   2.713   0.538
 7576SOL    HW123627   5.134   2.723   0.439
 7576SOL    HW223628   5.156   2.622   0.565
 7577SOL     OW23629   1.095   0.168   0.390
 7577SOL    HW123630   1.161   0.112   0.439
 7577SOL    HW223631   1.042   0.111   0.326
 7578SOL     OW23632   6.461   6.037   3.335
 7578SOL    HW123633   6.513   6.005   3.255
 7578SOL    HW223634   6.438   5.958   3.393
 7579SOL     OW23635   0.707   1.562   6.618
 7579SOL    HW123636   0.634   1.629   6.631
 7579SOL    HW223637   0.699   1.490   6.687
 7580SOL     OW23638   2.048   4.867   3.750
 7580SOL    HW123639   1.978   4.915   3.698
 7580SOL    HW223640   2.014   4.776   3.776
 7581SOL     OW23641   6.994   0.936   2.304
 7581SOL    HW123642   6.998   0.905   2.209
 7581SOL    HW223643   6.974   1.034   2.306
 7582SOL     OW23644   2.315   1.766   6.421
 7582SOL    HW123645   2.377   1.794   6.494
 7582SOL    HW223646   2.262   1.845   6.390
 7583SOL     OW23647   5.124   2.946   3.098
 7583SOL    HW123648   5.151   3.031   3.053
 7583SOL    HW223649   5.171   2.938   3.186
 7584SOL     OW23650   0.441   1.055   3.180
 7584SOL    HW123651   0.384   0.985   3.138
 7584SOL    HW223652   0.485   1.109   3.108
 7585SOL     OW23653   0.910   1.386   6.264
 7585SOL    HW123654   0.935   1.318   6.195
 7585SOL    HW223655   0.972   1.464   6.258
 7586SOL     OW23656   1.786   0.509   2.782
 7586SOL    HW123657   1.767   0.533   2.687
 7586SOL    HW223658   1.744   0.420   2.803
 7587SOL     OW23659   4.318   0.454   0.795
 7587SOL    HW123660   4.313   0.356   0.812
 7587SOL    HW223661   4.367   0.499   0.871
 7588SOL     OW23662   2.324   2.568   4.757
 7588SOL    HW123663   2.303   2.470   4.760
 7588SOL    HW223664   2.410   2.585   4.804
 7589SOL     OW23665   0.581   0.421   2.520
 7589SOL    HW123666   0.581   0.474   2.435
 7589SOL    HW223667   0.564   0.483   2.597
 7590SOL     OW23668   6.480   0.812   0.177
 7590SOL    HW123669   6.488   0.819   0.078
 7590SOL    HW223670   6.410   0.874   0.210
 7591SOL     OW23671   3.761   2.981   4.596
 7591SOL    HW123672   3.826   3.042   4.641
 7591SOL    HW223673   3.724   2.917   4.663
 7592SOL     OW23674   6.589   6.842   4.395
 7592SOL    HW123675   6.680   6.801   4.398
 7592SOL    HW223676   6.538   6.803   4.319
 7593SOL     OW23677   0.595   1.467   5.455
 7593SOL    HW123678   0.554   1.542   5.403
 7593SOL    HW223679   0.557   1.380   5.423
 7594SOL     OW23680   0.108   4.041   6.786
 7594SOL    HW123681   0.083   4.027   6.881
 7594SOL    HW223682   0.196   4.089   6.781
 7595SOL     OW23683   1.041   3.643   6.812
 7595SOL    HW123684   0.967   3.710   6.809
 7595SOL    HW223685   1.023   3.577   6.885
 7596SOL     OW23686   2.889   1.694   6.001
 7596SOL    HW123687   2.847   1.705   5.910
 7596SOL    HW223688   2.818   1.686   6.070
 7597SOL     OW23689   1.234   4.915   1.482
 7597SOL    HW123690   1.311   4.879   1.535
 7597SOL    HW223691   1.249   5.013   1.463
 7598SOL     OW23692   6.095   0.912   2.383
 7598SOL    HW123693   6.152   0.878   2.308
 7598SOL    HW223694   6.137   0.889   2.470
 7599SOL     OW23695   3.293   4.034   1.240
 7599SOL    HW123696   3.304   4.032   1.339
 7599SOL    HW223697   3.244   3.953   1.210
 7600SOL     OW23698   1.621   6.417   4.133
 7600SOL    HW123699   1.577   6.471   4.205
 7600SOL    HW223700   1.685   6.475   4.082
 7601SOL     OW23701   3.138   6.709   2.451
 7601SOL    HW123702   3.099   6.729   2.541
 7601SOL    HW223703   3.182   6.791   2.415
 7602SOL     OW23704   0.433   1.348   1.078
 7602SOL    HW123705   0.391   1.259   1.096
 7602SOL    HW223706   0.505   1.364   1.145
 7603SOL     OW23707   3.600   0.566   6.112
 7603SOL    HW123708   3.662   0.554   6.035
 7603SOL    HW223709   3.622   0.652   6.160
 7604SOL     OW23710   0.691   2.402   5.021
 7604SOL    HW123711   0.782   2.427   4.988
 7604SOL    HW223712   0.634   2.373   4.945
 7605SOL     OW23713   1.996   5.953   6.983
 7605SOL    HW123714   1.915   5.966   6.926
 7605SOL    HW223715   1.969   5.940   0.052
 7606SOL     OW23716   6.944   1.027   3.085
 7606SOL    HW123717   7.026   0.973   3.063
 7606SOL    HW223718   6.967   1.093   3.156
 7607SOL     OW23719   2.016   6.085   5.580
 7607SOL    HW123720   1.959   6.128   5.651
 7607SOL    HW223721   2.019   5.986   5.595
 7608SOL     OW23722   6.066   2.357   6.410
 7608SOL    HW123723   6.034   2.264   6.396
 7608SOL    HW223724   6.126   2.384   6.335
 7609SOL     OW23725   1.664   1.685   4.868
 7609SOL    HW123726   1.717   1.604   4.844
 7609SOL    HW223727   1.632   1.676   4.963
 7610SOL     OW23728   4.101   5.298   4.463
 7610SOL    HW123729   4.054   5.386   4.458
 7610SOL    HW223730   4.114   5.262   4.370
 7611SOL     OW23731   4.913   2.990   0.523
 7611SOL    HW123732   4.976   3.067   0.517
 7611SOL    HW223733   4.840   3.012   0.588
 7612SOL     OW23734   4.158   1.809   2.723
 7612SOL    HW123735   4.191   1.763   2.805
 7612SOL    HW223736   4.059   1.801   2.718
 7613SOL     OW23737   0.811   1.061   1.155
 7613SOL    HW123738   0.851   1.068   1.246
 7613SOL    HW223739   0.872   1.103   1.088
 7614SOL     OW23740   5.431   3.935   6.955
 7614SOL    HW123741   5.406   3.895   0.016
 7614SOL    HW223742   5.437   3.863   6.886
 7615SOL     OW23743   5.979   3.176   4.837
 7615SOL    HW123744   5.912   3.105   4.815
 7615SOL    HW223745   6.071   3.135   4.837
 7616SOL     OW23746   6.205   0.348   3.298
 7616SOL    HW123747   6.304   0.367   3.300
 7616SOL    HW223748   6.171   0.362   3.205
 7617SOL     OW23749   6.215   4.084   3.641
 7617SOL    HW123750   6.285   4.155   3.628
 7617SOL    HW223751   6.216   4.022   3.562
 7618SOL     OW23752   2.158   2.660   0.586
 7618SOL    HW123753   2.189   2.755   0.590
 7618SOL    HW223754   2.190   2.618   0.501
 7619SOL     OW23755   1.763   1.639   4.434
 7619SOL    HW123756   1.726   1.715   4.382
 7619SOL    HW223757   1.862   1.634   4.422
 7620SOL     OW23758   3.625   5.008   1.255
 7620SOL    HW123759   3.654   5.037   1.346
 7620SOL    HW223760   3.568   5.080   1.214
 7621SOL     OW23761   6.220   3.977   0.098
 7621SOL    HW123762   6.125   3.968   0.069
 7621SOL    HW223763   6.249   3.894   0.146
 7622SOL     OW23764   3.171   3.802   1.618
 7622SOL    HW123765   3.144   3.736   1.548
 7622SOL    HW223766   3.209   3.753   1.697
 7623SOL     OW23767   5.095   4.135   1.670
 7623SOL    HW123768   5.090   4.035   1.674
 7623SOL    HW223769   5.042   4.174   1.745
 7624SOL     OW23770   1.075   3.765   2.425
 7624SOL    HW123771   1.107   3.806   2.510
 7624SOL    HW223772   1.062   3.667   2.437
 7625SOL     OW23773   5.169   0.636   1.811
 7625SOL    HW123774   5.082   0.593   1.835
 7625SOL    HW223775   5.167   0.666   1.715
 7626SOL     OW23776   4.604   0.409   6.273
 7626SOL    HW123777   4.556   0.493   6.298
 7626SOL    HW223778   4.546   0.330   6.294
 7627SOL     OW23779   3.994   3.245   6.580
 7627SOL    HW123780   4.062   3.315   6.603
 7627SOL    HW223781   4.013   3.209   6.489
 7628SOL     OW23782   3.433   2.492   0.560
 7628SOL    HW123783   3.426   2.526   0.466
 7628SOL    HW223784   3.528   2.473   0.582
 7629SOL     OW23785   5.490   2.575   2.843
 7629SOL    HW123786   5.464   2.658   2.894
 7629SOL    HW223787   5.452   2.495   2.889
 7630SOL     OW23788   1.106   6.710   4.413
 7630SOL    HW123789   1.180   6.764   4.372
 7630SOL    HW223790   1.055   6.663   4.342
 7631SOL     OW23791   0.814   0.428   5.683
 7631SOL    HW123792   0.850   0.470   5.599
 7631SOL    HW223793   0.791   0.500   5.749
 7632SOL     OW23794   4.605   5.514   0.080
 7632SOL    HW123795   4.546   5.585   0.041
 7632SOL    HW223796   4.641   5.457   0.007
 7633SOL     OW23797   6.139   1.249   1.399
 7633SOL    HW123798   6.068   1.319   1.390
 7633SOL    HW223799   6.197   1.250   1.317
 7634SOL     OW23800   6.905   2.070   6.719
 7634SOL    HW123801   6.909   2.065   6.619
 7634SOL    HW223802   6.945   1.988   6.758
 7635SOL     OW23803   2.342   3.112   5.720
 7635SOL    HW123804   2.260   3.056   5.713
 7635SOL    HW223805   2.338   3.186   5.653
 7636SOL     OW23806   0.117   3.615   4.637
 7636SOL    HW123807   0.174   3.534   4.648
 7636SOL    HW223808   0.039   3.593   4.579
 7637SOL     OW23809   1.233   5.011   4.981
 7637SOL    HW123810   1.306   5.023   4.914
 7637SOL    HW223811   1.165   5.084   4.971
 7638SOL     OW23812   0.340   6.024   1.487
 7638SOL    HW123813   0.294   5.959   1.425
 7638SOL    HW223814   0.432   5.990   1.508
 7639SOL     OW23815   1.821   1.044   0.142
 7639SOL    HW123816   1.854   0.954   0.113
 7639SOL    HW223817   1.722   1.049   0.130
 7640SOL     OW23818   3.275   1.124   0.945
 7640SOL    HW123819   3.212   1.192   0.984
 7640SOL    HW223820   3.225   1.040   0.927
 7641SOL     OW23821   0.478   4.007   4.178
 7641SOL    HW123822   0.451   4.083   4.119
 7641SOL    HW223823   0.479   3.922   4.124
 7642SOL     OW23824   5.485   0.811   3.197
 7642SOL    HW123825   5.496   0.729   3.253
 7642SOL    HW223826   5.535   0.800   3.111
 7643SOL     OW23827   5.410   3.319   4.022
 7643SOL    HW123828   5.440   3.253   4.092
 7643SOL    HW223829   5.341   3.276   3.964
 7644SOL     OW23830   5.079   3.701   1.373
 7644SOL    HW123831   5.062   3.769   1.301
 7644SOL    HW223832   5.177   3.698   1.393
 7645SOL     OW23833   3.493   4.664   6.945
 7645SOL    HW123834   3.422   4.682   7.014
 7645SOL    HW223835   3.486   4.570   6.914
 7646SOL     OW23836   6.337   1.746   0.404
 7646SOL    HW123837   6.286   1.798   0.335
 7646SOL    HW223838   6.434   1.763   0.394
 7647SOL     OW23839   0.283   2.326   3.881
 7647SOL    HW123840   0.276   2.253   3.949
 7647SOL    HW223841   0.232   2.301   3.799
 7648SOL     OW23842   2.262   2.276   1.837
 7648SOL    HW123843   2.350   2.253   1.794
 7648SOL    HW223844   2.277   2.299   1.933
 7649SOL     OW23845   3.987   1.274   6.592
 7649SOL    HW123846   3.891   1.282   6.620
 7649SOL    HW223847   4.003   1.333   6.513
 7650SOL     OW23848   4.154   2.618   0.432
 7650SOL    HW123849   4.208   2.638   0.513
 7650SOL    HW223850   4.182   2.531   0.393
 7651SOL     OW23851   3.634   4.798   6.475
 7651SOL    HW123852   3.628   4.704   6.510
 7651SOL    HW223853   3.672   4.796   6.382
 7652SOL     OW23854   1.346   0.645   3.964
 7652SOL    HW123855   1.394   0.674   4.047
 7652SOL    HW223856   1.278   0.576   3.987
 7653SOL     OW23857   2.221   0.659   6.686
 7653SOL    HW123858   2.311   0.691   6.655
 7653SOL    HW223859   2.153   0.678   6.615
 7654SOL     OW23860   6.227   1.795   6.301
 7654SOL    HW123861   6.136   1.761   6.279
 7654SOL    HW223862   6.219   1.881   6.351
 7655SOL     OW23863   3.737   1.657   3.806
 7655SOL    HW123864   3.783   1.733   3.853
 7655SOL    HW223865   3.804   1.589   3.777
 7656SOL     OW23866   6.388   3.988   6.924
 7656SOL    HW123867   6.324   3.952   6.992
 7656SOL    HW223868   6.348   4.068   6.880
 7657SOL     OW23869   1.282   4.093   4.931
 7657SOL    HW123870   1.203   4.052   4.977
 7657SOL    HW223871   1.366   4.064   4.977
 7658SOL     OW23872   2.565   0.674   0.997
 7658SOL    HW123873   2.595   0.763   1.032
 7658SOL    HW223874   2.515   0.625   1.069
 7659SOL     OW23875   4.883   3.933   5.750
 7659SOL    HW123876   4.816   3.859   5.757
 7659SOL    HW223877   4.953   3.921   5.820
 7660SOL     OW23878   6.756   5.346   5.381
 7660SOL    HW123879   6.658   5.329   5.382
 7660SOL    HW223880   6.805   5.261   5.399
 7661SOL     OW23881   3.877   1.605   5.076
 7661SOL    HW123882   3.780   1.605   5.052
 7661SOL    HW223883   3.910   1.699   5.084
 7662SOL     OW23884   6.586   6.173   1.283
 7662SOL    HW123885   6.529   6.094   1.302
 7662SOL    HW223886   6.536   6.257   1.307
 7663SOL     OW23887   0.350   5.324   5.243
 7663SOL    HW123888   0.344   5.331   5.343
 7663SOL    HW223889   0.287   5.390   5.202
 7664SOL     OW23890   3.910   2.153   2.463
 7664SOL    HW123891   3.818   2.168   2.498
 7664SOL    HW223892   3.975   2.148   2.540
 7665SOL     OW23893   3.760   0.693   5.667
 7665SOL    HW123894   3.702   0.736   5.597
 7665SOL    HW223895   3.856   0.706   5.643
 7666SOL     OW23896   5.279   4.293   3.591
 7666SOL    HW123897   5.339   4.225   3.551
 7666SOL    HW223898   5.317   4.324   3.678
 7667SOL     OW23899   4.355   6.208   2.656
 7667SOL    HW123900   4.360   6.292   2.602
 7667SOL    HW223901   4.388   6.225   2.749
 7668SOL     OW23902   2.024   5.621   1.017
 7668SOL    HW123903   2.033   5.720   1.015
 7668SOL    HW223904   2.008   5.591   1.111
 7669SOL     OW23905   2.239   1.081   6.553
 7669SOL    HW123906   2.159   1.133   6.523
 7669SOL    HW223907   2.278   1.125   6.634
 7670SOL     OW23908   0.794   0.207   1.097
 7670SOL    HW123909   0.741   0.239   1.018
 7670SOL    HW223910   0.755   0.120   1.129
 7671SOL     OW23911   3.186   6.859   1.039
 7671SOL    HW123912   3.093   6.895   1.053
 7671SOL    HW223913   3.184   6.789   0.967
 7672SOL     OW23914   4.928   4.442   2.035
 7672SOL    HW123915   4.871   4.524   2.025
 7672SOL    HW223916   5.004   4.463   2.097
 7673SOL     OW23917   1.531   6.318   4.848
 7673SOL    HW123918   1.487   6.268   4.923
 7673SOL    HW223919   1.504   6.414   4.852
 7674SOL     OW23920   4.853   6.114   4.457
 7674SOL    HW123921   4.932   6.060   4.430
 7674SOL    HW223922   4.780   6.102   4.389
 7675SOL     OW23923   5.123   6.268   3.267
 7675SOL    HW123924   5.115   6.169   3.281
 7675SOL    HW223925   5.151   6.286   3.173
 7676SOL     OW23926   3.734   2.891   5.536
 7676SOL    HW123927   3.680   2.936   5.607
 7676SOL    HW223928   3.796   2.958   5.494
 7677SOL     OW23929   6.475   4.708   6.781
 7677SOL    HW123930   6.469   4.647   6.861
 7677SOL    HW223931   6.506   4.655   6.702
 7678SOL     OW23932   2.681   1.333   5.255
 7678SOL    HW123933   2.751   1.281   5.207
 7678SOL    HW223934   2.721   1.379   5.334
 7679SOL     OW23935   3.661   5.710   4.958
 7679SOL    HW123936   3.703   5.750   4.876
 7679SOL    HW223937   3.732   5.665   5.013
 7680SOL     OW23938   2.030   0.154   4.423
 7680SOL    HW123939   2.081   0.237   4.403
 7680SOL    HW223940   2.077   0.075   4.385
 7681SOL     OW23941   2.305   2.854   6.132
 7681SOL    HW123942   2.385   2.799   6.155
 7681SOL    HW223943   2.334   2.933   6.077
 7682SOL     OW23944   3.089   0.816   3.003
 7682SOL    HW123945   3.170   0.814   2.946
 7682SOL    HW223946   3.020   0.753   2.966
 7683SOL     OW23947   0.453   4.413   4.412
 7683SOL    HW123948   0.385   4.372   4.352
 7683SOL    HW223949   0.475   4.505   4.379
 7684SOL     OW23950   5.082   3.222   1.394
 7684SOL    HW123951   5.066   3.170   1.478
 7684SOL    HW223952   5.153   3.177   1.340
 7685SOL     OW23953   2.656   0.440   0.594
 7685SOL    HW123954   2.683   0.498   0.518
 7685SOL    HW223955   2.577   0.479   0.640
 7686SOL     OW23956   6.761   6.836   4.990
 7686SOL    HW123957   6.706   6.918   5.006
 7686SOL    HW223958   6.820   6.850   4.910
 7687SOL     OW23959   5.537   3.907   6.008
 7687SOL    HW123960   5.458   3.853   5.978
 7687SOL    HW223961   5.551   3.894   6.106
 7688SOL     OW23962   6.796   3.497   6.379
 7688SOL    HW123963   6.837   3.424   6.434
 7688SOL    HW223964   6.809   3.584   6.425
 7689SOL     OW23965   4.595   1.067   2.071
 7689SOL    HW123966   4.546   0.981   2.058
 7689SOL    HW223967   4.610   1.111   1.982
 7690SOL     OW23968   6.267   5.193   2.237
 7690SOL    HW123969   6.338   5.248   2.281
 7690SOL    HW223970   6.299   5.164   2.147
 7691SOL     OW23971   4.890   3.221   3.897
 7691SOL    HW123972   4.847   3.155   3.958
 7691SOL    HW223973   4.906   3.179   3.808
 7692SOL     OW23974   3.001   6.738   2.683
 7692SOL    HW123975   2.995   6.645   2.719
 7692SOL    HW223976   2.917   6.760   2.633
 7693SOL     OW23977   2.768   0.737   1.706
 7693SOL    HW123978   2.855   0.779   1.681
 7693SOL    HW223979   2.730   0.783   1.786
 7694SOL     OW23980   4.493   1.258   5.982
 7694SOL    HW123981   4.445   1.268   5.895
 7694SOL    HW223982   4.584   1.222   5.967
 7695SOL     OW23983   4.674   0.190   3.326
 7695SOL    HW123984   4.601   0.210   3.391
 7695SOL    HW223985   4.671   0.093   3.301
 7696SOL     OW23986   2.135   2.848   5.898
 7696SOL    HW123987   2.179   2.836   5.987
 7696SOL    HW223988   2.192   2.807   5.827
 7697SOL     OW23989   5.783   7.010   3.478
 7697SOL    HW123990   5.790   0.046   3.400
 7697SOL    HW223991   5.787   0.036   3.563
 7698SOL     OW23992   6.239   3.196   0.984
 7698SOL    HW123993   6.337   3.183   0.967
 7698SOL    HW223994   6.225   3.221   1.080
 7699SOL     OW23995   4.595   6.017   5.319
 7699SOL    HW123996   4.585   5.973   5.408
 7699SOL    HW223997   4.685   6.061   5.313
 7700SOL     OW23998   5.209   5.862   1.899
 7700SOL    HW123999   5.251   5.788   1.952
 7700SOL    HW224000   5.275   5.936   1.889
 7701SOL     OW24001   1.429   2.341   6.285
 7701SOL    HW124002   1.469   2.407   6.349
 7701SOL    HW224003   1.366   2.389   6.223
 7702SOL     OW24004   4.835   0.087   4.728
 7702SOL    HW124005   4.840   0.030   4.809
 7702SOL    HW224006   4.740   0.099   4.700
 7703SOL     OW24007   0.080   6.902   5.388
 7703SOL    HW124008   0.152   6.900   5.318
 7703SOL    HW224009   7.018   6.885   5.345
 7704SOL     OW24010   0.806   1.744   4.766
 7704SOL    HW124011   0.771   1.682   4.836
 7704SOL    HW224012   0.742   1.819   4.753
 7705SOL     OW24013   1.268   5.347   0.037
 7705SOL    HW124014   1.203   5.406   0.085
 7705SOL    HW224015   1.357   5.393   0.031
 7706SOL     OW24016   3.812   3.077   2.693
 7706SOL    HW124017   3.907   3.078   2.724
 7706SOL    HW224018   3.773   2.986   2.708
 7707SOL     OW24019   6.778   3.952   6.903
 7707SOL    HW124020   6.779   3.867   6.851
 7707SOL    HW224021   6.740   4.025   6.845
 7708SOL     OW24022   2.013   0.725   4.218
 7708SOL    HW124023   1.987   0.706   4.312
 7708SOL    HW224024   2.083   0.661   4.189
 7709SOL     OW24025   0.073   4.779   1.453
 7709SOL    HW124026   7.026   4.717   1.483
 7709SOL    HW224027   0.112   4.824   1.533
 7710SOL     OW24028   6.824   3.066   0.924
 7710SOL    HW124029   6.846   3.141   0.987
 7710SOL    HW224030   6.790   3.104   0.838
 7711SOL     OW24031   0.222   4.396   5.017
 7711SOL    HW124032   0.254   4.489   4.997
 7711SOL    HW224033   0.123   4.392   5.004
 7712SOL     OW24034   6.958   5.182   5.646
 7712SOL    HW124035   0.029   5.171   5.667
 7712SOL    HW224036   6.928   5.273   5.674
 7713SOL     OW24037   1.407   4.400   0.047
 7713SOL    HW124038   1.507   4.408   0.049
 7713SOL    HW224039   1.370   4.464   7.007
 7714SOL     OW24040   6.171   1.801   4.566
 7714SOL    HW124041   6.227   1.817   4.485
 7714SOL    HW224042   6.078   1.834   4.550
 7715SOL     OW24043   3.738   3.266   5.175
 7715SOL    HW124044   3.713   3.202   5.103
 7715SOL    HW224045   3.699   3.356   5.155
 7716SOL     OW24046   0.968   6.626   5.955
 7716SOL    HW124047   0.930   6.709   5.996
 7716SOL    HW224048   1.027   6.651   5.879
 7717SOL     OW24049   0.193   2.421   6.325
 7717SOL    HW124050   0.289   2.419   6.353
 7717SOL    HW224051   0.163   2.516   6.318
 7718SOL     OW24052   0.547   3.419   3.025
 7718SOL    HW124053   0.626   3.476   3.050
 7718SOL    HW224054   0.504   3.385   3.109
 7719SOL     OW24055   1.619   5.192   5.173
 7719SOL    HW124056   1.547   5.123   5.176
 7719SOL    HW224057   1.590   5.269   5.117
 7720SOL     OW24058   4.458   1.318   6.416
 7720SOL    HW124059   4.537   1.365   6.376
 7720SOL    HW224060   4.473   1.304   6.514
 7721SOL     OW24061   6.781   6.765   2.690
 7721SOL    HW124062   6.777   6.789   2.593
 7721SOL    HW224063   6.787   6.666   2.700
 7722SOL     OW24064   1.001   5.952   4.021
 7722SOL    HW124065   1.005   5.993   3.929
 7722SOL    HW224066   1.049   6.012   4.085
 7723SOL     OW24067   4.639   3.639   6.681
 7723SOL    HW124068   4.730   3.657   6.719
 7723SOL    HW224069   4.644   3.640   6.581
 7724SOL     OW24070   2.011   3.675   1.018
 7724SOL    HW124071   1.973   3.744   1.079
 7724SOL    HW224072   2.012   3.587   1.065
 7725SOL     OW24073   5.608   2.508   4.600
 7725SOL    HW124074   5.527   2.564   4.612
 7725SOL    HW224075   5.624   2.491   4.503
 7726SOL     OW24076   1.327   3.525   6.722
 7726SOL    HW124077   1.308   3.450   6.786
 7726SOL    HW224078   1.266   3.602   6.744
 7727SOL     OW24079   4.090   1.096   2.164
 7727SOL    HW124080   4.177   1.131   2.129
 7727SOL    HW224081   4.016   1.160   2.141
 7728SOL     OW24082   1.901   4.110   4.728
 7728SOL    HW124083   1.914   4.100   4.629
 7728SOL    HW224084   1.981   4.074   4.775
 7729SOL     OW24085   6.775   1.406   2.799
 7729SOL    HW124086   6.784   1.319   2.847
 7729SOL    HW224087   6.692   1.453   2.829
 7730SOL     OW24088   6.657   4.532   5.531
 7730SOL    HW124089   6.644   4.588   5.450
 7730SOL    HW224090   6.749   4.547   5.568
 7731SOL     OW24091   6.772   0.019   6.062
 7731SOL    HW124092   6.770   6.999   5.974
 7731SOL    HW224093   6.679   0.030   6.097
 7732SOL     OW24094   3.586   0.169   6.462
 7732SOL    HW124095   3.579   0.089   6.403
 7732SOL    HW224096   3.565   0.144   6.556
 7733SOL     OW24097   6.888   5.445   1.707
 7733SOL    HW124098   6.828   5.366   1.702
 7733SOL    HW224099   6.938   5.455   1.621
 7734SOL     OW24100   3.203   4.073   4.052
 7734SOL    HW124101   3.227   4.087   3.956
 7734SOL    HW224102   3.127   4.133   4.076
 7735SOL     OW24103   0.670   6.533   1.157
 7735SOL    HW124104   0.680   6.448   1.106
 7735SOL    HW224105   0.582   6.575   1.133
 7736SOL     OW24106   1.330   2.506   0.167
 7736SOL    HW124107   1.371   2.530   0.255
 7736SOL    HW224108   1.286   2.417   0.174
 7737SOL     OW24109   4.606   4.440   6.860
 7737SOL    HW124110   4.704   4.450   6.845
 7737SOL    HW224111   4.557   4.452   6.773
 7738SOL     OW24112   2.107   0.433   5.538
 7738SOL    HW124113   2.138   0.496   5.610
 7738SOL    HW224114   2.009   0.418   5.548
 7739SOL     OW24115   1.927   2.294   0.417
 7739SOL    HW124116   1.927   2.393   0.410
 7739SOL    HW224117   2.004   2.264   0.473
 7740SOL     OW24118   2.125   0.486   4.987
 7740SOL    HW124119   2.120   0.493   5.087
 7740SOL    HW224120   2.108   0.392   4.959
 7741SOL     OW24121   0.656   4.779   5.995
 7741SOL    HW124122   0.645   4.794   5.897
 7741SOL    HW224123   0.749   4.806   6.022
 7742SOL     OW24124   4.729   2.236   4.007
 7742SOL    HW124125   4.758   2.331   4.011
 7742SOL    HW224126   4.671   2.216   4.086
 7743SOL     OW24127   4.184   1.605   6.081
 7743SOL    HW124128   4.118   1.530   6.091
 7743SOL    HW224129   4.140   1.683   6.038
 7744SOL     OW24130   1.278   6.898   4.690
 7744SOL    HW124131   1.368   6.858   4.676
 7744SOL    HW224132   1.209   6.842   4.644
 7745SOL     OW24133   3.057   6.764   1.380
 7745SOL    HW124134   3.057   6.836   1.311
 7745SOL    HW224135   2.969   6.764   1.427
 7746SOL     OW24136   0.720   5.489   1.960
 7746SOL    HW124137   0.709   5.411   2.021
 7746SOL    HW224138   0.632   5.537   1.951
 7747SOL     OW24139   0.027   5.650   0.955
 7747SOL    HW124140   6.969   5.634   0.904
 7747SOL    HW224141   0.051   5.747   0.951
 7748SOL     OW24142   4.362   1.857   5.898
 7748SOL    HW124143   4.268   1.888   5.910
 7748SOL    HW224144   4.407   1.849   5.987
 7749SOL     OW24145   3.716   4.087   3.318
 7749SOL    HW124146   3.628   4.108   3.276
 7749SOL    HW224147   3.787   4.085   3.247
 7750SOL     OW24148   5.410   4.916   5.695
 7750SOL    HW124149   5.322   4.963   5.693
 7750SOL    HW224150   5.421   4.862   5.612
 7751SOL     OW24151   6.938   1.663   4.481
 7751SOL    HW124152   6.976   1.665   4.574
 7751SOL    HW224153   6.838   1.659   4.486
 7752SOL     OW24154   6.242   5.192   5.101
 7752SOL    HW124155   6.163   5.133   5.081
 7752SOL    HW224156   6.326   5.139   5.093
 7753SOL     OW24157   2.615   0.984   5.401
 7753SOL    HW124158   2.584   0.906   5.456
 7753SOL    HW224159   2.573   0.979   5.310
 7754SOL     OW24160   6.411   1.135   1.423
 7754SOL    HW124161   6.396   1.151   1.520
 7754SOL    HW224162   6.325   1.150   1.374
 7755SOL     OW24163   1.229   5.927   5.305
 7755SOL    HW124164   1.209   5.986   5.226
 7755SOL    HW224165   1.168   5.950   5.380
 7756SOL     OW24166   3.807   5.801   3.192
 7756SOL    HW124167   3.902   5.825   3.175
 7756SOL    HW224168   3.788   5.709   3.158
 7757SOL     OW24169   3.561   6.500   5.644
 7757SOL    HW124170   3.516   6.555   5.573
 7757SOL    HW224171   3.496   6.433   5.680
 7758SOL     OW24172   2.984   2.761   6.357
 7758SOL    HW124173   3.068   2.803   6.322
 7758SOL    HW224174   2.997   2.738   6.454
 7759SOL     OW24175   2.109   1.211   5.060
 7759SOL    HW124176   2.146   1.124   5.027
 7759SOL    HW224177   2.091   1.205   5.158
 7760SOL     OW24178   4.758   1.630   3.542
 7760SOL    HW124179   4.844   1.598   3.501
 7760SOL    HW224180   4.743   1.581   3.628
 7761SOL     OW24181   4.194   0.238   6.306
 7761SOL    HW124182   4.230   0.183   6.230
 7761SOL    HW224183   4.096   0.222   6.315
 7762SOL     OW24184   1.761   2.480   0.678
 7762SOL    HW124185   1.789   2.481   0.774
 7762SOL    HW224186   1.712   2.395   0.659
 7763SOL     OW24187   2.299   2.369   1.249
 7763SOL    HW124188   2.229   2.301   1.228
 7763SOL    HW224189   2.256   2.450   1.289
 7764SOL     OW24190   4.170   3.552   2.371
 7764SOL    HW124191   4.149   3.466   2.417
 7764SOL    HW224192   4.254   3.541   2.318
 7765SOL     OW24193   0.263   1.884   2.029
 7765SOL    HW124194   0.294   1.937   2.108
 7765SOL    HW224195   0.165   1.901   2.015
 7766SOL     OW24196   6.943   3.666   0.052
 7766SOL    HW124197   6.930   3.609   6.997
 7766SOL    HW224198   6.881   3.745   0.048
 7767SOL     OW24199   5.712   4.048   5.540
 7767SOL    HW124200   5.686   4.051   5.443
 7767SOL    HW224201   5.808   4.071   5.549
 7768SOL     OW24202   4.314   5.706   2.023
 7768SOL    HW124203   4.393   5.700   1.962
 7768SOL    HW224204   4.342   5.747   2.110
 7769SOL     OW24205   6.441   1.963   1.904
 7769SOL    HW124206   6.376   1.905   1.953
 7769SOL    HW224207   6.428   1.951   1.806
 7770SOL     OW24208   3.463   5.865   1.646
 7770SOL    HW124209   3.417   5.922   1.578
 7770SOL    HW224210   3.398   5.841   1.718
 7771SOL     OW24211   2.144   1.507   4.840
 7771SOL    HW124212   2.138   1.604   4.819
 7771SOL    HW224213   2.159   1.495   4.938
 7772SOL     OW24214   5.468   0.971   4.949
 7772SOL    HW124215   5.400   0.932   5.012
 7772SOL    HW224216   5.421   1.008   4.869
 7773SOL     OW24217   4.094   4.417   5.391
 7773SOL    HW124218   4.149   4.415   5.308
 7773SOL    HW224219   4.077   4.512   5.417
 7774SOL     OW24220   4.947   1.763   6.813
 7774SOL    HW124221   5.044   1.771   6.789
 7774SOL    HW224222   4.918   1.668   6.805
 7775SOL     OW24223   2.901   6.815   1.970
 7775SOL    HW124224   2.963   6.739   1.950
 7775SOL    HW224225   2.832   6.785   2.037
 7776SOL     OW24226   3.735   4.144   0.753
 7776SOL    HW124227   3.727   4.098   0.841
 7776SOL    HW224228   3.831   4.147   0.725
 7777SOL     OW24229   1.582   0.527   6.763
 7777SOL    HW124230   1.648   0.595   6.795
 7777SOL    HW224231   1.622   0.436   6.772
 7778SOL     OW24232   5.065   1.005   1.376
 7778SOL    HW124233   5.003   1.047   1.311
 7778SOL    HW224234   5.092   0.915   1.343
 7779SOL     OW24235   3.809   3.311   0.433
 7779SOL    HW124236   3.723   3.265   0.453
 7779SOL    HW224237   3.834   3.372   0.508
 7780SOL     OW24238   0.990   0.157   4.863
 7780SOL    HW124239   0.940   0.109   4.936
 7780SOL    HW224240   0.969   0.114   4.775
 7781SOL     OW24241   1.454   4.950   5.147
 7781SOL    HW124242   1.438   4.885   5.222
 7781SOL    HW224243   1.372   4.956   5.090
 7782SOL     OW24244   3.470   4.391   6.837
 7782SOL    HW124245   3.400   4.382   6.908
 7782SOL    HW224246   3.534   4.314   6.842
 7783SOL     OW24247   3.154   5.202   6.458
 7783SOL    HW124248   3.250   5.209   6.485
 7783SOL    HW224249   3.141   5.117   6.407
 7784SOL     OW24250   6.958   2.727   6.952
 7784SOL    HW124251   6.928   2.811   6.905
 7784SOL    HW224252   0.031   2.722   6.952
 7785SOL     OW24253   2.042   5.841   4.341
 7785SOL    HW124254   2.030   5.937   4.317
 7785SOL    HW224255   1.970   5.813   4.405
 7786SOL     OW24256   3.040   3.966   4.645
 7786SOL    HW124257   2.970   3.897   4.665
 7786SOL    HW224258   3.033   4.041   4.711
 7787SOL     OW24259   3.013   2.221   5.309
 7787SOL    HW124260   2.923   2.263   5.307
 7787SOL    HW224261   3.068   2.255   5.233
 7788SOL     OW24262   0.504   1.390   0.356
 7788SOL    HW124263   0.410   1.362   0.372
 7788SOL    HW224264   0.540   1.436   0.438
 7789SOL     OW24265   1.901   0.124   1.217
 7789SOL    HW124266   1.945   0.045   1.259
 7789SOL    HW224267   1.833   0.161   1.280
 7790SOL     OW24268   6.520   3.824   2.838
 7790SOL    HW124269   6.515   3.907   2.893
 7790SOL    HW224270   6.461   3.834   2.758
 7791SOL     OW24271   0.954   4.588   4.864
 7791SOL    HW124272   0.930   4.502   4.910
 7791SOL    HW224273   1.049   4.584   4.835
 7792SOL     OW24274   2.356   5.597   5.928
 7792SOL    HW124275   2.403   5.570   5.843
 7792SOL    HW224276   2.279   5.535   5.944
 7793SOL     OW24277   1.153   0.803   6.749
 7793SOL    HW124278   1.217   0.726   6.744
 7793SOL    HW224279   1.114   0.819   6.658
 7794SOL     OW24280   5.332   5.957   3.577
 7794SOL    HW124281   5.379   5.921   3.496
 7794SOL    HW224282   5.350   5.897   3.655
 7795SOL     OW24283   2.025   5.151   5.439
 7795SOL    HW124284   1.959   5.199   5.382
 7795SOL    HW224285   2.118   5.176   5.412
 7796SOL     OW24286   3.835   3.388   4.076
 7796SOL    HW124287   3.892   3.467   4.097
 7796SOL    HW224288   3.740   3.407   4.101
 7797SOL     OW24289   1.123   0.258   3.262
 7797SOL    HW124290   1.075   0.325   3.319
 7797SOL    HW224291   1.119   0.285   3.166
 7798SOL     OW24292   4.014   5.952   6.426
 7798SOL    HW124293   4.111   5.933   6.440
 7798SOL    HW224294   3.962   5.922   6.506
 7799SOL     OW24295   6.366   4.610   1.209
 7799SOL    HW124296   6.383   4.709   1.209
 7799SOL    HW224297   6.301   4.587   1.137
 7800SOL     OW24298   0.879   5.824   2.344
 7800SOL    HW124299   0.944   5.896   2.368
 7800SOL    HW224300   0.860   5.768   2.425
 7801SOL     OW24301   3.768   2.586   6.246
 7801SOL    HW124302   3.783   2.632   6.333
 7801SOL    HW224303   3.670   2.583   6.226
 7802SOL     OW24304   5.621   2.153   0.968
 7802SOL    HW124305   5.528   2.172   1.000
 7802SOL    HW224306   5.648   2.221   0.900
 7803SOL     OW24307   3.643   4.318   5.797
 7803SOL    HW124308   3.585   4.398   5.786
 7803SOL    HW224309   3.593   4.236   5.768
 7804SOL     OW24310   5.093   1.779   6.439
 7804SOL    HW124311   5.079   1.792   6.537
 7804SOL    HW224312   5.006   1.791   6.391
 7805SOL     OW24313   5.213   3.883   2.227
 7805SOL    HW124314   5.309   3.868   2.205
 7805SOL    HW224315   5.183   3.817   2.295
 7806SOL     OW24316   4.705   3.009   6.636
 7806SOL    HW124317   4.654   2.980   6.554
 7806SOL    HW224318   4.751   3.096   6.617
 7807SOL     OW24319   0.320   3.566   6.495
 7807SOL    HW124320   0.242   3.512   6.465
 7807SOL    HW224321   0.350   3.626   6.420
 7808SOL     OW24322   0.660   1.624   4.945
 7808SOL    HW124323   0.660   1.532   4.985
 7808SOL    HW224324   0.565   1.653   4.928
 7809SOL     OW24325   1.802   5.579   5.404
 7809SOL    HW124326   1.893   5.585   5.442
 7809SOL    HW224327   1.789   5.651   5.336
 7810SOL     OW24328   2.355   1.243   6.789
 7810SOL    HW124329   2.313   1.195   6.866
 7810SOL    HW224330   2.402   1.325   6.822
 7811SOL     OW24331   0.250   4.120   4.900
 7811SOL    HW124332   0.251   4.218   4.917
 7811SOL    HW224333   0.337   4.093   4.857
 7812SOL     OW24334   0.563   1.698   3.610
 7812SOL    HW124335   0.527   1.790   3.599
 7812SOL    HW224336   0.558   1.671   3.706
 7813SOL     OW24337   6.278   2.543   0.775
 7813SOL    HW124338   6.189   2.587   0.759
 7813SOL    HW224339   6.327   2.593   0.847
 7814SOL     OW24340   1.945   3.410   4.058
 7814SOL    HW124341   2.023   3.361   4.020
 7814SOL    HW224342   1.891   3.451   3.985
 7815SOL     OW24343   6.824   1.430   6.184
 7815SOL    HW124344   6.910   1.481   6.191
 7815SOL    HW224345   6.749   1.494   6.168
 7816SOL     OW24346   1.153   3.841   5.172
 7816SOL    HW124347   1.093   3.913   5.205
 7816SOL    HW224348   1.191   3.790   5.249
 7817SOL     OW24349   5.337   3.596   4.967
 7817SOL    HW124350   5.289   3.526   5.019
 7817SOL    HW224351   5.327   3.685   5.012
 7818SOL     OW24352   5.093   5.356   2.646
 7818SOL    HW124353   4.994   5.357   2.659
 7818SOL    HW224354   5.126   5.261   2.642
 7819SOL     OW24355   6.809   1.388   1.489
 7819SOL    HW124356   6.869   1.392   1.409
 7819SOL    HW224357   6.755   1.304   1.486
 7820SOL     OW24358   2.081   0.021   6.281
 7820SOL    HW124359   2.143   6.996   6.339
 7820SOL    HW224360   2.112   0.116   6.275
 7821SOL     OW24361   2.563   5.514   1.125
 7821SOL    HW124362   2.527   5.495   1.034
 7821SOL    HW224363   2.647   5.463   1.140
 7822SOL     OW24364   1.443   5.946   5.503
 7822SOL    HW124365   1.353   5.919   5.467
 7822SOL    HW224366   1.515   5.901   5.450
 7823SOL     OW24367   1.642   3.989   5.337
 7823SOL    HW124368   1.733   3.984   5.378
 7823SOL    HW224369   1.637   3.926   5.260
 7824SOL     OW24370   0.635   3.547   5.578
 7824SOL    HW124371   0.685   3.466   5.548
 7824SOL    HW224372   0.644   3.557   5.677
 7825SOL     OW24373   3.079   1.119   6.549
 7825SOL    HW124374   3.072   1.054   6.474
 7825SOL    HW224375   3.145   1.086   6.616
 7826SOL     OW24376   0.729   3.170   5.870
 7826SOL    HW124377   0.724   3.085   5.819
 7826SOL    HW224378   0.822   3.183   5.905
 7827SOL     OW24379   6.748   5.590   4.777
 7827SOL    HW124380   6.666   5.533   4.769
 7827SOL    HW224381   6.808   5.574   4.698
 7828SOL     OW24382   0.326   4.913   0.258
 7828SOL    HW124383   0.341   4.978   0.332
 7828SOL    HW224384   0.408   4.856   0.247
 7829SOL     OW24385   3.507   3.507   0.632
 7829SOL    HW124386   3.605   3.504   0.612
 7829SOL    HW224387   3.493   3.504   0.731
 7830SOL     OW24388   2.495   5.355   4.046
 7830SOL    HW124389   2.499   5.452   4.021
 7830SOL    HW224390   2.482   5.300   3.963
 7831SOL     OW24391   1.730   0.300   6.706
 7831SOL    HW124392   1.687   0.210   6.719
 7831SOL    HW224393   1.820   0.288   6.665
 7832SOL     OW24394   6.149   0.881   4.464
 7832SOL    HW124395   6.096   0.816   4.519
 7832SOL    HW224396   6.088   0.953   4.431
 7833SOL     OW24397   1.408   0.680   3.195
 7833SOL    HW124398   1.411   0.616   3.272
 7833SOL    HW224399   1.456   0.640   3.117
 7834SOL     OW24400   6.079   3.234   5.410
 7834SOL    HW124401   6.008   3.220   5.341
 7834SOL    HW224402   6.037   3.243   5.500
 7835SOL     OW24403   4.253   2.528   5.644
 7835SOL    HW124404   4.263   2.514   5.545
 7835SOL    HW224405   4.344   2.533   5.686
 7836SOL     OW24406   3.267   3.409   3.956
 7836SOL    HW124407   3.179   3.363   3.972
 7836SOL    HW224408   3.336   3.341   3.932
 7837SOL     OW24409   0.427   5.806   0.146
 7837SOL    HW124410   0.378   5.829   0.062
 7837SOL    HW224411   0.368   5.823   0.224
 7838SOL     OW24412   4.581   5.782   2.766
 7838SOL    HW124413   4.628   5.864   2.798
 7838SOL    HW224414   4.491   5.806   2.731
 7839SOL     OW24415   6.184   2.777   4.103
 7839SOL    HW124416   6.161   2.683   4.080
 7839SOL    HW224417   6.138   2.802   4.189
 7840SOL     OW24418   1.932   3.058   4.226
 7840SOL    HW124419   1.968   3.130   4.284
 7840SOL    HW224420   2.005   2.992   4.206
 7841SOL     OW24421   3.525   1.791   6.575
 7841SOL    HW124422   3.618   1.756   6.568
 7841SOL    HW224423   3.504   1.814   6.670
 7842SOL     OW24424   1.149   0.734   1.568
 7842SOL    HW124425   1.185   0.826   1.554
 7842SOL    HW224426   1.049   0.738   1.576
 7843SOL     OW24427   0.132   6.372   3.095
 7843SOL    HW124428   0.114   6.277   3.069
 7843SOL    HW224429   0.229   6.394   3.077
 7844SOL     OW24430   3.673   0.683   2.624
 7844SOL    HW124431   3.593   0.739   2.602
 7844SOL    HW224432   3.648   0.586   2.617
 7845SOL     OW24433   7.006   2.951   0.707
 7845SOL    HW124434   6.923   2.976   0.759
 7845SOL    HW224435   7.002   2.855   0.682
 7846SOL     OW24436   1.056   1.340   0.104
 7846SOL    HW124437   1.087   1.316   0.013
 7846SOL    HW224438   1.109   1.289   0.172
 7847SOL     OW24439   5.671   4.478   6.379
 7847SOL    HW124440   5.598   4.428   6.426
 7847SOL    HW224441   5.678   4.447   6.285
 7848SOL     OW24442   3.508   4.645   0.634
 7848SOL    HW124443   3.585   4.602   0.680
 7848SOL    HW224444   3.434   4.660   0.699
 7849SOL     OW24445   4.340   4.968   0.077
 7849SOL    HW124446   4.380   5.018   0.153
 7849SOL    HW224447   4.247   4.940   0.101
 7850SOL     OW24448   0.007   1.484   4.151
 7850SOL    HW124449   0.058   1.411   4.104
 7850SOL    HW224450   7.010   1.454   4.243
 7851SOL     OW24451   0.113   4.586   1.050
 7851SOL    HW124452   0.139   4.659   1.113
 7851SOL    HW224453   0.044   4.620   0.986
 7852SOL     OW24454   1.278   2.687   7.001
 7852SOL    HW124455   1.290   2.624   0.051
 7852SOL    HW224456   1.367   2.716   6.967
 7853SOL     OW24457   4.215   2.926   1.720
 7853SOL    HW124458   4.148   2.919   1.794
 7853SOL    HW224459   4.261   3.015   1.724
 7854SOL     OW24460   4.899   1.937   0.005
 7854SOL    HW124461   4.965   1.910   0.075
 7854SOL    HW224462   4.918   1.888   6.947
 7855SOL     OW24463   5.013   6.696   4.192
 7855SOL    HW124464   4.928   6.646   4.211
 7855SOL    HW224465   4.996   6.794   4.198
 7856SOL     OW24466   1.986   6.747   4.445
 7856SOL    HW124467   1.913   6.706   4.501
 7856SOL    HW224468   2.051   6.676   4.419
 7857SOL     OW24469   5.987   4.448   1.211
 7857SOL    HW124470   6.003   4.382   1.285
 7857SOL    HW224471   5.974   4.539   1.250
 7858SOL     OW24472   0.207   4.432   6.526
 7858SOL    HW124473   0.162   4.346   6.502
 7858SOL    HW224474   0.189   4.453   6.622
 7859SOL     OW24475   5.047   1.904   0.688
 7859SOL    HW124476   5.109   1.861   0.622
 7859SOL    HW224477   5.098   1.972   0.741
 7860SOL     OW24478   2.807   1.564   4.784
 7860SOL    HW124479   2.831   1.538   4.690
 7860SOL    HW224480   2.890   1.582   4.836
 7861SOL     OW24481   2.165   6.470   0.423
 7861SOL    HW124482   2.226   6.434   0.352
 7861SOL    HW224483   2.214   6.474   0.510
 7862SOL     OW24484   1.516   5.780   6.933
 7862SOL    HW124485   1.510   5.872   6.896
 7862SOL    HW224486   1.601   5.736   6.902
 7863SOL     OW24487   1.269   4.094   3.630
 7863SOL    HW124488   1.195   4.134   3.683
 7863SOL    HW224489   1.329   4.042   3.691
 7864SOL     OW24490   2.265   6.151   5.237
 7864SOL    HW124491   2.336   6.084   5.215
 7864SOL    HW224492   2.184   6.133   5.183
 7865SOL     OW24493   5.676   4.051   3.370
 7865SOL    HW124494   5.761   3.999   3.361
 7865SOL    HW224495   5.626   4.048   3.283
 7866SOL     OW24496   0.911   1.278   5.978
 7866SOL    HW124497   0.965   1.258   5.897
 7866SOL    HW224498   0.894   1.376   5.984
 7867SOL     OW24499   4.538   5.044   3.608
 7867SOL    HW124500   4.626   5.088   3.629
 7867SOL    HW224501   4.518   4.975   3.677
 7868SOL     OW24502   2.716   6.454   1.415
 7868SOL    HW124503   2.758   6.545   1.415
 7868SOL    HW224504   2.764   6.395   1.481
 7869SOL     OW24505   5.820   4.597   6.913
 7869SOL    HW124506   5.911   4.634   6.894
 7869SOL    HW224507   5.780   4.561   6.828
 7870SOL     OW24508   5.847   6.086   4.247
 7870SOL    HW124509   5.899   6.023   4.189
 7870SOL    HW224510   5.758   6.104   4.206
 7871SOL     OW24511   4.915   1.392   0.268
 7871SOL    HW124512   4.965   1.457   0.324
 7871SOL    HW224513   4.936   1.299   0.299
 7872SOL     OW24514   1.234   5.574   3.462
 7872SOL    HW124515   1.135   5.577   3.475
 7872SOL    HW224516   1.277   5.531   3.542
 7873SOL     OW24517   5.043   2.041   0.344
 7873SOL    HW124518   4.995   2.055   0.430
 7873SOL    HW224519   5.011   1.957   0.301
 7874SOL     OW24520   5.953   2.654   0.761
 7874SOL    HW124521   5.941   2.586   0.834
 7874SOL    HW224522   5.942   2.746   0.799
 7875SOL     OW24523   5.896   4.551   6.043
 7875SOL    HW124524   5.901   4.575   5.946
 7875SOL    HW224525   5.803   4.567   6.077
 7876SOL     OW24526   0.854   0.346   4.204
 7876SOL    HW124527   0.800   0.428   4.223
 7876SOL    HW224528   0.948   0.359   4.237
 7877SOL     OW24529   0.018   2.646   3.316
 7877SOL    HW124530   0.043   2.594   3.234
 7877SOL    HW224531   6.949   2.673   3.311
 7878SOL     OW24532   4.269   5.546   3.143
 7878SOL    HW124533   4.323   5.625   3.172
 7878SOL    HW224534   4.330   5.467   3.130
 7879SOL     OW24535   2.955   4.924   3.209
 7879SOL    HW124536   2.982   4.947   3.302
 7879SOL    HW224537   2.913   4.833   3.207
 7880SOL     OW24538   1.120   4.753   2.102
 7880SOL    HW124539   1.204   4.703   2.122
 7880SOL    HW224540   1.142   4.849   2.084
 7881SOL     OW24541   4.854   4.088   3.662
 7881SOL    HW124542   4.882   4.183   3.647
 7881SOL    HW224543   4.799   4.083   3.746
 7882SOL     OW24544   0.771   3.221   6.901
 7882SOL    HW124545   0.820   3.210   6.815
 7882SOL    HW224546   0.798   3.148   6.965
 7883SOL     OW24547   0.828   0.861   5.108
 7883SOL    HW124548   0.772   0.784   5.079
 7883SOL    HW224549   0.923   0.847   5.080
 7884SOL     OW24550   1.057   2.727   4.567
 7884SOL    HW124551   1.138   2.787   4.567
 7884SOL    HW224552   0.985   2.770   4.512
 7885SOL     OW24553   6.632   6.244   6.419
 7885SOL    HW124554   6.634   6.291   6.330
 7885SOL    HW224555   6.587   6.302   6.486
 7886SOL     OW24556   5.202   4.631   0.812
 7886SOL    HW124557   5.111   4.669   0.832
 7886SOL    HW224558   5.263   4.705   0.783
 7887SOL     OW24559   4.817   2.836   5.938
 7887SOL    HW124560   4.801   2.813   6.034
 7887SOL    HW224561   4.781   2.763   5.880
 7888SOL     OW24562   5.447   6.335   4.673
 7888SOL    HW124563   5.498   6.396   4.733
 7888SOL    HW224564   5.425   6.250   4.722
 7889SOL     OW24565   0.150   4.832   2.679
 7889SOL    HW124566   0.103   4.754   2.720
 7889SOL    HW224567   0.155   4.907   2.746
 7890SOL     OW24568   1.980   2.848   2.519
 7890SOL    HW124569   2.066   2.890   2.547
 7890SOL    HW224570   1.907   2.916   2.523
 7891SOL     OW24571   1.149   4.655   2.888
 7891SOL    HW124572   1.208   4.689   2.962
 7891SOL    HW224573   1.190   4.574   2.848
 7892SOL     OW24574   2.243   2.421   6.047
 7892SOL    HW124575   2.227   2.414   5.948
 7892SOL    HW224576   2.322   2.479   6.064
 7893SOL     OW24577   5.939   6.407   1.717
 7893SOL    HW124578   5.884   6.385   1.637
 7893SOL    HW224579   5.924   6.503   1.743
 7894SOL     OW24580   2.938   0.026   1.845
 7894SOL    HW124581   2.931   6.964   1.890
 7894SOL    HW224582   2.953   0.013   1.747
 7895SOL     OW24583   6.798   1.457   3.156
 7895SOL    HW124584   6.885   1.408   3.151
 7895SOL    HW224585   6.815   1.556   3.158
 7896SOL     OW24586   4.388   1.670   6.285
 7896SOL    HW124587   4.349   1.633   6.369
 7896SOL    HW224588   4.320   1.668   6.213
 7897SOL     OW24589   2.959   3.124   6.560
 7897SOL    HW124590   3.036   3.080   6.515
 7897SOL    HW224591   2.992   3.199   6.618
 7898SOL     OW24592   4.824   2.210   3.311
 7898SOL    HW124593   4.866   2.122   3.336
 7898SOL    HW224594   4.872   2.284   3.359
 7899SOL     OW24595   4.407   1.462   2.999
 7899SOL    HW124596   4.352   1.443   3.081
 7899SOL    HW224597   4.477   1.530   3.021
 7900SOL     OW24598   1.244   5.067   0.709
 7900SOL    HW124599   1.303   5.019   0.644
 7900SOL    HW224600   1.291   5.148   0.743
 7901SOL     OW24601   6.097   5.309   1.011
 7901SOL    HW124602   6.012   5.361   1.009
 7901SOL    HW224603   6.093   5.236   0.942
 7902SOL     OW24604   4.925   4.928   5.823
 7902SOL    HW124605   4.888   4.934   5.730
 7902SOL    HW224606   4.980   4.845   5.832
 7903SOL     OW24607   0.236   2.641   6.980
 7903SOL    HW124608   0.246   2.702   6.901
 7903SOL    HW224609   0.326   2.615   7.014
 7904SOL     OW24610   6.371   1.438   2.261
 7904SOL    HW124611   6.362   1.519   2.319
 7904SOL    HW224612   6.462   1.397   2.275
 7905SOL     OW24613   2.479   2.163   1.250
 7905SOL    HW124614   2.565   2.155   1.301
 7905SOL    HW224615   2.437   2.252   1.271
 7906SOL     OW24616   0.660   4.854   0.571
 7906SOL    HW124617   0.597   4.830   0.645
 7906SOL    HW224618   0.753   4.828   0.598
 7907SOL     OW24619   6.048   3.116   1.964
 7907SOL    HW124620   6.068   3.044   2.031
 7907SOL    HW224621   6.038   3.074   1.874
 7908SOL     OW24622   6.297   1.530   3.067
 7908SOL    HW124623   6.240   1.591   3.123
 7908SOL    HW224624   6.326   1.452   3.123
 7909SOL     OW24625   4.141   5.823   5.180
 7909SOL    HW124626   4.233   5.820   5.141
 7909SOL    HW224627   4.108   5.918   5.182
 7910SOL     OW24628   5.986   3.544   6.239
 7910SOL    HW124629   6.018   3.506   6.152
 7910SOL    HW224630   5.989   3.644   6.234
 7911SOL     OW24631   6.901   5.032   6.887
 7911SOL    HW124632   6.986   5.014   6.837
 7911SOL    HW224633   6.922   5.072   6.976
 7912SOL     OW24634   0.083   5.553   5.575
 7912SOL    HW124635   0.072   5.526   5.671
 7912SOL    HW224636   7.019   5.573   5.536
 7913SOL     OW24637   0.880   6.037   6.601
 7913SOL    HW124638   0.957   6.026   6.539
 7913SOL    HW224639   0.867   6.134   6.622
 7914SOL     OW24640   6.738   3.443   2.152
 7914SOL    HW124641   6.659   3.474   2.100
 7914SOL    HW224642   6.821   3.483   2.114
 7915SOL     OW24643   4.297   1.175   2.036
 7915SOL    HW124644   4.393   1.191   2.059
 7915SOL    HW224645   4.276   1.217   1.948
 7916SOL     OW24646   5.025   3.552   5.706
 7916SOL    HW124647   4.966   3.630   5.725
 7916SOL    HW224648   4.975   3.484   5.654
 7917SOL     OW24649   3.310   4.151   3.807
 7917SOL    HW124650   3.366   4.103   3.740
 7917SOL    HW224651   3.367   4.178   3.885
 7918SOL     OW24652   6.572   2.367   2.294
 7918SOL    HW124653   6.524   2.280   2.293
 7918SOL    HW224654   6.667   2.353   2.321
 7919SOL     OW24655   5.996   4.952   1.986
 7919SOL    HW124656   6.091   4.923   1.997
 7919SOL    HW224657   5.973   4.954   1.889
 7920SOL     OW24658   0.330   6.684   2.071
 7920SOL    HW124659   0.283   6.596   2.074
 7920SOL    HW224660   0.410   6.681   2.131
 7921SOL     OW24661   2.902   6.168   2.065
 7921SOL    HW124662   2.878   6.111   2.144
 7921SOL    HW224663   2.908   6.111   1.983
 7922SOL     OW24664   0.903   4.961   6.043
 7922SOL    HW124665   0.932   5.056   6.028
 7922SOL    HW224666   0.983   4.904   6.061
 7923SOL     OW24667   0.511   1.938   3.088
 7923SOL    HW124668   0.506   2.037   3.099
 7923SOL    HW224669   0.566   1.916   3.007
 7924SOL     OW24670   2.674   1.083   3.855
 7924SOL    HW124671   2.589   1.054   3.811
 7924SOL    HW224672   2.678   1.047   3.948
 7925SOL     OW24673   0.526   1.263   6.429
 7925SOL    HW124674   0.588   1.199   6.384
 7925SOL    HW224675   0.520   1.241   6.526
 7926SOL     OW24676   3.607   6.871   1.814
 7926SOL    HW124677   3.559   6.912   1.736
 7926SOL    HW224678   3.704   6.896   1.811
 7927SOL     OW24679   4.860   4.514   4.241
 7927SOL    HW124680   4.937   4.561   4.282
 7927SOL    HW224681   4.877   4.415   4.241
 7928SOL     OW24682   1.015   4.810   6.782
 7928SOL    HW124683   0.949   4.884   6.796
 7928SOL    HW224684   0.966   4.723   6.779
 7929SOL     OW24685   3.844   3.931   4.261
 7929SOL    HW124686   3.908   3.927   4.184
 7929SOL    HW224687   3.896   3.922   4.347
 7930SOL     OW24688   5.554   6.292   3.889
 7930SOL    HW124689   5.493   6.338   3.953
 7930SOL    HW224690   5.499   6.243   3.820
 7931SOL     OW24691   2.179   3.326   0.148
 7931SOL    HW124692   2.160   3.303   0.053
 7931SOL    HW224693   2.251   3.266   0.183
 7932SOL     OW24694   2.966   6.767   0.832
 7932SOL    HW124695   3.031   6.818   0.775
 7932SOL    HW224696   2.954   6.815   0.919
 7933SOL     OW24697   1.455   1.094   6.196
 7933SOL    HW124698   1.392   1.146   6.139
 7933SOL    HW224699   1.496   1.155   6.264
 7934SOL     OW24700   3.999   2.792   5.581
 7934SOL    HW124701   4.073   2.793   5.649
 7934SOL    HW224702   4.021   2.856   5.507
 7935SOL     OW24703   5.091   5.951   1.550
 7935SOL    HW124704   5.175   6.004   1.539
 7935SOL    HW224705   5.114   5.856   1.571
 7936SOL     OW24706   4.142   5.884   2.925
 7936SOL    HW124707   4.046   5.906   2.941
 7936SOL    HW224708   4.154   5.784   2.927
 7937SOL     OW24709   6.530   0.248   5.867
 7937SOL    HW124710   6.453   0.210   5.815
 7937SOL    HW224711   6.505   0.258   5.963
 7938SOL     OW24712   6.216   4.946   4.179
 7938SOL    HW124713   6.308   4.969   4.212
 7938SOL    HW224714   6.181   5.020   4.123
 7939SOL     OW24715   0.418   6.896   4.211
 7939SOL    HW124716   0.333   6.882   4.261
 7939SOL    HW224717   0.487   6.934   4.273
 7940SOL     OW24718   1.803   6.157   0.691
 7940SOL    HW124719   1.844   6.206   0.768
 7940SOL    HW224720   1.779   6.064   0.719
 7941SOL     OW24721   0.026   0.596   0.647
 7941SOL    HW124722   0.054   0.618   0.553
 7941SOL    HW224723   6.952   0.596   0.652
 7942SOL     OW24724   1.406   1.382   1.101
 7942SOL    HW124725   1.496   1.414   1.073
 7942SOL    HW224726   1.352   1.360   1.019
 7943SOL     OW24727   5.962   1.860   0.082
 7943SOL    HW124728   5.883   1.850   0.022
 7943SOL    HW224729   5.958   1.950   0.127
 7944SOL     OW24730   6.987   3.514   2.540
 7944SOL    HW124731   6.958   3.462   2.460
 7944SOL    HW224732   6.913   3.575   2.570
 7945SOL     OW24733   5.391   6.742   1.194
 7945SOL    HW124734   5.441   6.674   1.139
 7945SOL    HW224735   5.302   6.704   1.221
 7946SOL     OW24736   1.651   1.861   6.081
 7946SOL    HW124737   1.670   1.840   6.176
 7946SOL    HW224738   1.552   1.865   6.066
 7947SOL     OW24739   4.600   4.924   5.709
 7947SOL    HW124740   4.633   4.864   5.782
 7947SOL    HW224741   4.553   4.870   5.640
 7948SOL     OW24742   0.607   5.040   6.215
 7948SOL    HW124743   0.579   4.992   6.132
 7948SOL    HW224744   0.623   4.973   6.288
 7949SOL     OW24745   6.689   4.022   4.060
 7949SOL    HW124746   6.663   3.938   4.109
 7949SOL    HW224747   6.607   4.069   4.029
 7950SOL     OW24748   3.737   4.901   4.322
 7950SOL    HW124749   3.760   4.889   4.226
 7950SOL    HW224750   3.804   4.854   4.379
 7951SOL     OW24751   3.262   3.644   0.926
 7951SOL    HW124752   3.353   3.648   0.968
 7951SOL    HW224753   3.271   3.616   0.830
 7952SOL     OW24754   4.923   5.037   0.199
 7952SOL    HW124755   4.833   5.039   0.154
 7952SOL    HW224756   4.993   5.014   0.132
 7953SOL     OW24757   2.255   3.019   2.904
 7953SOL    HW124758   2.296   2.950   2.965
 7953SOL    HW224759   2.243   3.105   2.954
 7954SOL     OW24760   5.299   5.349   4.509
 7954SOL    HW124761   5.264   5.423   4.452
 7954SOL    HW224762   5.246   5.266   4.493
 7955SOL     OW24763   1.525   0.233   6.016
 7955SOL    HW124764   1.441   0.262   6.062
 7955SOL    HW224765   1.590   0.198   6.083
 7956SOL     OW24766   6.185   0.243   3.564
 7956SOL    HW124767   6.190   0.143   3.560
 7956SOL    HW224768   6.202   0.282   3.474
 7957SOL     OW24769   0.721   2.500   0.921
 7957SOL    HW124770   0.772   2.520   1.005
 7957SOL    HW224771   0.648   2.435   0.941
 7958SOL     OW24772   2.019   5.381   3.344
 7958SOL    HW124773   2.018   5.480   3.362
 7958SOL    HW224774   1.931   5.341   3.368
 7959SOL     OW24775   4.912   5.315   0.597
 7959SOL    HW124776   4.835   5.370   0.632
 7959SOL    HW224777   4.900   5.302   0.498
 7960SOL     OW24778   2.128   2.655   0.948
 7960SOL    HW124779   2.216   2.701   0.965
 7960SOL    HW224780   2.075   2.708   0.882
 7961SOL     OW24781   1.822   5.611   0.075
 7961SOL    HW124782   1.811   5.693   0.131
 7961SOL    HW224783   1.884   5.630   7.026
 7962SOL     OW24784   1.810   6.818   2.092
 7962SOL    HW124785   1.711   6.805   2.091
 7962SOL    HW224786   1.836   6.864   2.177
 7963SOL     OW24787   0.572   6.387   5.051
 7963SOL    HW124788   0.609   6.342   5.132
 7963SOL    HW224789   0.504   6.328   5.007
 7964SOL     OW24790   6.412   5.779   3.409
 7964SOL    HW124791   6.449   5.725   3.333
 7964SOL    HW224792   6.393   5.718   3.486
 7965SOL     OW24793   5.552   1.937   0.774
 7965SOL    HW124794   5.607   1.853   0.778
 7965SOL    HW224795   5.613   2.016   0.770
 7966SOL     OW24796   6.903   6.581   3.417
 7966SOL    HW124797   6.902   6.489   3.376
 7966SOL    HW224798   6.843   6.641   3.364
 7967SOL     OW24799   2.774   6.996   3.236
 7967SOL    HW124800   2.809   7.005   3.330
 7967SOL    HW224801   2.750   6.900   3.219
 7968SOL     OW24802   2.041   0.467   1.348
 7968SOL    HW124803   1.975   0.476   1.274
 7968SOL    HW224804   2.085   0.378   1.343
 7969SOL     OW24805   3.415   1.879   3.468
 7969SOL    HW124806   3.405   1.787   3.506
 7969SOL    HW224807   3.403   1.876   3.369
 7970SOL     OW24808   0.393   4.974   3.130
 7970SOL    HW124809   0.422   4.879   3.136
 7970SOL    HW224810   0.294   4.980   3.142
 7971SOL     OW24811   2.748   1.679   1.697
 7971SOL    HW124812   2.676   1.650   1.761
 7971SOL    HW224813   2.824   1.718   1.749
 7972SOL     OW24814   0.355   5.356   1.547
 7972SOL    HW124815   0.418   5.409   1.604
 7972SOL    HW224816   0.289   5.308   1.606
 7973SOL     OW24817   4.669   2.198   2.536
 7973SOL    HW124818   4.645   2.129   2.605
 7973SOL    HW224819   4.763   2.227   2.549
 7974SOL     OW24820   5.713   6.932   3.914
 7974SOL    HW124821   5.656   6.913   3.994
 7974SOL    HW224822   5.719   6.849   3.857
 7975SOL     OW24823   2.289   0.888   2.928
 7975SOL    HW124824   2.339   0.816   2.976
 7975SOL    HW224825   2.312   0.885   2.830
 7976SOL     OW24826   0.620   6.360   6.280
 7976SOL    HW124827   0.571   6.442   6.252
 7976SOL    HW224828   0.681   6.330   6.206
 7977SOL     OW24829   4.694   6.489   1.525
 7977SOL    HW124830   4.789   6.460   1.513
 7977SOL    HW224831   4.648   6.427   1.588
 7978SOL     OW24832   3.701   2.612   5.932
 7978SOL    HW124833   3.604   2.606   5.954
 7978SOL    HW224834   3.755   2.584   6.012
 7979SOL     OW24835   4.672   6.976   4.437
 7979SOL    HW124836   4.700   6.925   4.355
 7979SOL    HW224837   4.654   0.044   4.413
 7980SOL     OW24838   2.582   0.414   2.150
 7980SOL    HW124839   2.676   0.402   2.180
 7980SOL    HW224840   2.520   0.405   2.228
 7981SOL     OW24841   1.021   5.936   3.038
 7981SOL    HW124842   1.096   6.001   3.022
 7981SOL    HW224843   1.054   5.862   3.097
 7982SOL     OW24844   0.447   2.241   0.603
 7982SOL    HW124845   0.424   2.306   0.530
 7982SOL    HW224846   0.415   2.150   0.577
 7983SOL     OW24847   4.673   2.611   2.237
 7983SOL    HW124848   4.684   2.691   2.178
 7983SOL    HW224849   4.672   2.640   2.333
 7984SOL     OW24850   0.078   0.554   0.378
 7984SOL    HW124851   0.051   0.478   0.320
 7984SOL    HW224852   7.026   0.615   0.393
 7985SOL     OW24853   0.347   1.099   1.145
 7985SOL    HW124854   0.281   1.055   1.084
 7985SOL    HW224855   0.423   1.036   1.162
 7986SOL     OW24856   4.630   2.939   7.024
 7986SOL    HW124857   4.567   3.005   6.982
 7986SOL    HW224858   4.661   2.975   0.086
 7987SOL     OW24859   0.949   2.485   4.473
 7987SOL    HW124860   1.004   2.568   4.476
 7987SOL    HW224861   0.988   2.421   4.406
 7988SOL     OW24862   2.909   2.178   5.784
 7988SOL    HW124863   2.877   2.100   5.838
 7988SOL    HW224864   2.957   2.145   5.703
 7989SOL     OW24865   3.604   3.491   5.414
 7989SOL    HW124866   3.660   3.536   5.344
 7989SOL    HW224867   3.555   3.560   5.467
 7990SOL     OW24868   2.079   2.598   4.886
 7990SOL    HW124869   2.076   2.523   4.952
 7990SOL    HW224870   2.174   2.613   4.857
 7991SOL     OW24871   0.657   3.149   4.909
 7991SOL    HW124872   0.662   3.176   4.813
 7991SOL    HW224873   0.741   3.177   4.956
 7992SOL     OW24874   2.260   0.819   0.702
 7992SOL    HW124875   2.256   0.913   0.669
 7992SOL    HW224876   2.281   0.819   0.800
 7993SOL     OW24877   2.138   6.568   6.269
 7993SOL    HW124878   2.085   6.649   6.245
 7993SOL    HW224879   2.078   6.489   6.276
 7994SOL     OW24880   5.869   0.684   4.301
 7994SOL    HW124881   5.851   0.586   4.295
 7994SOL    HW224882   5.911   0.704   4.390
 7995SOL     OW24883   4.675   5.911   3.494
 7995SOL    HW124884   4.641   5.993   3.541
 7995SOL    HW224885   4.641   5.830   3.540
 7996SOL     OW24886   3.948   0.837   5.280
 7996SOL    HW124887   3.851   0.844   5.258
 7996SOL    HW224888   3.998   0.803   5.201
 7997SOL     OW24889   5.456   2.640   2.095
 7997SOL    HW124890   5.394   2.718   2.106
 7997SOL    HW224891   5.410   2.568   2.042
 7998SOL     OW24892   5.979   4.812   6.577
 7998SOL    HW124893   5.887   4.776   6.559
 7998SOL    HW224894   6.047   4.740   6.564
 7999SOL     OW24895   1.438   0.452   5.395
 7999SOL    HW124896   1.380   0.533   5.410
 7999SOL    HW224897   1.413   0.381   5.460
 8000SOL     OW24898   5.483   0.247   5.708
 8000SOL    HW124899   5.517   0.158   5.678
 8000SOL    HW224900   5.556   0.296   5.757
 8001SOL     OW24901   2.421   6.438   1.187
 8001SOL    HW124902   2.360   6.447   1.108
 8001SOL    HW224903   2.453   6.344   1.194
 8002SOL     OW24904   5.295   2.808   5.825
 8002SOL    HW124905   5.213   2.752   5.813
 8002SOL    HW224906   5.271   2.905   5.810
 8003SOL     OW24907   3.927   5.845   3.878
 8003SOL    HW124908   3.914   5.934   3.922
 8003SOL    HW224909   3.888   5.846   3.786
 8004SOL     OW24910   1.261   4.115   2.767
 8004SOL    HW124911   1.330   4.091   2.698
 8004SOL    HW224912   1.266   4.050   2.843
 8005SOL     OW24913   2.892   0.535   2.508
 8005SOL    HW124914   2.871   0.528   2.410
 8005SOL    HW224915   2.965   0.471   2.531
 8006SOL     OW24916   3.652   6.477   0.953
 8006SOL    HW124917   3.704   6.452   0.871
 8006SOL    HW224918   3.638   6.576   0.954
 8007SOL     OW24919   0.182   1.282   4.029
 8007SOL    HW124920   0.219   1.276   3.936
 8007SOL    HW224921   0.223   1.211   4.086
 8008SOL     OW24922   6.146   5.281   0.630
 8008SOL    HW124923   6.093   5.199   0.609
 8008SOL    HW224924   6.087   5.349   0.672
 8009SOL     OW24925   6.913   0.030   4.066
 8009SOL    HW124926   6.884   6.986   4.000
 8009SOL    HW224927   7.012   0.033   4.070
 8010SOL     OW24928   1.723   3.048   6.726
 8010SOL    HW124929   1.704   3.122   6.791
 8010SOL    HW224930   1.707   3.080   6.633
 8011SOL     OW24931   2.203   2.424   0.734
 8011SOL    HW124932   2.265   2.452   0.807
 8011SOL    HW224933   2.163   2.505   0.692
 8012SOL     OW24934   2.928   0.327   3.461
 8012SOL    HW124935   2.973   0.416   3.461
 8012SOL    HW224936   2.921   0.293   3.555
 8013SOL     OW24937   5.884   5.398   4.911
 8013SOL    HW124938   5.894   5.301   4.886
 8013SOL    HW224939   5.827   5.444   4.843
 8014SOL     OW24940   2.365   0.467   6.856
 8014SOL    HW124941   2.356   0.372   6.886
 8014SOL    HW224942   2.302   0.484   6.780
 8015SOL     OW24943   1.727   1.988   6.588
 8015SOL    HW124944   1.739   1.938   6.674
 8015SOL    HW224945   1.710   2.085   6.608
 8016SOL     OW24946   3.874   6.747   1.327
 8016SOL    HW124947   3.956   6.690   1.327
 8016SOL    HW224948   3.805   6.704   1.268
 8017SOL     OW24949   5.744   3.996   5.250
 8017SOL    HW124950   5.832   3.949   5.251
 8017SOL    HW224951   5.707   3.994   5.157
 8018SOL     OW24952   5.347   2.768   4.287
 8018SOL    HW124953   5.381   2.822   4.210
 8018SOL    HW224954   5.262   2.807   4.320
 8019SOL     OW24955   2.154   5.022   1.679
 8019SOL    HW124956   2.105   4.990   1.760
 8019SOL    HW224957   2.090   5.071   1.619
 8020SOL     OW24958   5.752   6.339   6.399
 8020SOL    HW124959   5.696   6.278   6.455
 8020SOL    HW224960   5.848   6.312   6.407
 8021SOL     OW24961   0.403   0.735   0.916
 8021SOL    HW124962   0.314   0.767   0.882
 8021SOL    HW224963   0.452   0.811   0.957
 8022SOL     OW24964   4.383   5.769   3.268
 8022SOL    HW124965   4.471   5.757   3.222
 8022SOL    HW224966   4.396   5.824   3.351
 8023SOL     OW24967   6.395   6.669   3.549
 8023SOL    HW124968   6.354   6.641   3.636
 8023SOL    HW224969   6.481   6.621   3.535
 8024SOL     OW24970   5.006   5.457   4.333
 8024SOL    HW124971   5.002   5.413   4.422
 8024SOL    HW224972   4.935   5.418   4.273
 8025SOL     OW24973   3.125   6.280   0.254
 8025SOL    HW124974   3.215   6.280   0.297
 8025SOL    HW224975   3.073   6.359   0.286
 8026SOL     OW24976   1.911   2.804   0.812
 8026SOL    HW124977   1.854   2.729   0.844
 8026SOL    HW224978   1.870   2.845   0.730
 8027SOL     OW24979   5.339   3.419   5.685
 8027SOL    HW124980   5.276   3.469   5.744
 8027SOL    HW224981   5.411   3.377   5.740
 8028SOL     OW24982   5.371   5.455   0.324
 8028SOL    HW124983   5.453   5.399   0.336
 8028SOL    HW224984   5.330   5.473   0.413
 8029SOL     OW24985   3.103   4.775   0.524
 8029SOL    HW124986   3.019   4.725   0.544
 8029SOL    HW224987   3.091   4.829   0.442
 8030SOL     OW24988   5.828   3.709   0.134
 8030SOL    HW124989   5.873   3.621   0.120
 8030SOL    HW224990   5.819   3.727   0.231
 8031SOL     OW24991   3.441   6.131   1.240
 8031SOL    HW124992   3.446   6.215   1.186
 8031SOL    HW224993   3.452   6.052   1.179
 8032SOL     OW24994   4.819   4.681   5.532
 8032SOL    HW124995   4.916   4.684   5.559
 8032SOL    HW224996   4.768   4.630   5.601
 8033SOL     OW24997   6.122   2.311   0.794
 8033SOL    HW124998   6.082   2.274   0.879
 8033SOL    HW224999   6.209   2.356   0.815
 8034SOL     OW25000   6.145   1.029   4.722
 8034SOL    HW125001   6.191   1.060   4.639
 8034SOL    HW225002   6.171   0.934   4.741
 8035SOL     OW25003   5.614   6.382   0.349
 8035SOL    HW125004   5.515   6.376   0.359
 8035SOL    HW225005   5.658   6.340   0.429
 8036SOL     OW25006   2.055   4.641   1.483
 8036SOL    HW125007   2.105   4.728   1.483
 8036SOL    HW225008   1.963   4.656   1.518
 8037SOL     OW25009   2.077   3.323   1.057
 8037SOL    HW125010   2.158   3.265   1.062
 8037SOL    HW225011   2.008   3.290   1.122
 8038SOL     OW25012   6.703   1.473   3.797
 8038SOL    HW125013   6.721   1.475   3.895
 8038SOL    HW225014   6.654   1.557   3.771
 8039SOL     OW25015   2.961   6.973   4.701
 8039SOL    HW125016   2.886   6.908   4.689
 8039SOL    HW225017   3.048   6.925   4.695
 8040SOL     OW25018   6.477   5.661   1.066
 8040SOL    HW125019   6.477   5.581   1.006
 8040SOL    HW225020   6.530   5.734   1.024
 8041SOL     OW25021   4.156   2.111   0.663
 8041SOL    HW125022   4.105   2.147   0.585
 8041SOL    HW225023   4.254   2.116   0.645
 8042SOL     OW25024   2.678   3.876   0.777
 8042SOL    HW125025   2.745   3.950   0.785
 8042SOL    HW225026   2.688   3.832   0.688
 8043SOL     OW25027   2.393   0.108   1.126
 8043SOL    HW125028   2.322   0.039   1.113
 8043SOL    HW225029   2.407   0.124   1.224
 8044SOL     OW25030   3.294   4.008   1.497
 8044SOL    HW125031   3.252   3.918   1.508
 8044SOL    HW225032   3.283   4.059   1.582
 8045SOL     OW25033   6.396   2.930   3.596
 8045SOL    HW125034   6.355   2.936   3.687
 8045SOL    HW225035   6.493   2.955   3.602
 8046SOL     OW25036   7.026   5.290   6.033
 8046SOL    HW125037   0.041   5.224   6.095
 8046SOL    HW225038   6.998   5.372   6.084
 8047SOL     OW25039   2.589   6.281   3.993
 8047SOL    HW125040   2.682   6.302   3.962
 8047SOL    HW225041   2.553   6.359   4.045
 8048SOL     OW25042   6.461   0.620   6.204
 8048SOL    HW125043   6.558   0.598   6.188
 8048SOL    HW225044   6.428   0.678   6.130
 8049SOL     OW25045   1.446   6.106   0.644
 8049SOL    HW125046   1.348   6.125   0.650
 8049SOL    HW225047   1.485   6.160   0.569
 8050SOL     OW25048   0.918   3.225   0.853
 8050SOL    HW125049   0.979   3.301   0.834
 8050SOL    HW225050   0.879   3.190   0.768
 8051SOL     OW25051   3.573   1.914   4.086
 8051SOL    HW125052   3.512   1.861   4.026
 8051SOL    HW225053   3.668   1.900   4.057
 8052SOL     OW25054   3.334   1.906   2.964
 8052SOL    HW125055   3.272   1.982   2.947
 8052SOL    HW225056   3.296   1.822   2.926
 8053SOL     OW25057   3.848   3.358   1.921
 8053SOL    HW125058   3.822   3.454   1.916
 8053SOL    HW225059   3.817   3.320   2.009
 8054SOL     OW25060   4.425   5.970   4.099
 8054SOL    HW125061   4.354   5.916   4.145
 8054SOL    HW225062   4.454   5.922   4.016
 8055SOL     OW25063   1.079   6.863   5.121
 8055SOL    HW125064   1.125   6.950   5.102
 8055SOL    HW225065   1.147   6.789   5.120
 8056SOL     OW25066   4.209   1.589   2.872
 8056SOL    HW125067   4.287   1.545   2.914
 8056SOL    HW225068   4.192   1.548   2.782
 8057SOL     OW25069   3.867   0.132   3.595
 8057SOL    HW125070   3.945   0.161   3.540
 8057SOL    HW225071   3.831   0.210   3.645
 8058SOL     OW25072   2.262   0.043   3.391
 8058SOL    HW125073   2.266   0.100   3.473
 8058SOL    HW225074   2.314   0.087   3.317
 8059SOL     OW25075   2.751   1.331   4.195
 8059SOL    HW125076   2.774   1.323   4.098
 8059SOL    HW225077   2.728   1.427   4.216
 8060SOL     OW25078   0.662   1.970   4.812
 8060SOL    HW125079   0.621   2.041   4.755
 8060SOL    HW225080   0.715   2.012   4.886
 8061SOL     OW25081   6.813   5.864   1.636
 8061SOL    HW125082   6.724   5.818   1.641
 8061SOL    HW225083   6.845   5.884   1.729
 8062SOL     OW25084   2.078   3.413   2.237
 8062SOL    HW125085   2.098   3.493   2.292
 8062SOL    HW225086   2.123   3.422   2.148
 8063SOL     OW25087   2.763   3.461   6.986
 8063SOL    HW125088   2.759   3.440   6.889
 8063SOL    HW225089   2.835   3.528   7.004
 8064SOL     OW25090   6.398   3.135   6.960
 8064SOL    HW125091   6.314   3.103   6.916
 8064SOL    HW225092   6.406   3.093   0.024
 8065SOL     OW25093   4.368   6.651   6.297
 8065SOL    HW125094   4.466   6.653   6.277
 8065SOL    HW225095   4.334   6.557   6.286
 8066SOL     OW25096   2.518   0.367   1.884
 8066SOL    HW125097   2.602   0.375   1.830
 8066SOL    HW225098   2.539   0.379   1.981
 8067SOL     OW25099   4.888   1.877   2.005
 8067SOL    HW125100   4.870   1.941   1.930
 8067SOL    HW225101   4.975   1.901   2.048
 8068SOL     OW25102   6.927   4.642   4.083
 8068SOL    HW125103   6.854   4.575   4.097
 8068SOL    HW225104   7.016   4.599   4.099
 8069SOL     OW25105   1.327   6.247   2.536
 8069SOL    HW125106   1.269   6.173   2.568
 8069SOL    HW225107   1.274   6.309   2.478
 8070SOL     OW25108   3.796   6.965   2.267
 8070SOL    HW125109   3.782   6.889   2.204
 8070SOL    HW225110   3.740   0.017   2.239
 8071SOL     OW25111   3.621   6.259   0.734
 8071SOL    HW125112   3.612   6.350   0.694
 8071SOL    HW225113   3.586   6.190   0.669
 8072SOL     OW25114   5.346   0.952   2.404
 8072SOL    HW125115   5.428   0.920   2.355
 8072SOL    HW225116   5.266   0.942   2.344
 8073SOL     OW25117   4.651   6.910   6.064
 8073SOL    HW125118   4.586   6.834   6.059
 8073SOL    HW225119   4.742   6.875   6.088
 8074SOL     OW25120   3.344   3.993   6.910
 8074SOL    HW125121   3.337   3.968   7.006
 8074SOL    HW225122   3.372   3.914   6.856
 8075SOL     OW25123   5.625   2.045   2.966
 8075SOL    HW125124   5.721   2.042   2.994
 8075SOL    HW225125   5.605   2.134   2.924
 8076SOL     OW25126   5.012   2.807   6.313
 8076SOL    HW125127   5.026   2.904   6.335
 8076SOL    HW225128   4.987   2.758   6.397
 8077SOL     OW25129   1.440   0.551   0.384
 8077SOL    HW125130   1.445   0.631   0.443
 8077SOL    HW225131   1.474   0.471   0.432
 8078SOL     OW25132   5.747   3.352   0.340
 8078SOL    HW125133   5.701   3.268   0.310
 8078SOL    HW225134   5.679   3.417   0.374
 8079SOL     OW25135   0.603   1.575   1.638
 8079SOL    HW125136   0.550   1.584   1.723
 8079SOL    HW225137   0.677   1.509   1.652
 8080SOL     OW25138   3.468   5.448   0.187
 8080SOL    HW125139   3.524   5.365   0.176
 8080SOL    HW225140   3.372   5.423   0.179
 8081SOL     OW25141   6.053   1.491   5.524
 8081SOL    HW125142   5.963   1.524   5.554
 8081SOL    HW225143   6.058   1.496   5.425
 8082SOL     OW25144   6.175   3.462   4.243
 8082SOL    HW125145   6.258   3.463   4.299
 8082SOL    HW225146   6.106   3.404   4.286
 8083SOL     OW25147   5.605   2.089   4.226
 8083SOL    HW125148   5.685   2.033   4.247
 8083SOL    HW225149   5.525   2.031   4.216
 8084SOL     OW25150   6.895   0.011   0.982
 8084SOL    HW125151   6.924   6.942   0.980
 8084SOL    HW225152   6.799   0.016   1.012
 8085SOL     OW25153   6.349   2.000   0.862
 8085SOL    HW125154   6.370   2.039   0.952
 8085SOL    HW225155   6.250   1.986   0.854
 8086SOL     OW25156   3.222   6.313   5.810
 8086SOL    HW125157   3.307   6.269   5.780
 8086SOL    HW225158   3.206   6.292   5.906
 8087SOL     OW25159   2.763   3.467   0.717
 8087SOL    HW125160   2.839   3.409   0.748
 8087SOL    HW225161   2.682   3.448   0.772
 8088SOL     OW25162   4.491   0.480   2.246
 8088SOL    HW125163   4.577   0.532   2.240
 8088SOL    HW225164   4.442   0.506   2.329
 8089SOL     OW25165   5.912   3.061   0.331
 8089SOL    HW125166   5.946   3.056   0.425
 8089SOL    HW225167   5.816   3.088   0.331
 8090SOL     OW25168   4.425   2.285   5.074
 8090SOL    HW125169   4.339   2.331   5.094
 8090SOL    HW225170   4.418   2.239   4.985
 8091SOL     OW25171   2.859   5.075   5.942
 8091SOL    HW125172   2.867   5.168   5.906
 8091SOL    HW225173   2.762   5.048   5.943
 8092SOL     OW25174   6.837   2.157   3.886
 8092SOL    HW125175   6.810   2.252   3.871
 8092SOL    HW225176   6.933   2.154   3.914
 8093SOL     OW25177   5.442   5.717   0.938
 8093SOL    HW125178   5.396   5.629   0.944
 8093SOL    HW225179   5.377   5.791   0.957
 8094SOL     OW25180   1.388   4.182   4.451
 8094SOL    HW125181   1.351   4.090   4.468
 8094SOL    HW225182   1.460   4.202   4.517
 8095SOL     OW25183   6.103   3.646   4.584
 8095SOL    HW125184   6.071   3.569   4.639
 8095SOL    HW225185   6.049   3.652   4.500
 8096SOL     OW25186   3.762   0.625   0.287
 8096SOL    HW125187   3.728   0.717   0.308
 8096SOL    HW225188   3.847   0.633   0.235
 8097SOL     OW25189   4.376   1.044   4.598
 8097SOL    HW125190   4.358   1.142   4.608
 8097SOL    HW225191   4.397   1.024   4.502
 8098SOL     OW25192   3.143   1.222   4.402
 8098SOL    HW125193   3.060   1.175   4.433
 8098SOL    HW225194   3.117   1.303   4.351
 8099SOL     OW25195   5.000   6.274   4.632
 8099SOL    HW125196   4.929   6.233   4.575
 8099SOL    HW225197   4.996   6.373   4.625
 8100SOL     OW25198   0.118   5.922   0.913
 8100SOL    HW125199   0.212   5.895   0.931
 8100SOL    HW225200   0.096   6.005   0.965
 8101SOL     OW25201   0.663   5.271   2.768
 8101SOL    HW125202   0.639   5.227   2.682
 8101SOL    HW225203   0.759   5.297   2.766
 8102SOL     OW25204   0.258   6.933   6.486
 8102SOL    HW125205   0.305   6.915   6.400
 8102SOL    HW225206   0.197   6.857   6.508
 8103SOL     OW25207   2.468   1.732   2.398
 8103SOL    HW125208   2.542   1.670   2.424
 8103SOL    HW225209   2.485   1.822   2.437
 8104SOL     OW25210   2.597   5.864   5.883
 8104SOL    HW125211   2.590   5.824   5.974
 8104SOL    HW225212   2.596   5.964   5.891
 8105SOL     OW25213   2.073   2.702   2.736
 8105SOL    HW125214   2.147   2.730   2.675
 8105SOL    HW225215   1.986   2.707   2.687
 8106SOL     OW25216   0.236   4.046   5.174
 8106SOL    HW125217   0.233   3.947   5.165
 8106SOL    HW225218   0.248   4.087   5.084
 8107SOL     OW25219   1.136   5.677   6.524
 8107SOL    HW125220   1.122   5.669   6.425
 8107SOL    HW225221   1.201   5.608   6.555
 8108SOL     OW25222   2.138   3.411   5.173
 8108SOL    HW125223   2.076   3.452   5.240
 8108SOL    HW225224   2.226   3.459   5.176
 8109SOL     OW25225   1.170   5.660   5.354
 8109SOL    HW125226   1.202   5.745   5.313
 8109SOL    HW225227   1.232   5.586   5.329
 8110SOL     OW25228   1.341   4.447   0.808
 8110SOL    HW125229   1.432   4.473   0.840
 8110SOL    HW225230   1.304   4.376   0.867
 8111SOL     OW25231   3.074   5.942   4.176
 8111SOL    HW125232   3.164   5.948   4.132
 8111SOL    HW225233   3.010   5.898   4.114
 8112SOL     OW25234   4.096   1.031   4.877
 8112SOL    HW125235   4.083   0.948   4.822
 8112SOL    HW225236   4.022   1.038   4.944
 8113SOL     OW25237   4.017   2.882   6.259
 8113SOL    HW125238   4.019   2.787   6.228
 8113SOL    HW225239   3.948   2.933   6.208
 8114SOL     OW25240   3.344   3.724   1.863
 8114SOL    HW125241   3.316   3.729   1.959
 8114SOL    HW225242   3.425   3.666   1.855
 8115SOL     OW25243   3.963   2.185   0.824
 8115SOL    HW125244   3.880   2.134   0.797
 8115SOL    HW225245   4.033   2.172   0.754
 8116SOL     OW25246   4.998   1.143   5.596
 8116SOL    HW125247   5.009   1.232   5.640
 8116SOL    HW225248   4.963   1.077   5.663
 8117SOL     OW25249   2.333   1.829   5.856
 8117SOL    HW125250   2.424   1.811   5.894
 8117SOL    HW225251   2.280   1.882   5.923
 8118SOL     OW25252   1.259   2.263   4.292
 8118SOL    HW125253   1.249   2.177   4.241
 8118SOL    HW225254   1.291   2.335   4.230
 8119SOL     OW25255   1.054   5.972   1.690
 8119SOL    HW125256   1.063   5.874   1.701
 8119SOL    HW225257   1.123   6.019   1.746
 8120SOL     OW25258   4.654   4.101   1.770
 8120SOL    HW125259   4.593   4.177   1.789
 8120SOL    HW225260   4.601   4.022   1.739
 8121SOL     OW25261   6.731   6.781   3.357
 8121SOL    HW125262   6.662   6.789   3.285
 8121SOL    HW225263   6.777   6.869   3.368
 8122SOL     OW25264   0.453   5.800   1.794
 8122SOL    HW125265   0.361   5.834   1.775
 8122SOL    HW225266   0.483   5.835   1.882
 8123SOL     OW25267   0.593   5.453   0.314
 8123SOL    HW125268   0.667   5.393   0.347
 8123SOL    HW225269   0.505   5.414   0.342
 8124SOL     OW25270   1.054   6.419   3.210
 8124SOL    HW125271   0.984   6.351   3.234
 8124SOL    HW225272   1.121   6.377   3.149
 8125SOL     OW25273   5.903   5.570   2.725
 8125SOL    HW125274   5.879   5.594   2.819
 8125SOL    HW225275   5.898   5.651   2.668
 8126SOL     OW25276   6.619   4.546   2.631
 8126SOL    HW125277   6.660   4.594   2.554
 8126SOL    HW225278   6.661   4.456   2.640
 8127SOL     OW25279   3.659   4.896   0.869
 8127SOL    HW125280   3.616   4.983   0.894
 8127SOL    HW225281   3.646   4.830   0.943
 8128SOL     OW25282   3.528   2.178   5.536
 8128SOL    HW125283   3.435   2.201   5.507
 8128SOL    HW225284   3.593   2.240   5.493
 8129SOL     OW25285   5.043   6.157   6.812
 8129SOL    HW125286   5.007   6.068   6.782
 8129SOL    HW225287   4.973   6.204   6.866
 8130SOL     OW25288   0.815   6.572   0.437
 8130SOL    HW125289   0.899   6.546   0.389
 8130SOL    HW225290   0.831   6.571   0.535
 8131SOL     OW25291   1.542   1.227   0.374
 8131SOL    HW125292   1.499   1.316   0.361
 8131SOL    HW225293   1.533   1.172   0.291
 8132SOL     OW25294   6.232   4.267   2.804
 8132SOL    HW125295   6.287   4.295   2.725
 8132SOL    HW225296   6.235   4.339   2.873
 8133SOL     OW25297   0.697   5.645   2.240
 8133SOL    HW125298   0.743   5.722   2.285
 8133SOL    HW225299   0.749   5.561   2.256
 8134SOL     OW25300   1.918   2.758   2.245
 8134SOL    HW125301   1.940   2.794   2.336
 8134SOL    HW225302   1.966   2.811   2.176
 8135SOL     OW25303   3.850   6.121   2.512
 8135SOL    HW125304   3.930   6.167   2.550
 8135SOL    HW225305   3.868   6.095   2.418
 8136SOL     OW25306   2.626   6.025   1.743
 8136SOL    HW125307   2.611   5.929   1.721
 8136SOL    HW225308   2.571   6.083   1.682
 8137SOL     OW25309   3.451   3.357   4.909
 8137SOL    HW125310   3.531   3.315   4.867
 8137SOL    HW225311   3.429   3.310   4.995
 8138SOL     OW25312   4.987   0.905   3.930
 8138SOL    HW125313   4.971   0.826   3.871
 8138SOL    HW225314   5.077   0.944   3.910
 8139SOL     OW25315   1.965   3.228   4.585
 8139SOL    HW125316   2.022   3.146   4.593
 8139SOL    HW225317   2.023   3.307   4.564
 8140SOL     OW25318   4.597   1.227   1.063
 8140SOL    HW125319   4.517   1.288   1.062
 8140SOL    HW225320   4.590   1.165   1.141
 8141SOL     OW25321   6.121   0.341   5.644
 8141SOL    HW125322   6.055   0.390   5.701
 8141SOL    HW225323   6.181   0.406   5.598
 8142SOL     OW25324   2.384   5.457   0.577
 8142SOL    HW125325   2.477   5.477   0.546
 8142SOL    HW225326   2.339   5.397   0.510
 8143SOL     OW25327   5.917   4.782   0.811
 8143SOL    HW125328   5.971   4.829   0.881
 8143SOL    HW225329   5.879   4.849   0.747
 8144SOL     OW25330   0.941   5.621   0.522
 8144SOL    HW125331   0.865   5.558   0.534
 8144SOL    HW225332   0.938   5.691   0.594
 8145SOL     OW25333   5.721   5.870   0.084
 8145SOL    HW125334   5.671   5.828   0.159
 8145SOL    HW225335   5.687   5.963   0.069
 8146SOL     OW25336   6.647   6.460   4.702
 8146SOL    HW125337   6.716   6.456   4.774
 8146SOL    HW225338   6.557   6.438   4.741
 8147SOL     OW25339   1.894   0.852   6.046
 8147SOL    HW125340   1.800   0.875   6.071
 8147SOL    HW225341   1.897   0.820   5.951
 8148SOL     OW25342   4.698   4.049   0.518
 8148SOL    HW125343   4.650   4.015   0.598
 8148SOL    HW225344   4.633   4.065   0.443
 8149SOL     OW25345   1.109   0.391   5.278
 8149SOL    HW125346   1.097   0.300   5.237
 8149SOL    HW225347   1.022   0.421   5.318
 8150SOL     OW25348   0.435   3.923   0.676
 8150SOL    HW125349   0.355   3.952   0.625
 8150SOL    HW225350   0.411   3.912   0.773
 8151SOL     OW25351   6.556   5.885   3.111
 8151SOL    HW125352   6.540   5.787   3.115
 8151SOL    HW225353   6.619   5.906   3.036
 8152SOL     OW25354   5.169   1.370   2.773
 8152SOL    HW125355   5.252   1.375   2.828
 8152SOL    HW225356   5.110   1.298   2.808
 8153SOL     OW25357   0.288   1.853   2.384
 8153SOL    HW125358   0.336   1.938   2.366
 8153SOL    HW225359   0.236   1.861   2.470
 8154SOL     OW25360   1.793   0.888   2.841
 8154SOL    HW125361   1.840   0.941   2.770
 8154SOL    HW225362   1.826   0.917   2.931
 8155SOL     OW25363   1.622   4.841   3.876
 8155SOL    HW125364   1.679   4.770   3.834
 8155SOL    HW225365   1.530   4.804   3.890
 8156SOL     OW25366   0.866   4.026   0.592
 8156SOL    HW125367   0.952   4.048   0.639
 8156SOL    HW225368   0.878   4.041   0.494
 8157SOL     OW25369   6.815   4.299   5.087
 8157SOL    HW125370   6.826   4.234   5.012
 8157SOL    HW225371   6.767   4.255   5.163
 8158SOL     OW25372   5.949   5.638   6.831
 8158SOL    HW125373   6.044   5.650   6.799
 8158SOL    HW225374   5.894   5.600   6.757
 8159SOL     OW25375   2.631   0.050   5.270
 8159SOL    HW125376   2.697   0.080   5.338
 8159SOL    HW225377   2.577   0.129   5.238
 8160SOL     OW25378   5.588   1.446   2.130
 8160SOL    HW125379   5.684   1.447   2.101
 8160SOL    HW225380   5.548   1.357   2.111
 8161SOL     OW25381   6.357   2.715   2.173
 8161SOL    HW125382   6.450   2.741   2.197
 8161SOL    HW225383   6.328   2.637   2.229
 8162SOL     OW25384   0.827   5.455   5.042
 8162SOL    HW125385   0.810   5.494   5.132
 8162SOL    HW225386   0.924   5.433   5.032
 8163SOL     OW25387   4.441   4.592   5.627
 8163SOL    HW125388   4.394   4.505   5.611
 8163SOL    HW225389   4.529   4.573   5.671
 8164SOL     OW25390   5.317   1.599   0.817
 8164SOL    HW125391   5.368   1.600   0.731
 8164SOL    HW225392   5.331   1.686   0.865
 8165SOL     OW25393   0.706   1.580   6.331
 8165SOL    HW125394   0.703   1.562   6.429
 8165SOL    HW225395   0.768   1.514   6.287
 8166SOL     OW25396   1.784   1.963   4.972
 8166SOL    HW125397   1.805   2.061   4.980
 8166SOL    HW225398   1.860   1.916   4.928
 8167SOL     OW25399   1.707   3.099   3.476
 8167SOL    HW125400   1.771   3.129   3.547
 8167SOL    HW225401   1.733   3.008   3.445
 8168SOL     OW25402   1.807   0.227   2.542
 8168SOL    HW125403   1.813   0.308   2.483
 8168SOL    HW225404   1.896   0.207   2.581
 8169SOL     OW25405   4.926   3.659   0.622
 8169SOL    HW125406   5.006   3.605   0.595
 8169SOL    HW225407   4.910   3.730   0.553
 8170SOL     OW25408   6.850   5.088   2.341
 8170SOL    HW125409   6.940   5.094   2.297
 8170SOL    HW225410   6.861   5.103   2.439
 8171SOL     OW25411   2.620   1.684   0.902
 8171SOL    HW125412   2.624   1.715   0.997
 8171SOL    HW225413   2.528   1.648   0.882
 8172SOL     OW25414   1.442   2.812   0.798
 8172SOL    HW125415   1.464   2.735   0.858
 8172SOL    HW225416   1.378   2.781   0.727
 8173SOL     OW25417   5.774   0.668   1.500
 8173SOL    HW125418   5.788   0.570   1.487
 8173SOL    HW225419   5.797   0.692   1.595
 8174SOL     OW25420   2.569   6.220   3.683
 8174SOL    HW125421   2.513   6.295   3.649
 8174SOL    HW225422   2.520   6.173   3.756
 8175SOL     OW25423   1.067   2.004   6.272
 8175SOL    HW125424   1.022   1.921   6.303
 8175SOL    HW225425   1.019   2.042   6.193
 8176SOL     OW25426   2.833   4.671   0.299
 8176SOL    HW125427   2.845   4.720   0.386
 8176SOL    HW225428   2.819   4.573   0.318
 8177SOL     OW25429   3.282   1.413   3.910
 8177SOL    HW125430   3.300   1.447   4.002
 8177SOL    HW225431   3.184   1.412   3.893
 8178SOL     OW25432   2.748   6.527   1.124
 8178SOL    HW125433   2.749   6.624   1.148
 8178SOL    HW225434   2.690   6.477   1.189
 8179SOL     OW25435   5.754   0.778   3.567
 8179SOL    HW125436   5.655   0.783   3.581
 8179SOL    HW225437   5.793   0.870   3.572
 8180SOL     OW25438   5.093   5.837   0.318
 8180SOL    HW125439   5.129   5.857   0.227
 8180SOL    HW225440   5.163   5.793   0.374
 8181SOL     OW25441   0.042   0.375   6.797
 8181SOL    HW125442   6.995   0.346   6.858
 8181SOL    HW225443   0.005   0.390   6.705
 8182SOL     OW25444   3.115   3.649   3.949
 8182SOL    HW125445   3.042   3.616   4.010
 8182SOL    HW225446   3.184   3.577   3.938
 8183SOL     OW25447   6.930   0.670   5.690
 8183SOL    HW125448   6.984   0.597   5.649
 8183SOL    HW225449   6.973   0.759   5.671
 8184SOL     OW25450   0.008   5.950   6.258
 8184SOL    HW125451   6.951   5.975   6.307
 8184SOL    HW225452   7.026   5.980   6.163
 8185SOL     OW25453   0.046   6.271   5.696
 8185SOL    HW125454   0.052   6.314   5.785
 8185SOL    HW225455   0.137   6.243   5.665
 8186SOL     OW25456   1.886   5.290   0.292
 8186SOL    HW125457   1.970   5.243   0.267
 8186SOL    HW225458   1.891   5.318   0.388
 8187SOL     OW25459   1.448   0.100   5.195
 8187SOL    HW125460   1.400   0.187   5.180
 8187SOL    HW225461   1.418   0.060   5.281
 8188SOL     OW25462   1.776   2.801   2.755
 8188SOL    HW125463   1.789   2.869   2.683
 8188SOL    HW225464   1.739   2.717   2.716
 8189SOL     OW25465   5.793   5.100   3.490
 8189SOL    HW125466   5.840   5.012   3.496
 8189SOL    HW225467   5.860   5.174   3.481
 8190SOL     OW25468   6.490   4.011   3.037
 8190SOL    HW125469   6.396   4.031   3.063
 8190SOL    HW225470   6.541   4.097   3.029
 8191SOL     OW25471   4.337   5.406   1.320
 8191SOL    HW125472   4.303   5.328   1.373
 8191SOL    HW225473   4.259   5.453   1.277
 8192SOL     OW25474   0.596   5.718   3.294
 8192SOL    HW125475   0.643   5.806   3.302
 8192SOL    HW225476   0.564   5.705   3.200
 8193SOL     OW25477   0.793   4.431   4.178
 8193SOL    HW125478   0.786   4.521   4.222
 8193SOL    HW225479   0.889   4.401   4.178
 8194SOL     OW25480   4.486   0.289   1.897
 8194SOL    HW125481   4.499   0.262   1.801
 8194SOL    HW225482   4.391   0.317   1.911
 8195SOL     OW25483   6.316   0.166   4.316
 8195SOL    HW125484   6.332   0.110   4.397
 8195SOL    HW225485   6.314   0.107   4.235
 8196SOL     OW25486   4.601   1.212   1.837
 8196SOL    HW125487   4.523   1.197   1.776
 8196SOL    HW225488   4.606   1.310   1.860
 8197SOL     OW25489   3.616   1.935   3.039
 8197SOL    HW125490   3.517   1.946   3.041
 8197SOL    HW225491   3.650   1.928   3.133
 8198SOL     OW25492   1.379   5.891   1.521
 8198SOL    HW125493   1.406   5.945   1.441
 8198SOL    HW225494   1.326   5.812   1.491
 8199SOL     OW25495   5.761   2.776   0.409
 8199SOL    HW125496   5.855   2.745   0.426
 8199SOL    HW225497   5.735   2.841   0.481
 8200SOL     OW25498   4.572   3.588   0.571
 8200SOL    HW125499   4.640   3.523   0.606
 8200SOL    HW225500   4.582   3.676   0.618
 8201SOL     OW25501   6.188   6.920   5.633
 8201SOL    HW125502   6.144   6.850   5.576
 8201SOL    HW225503   6.245   6.875   5.701
 8202SOL     OW25504   0.939   6.361   1.875
 8202SOL    HW125505   0.844   6.368   1.843
 8202SOL    HW225506   0.953   6.272   1.918
 8203SOL     OW25507   1.750   3.608   1.265
 8203SOL    HW125508   1.709   3.665   1.336
 8203SOL    HW225509   1.823   3.553   1.304
 8204SOL     OW25510   2.706   3.002   0.987
 8204SOL    HW125511   2.775   2.988   0.916
 8204SOL    HW225512   2.617   3.016   0.945
 8205SOL     OW25513   1.133   4.136   0.014
 8205SOL    HW125514   1.202   4.168   0.079
 8205SOL    HW225515   1.170   4.059   6.988
 8206SOL     OW25516   2.954   0.798   1.112
 8206SOL    HW125517   2.999   0.760   1.031
 8206SOL    HW225518   2.883   0.863   1.084
 8207SOL     OW25519   3.573   3.896   4.346
 8207SOL    HW125520   3.664   3.912   4.308
 8207SOL    HW225521   3.517   3.978   4.334
 8208SOL     OW25522   1.966   0.774   0.179
 8208SOL    HW125523   2.035   0.824   0.231
 8208SOL    HW225524   2.012   0.714   0.113
 8209SOL     OW25525   6.269   1.619   4.740
 8209SOL    HW125526   6.340   1.649   4.803
 8209SOL    HW225527   6.251   1.691   4.673
 8210SOL     OW25528   2.161   2.753   6.761
 8210SOL    HW125529   2.138   2.656   6.754
 8210SOL    HW225530   2.101   2.797   6.828
 8211SOL     OW25531   3.911   4.928   1.564
 8211SOL    HW125532   3.868   4.849   1.609
 8211SOL    HW225533   3.843   5.000   1.552
 8212SOL     OW25534   1.727   2.632   2.987
 8212SOL    HW125535   1.644   2.578   2.998
 8212SOL    HW225536   1.710   2.706   2.921
 8213SOL     OW25537   6.605   5.001   1.200
 8213SOL    HW125538   6.586   5.097   1.178
 8213SOL    HW225539   6.655   4.995   1.286
 8214SOL     OW25540   5.555   3.661   3.690
 8214SOL    HW125541   5.629   3.593   3.696
 8214SOL    HW225542   5.475   3.628   3.740
 8215SOL     OW25543   3.771   4.829   2.776
 8215SOL    HW125544   3.788   4.769   2.697
 8215SOL    HW225545   3.753   4.922   2.744
 8216SOL     OW25546   5.598   4.085   4.012
 8216SOL    HW125547   5.528   4.140   4.059
 8216SOL    HW225548   5.569   4.067   3.918
 8217SOL     OW25549   2.059   5.935   0.820
 8217SOL    HW125550   2.031   5.931   0.915
 8217SOL    HW225551   1.994   5.991   0.768
 8218SOL     OW25552   6.383   2.416   0.021
 8218SOL    HW125553   6.437   2.498   0.043
 8218SOL    HW225554   6.445   2.342   7.022
 8219SOL     OW25555   5.714   1.917   7.007
 8219SOL    HW125556   5.661   1.897   6.923
 8219SOL    HW225557   5.683   2.003   0.019
 8220SOL     OW25558   4.247   3.788   1.607
 8220SOL    HW125559   4.164   3.739   1.633
 8220SOL    HW225560   4.253   3.873   1.659
 8221SOL     OW25561   5.181   5.512   2.926
 8221SOL    HW125562   5.114   5.437   2.924
 8221SOL    HW225563   5.273   5.474   2.930
 8222SOL     OW25564   6.384   2.164   2.110
 8222SOL    HW125565   6.387   2.109   2.027
 8222SOL    HW225566   6.434   2.116   2.183
 8223SOL     OW25567   0.235   5.396   5.928
 8223SOL    HW125568   0.142   5.373   5.959
 8223SOL    HW225569   0.288   5.312   5.917
 8224SOL     OW25570   1.470   2.997   3.415
 8224SOL    HW125571   1.418   3.067   3.366
 8224SOL    HW225572   1.561   3.033   3.436
 8225SOL     OW25573   5.057   1.539   0.454
 8225SOL    HW125574   5.120   1.463   0.473
 8225SOL    HW225575   5.002   1.558   0.536
 8226SOL     OW25576   4.270   0.245   0.283
 8226SOL    HW125577   4.224   0.315   0.338
 8226SOL    HW225578   4.293   0.167   0.342
 8227SOL     OW25579   6.272   3.425   2.771
 8227SOL    HW125580   6.292   3.523   2.769
 8227SOL    HW225581   6.238   3.396   2.681
 8228SOL     OW25582   6.981   2.721   4.572
 8228SOL    HW125583   6.975   2.682   4.664
 8228SOL    HW225584   0.003   2.657   4.512
 8229SOL     OW25585   3.634   5.617   0.633
 8229SOL    HW125586   3.574   5.592   0.557
 8229SOL    HW225587   3.584   5.673   0.698
 8230SOL     OW25588   5.041   7.026   4.265
 8230SOL    HW125589   5.123   7.012   4.208
 8230SOL    HW225590   5.065   7.013   4.361
 8231SOL     OW25591   4.627   5.779   1.342
 8231SOL    HW125592   4.691   5.850   1.372
 8231SOL    HW225593   4.534   5.805   1.367
 8232SOL     OW25594   3.026   1.722   6.685
 8232SOL    HW125595   3.111   1.700   6.636
 8232SOL    HW225596   3.039   1.806   6.738
 8233SOL     OW25597   0.517   5.175   6.676
 8233SOL    HW125598   0.500   5.268   6.642
 8233SOL    HW225599   0.445   5.149   6.740
 8234SOL     OW25600   3.695   2.662   0.016
 8234SOL    HW125601   3.596   2.654   0.011
 8234SOL    HW225602   3.723   2.754   7.015
 8235SOL     OW25603   4.662   2.351   0.225
 8235SOL    HW125604   4.578   2.405   0.217
 8235SOL    HW225605   4.693   2.324   0.134
 8236SOL     OW25606   5.882   2.352   1.188
 8236SOL    HW125607   5.874   2.375   1.285
 8236SOL    HW225608   5.810   2.397   1.136
 8237SOL     OW25609   3.866   5.866   5.701
 8237SOL    HW125610   3.787   5.916   5.666
 8237SOL    HW225611   3.934   5.930   5.736
 8238SOL     OW25612   1.759   1.146   6.458
 8238SOL    HW125613   1.732   1.051   6.441
 8238SOL    HW225614   1.685   1.207   6.428
 8239SOL     OW25615   6.925   1.307   6.567
 8239SOL    HW125616   6.942   1.404   6.586
 8239SOL    HW225617   6.862   1.271   6.636
 8240SOL     OW25618   3.500   4.025   3.652
 8240SOL    HW125619   3.556   3.948   3.682
 8240SOL    HW225620   3.557   4.107   3.645
 8241SOL     OW25621   4.490   6.678   1.233
 8241SOL    HW125622   4.555   6.605   1.211
 8241SOL    HW225623   4.524   6.765   1.198
 8242SOL     OW25624   0.720   3.997   5.651
 8242SOL    HW125625   0.747   3.982   5.556
 8242SOL    HW225626   0.723   4.095   5.671
 8243SOL     OW25627   0.955   3.424   4.678
 8243SOL    HW125628   0.867   3.431   4.726
 8243SOL    HW225629   1.026   3.396   4.743
 8244SOL     OW25630   1.312   6.021   4.857
 8244SOL    HW125631   1.360   5.979   4.934
 8244SOL    HW225632   1.346   5.982   4.771
 8245SOL     OW25633   4.030   3.450   0.790
 8245SOL    HW125634   3.975   3.475   0.711
 8245SOL    HW225635   4.019   3.352   0.809
 8246SOL     OW25636   5.157   4.060   5.443
 8246SOL    HW125637   5.173   4.158   5.433
 8246SOL    HW225638   5.213   4.024   5.518
 8247SOL     OW25639   1.149   6.620   1.673
 8247SOL    HW125640   1.227   6.665   1.629
 8247SOL    HW225641   1.070   6.681   1.672
 8248SOL     OW25642   0.159   4.271   3.431
 8248SOL    HW125643   0.168   4.310   3.523
 8248SOL    HW225644   0.198   4.333   3.364
 8249SOL     OW25645   1.767   5.291   3.432
 8249SOL    HW125646   1.739   5.337   3.348
 8249SOL    HW225647   1.763   5.192   3.419
 8250SOL     OW25648   3.950   3.747   2.326
 8250SOL    HW125649   3.880   3.682   2.296
 8250SOL    HW225650   4.035   3.698   2.345
 8251SOL     OW25651   6.071   1.529   5.229
 8251SOL    HW125652   6.002   1.546   5.158
 8251SOL    HW225653   6.132   1.455   5.200
 8252SOL     OW25654   1.294   3.208   4.425
 8252SOL    HW125655   1.320   3.267   4.502
 8252SOL    HW225656   1.351   3.126   4.425
 8253SOL     OW25657   2.964   2.725   5.758
 8253SOL    HW125658   2.964   2.726   5.658
 8253SOL    HW225659   3.017   2.803   5.793
 8254SOL     OW25660   4.170   6.455   3.618
 8254SOL    HW125661   4.071   6.445   3.630
 8254SOL    HW225662   4.189   6.508   3.535
 8255SOL     OW25663   4.494   5.317   3.738
 8255SOL    HW125664   4.565   5.382   3.713
 8255SOL    HW225665   4.532   5.249   3.800
 8256SOL     OW25666   6.617   2.005   3.958
 8256SOL    HW125667   6.682   2.057   3.902
 8256SOL    HW225668   6.544   2.065   3.990
 8257SOL     OW25669   6.702   4.395   4.098
 8257SOL    HW125670   6.669   4.396   4.004
 8257SOL    HW225671   6.631   4.429   4.159
 8258SOL     OW25672   4.514   1.891   6.948
 8258SOL    HW125673   4.575   1.864   6.874
 8258SOL    HW225674   4.555   1.868   0.009
 8259SOL     OW25675   3.816   1.442   1.722
 8259SOL    HW125676   3.868   1.357   1.733
 8259SOL    HW225677   3.768   1.463   1.807
 8260SOL     OW25678   2.696   6.166   0.127
 8260SOL    HW125679   2.758   6.209   0.192
 8260SOL    HW225680   2.724   6.071   0.112
 8261SOL     OW25681   5.460   1.276   1.286
 8261SOL    HW125682   5.413   1.216   1.350
 8261SOL    HW225683   5.450   1.241   1.193
 8262SOL     OW25684   0.836   2.456   0.493
 8262SOL    HW125685   0.776   2.397   0.546
 8262SOL    HW225686   0.865   2.534   0.549
 8263SOL     OW25687   5.973   0.943   0.175
 8263SOL    HW125688   5.978   1.012   0.103
 8263SOL    HW225689   5.896   0.881   0.157
 8264SOL     OW25690   2.244   4.267   2.753
 8264SOL    HW125691   2.167   4.331   2.756
 8264SOL    HW225692   2.272   4.253   2.658
 8265SOL     OW25693   1.934   1.125   1.726
 8265SOL    HW125694   1.946   1.212   1.678
 8265SOL    HW225695   1.841   1.091   1.711
 8266SOL     OW25696   3.675   0.292   3.043
 8266SOL    HW125697   3.720   0.370   3.000
 8266SOL    HW225698   3.612   0.249   2.978
 8267SOL     OW25699   0.748   3.514   0.761
 8267SOL    HW125700   0.690   3.435   0.742
 8267SOL    HW225701   0.691   3.592   0.787
 8268SOL     OW25702   3.297   5.869   5.766
 8268SOL    HW125703   3.205   5.869   5.726
 8268SOL    HW225704   3.306   5.792   5.830
 8269SOL     OW25705   5.677   1.910   1.423
 8269SOL    HW125706   5.650   1.851   1.499
 8269SOL    HW225707   5.605   1.910   1.354
 8270SOL     OW25708   3.042   6.455   3.752
 8270SOL    HW125709   3.099   6.381   3.716
 8270SOL    HW225710   3.097   6.514   3.811
 8271SOL     OW25711   6.897   2.238   1.780
 8271SOL    HW125712   6.981   2.197   1.816
 8271SOL    HW225713   6.848   2.284   1.855
 8272SOL     OW25714   3.609   1.239   3.624
 8272SOL    HW125715   3.609   1.271   3.529
 8272SOL    HW225716   3.516   1.245   3.660
 8273SOL     OW25717   1.992   6.565   1.236
 8273SOL    HW125718   2.074   6.604   1.194
 8273SOL    HW225719   1.913   6.622   1.215
 8274SOL     OW25720   5.174   4.745   3.383
 8274SOL    HW125721   5.083   4.738   3.424
 8274SOL    HW225722   5.232   4.670   3.417
 8275SOL     OW25723   4.728   2.406   6.479
 8275SOL    HW125724   4.813   2.363   6.449
 8275SOL    HW225725   4.716   2.392   6.578
 8276SOL     OW25726   0.431   2.225   3.090
 8276SOL    HW125727   0.371   2.276   3.152
 8276SOL    HW225728   0.524   2.262   3.096
 8277SOL     OW25729   6.505   0.329   6.803
 8277SOL    HW125730   6.453   0.245   6.820
 8277SOL    HW225731   6.495   0.355   6.707
 8278SOL     OW25732   1.688   2.837   0.168
 8278SOL    HW125733   1.622   2.827   0.094
 8278SOL    HW225734   1.677   2.926   0.211
 8279SOL     OW25735   6.667   6.493   4.060
 8279SOL    HW125736   6.723   6.417   4.095
 8279SOL    HW225737   6.592   6.456   4.006
 8280SOL     OW25738   2.650   2.108   6.124
 8280SOL    HW125739   2.645   2.045   6.047
 8280SOL    HW225740   2.731   2.166   6.114
 8281SOL     OW25741   6.183   5.451   2.329
 8281SOL    HW125742   6.224   5.360   2.315
 8281SOL    HW225743   6.128   5.450   2.413
 8282SOL     OW25744   5.361   2.261   5.708
 8282SOL    HW125745   5.276   2.313   5.716
 8282SOL    HW225746   5.438   2.324   5.698
 8283SOL     OW25747   1.938   3.508   5.315
 8283SOL    HW125748   1.919   3.565   5.395
 8283SOL    HW225749   1.874   3.532   5.242
 8284SOL     OW25750   6.405   4.462   1.507
 8284SOL    HW125751   6.373   4.368   1.499
 8284SOL    HW225752   6.401   4.506   1.417
 8285SOL     OW25753   3.637   3.640   4.223
 8285SOL    HW125754   3.615   3.721   4.278
 8285SOL    HW225755   3.552   3.593   4.198
 8286SOL     OW25756   6.847   2.052   6.374
 8286SOL    HW125757   6.758   2.064   6.417
 8286SOL    HW225758   6.835   2.015   6.282
 8287SOL     OW25759   0.898   5.541   4.728
 8287SOL    HW125760   0.985   5.553   4.776
 8287SOL    HW225761   0.850   5.629   4.724
 8288SOL     OW25762   3.037   2.145   2.991
 8288SOL    HW125763   3.069   2.115   3.082
 8288SOL    HW225764   3.104   2.118   2.922
 8289SOL     OW25765   0.157   6.234   0.200
 8289SOL    HW125766   0.234   6.296   0.216
 8289SOL    HW225767   0.100   6.270   0.127
 8290SOL     OW25768   6.599   2.844   0.694
 8290SOL    HW125769   6.609   2.760   0.749
 8290SOL    HW225770   6.559   2.916   0.751
 8291SOL     OW25771   4.447   0.114   1.096
 8291SOL    HW125772   4.512   0.163   1.155
 8291SOL    HW225773   4.358   0.111   1.141
 8292SOL     OW25774   3.287   6.783   6.418
 8292SOL    HW125775   3.241   6.698   6.391
 8292SOL    HW225776   3.363   6.761   6.480
 8293SOL     OW25777   5.148   5.542   4.706
 8293SOL    HW125778   5.226   5.558   4.767
 8293SOL    HW225779   5.172   5.570   4.613
 8294SOL     OW25780   5.618   2.553   0.274
 8294SOL    HW125781   5.525   2.557   0.309
 8294SOL    HW225782   5.667   2.637   0.298
 8295SOL     OW25783   5.181   3.860   0.484
 8295SOL    HW125784   5.279   3.880   0.490
 8295SOL    HW225785   5.166   3.761   0.487
 8296SOL     OW25786   1.302   5.692   0.035
 8296SOL    HW125787   1.319   5.679   0.132
 8296SOL    HW225788   1.383   5.732   7.018
 8297SOL     OW25789   0.500   2.546   2.996
 8297SOL    HW125790   0.423   2.538   2.932
 8297SOL    HW225791   0.576   2.491   2.963
 8298SOL     OW25792   4.682   1.403   1.626
 8298SOL    HW125793   4.742   1.325   1.647
 8298SOL    HW225794   4.658   1.450   1.711
 8299SOL     OW25795   6.741   2.255   1.559
 8299SOL    HW125796   6.802   2.309   1.501
 8299SOL    HW225797   6.783   2.241   1.648
 8300SOL     OW25798   0.514   4.706   3.276
 8300SOL    HW125799   0.597   4.716   3.330
 8300SOL    HW225800   0.437   4.686   3.337
 8301SOL     OW25801   3.462   3.126   6.940
 8301SOL    HW125802   3.455   3.096   6.845
 8301SOL    HW225803   3.556   3.157   6.958
 8302SOL     OW25804   5.651   5.641   6.295
 8302SOL    HW125805   5.647   5.731   6.251
 8302SOL    HW225806   5.603   5.574   6.239
 8303SOL     OW25807   0.291   0.523   5.287
 8303SOL    HW125808   0.266   0.525   5.383
 8303SOL    HW225809   0.301   0.616   5.252
 8304SOL     OW25810   0.117   3.295   6.636
 8304SOL    HW125811   0.208   3.255   6.626
 8304SOL    HW225812   0.117   3.355   6.717
 8305SOL     OW25813   2.860   5.893   3.776
 8305SOL    HW125814   2.937   5.834   3.800
 8305SOL    HW225815   2.803   5.908   3.858
 8306SOL     OW25816   1.050   3.465   4.147
 8306SOL    HW125817   1.057   3.428   4.240
 8306SOL    HW225818   0.983   3.412   4.095
 8307SOL     OW25819   2.637   5.822   1.348
 8307SOL    HW125820   2.556   5.816   1.289
 8307SOL    HW225821   2.607   5.833   1.443
 8308SOL     OW25822   3.809   6.582   2.984
 8308SOL    HW125823   3.768   6.669   3.010
 8308SOL    HW225824   3.909   6.592   2.982
 8309SOL     OW25825   4.998   6.126   2.436
 8309SOL    HW125826   5.050   6.209   2.415
 8309SOL    HW225827   4.968   6.083   2.351
 8310SOL     OW25828   6.816   4.110   0.322
 8310SOL    HW125829   6.841   4.036   0.260
 8310SOL    HW225830   6.729   4.087   0.367
 8311SOL     OW25831   6.396   0.313   0.834
 8311SOL    HW125832   6.427   0.247   0.903
 8311SOL    HW225833   6.460   0.313   0.757
 8312SOL     OW25834   5.255   6.817   1.462
 8312SOL    HW125835   5.209   6.823   1.551
 8312SOL    HW225836   5.249   6.723   1.429
 8313SOL     OW25837   3.301   1.026   2.715
 8313SOL    HW125838   3.361   1.093   2.670
 8313SOL    HW225839   3.248   0.977   2.646
 8314SOL     OW25840   6.604   7.006   3.131
 8314SOL    HW125841   6.517   7.023   3.176
 8314SOL    HW225842   6.636   0.063   3.086
 8315SOL     OW25843   4.981   4.398   6.338
 8315SOL    HW125844   4.885   4.414   6.363
 8315SOL    HW225845   5.039   4.420   6.416
 8316SOL     OW25846   2.171   5.071   6.631
 8316SOL    HW125847   2.080   5.114   6.631
 8316SOL    HW225848   2.241   5.142   6.625
 8317SOL     OW25849   1.968   4.354   2.301
 8317SOL    HW125850   1.961   4.445   2.342
 8317SOL    HW225851   1.879   4.327   2.265
 8318SOL     OW25852   3.548   1.350   5.609
 8318SOL    HW125853   3.474   1.359   5.676
 8318SOL    HW225854   3.520   1.391   5.522
 8319SOL     OW25855   3.501   0.670   4.728
 8319SOL    HW125856   3.475   0.641   4.636
 8319SOL    HW225857   3.552   0.596   4.772
 8320SOL     OW25858   3.535   4.408   1.679
 8320SOL    HW125859   3.519   4.344   1.754
 8320SOL    HW225860   3.578   4.491   1.715
 8321SOL     OW25861   0.866   0.782   1.530
 8321SOL    HW125862   0.795   0.837   1.486
 8321SOL    HW225863   0.833   0.688   1.540
 8322SOL     OW25864   6.376   6.764   0.196
 8322SOL    HW125865   6.349   6.859   0.208
 8322SOL    HW225866   6.295   6.705   0.200
 8323SOL     OW25867   1.756   2.163   1.685
 8323SOL    HW125868   1.836   2.116   1.646
 8323SOL    HW225869   1.754   2.257   1.652
 8324SOL     OW25870   6.614   0.886   1.951
 8324SOL    HW125871   6.713   0.895   1.962
 8324SOL    HW225872   6.578   0.823   2.021
 8325SOL     OW25873   3.456   3.008   3.761
 8325SOL    HW125874   3.439   3.105   3.779
 8325SOL    HW225875   3.507   2.969   3.838
 8326SOL     OW25876   3.879   3.291   5.693
 8326SOL    HW125877   3.913   3.352   5.622
 8326SOL    HW225878   3.821   3.221   5.652
 8327SOL     OW25879   4.849   2.034   6.024
 8327SOL    HW125880   4.854   2.116   5.967
 8327SOL    HW225881   4.941   1.998   6.038
 8328SOL     OW25882   2.730   2.304   5.236
 8328SOL    HW125883   2.758   2.369   5.306
 8328SOL    HW225884   2.659   2.243   5.274
 8329SOL     OW25885   0.059   2.905   5.133
 8329SOL    HW125886   0.075   2.947   5.044
 8329SOL    HW225887   0.125   2.831   5.148
 8330SOL     OW25888   2.814   6.641   6.651
 8330SOL    HW125889   2.718   6.649   6.623
 8330SOL    HW225890   2.835   6.713   6.716
 8331SOL     OW25891   2.578   0.190   0.483
 8331SOL    HW125892   2.674   0.172   0.506
 8331SOL    HW225893   2.556   0.284   0.509
 8332SOL     OW25894   5.082   6.022   2.836
 8332SOL    HW125895   5.046   6.035   2.928
 8332SOL    HW225896   5.135   5.937   2.832
 8333SOL     OW25897   0.802   5.767   6.203
 8333SOL    HW125898   0.777   5.846   6.147
 8333SOL    HW225899   0.774   5.784   6.298
 8334SOL     OW25900   6.015   1.426   3.672
 8334SOL    HW125901   6.087   1.358   3.659
 8334SOL    HW225902   6.038   1.484   3.751
 8335SOL     OW25903   5.373   6.828   5.628
 8335SOL    HW125904   5.428   6.749   5.656
 8335SOL    HW225905   5.278   6.815   5.657
 8336SOL     OW25906   0.329   2.101   2.208
 8336SOL    HW125907   0.400   2.130   2.144
 8336SOL    HW225908   0.276   2.180   2.237
 8337SOL     OW25909   0.488   6.435   2.398
 8337SOL    HW125910   0.403   6.477   2.368
 8337SOL    HW225911   0.469   6.360   2.461
 8338SOL     OW25912   1.612   4.656   0.460
 8338SOL    HW125913   1.640   4.703   0.544
 8338SOL    HW225914   1.672   4.683   0.385
 8339SOL     OW25915   5.600   1.045   2.617
 8339SOL    HW125916   5.529   0.976   2.631
 8339SOL    HW225917   5.557   1.134   2.600
 8340SOL     OW25918   5.267   3.176   0.294
 8340SOL    HW125919   5.238   3.257   0.243
 8340SOL    HW225920   5.191   3.112   0.301
 8341SOL     OW25921   2.303   6.488   0.930
 8341SOL    HW125922   2.362   6.455   0.856
 8341SOL    HW225923   2.207   6.487   0.899
 8342SOL     OW25924   4.364   1.044   0.668
 8342SOL    HW125925   4.331   1.116   0.607
 8342SOL    HW225926   4.359   1.075   0.763
 8343SOL     OW25927   1.776   5.427   5.989
 8343SOL    HW125928   1.858   5.460   6.036
 8343SOL    HW225929   1.698   5.430   6.052
 8344SOL     OW25930   3.908   6.598   5.442
 8344SOL    HW125931   3.987   6.620   5.499
 8344SOL    HW225932   3.855   6.525   5.483
 8345SOL     OW25933   6.202   1.183   2.697
 8345SOL    HW125934   6.196   1.175   2.797
 8345SOL    HW225935   6.296   1.207   2.672
 8346SOL     OW25936   3.018   5.409   2.072
 8346SOL    HW125937   3.114   5.412   2.101
 8346SOL    HW225938   2.977   5.323   2.101
 8347SOL     OW25939   3.616   5.586   4.371
 8347SOL    HW125940   3.568   5.500   4.391
 8347SOL    HW225941   3.553   5.663   4.381
 8348SOL     OW25942   1.923   0.331   0.137
 8348SOL    HW125943   1.928   0.231   0.136
 8348SOL    HW225944   1.828   0.360   0.144
 8349SOL     OW25945   5.927   5.220   1.865
 8349SOL    HW125946   5.974   5.285   1.805
 8349SOL    HW225947   5.989   5.187   1.936
 8350SOL     OW25948   6.195   0.763   4.809
 8350SOL    HW125949   6.124   0.694   4.822
 8350SOL    HW225950   6.284   0.717   4.797
 8351SOL     OW25951   3.362   6.106   2.955
 8351SOL    HW125952   3.430   6.176   2.931
 8351SOL    HW225953   3.403   6.015   2.948
 8352SOL     OW25954   0.194   6.600   1.738
 8352SOL    HW125955   0.112   6.650   1.712
 8352SOL    HW225956   0.275   6.655   1.715
 8353SOL     OW25957   0.365   3.625   2.200
 8353SOL    HW125958   0.428   3.669   2.135
 8353SOL    HW225959   0.317   3.550   2.155
 8354SOL     OW25960   2.522   0.862   0.367
 8354SOL    HW125961   2.580   0.884   0.446
 8354SOL    HW225962   2.548   0.920   0.290
 8355SOL     OW25963   3.144   1.076   0.109
 8355SOL    HW125964   3.056   1.099   0.067
 8355SOL    HW225965   3.135   0.991   0.160
 8356SOL     OW25966   2.275   5.019   6.876
 8356SOL    HW125967   2.244   5.021   6.781
 8356SOL    HW225968   2.196   5.012   6.937
 8357SOL     OW25969   5.148   5.150   4.149
 8357SOL    HW125970   5.230   5.205   4.130
 8357SOL    HW225971   5.077   5.171   4.081
 8358SOL     OW25972   2.415   2.759   5.844
 8358SOL    HW125973   2.410   2.851   5.882
 8358SOL    HW225974   2.508   2.724   5.855
 8359SOL     OW25975   4.257   5.167   3.950
 8359SOL    HW125976   4.258   5.164   3.851
 8359SOL    HW225977   4.225   5.257   3.981
 8360SOL     OW25978   4.729   0.370   3.132
 8360SOL    HW125979   4.756   0.298   3.067
 8360SOL    HW225980   4.718   0.330   3.223
 8361SOL     OW25981   1.906   0.518   2.469
 8361SOL    HW125982   1.999   0.485   2.484
 8361SOL    HW225983   1.896   0.544   2.373
 8362SOL     OW25984   2.712   2.629   0.214
 8362SOL    HW125985   2.791   2.573   0.186
 8362SOL    HW225986   2.639   2.619   0.146
 8363SOL     OW25987   0.250   3.283   0.542
 8363SOL    HW125988   0.290   3.374   0.551
 8363SOL    HW225989   0.308   3.216   0.589
 8364SOL     OW25990   6.462   4.204   3.643
 8364SOL    HW125991   6.472   4.108   3.666
 8364SOL    HW225992   6.480   4.218   3.546
 8365SOL     OW25993   2.142   3.220   6.058
 8365SOL    HW125994   2.111   3.283   6.129
 8365SOL    HW225995   2.063   3.171   6.021
 8366SOL     OW25996   2.795   6.536   2.909
 8366SOL    HW125997   2.738   6.474   2.855
 8366SOL    HW225998   2.892   6.519   2.889
 8367SOL     OW25999   5.638   5.399   3.802
 8367SOL    HW126000   5.554   5.452   3.816
 8367SOL    HW226001   5.654   5.340   3.881
 8368SOL     OW26002   3.092   4.888   6.649
 8368SOL    HW126003   3.092   4.817   6.579
 8368SOL    HW226004   3.167   4.871   6.713
 8369SOL     OW26005   2.462   1.433   1.089
 8369SOL    HW126006   2.423   1.471   1.005
 8369SOL    HW226007   2.561   1.422   1.078
 8370SOL     OW26008   1.183   1.571   6.500
 8370SOL    HW126009   1.157   1.592   6.405
 8370SOL    HW226010   1.109   1.599   6.561
 8371SOL     OW26011   2.010   3.358   0.782
 8371SOL    HW126012   2.038   3.363   0.878
 8371SOL    HW226013   2.042   3.272   0.743
 8372SOL     OW26014   0.399   0.444   1.957
 8372SOL    HW126015   0.372   0.422   1.863
 8372SOL    HW226016   0.486   0.399   1.978
 8373SOL     OW26017   1.508   6.547   5.148
 8373SOL    HW126018   1.517   6.542   5.049
 8373SOL    HW226019   1.551   6.632   5.181
 8374SOL     OW26020   6.483   6.862   6.531
 8374SOL    HW126021   6.581   6.869   6.546
 8374SOL    HW226022   6.446   6.952   6.506
 8375SOL     OW26023   3.322   0.568   6.564
 8375SOL    HW126024   3.376   0.539   6.486
 8375SOL    HW226025   3.315   0.493   6.630
 8376SOL     OW26026   3.404   0.219   4.868
 8376SOL    HW126027   3.416   0.317   4.878
 8376SOL    HW226028   3.340   0.201   4.792
 8377SOL     OW26029   5.851   4.361   0.996
 8377SOL    HW126030   5.915   4.395   1.065
 8377SOL    HW226031   5.792   4.436   0.965
 8378SOL     OW26032   4.974   2.543   3.831
 8378SOL    HW126033   5.000   2.630   3.874
 8378SOL    HW226034   4.898   2.559   3.768
 8379SOL     OW26035   5.848   2.432   2.147
 8379SOL    HW126036   5.795   2.474   2.221
 8379SOL    HW226037   5.944   2.426   2.174
 8380SOL     OW26038   4.567   1.809   3.542
 8380SOL    HW126039   4.623   1.727   3.533
 8380SOL    HW226040   4.619   1.889   3.515
 8381SOL     OW26041   1.654   5.308   4.566
 8381SOL    HW126042   1.616   5.394   4.531
 8381SOL    HW226043   1.586   5.235   4.559
 8382SOL     OW26044   1.449   3.155   2.468
 8382SOL    HW126045   1.423   3.139   2.372
 8382SOL    HW226046   1.398   3.093   2.527
 8383SOL     OW26047   3.175   2.292   6.505
 8383SOL    HW126048   3.123   2.230   6.446
 8383SOL    HW226049   3.264   2.312   6.463
 8384SOL     OW26050   0.763   6.526   2.126
 8384SOL    HW126051   0.785   6.604   2.068
 8384SOL    HW226052   0.696   6.553   2.196
 8385SOL     OW26053   4.974   2.064   1.088
 8385SOL    HW126054   4.927   2.146   1.054
 8385SOL    HW226055   4.972   2.064   1.188
 8386SOL     OW26056   1.165   4.685   2.486
 8386SOL    HW126057   1.245   4.631   2.461
 8386SOL    HW226058   1.187   4.782   2.482
 8387SOL     OW26059   0.087   2.122   1.162
 8387SOL    HW126060   0.180   2.157   1.173
 8387SOL    HW226061   0.082   2.029   1.197
 8388SOL     OW26062   1.320   6.928   2.394
 8388SOL    HW126063   1.365   6.839   2.385
 8388SOL    HW226064   1.239   6.919   2.451
 8389SOL     OW26065   5.028   2.618   2.407
 8389SOL    HW126066   5.045   2.702   2.460
 8389SOL    HW226067   5.115   2.573   2.389
 8390SOL     OW26068   5.023   1.382   5.746
 8390SOL    HW126069   5.064   1.347   5.830
 8390SOL    HW226070   4.953   1.450   5.769
 8391SOL     OW26071   6.837   0.149   1.369
 8391SOL    HW126072   6.933   0.177   1.362
 8391SOL    HW226073   6.784   0.193   1.296
 8392SOL     OW26074   5.238   2.732   5.011
 8392SOL    HW126075   5.190   2.673   4.945
 8392SOL    HW226076   5.171   2.778   5.069
 8393SOL     OW26077   5.613   0.541   1.154
 8393SOL    HW126078   5.647   0.459   1.106
 8393SOL    HW226079   5.664   0.621   1.123
 8394SOL     OW26080   5.636   3.563   1.958
 8394SOL    HW126081   5.676   3.561   2.050
 8394SOL    HW226082   5.536   3.566   1.966
 8395SOL     OW26083   1.783   1.435   4.621
 8395SOL    HW126084   1.714   1.364   4.620
 8395SOL    HW226085   1.771   1.496   4.542
 8396SOL     OW26086   4.249   5.811   4.249
 8396SOL    HW126087   4.269   5.719   4.283
 8396SOL    HW226088   4.239   5.873   4.327
 8397SOL     OW26089   6.026   1.409   2.689
 8397SOL    HW126090   5.971   1.387   2.608
 8397SOL    HW226091   6.111   1.356   2.686
 8398SOL     OW26092   4.523   2.318   6.301
 8398SOL    HW126093   4.570   2.390   6.352
 8398SOL    HW226094   4.557   2.229   6.329
 8399SOL     OW26095   6.903   4.961   0.964
 8399SOL    HW126096   6.913   4.866   0.933
 8399SOL    HW226097   6.973   5.018   0.921
 8400SOL     OW26098   1.658   1.818   4.626
 8400SOL    HW126099   1.669   1.737   4.569
 8400SOL    HW226100   1.667   1.791   4.723
 8401SOL     OW26101   2.670   6.713   5.870
 8401SOL    HW126102   2.582   6.698   5.915
 8401SOL    HW226103   2.744   6.674   5.925
 8402SOL     OW26104   3.337   0.533   6.085
 8402SOL    HW126105   3.431   0.541   6.115
 8402SOL    HW226106   3.319   0.599   6.012
 8403SOL     OW26107   5.817   4.632   4.842
 8403SOL    HW126108   5.761   4.701   4.798
 8403SOL    HW226109   5.870   4.583   4.773
 8404SOL     OW26110   0.915   1.921   6.542
 8404SOL    HW126111   0.827   1.964   6.561
 8404SOL    HW226112   0.912   1.876   6.453
 8405SOL     OW26113   4.042   0.396   5.727
 8405SOL    HW126114   4.131   0.440   5.718
 8405SOL    HW226115   4.016   0.353   5.640
 8406SOL     OW26116   5.184   0.382   6.342
 8406SOL    HW126117   5.256   0.421   6.285
 8406SOL    HW226118   5.147   0.452   6.402
 8407SOL     OW26119   3.445   6.788   4.278
 8407SOL    HW126120   3.401   6.701   4.254
 8407SOL    HW226121   3.463   6.840   4.194
 8408SOL     OW26122   3.644   1.453   1.503
 8408SOL    HW126123   3.707   1.420   1.574
 8408SOL    HW226124   3.637   1.553   1.509
 8409SOL     OW26125   4.322   2.386   2.000
 8409SOL    HW126126   4.337   2.435   2.086
 8409SOL    HW226127   4.341   2.289   2.013
 8410SOL     OW26128   6.639   1.719   1.718
 8410SOL    HW126129   6.585   1.790   1.672
 8410SOL    HW226130   6.649   1.640   1.657
 8411SOL     OW26131   1.482   5.608   0.856
 8411SOL    HW126132   1.503   5.679   0.789
 8411SOL    HW226133   1.551   5.609   0.928
 8412SOL     OW26134   2.718   2.174   6.504
 8412SOL    HW126135   2.622   2.147   6.498
 8412SOL    HW226136   2.729   2.266   6.466
 8413SOL     OW26137   4.270   5.565   4.369
 8413SOL    HW126138   4.342   5.501   4.395
 8413SOL    HW226139   4.205   5.574   4.445
 8414SOL     OW26140   1.213   0.374   1.250
 8414SOL    HW126141   1.169   0.419   1.172
 8414SOL    HW226142   1.244   0.443   1.315
 8415SOL     OW26143   2.534   1.572   5.454
 8415SOL    HW126144   2.478   1.489   5.462
 8415SOL    HW226145   2.625   1.554   5.491
 8416SOL     OW26146   6.538   1.918   5.468
 8416SOL    HW126147   6.513   1.887   5.560
 8416SOL    HW226148   6.456   1.928   5.412
 8417SOL     OW26149   1.466   3.546   5.429
 8417SOL    HW126150   1.471   3.537   5.528
 8417SOL    HW226151   1.446   3.457   5.388
 8418SOL     OW26152   0.593   6.175   2.339
 8418SOL    HW126153   0.515   6.237   2.333
 8418SOL    HW226154   0.672   6.217   2.296
 8419SOL     OW26155   4.562   1.893   4.260
 8419SOL    HW126156   4.570   1.861   4.354
 8419SOL    HW226157   4.472   1.870   4.224
 8420SOL     OW26158   3.013   0.333   1.829
 8420SOL    HW126159   3.025   0.237   1.805
 8420SOL    HW226160   3.102   0.377   1.838
 8421SOL     OW26161   4.490   6.384   6.311
 8421SOL    HW126162   4.561   6.455   6.315
 8421SOL    HW226163   4.481   6.351   6.217
 8422SOL     OW26164   5.268   2.230   3.379
 8422SOL    HW126165   5.238   2.325   3.390
 8422SOL    HW226166   5.368   2.227   3.376
 8423SOL     OW26167   0.051   4.919   6.365
 8423SOL    HW126168   0.110   4.838   6.363
 8423SOL    HW226169   0.102   4.996   6.404
 8424SOL     OW26170   2.813   0.598   4.435
 8424SOL    HW126171   2.870   0.522   4.467
 8424SOL    HW226172   2.772   0.574   4.348
 8425SOL     OW26173   3.482   4.105   2.391
 8425SOL    HW126174   3.401   4.159   2.365
 8425SOL    HW226175   3.556   4.123   2.326
 8426SOL     OW26176   4.022   3.114   2.107
 8426SOL    HW126177   4.021   3.214   2.097
 8426SOL    HW226178   4.115   3.084   2.131
 8427SOL     OW26179   3.278   3.781   3.709
 8427SOL    HW126180   3.292   3.795   3.807
 8427SOL    HW226181   3.358   3.814   3.658
 8428SOL     OW26182   6.323   6.944   1.134
 8428SOL    HW126183   6.322   6.929   1.233
 8428SOL    HW226184   6.362   6.864   1.089
 8429SOL     OW26185   2.858   5.881   5.160
 8429SOL    HW126186   2.895   5.814   5.225
 8429SOL    HW226187   2.861   5.972   5.202
 8430SOL     OW26188   4.457   6.809   4.809
 8430SOL    HW126189   4.408   6.844   4.889
 8430SOL    HW226190   4.398   6.746   4.759
 8431SOL     OW26191   2.469   3.245   6.175
 8431SOL    HW126192   2.552   3.258   6.120
 8431SOL    HW226193   2.388   3.253   6.116
 8432SOL     OW26194   6.362   5.081   6.128
 8432SOL    HW126195   6.428   5.157   6.133
 8432SOL    HW226196   6.381   5.027   6.046
 8433SOL     OW26197   5.264   2.275   1.034
 8433SOL    HW126198   5.177   2.324   1.020
 8433SOL    HW226199   5.340   2.332   1.001
 8434SOL     OW26200   2.715   5.687   5.033
 8434SOL    HW126201   2.722   5.763   5.098
 8434SOL    HW226202   2.799   5.632   5.037
 8435SOL     OW26203   5.363   1.668   2.727
 8435SOL    HW126204   5.274   1.713   2.718
 8435SOL    HW226205   5.393   1.636   2.637
 8436SOL     OW26206   2.434   5.714   2.523
 8436SOL    HW126207   2.439   5.615   2.513
 8436SOL    HW226208   2.341   5.746   2.505
 8437SOL     OW26209   1.331   4.924   2.480
 8437SOL    HW126210   1.414   4.903   2.531
 8437SOL    HW226211   1.355   4.970   2.395
 8438SOL     OW26212   0.914   4.291   2.369
 8438SOL    HW126213   0.843   4.282   2.299
 8438SOL    HW226214   0.949   4.200   2.392
 8439SOL     OW26215   5.765   4.835   2.702
 8439SOL    HW126216   5.715   4.750   2.719
 8439SOL    HW226217   5.863   4.817   2.707
 8440SOL     OW26218   2.175   1.994   2.942
 8440SOL    HW126219   2.163   1.973   2.845
 8440SOL    HW226220   2.105   1.946   2.995
 8441SOL     OW26221   6.627   1.737   5.269
 8441SOL    HW126222   6.607   1.813   5.330
 8441SOL    HW226223   6.541   1.698   5.234
 8442SOL     OW26224   3.551   1.420   6.483
 8442SOL    HW126225   3.483   1.377   6.423
 8442SOL    HW226226   3.619   1.467   6.427
 8443SOL     OW26227   1.178   3.988   3.380
 8443SOL    HW126228   1.078   3.982   3.391
 8443SOL    HW226229   1.219   4.021   3.465
 8444SOL     OW26230   5.479   5.147   4.457
 8444SOL    HW126231   5.534   5.209   4.401
 8444SOL    HW226232   5.415   5.201   4.512
 8445SOL     OW26233   4.400   5.849   6.427
 8445SOL    HW126234   4.357   5.922   6.481
 8445SOL    HW226235   4.381   5.761   6.470
 8446SOL     OW26236   0.109   5.288   4.877
 8446SOL    HW126237   0.105   5.340   4.963
 8446SOL    HW226238   0.186   5.319   4.822
 8447SOL     OW26239   4.064   2.134   3.359
 8447SOL    HW126240   4.027   2.116   3.450
 8447SOL    HW226241   4.112   2.221   3.359
 8448SOL     OW26242   3.214   6.113   3.204
 8448SOL    HW126243   3.242   6.131   3.110
 8448SOL    HW226244   3.295   6.096   3.260
 8449SOL     OW26245   2.145   2.203   3.346
 8449SOL    HW126246   2.214   2.253   3.398
 8449SOL    HW226247   2.077   2.166   3.409
 8450SOL     OW26248   0.098   1.503   6.826
 8450SOL    HW126249   0.180   1.529   6.876
 8450SOL    HW226250   0.022   1.490   6.890
 8451SOL     OW26251   4.395   2.699   0.643
 8451SOL    HW126252   4.355   2.790   0.658
 8451SOL    HW226253   4.468   2.684   0.710
 8452SOL     OW26254   5.059   1.870   5.499
 8452SOL    HW126255   5.059   1.945   5.432
 8452SOL    HW226256   5.028   1.903   5.587
 8453SOL     OW26257   0.140   6.097   0.608
 8453SOL    HW126258   0.100   6.030   0.670
 8453SOL    HW226259   0.115   6.074   0.514
 8454SOL     OW26260   6.553   3.798   6.804
 8454SOL    HW126261   6.500   3.875   6.840
 8454SOL    HW226262   6.545   3.720   6.866
 8455SOL     OW26263   6.728   1.866   2.674
 8455SOL    HW126264   6.629   1.864   2.683
 8455SOL    HW226265   6.769   1.797   2.734
 8456SOL     OW26266   6.284   0.657   3.246
 8456SOL    HW126267   6.317   0.579   3.193
 8456SOL    HW226268   6.321   0.742   3.208
 8457SOL     OW26269   6.637   6.968   5.393
 8457SOL    HW126270   6.672   6.874   5.397
 8457SOL    HW226271   6.556   6.971   5.334
 8458SOL     OW26272   0.516   6.749   6.762
 8458SOL    HW126273   0.565   6.666   6.791
 8458SOL    HW226274   0.432   6.758   6.815
 8459SOL     OW26275   1.687   6.127   3.601
 8459SOL    HW126276   1.717   6.082   3.517
 8459SOL    HW226277   1.630   6.064   3.654
 8460SOL     OW26278   3.155   4.001   3.291
 8460SOL    HW126279   3.246   3.963   3.275
 8460SOL    HW226280   3.149   4.035   3.385
 8461SOL     OW26281   6.564   3.784   4.176
 8461SOL    HW126282   6.529   3.754   4.088
 8461SOL    HW226283   6.495   3.839   4.223
 8462SOL     OW26284   2.372   2.926   1.692
 8462SOL    HW126285   2.429   2.994   1.736
 8462SOL    HW226286   2.318   2.877   1.761
 8463SOL     OW26287   5.197   0.640   2.103
 8463SOL    HW126288   5.260   0.716   2.121
 8463SOL    HW226289   5.175   0.637   2.006
 8464SOL     OW26290   6.460   1.761   4.957
 8464SOL    HW126291   6.421   1.717   5.039
 8464SOL    HW226292   6.413   1.847   4.941
 8465SOL     OW26293   2.057   1.982   6.909
 8465SOL    HW126294   2.123   2.009   6.979
 8465SOL    HW226295   2.061   2.047   6.833
 8466SOL     OW26296   0.442   6.999   3.952
 8466SOL    HW126297   0.514   0.041   3.950
 8466SOL    HW226298   0.436   6.959   4.043
 8467SOL     OW26299   3.147   5.812   1.071
 8467SOL    HW126300   3.179   5.767   0.988
 8467SOL    HW226301   3.048   5.798   1.080
 8468SOL     OW26302   4.772   2.504   0.441
 8468SOL    HW126303   4.786   2.603   0.443
 8468SOL    HW226304   4.726   2.479   0.356
 8469SOL     OW26305   3.870   2.605   6.792
 8469SOL    HW126306   3.838   2.563   6.708
 8469SOL    HW226307   3.813   2.575   6.868
 8470SOL     OW26308   1.265   3.220   6.819
 8470SOL    HW126309   1.257   3.161   6.738
 8470SOL    HW226310   1.260   3.164   6.902
 8471SOL     OW26311   4.471   1.299   4.141
 8471SOL    HW126312   4.463   1.264   4.048
 8471SOL    HW226313   4.543   1.368   4.145
 8472SOL     OW26314   1.528   6.935   3.216
 8472SOL    HW126315   1.446   6.886   3.189
 8472SOL    HW226316   1.564   6.895   3.301
 8473SOL     OW26317   6.424   5.661   6.950
 8473SOL    HW126318   6.485   5.592   6.911
 8473SOL    HW226319   6.427   5.655   0.023
 8474SOL     OW26320   4.329   5.309   0.764
 8474SOL    HW126321   4.411   5.260   0.733
 8474SOL    HW226322   4.285   5.258   0.838
 8475SOL     OW26323   4.523   1.166   2.968
 8475SOL    HW126324   4.480   1.247   2.930
 8475SOL    HW226325   4.574   1.190   3.050
 8476SOL     OW26326   4.811   0.722   2.562
 8476SOL    HW126327   4.911   0.716   2.554
 8476SOL    HW226328   4.775   0.633   2.591
 8477SOL     OW26329   2.345   1.065   2.340
 8477SOL    HW126330   2.403   1.142   2.369
 8477SOL    HW226331   2.300   1.089   2.254
 8478SOL     OW26332   1.429   0.284   5.667
 8478SOL    HW126333   1.514   0.298   5.718
 8478SOL    HW226334   1.410   0.186   5.660
 8479SOL     OW26335   4.546   1.286   2.233
 8479SOL    HW126336   4.570   1.200   2.188
 8479SOL    HW226337   4.630   1.335   2.259
 8480SOL     OW26338   1.366   1.240   1.344
 8480SOL    HW126339   1.371   1.311   1.273
 8480SOL    HW226340   1.337   1.154   1.303
 8481SOL     OW26341   3.968   6.980   4.336
 8481SOL    HW126342   3.914   6.907   4.377
 8481SOL    HW226343   4.041   6.941   4.279
 8482SOL     OW26344   0.617   0.289   1.977
 8482SOL    HW126345   0.614   0.193   1.950
 8482SOL    HW226346   0.711   0.324   1.967
 8483SOL     OW26347   4.699   6.343   2.022
 8483SOL    HW126348   4.739   6.321   2.110
 8483SOL    HW226349   4.657   6.261   1.982
 8484SOL     OW26350   0.750   4.346   4.734
 8484SOL    HW126351   0.771   4.307   4.644
 8484SOL    HW226352   0.834   4.352   4.788
 8485SOL     OW26353   2.826   3.267   6.171
 8485SOL    HW126354   2.816   3.337   6.101
 8485SOL    HW226355   2.798   3.305   6.260
 8486SOL     OW26356   4.101   0.338   2.432
 8486SOL    HW126357   4.188   0.386   2.438
 8486SOL    HW226358   4.116   0.240   2.444
 8487SOL     OW26359   4.631   6.908   1.150
 8487SOL    HW126360   4.564   6.981   1.134
 8487SOL    HW226361   4.678   6.924   1.237
 8488SOL     OW26362   5.278   3.137   4.802
 8488SOL    HW126363   5.224   3.134   4.718
 8488SOL    HW226364   5.373   3.113   4.782
 8489SOL     OW26365   4.472   5.264   3.059
 8489SOL    HW126366   4.509   5.301   2.974
 8489SOL    HW226367   4.538   5.277   3.132
 8490SOL     OW26368   3.577   5.708   2.436
 8490SOL    HW126369   3.546   5.614   2.452
 8490SOL    HW226370   3.675   5.707   2.414
 8491SOL     OW26371   1.621   1.266   2.047
 8491SOL    HW126372   1.587   1.274   1.953
 8491SOL    HW226373   1.699   1.204   2.049
 8492SOL     OW26374   5.569   3.812   4.378
 8492SOL    HW126375   5.626   3.851   4.451
 8492SOL    HW226376   5.610   3.832   4.289
 8493SOL     OW26377   3.456   2.225   0.816
 8493SOL    HW126378   3.501   2.136   0.804
 8493SOL    HW226379   3.361   2.219   0.787
 8494SOL     OW26380   3.690   6.028   6.999
 8494SOL    HW126381   3.652   6.113   0.010
 8494SOL    HW226382   3.765   6.050   6.936
 8495SOL     OW26383   0.506   2.858   0.050
 8495SOL    HW126384   0.517   2.916   6.996
 8495SOL    HW226385   0.500   2.762   0.021
 8496SOL     OW26386   6.592   2.703   2.954
 8496SOL    HW126387   6.653   2.783   2.953
 8496SOL    HW226388   6.512   2.721   2.898
 8497SOL     OW26389   6.150   5.069   3.388
 8497SOL    HW126390   6.131   5.044   3.483
 8497SOL    HW226391   6.086   5.021   3.328
 8498SOL     OW26392   6.558   1.046   0.616
 8498SOL    HW126393   6.508   1.069   0.699
 8498SOL    HW226394   6.575   0.948   0.613
 8499SOL     OW26395   3.085   4.182   6.181
 8499SOL    HW126396   3.037   4.128   6.251
 8499SOL    HW226397   3.023   4.252   6.145
 8500SOL     OW26398   3.058   0.333   6.178
 8500SOL    HW126399   3.153   0.300   6.177
 8500SOL    HW226400   3.043   0.387   6.261
 8501SOL     OW26401   2.668   4.734   5.838
 8501SOL    HW126402   2.651   4.828   5.867
 8501SOL    HW226403   2.595   4.704   5.777
 8502SOL     OW26404   0.384   0.175   2.119
 8502SOL    HW126405   0.398   0.161   2.217
 8502SOL    HW226406   0.466   0.215   2.078
 8503SOL     OW26407   3.445   6.038   3.351
 8503SOL    HW126408   3.539   6.060   3.327
 8503SOL    HW226409   3.405   6.113   3.403
 8504SOL     OW26410   1.016   5.785   3.361
 8504SOL    HW126411   1.108   5.816   3.338
 8504SOL    HW226412   1.012   5.758   3.457
 8505SOL     OW26413   4.776   2.993   4.018
 8505SOL    HW126414   4.704   2.951   4.074
 8505SOL    HW226415   4.773   2.955   3.926
 8506SOL     OW26416   0.892   6.526   0.695
 8506SOL    HW126417   0.933   6.435   0.705
 8506SOL    HW226418   0.950   6.593   0.741
 8507SOL     OW26419   1.823   0.988   4.812
 8507SOL    HW126420   1.823   1.086   4.831
 8507SOL    HW226421   1.811   0.973   4.714
 8508SOL     OW26422   1.237   3.109   6.582
 8508SOL    HW126423   1.211   3.201   6.554
 8508SOL    HW226424   1.290   3.066   6.510
 8509SOL     OW26425   5.982   2.257   4.409
 8509SOL    HW126426   6.020   2.349   4.411
 8509SOL    HW226427   6.055   2.190   4.427
 8510SOL     OW26428   4.866   0.296   2.779
 8510SOL    HW126429   4.848   0.215   2.723
 8510SOL    HW226430   4.955   0.286   2.824
 8511SOL     OW26431   7.009   4.612   2.147
 8511SOL    HW126432   6.943   4.555   2.195
 8511SOL    HW226433   0.064   4.558   2.127
 8512SOL     OW26434   4.170   2.515   0.711
 8512SOL    HW126435   4.253   2.568   0.727
 8512SOL    HW226436   4.090   2.571   0.732
 8513SOL     OW26437   0.539   4.550   1.281
 8513SOL    HW126438   0.450   4.543   1.326
 8513SOL    HW226439   0.527   4.543   1.182
 8514SOL     OW26440   2.304   2.173   5.955
 8514SOL    HW126441   2.272   2.261   5.991
 8514SOL    HW226442   2.358   2.189   5.873
 8515SOL     OW26443   1.735   0.463   1.058
 8515SOL    HW126444   1.685   0.494   0.977
 8515SOL    HW226445   1.672   0.421   1.123
 8516SOL     OW26446   5.592   2.306   4.385
 8516SOL    HW126447   5.614   2.226   4.330
 8516SOL    HW226448   5.629   2.388   4.342
 8517SOL     OW26449   2.047   1.706   6.208
 8517SOL    HW126450   2.099   1.642   6.264
 8517SOL    HW226451   2.003   1.657   6.133
 8518SOL     OW26452   5.595   4.841   6.848
 8518SOL    HW126453   5.579   4.786   6.930
 8518SOL    HW226454   5.584   4.783   6.767
 8519SOL     OW26455   1.268   3.008   0.991
 8519SOL    HW126456   1.208   3.031   0.914
 8519SOL    HW226457   1.310   2.918   0.975
 8520SOL     OW26458   3.904   4.036   5.971
 8520SOL    HW126459   4.000   4.064   5.968
 8520SOL    HW226460   3.896   3.949   6.021
 8521SOL     OW26461   2.104   6.466   5.596
 8521SOL    HW126462   2.163   6.543   5.622
 8521SOL    HW226463   2.160   6.392   5.559
 8522SOL     OW26464   0.501   6.944   0.487
 8522SOL    HW126465   0.419   6.964   0.433
 8522SOL    HW226466   0.571   7.012   0.466
 8523SOL     OW26467   3.444   1.447   0.225
 8523SOL    HW126468   3.413   1.463   0.132
 8523SOL    HW226469   3.412   1.357   0.256
 8524SOL     OW26470   2.063   5.420   4.532
 8524SOL    HW126471   2.032   5.415   4.437
 8524SOL    HW226472   2.090   5.328   4.563
 8525SOL     OW26473   6.154   4.633   1.917
 8525SOL    HW126474   6.145   4.540   1.954
 8525SOL    HW226475   6.199   4.692   1.984
 8526SOL     OW26476   0.420   4.880   0.791
 8526SOL    HW126477   0.440   4.967   0.745
 8526SOL    HW226478   0.485   4.865   0.865
 8527SOL     OW26479   2.897   0.996   5.325
 8527SOL    HW126480   2.927   1.071   5.266
 8527SOL    HW226481   2.804   1.015   5.356
 8528SOL     OW26482   5.266   1.143   0.297
 8528SOL    HW126483   5.293   1.235   0.323
 8528SOL    HW226484   5.259   1.086   0.379
 8529SOL     OW26485   1.086   5.954   6.461
 8529SOL    HW126486   1.088   5.938   6.362
 8529SOL    HW226487   1.121   5.873   6.509
 8530SOL     OW26488   2.994   3.841   3.747
 8530SOL    HW126489   3.077   3.784   3.738
 8530SOL    HW226490   2.947   3.818   3.831
 8531SOL     OW26491   6.762   5.291   4.467
 8531SOL    HW126492   6.834   5.353   4.497
 8531SOL    HW226493   6.745   5.222   4.537
 8532SOL     OW26494   2.654   4.746   6.289
 8532SOL    HW126495   2.670   4.730   6.387
 8532SOL    HW226496   2.622   4.839   6.276
 8533SOL     OW26497   2.578   6.270   5.425
 8533SOL    HW126498   2.653   6.225   5.376
 8533SOL    HW226499   2.557   6.218   5.508
 8534SOL     OW26500   2.521   2.186   3.711
 8534SOL    HW126501   2.500   2.139   3.625
 8534SOL    HW226502   2.564   2.274   3.692
 8535SOL     OW26503   6.612   0.240   2.624
 8535SOL    HW126504   6.647   0.199   2.708
 8535SOL    HW226505   6.673   0.313   2.594
 8536SOL     OW26506   0.931   1.566   5.130
 8536SOL    HW126507   0.917   1.664   5.146
 8536SOL    HW226508   0.862   1.533   5.065
 8537SOL     OW26509   6.762   0.982   2.591
 8537SOL    HW126510   6.739   0.996   2.495
 8537SOL    HW226511   6.678   0.982   2.646
 8538SOL     OW26512   0.500   2.580   0.036
 8538SOL    HW126513   0.525   2.532   6.978
 8538SOL    HW226514   0.564   2.555   0.108
 8539SOL     OW26515   5.460   2.828   3.010
 8539SOL    HW126516   5.371   2.873   3.019
 8539SOL    HW226517   5.533   2.896   3.013
 8540SOL     OW26518   3.885   0.209   0.382
 8540SOL    HW126519   3.877   0.236   0.286
 8540SOL    HW226520   3.912   0.288   0.437
 8541SOL     OW26521   1.916   2.853   4.638
 8541SOL    HW126522   1.902   2.878   4.734
 8541SOL    HW226523   1.915   2.754   4.629
 8542SOL     OW26524   3.387   5.310   0.770
 8542SOL    HW126525   3.416   5.280   0.679
 8542SOL    HW226526   3.378   5.231   0.830
 8543SOL     OW26527   2.271   2.189   6.341
 8543SOL    HW126528   2.317   2.239   6.267
 8543SOL    HW226529   2.216   2.115   6.302
 8544SOL     OW26530   6.334   2.731   3.412
 8544SOL    HW126531   6.344   2.819   3.459
 8544SOL    HW226532   6.258   2.680   3.452
 8545SOL     OW26533   4.498   6.256   4.865
 8545SOL    HW126534   4.546   6.211   4.939
 8545SOL    HW226535   4.538   6.346   4.849
 8546SOL     OW26536   4.283   2.069   6.492
 8546SOL    HW126537   4.321   2.035   6.406
 8546SOL    HW226538   4.348   2.050   6.566
 8547SOL     OW26539   0.804   4.434   2.844
 8547SOL    HW126540   0.812   4.378   2.927
 8547SOL    HW226541   0.866   4.400   2.774
 8548SOL     OW26542   6.308   1.500   5.629
 8548SOL    HW126543   6.217   1.483   5.590
 8548SOL    HW226544   6.365   1.420   5.616
 8549SOL     OW26545   5.481   2.876   4.988
 8549SOL    HW126546   5.484   2.926   5.074
 8549SOL    HW226547   5.424   2.794   4.999
 8550SOL     OW26548   0.912   4.214   6.458
 8550SOL    HW126549   0.967   4.278   6.511
 8550SOL    HW226550   0.821   4.206   6.499
 8551SOL     OW26551   3.123   4.221   1.092
 8551SOL    HW126552   3.030   4.206   1.128
 8551SOL    HW226553   3.183   4.149   1.126
 8552SOL     OW26554   3.056   6.673   4.372
 8552SOL    HW126555   3.097   6.764   4.385
 8552SOL    HW226556   3.034   6.660   4.276
 8553SOL     OW26557   5.981   4.868   6.888
 8553SOL    HW126558   6.056   4.842   6.828
 8553SOL    HW226559   5.914   4.923   6.837
 8554SOL     OW26560   6.062   3.910   6.685
 8554SOL    HW126561   6.088   3.828   6.634
 8554SOL    HW226562   6.143   3.966   6.700
 8555SOL     OW26563   0.844   6.844   4.529
 8555SOL    HW126564   0.759   6.895   4.516
 8555SOL    HW226565   0.893   6.837   4.442
 8556SOL     OW26566   6.480   0.478   4.420
 8556SOL    HW126567   6.483   0.394   4.475
 8556SOL    HW226568   6.385   0.500   4.398
 8557SOL     OW26569   6.936   0.776   0.415
 8557SOL    HW126570   6.971   0.802   0.325
 8557SOL    HW226571   6.837   0.766   0.411
 8558SOL     OW26572   0.951   5.605   2.011
 8558SOL    HW126573   0.861   5.568   1.990
 8558SOL    HW226574   0.981   5.571   2.100
 8559SOL     OW26575   0.452   1.332   5.677
 8559SOL    HW126576   0.520   1.301   5.744
 8559SOL    HW226577   0.484   1.416   5.634
 8560SOL     OW26578   6.558   2.803   6.211
 8560SOL    HW126579   6.643   2.814   6.158
 8560SOL    HW226580   6.578   2.812   6.309
 8561SOL     OW26581   4.748   6.716   5.502
 8561SOL    HW126582   4.650   6.738   5.496
 8561SOL    HW226583   4.797   6.759   5.427
 8562SOL     OW26584   3.398   6.838   4.544
 8562SOL    HW126585   3.464   6.897   4.591
 8562SOL    HW226586   3.435   6.811   4.455
 8563SOL     OW26587   2.779   2.642   6.225
 8563SOL    HW126588   2.740   2.567   6.279
 8563SOL    HW226589   2.855   2.684   6.275
 8564SOL     OW26590   0.161   6.604   3.823
 8564SOL    HW126591   0.131   6.520   3.868
 8564SOL    HW226592   0.084   6.643   3.772
 8565SOL     OW26593   4.206   0.328   1.904
 8565SOL    HW126594   4.167   0.347   1.994
 8565SOL    HW226595   4.150   0.259   1.858
 8566SOL     OW26596   2.134   3.710   3.119
 8566SOL    HW126597   2.197   3.787   3.127
 8566SOL    HW226598   2.183   3.630   3.087
 8567SOL     OW26599   4.999   6.084   0.600
 8567SOL    HW126600   5.060   6.116   0.528
 8567SOL    HW226601   5.003   6.147   0.678
 8568SOL     OW26602   5.602   1.686   0.168
 8568SOL    HW126603   5.696   1.719   0.154
 8568SOL    HW226604   5.595   1.641   0.257
 8569SOL     OW26605   3.924   1.664   5.697
 8569SOL    HW126606   3.980   1.715   5.761
 8569SOL    HW226607   3.875   1.728   5.638
 8570SOL     OW26608   0.613   4.616   6.667
 8570SOL    HW126609   0.627   4.696   6.725
 8570SOL    HW226610   0.693   4.601   6.610
 8571SOL     OW26611   7.003   4.519   4.458
 8571SOL    HW126612   7.021   4.485   4.366
 8571SOL    HW226613   0.052   4.494   4.519
 8572SOL     OW26614   3.238   4.913   5.507
 8572SOL    HW126615   3.250   4.849   5.430
 8572SOL    HW226616   3.142   4.917   5.532
 8573SOL     OW26617   4.164   5.958   4.468
 8573SOL    HW126618   4.104   5.887   4.431
 8573SOL    HW226619   4.209   5.924   4.551
 8574SOL     OW26620   0.485   3.603   4.283
 8574SOL    HW126621   0.551   3.675   4.264
 8574SOL    HW226622   0.415   3.638   4.346
 8575SOL     OW26623   3.089   3.428   6.355
 8575SOL    HW126624   3.006   3.483   6.364
 8575SOL    HW226625   3.070   3.346   6.303
 8576SOL     OW26626   1.658   0.244   1.449
 8576SOL    HW126627   1.664   0.144   1.453
 8576SOL    HW226628   1.729   0.285   1.505
 8577SOL     OW26629   6.924   5.560   3.081
 8577SOL    HW126630   6.919   5.640   3.022
 8577SOL    HW226631   7.017   5.522   3.079
 8578SOL     OW26632   4.888   7.010   3.989
 8578SOL    HW126633   4.815   0.048   3.967
 8578SOL    HW226634   4.927   0.006   4.079
 8579SOL     OW26635   0.840   5.335   3.167
 8579SOL    HW126636   0.820   5.401   3.240
 8579SOL    HW226637   0.894   5.380   3.096
 8580SOL     OW26638   3.170   4.345   5.771
 8580SOL    HW126639   3.127   4.413   5.831
 8580SOL    HW226640   3.255   4.382   5.735
 8581SOL     OW26641   3.344   2.910   0.415
 8581SOL    HW126642   3.352   2.907   0.315
 8581SOL    HW226643   3.278   2.841   0.445
 8582SOL     OW26644   4.704   4.241   1.377
 8582SOL    HW126645   4.630   4.279   1.434
 8582SOL    HW226646   4.682   4.146   1.353
 8583SOL     OW26647   5.393   0.715   5.534
 8583SOL    HW126648   5.475   0.726   5.477
 8583SOL    HW226649   5.381   0.798   5.589
 8584SOL     OW26650   0.538   5.457   6.375
 8584SOL    HW126651   0.498   5.468   6.466
 8584SOL    HW226652   0.485   5.390   6.323
 8585SOL     OW26653   1.098   1.045   0.919
 8585SOL    HW126654   1.067   1.133   0.956
 8585SOL    HW226655   1.197   1.037   0.930
 8586SOL     OW26656   4.028   5.373   4.192
 8586SOL    HW126657   4.031   5.273   4.198
 8586SOL    HW226658   3.934   5.402   4.178
 8587SOL     OW26659   0.130   1.979   1.601
 8587SOL    HW126660   0.188   1.899   1.615
 8587SOL    HW226661   0.054   1.954   1.541
 8588SOL     OW26662   4.002   2.206   0.453
 8588SOL    HW126663   3.933   2.172   0.389
 8588SOL    HW226664   3.979   2.299   0.481
 8589SOL     OW26665   2.854   1.503   4.471
 8589SOL    HW126666   2.871   1.602   4.463
 8589SOL    HW226667   2.807   1.471   4.389
 8590SOL     OW26668   6.120   4.924   5.465
 8590SOL    HW126669   6.113   4.854   5.395
 8590SOL    HW226670   6.033   4.972   5.474
 8591SOL     OW26671   0.862   3.006   0.021
 8591SOL    HW126672   0.920   2.938   7.004
 8591SOL    HW226673   0.775   2.964   0.046
 8592SOL     OW26674   6.194   5.732   6.351
 8592SOL    HW126675   6.210   5.638   6.382
 8592SOL    HW226676   6.197   5.794   6.429
 8593SOL     OW26677   0.467   6.834   2.964
 8593SOL    HW126678   0.425   6.924   2.979
 8593SOL    HW226679   0.539   6.843   2.895
 8594SOL     OW26680   2.954   3.389   3.470
 8594SOL    HW126681   2.877   3.422   3.525
 8594SOL    HW226682   2.990   3.464   3.415
 8595SOL     OW26683   1.988   3.001   1.556
 8595SOL    HW126684   2.069   2.944   1.545
 8595SOL    HW226685   1.921   2.979   1.485
 8596SOL     OW26686   6.624   4.183   2.485
 8596SOL    HW126687   6.583   4.190   2.394
 8596SOL    HW226688   6.680   4.101   2.490
 8597SOL     OW26689   2.238   1.819   0.646
 8597SOL    HW126690   2.286   1.893   0.599
 8597SOL    HW226691   2.228   1.842   0.743
 8598SOL     OW26692   5.196   4.199   1.154
 8598SOL    HW126693   5.285   4.231   1.188
 8598SOL    HW226694   5.143   4.160   1.229
 8599SOL     OW26695   1.083   3.409   1.822
 8599SOL    HW126696   1.016   3.391   1.894
 8599SOL    HW226697   1.174   3.381   1.854
 8600SOL     OW26698   6.169   3.537   5.994
 8600SOL    HW126699   6.234   3.491   6.055
 8600SOL    HW226700   6.211   3.619   5.956
 8601SOL     OW26701   0.258   0.900   5.004
 8601SOL    HW126702   0.284   0.809   4.972
 8601SOL    HW226703   0.172   0.927   4.961
 8602SOL     OW26704   2.139   5.936   2.216
 8602SOL    HW126705   2.157   6.030   2.187
 8602SOL    HW226706   2.144   5.875   2.136
 8603SOL     OW26707   4.688   3.749   1.371
 8603SOL    HW126708   4.763   3.807   1.404
 8603SOL    HW226709   4.640   3.710   1.449
 8604SOL     OW26710   5.621   1.952   2.398
 8604SOL    HW126711   5.620   2.047   2.367
 8604SOL    HW226712   5.533   1.930   2.441
 8605SOL     OW26713   2.871   6.384   2.261
 8605SOL    HW126714   2.963   6.392   2.300
 8605SOL    HW226715   2.864   6.300   2.208
 8606SOL     OW26716   4.210   5.286   5.685
 8606SOL    HW126717   4.286   5.287   5.620
 8606SOL    HW226718   4.246   5.280   5.778
 8607SOL     OW26719   2.922   5.760   1.838
 8607SOL    HW126720   2.912   5.678   1.782
 8607SOL    HW226721   2.954   5.734   1.929
 8608SOL     OW26722   5.257   6.235   2.268
 8608SOL    HW126723   5.188   6.177   2.225
 8608SOL    HW226724   5.213   6.305   2.325
 8609SOL     OW26725   4.440   0.629   6.339
 8609SOL    HW126726   4.433   0.723   6.372
 8609SOL    HW226727   4.349   0.587   6.338
 8610SOL     OW26728   7.019   6.714   4.620
 8610SOL    HW126729   7.021   6.713   4.720
 8610SOL    HW226730   0.087   6.721   4.586
 8611SOL     OW26731   1.575   1.982   3.462
 8611SOL    HW126732   1.556   1.952   3.368
 8611SOL    HW226733   1.639   2.059   3.460
 8612SOL     OW26734   4.526   2.558   5.069
 8612SOL    HW126735   4.552   2.462   5.076
 8612SOL    HW226736   4.484   2.574   4.979
 8613SOL     OW26737   1.229   1.829   0.225
 8613SOL    HW126738   1.158   1.873   0.280
 8613SOL    HW226739   1.301   1.895   0.205
 8614SOL     OW26740   1.226   1.636   3.149
 8614SOL    HW126741   1.225   1.619   3.248
 8614SOL    HW226742   1.236   1.734   3.132
 8615SOL     OW26743   4.283   2.127   5.419
 8615SOL    HW126744   4.313   2.104   5.326
 8615SOL    HW226745   4.239   2.047   5.460
 8616SOL     OW26746   1.284   3.301   0.228
 8616SOL    HW126747   1.327   3.212   0.244
 8616SOL    HW226748   1.197   3.305   0.279
 8617SOL     OW26749   6.546   3.042   1.215
 8617SOL    HW126750   6.533   3.138   1.192
 8617SOL    HW226751   6.594   2.996   1.140
 8618SOL     OW26752   5.173   0.601   2.985
 8618SOL    HW126753   5.094   0.544   3.009
 8618SOL    HW226754   5.185   0.672   3.055
 8619SOL     OW26755   4.176   5.843   0.684
 8619SOL    HW126756   4.159   5.814   0.778
 8619SOL    HW226757   4.135   5.933   0.669
 8620SOL     OW26758   6.425   6.439   3.125
 8620SOL    HW126759   6.524   6.446   3.137
 8620SOL    HW226760   6.383   6.413   3.212
 8621SOL     OW26761   5.648   0.733   2.984
 8621SOL    HW126762   5.644   0.645   2.937
 8621SOL    HW226763   5.604   0.804   2.929
 8622SOL     OW26764   5.621   5.330   0.135
 8622SOL    HW126765   5.654   5.236   0.121
 8622SOL    HW226766   5.660   5.389   0.065
 8623SOL     OW26767   6.296   2.949   2.790
 8623SOL    HW126768   6.219   2.947   2.853
 8623SOL    HW226769   6.352   3.030   2.806
 8624SOL     OW26770   0.312   4.802   3.756
 8624SOL    HW126771   0.247   4.780   3.829
 8624SOL    HW226772   0.338   4.718   3.708
 8625SOL     OW26773   3.179   0.646   6.278
 8625SOL    HW126774   3.224   0.586   6.212
 8625SOL    HW226775   3.212   0.626   6.370
 8626SOL     OW26776   3.519   3.313   2.295
 8626SOL    HW126777   3.472   3.379   2.354
 8626SOL    HW226778   3.483   3.221   2.312
 8627SOL     OW26779   2.438   0.149   6.705
 8627SOL    HW126780   2.412   0.228   6.649
 8627SOL    HW226781   2.460   0.179   6.797
 8628SOL     OW26782   5.703   1.122   6.933
 8628SOL    HW126783   5.683   1.034   6.975
 8628SOL    HW226784   5.652   1.194   6.980
 8629SOL     OW26785   1.007   5.202   3.858
 8629SOL    HW126786   1.038   5.207   3.763
 8629SOL    HW226787   1.083   5.223   3.920
 8630SOL     OW26788   5.573   4.627   3.859
 8630SOL    HW126789   5.586   4.679   3.943
 8630SOL    HW226790   5.661   4.616   3.813
 8631SOL     OW26791   4.300   6.217   3.678
 8631SOL    HW126792   4.284   6.311   3.646
 8631SOL    HW226793   4.264   6.207   3.771
 8632SOL     OW26794   4.903   0.563   3.088
 8632SOL    HW126795   4.831   0.498   3.112
 8632SOL    HW226796   4.939   0.605   3.171
 8633SOL     OW26797   6.122   0.697   3.962
 8633SOL    HW126798   6.195   0.670   4.024
 8633SOL    HW226799   6.128   0.645   3.878
 8634SOL     OW26800   6.554   5.234   1.609
 8634SOL    HW126801   6.489   5.185   1.550
 8634SOL    HW226802   6.634   5.176   1.625
 8635SOL     OW26803   6.107   3.560   5.305
 8635SOL    HW126804   6.204   3.541   5.288
 8635SOL    HW226805   6.098   3.620   5.385
 8636SOL     OW26806   5.582   5.715   0.257
 8636SOL    HW126807   5.553   5.639   0.199
 8636SOL    HW226808   5.673   5.697   0.294
 8637SOL     OW26809   1.588   0.618   1.740
 8637SOL    HW126810   1.521   0.544   1.730
 8637SOL    HW226811   1.648   0.621   1.661
 8638SOL     OW26812   4.839   5.305   0.969
 8638SOL    HW126813   4.761   5.314   1.032
 8638SOL    HW226814   4.817   5.350   0.882
 8639SOL     OW26815   6.723   2.736   1.735
 8639SOL    HW126816   6.682   2.827   1.729
 8639SOL    HW226817   6.653   2.666   1.718
 8640SOL     OW26818   5.527   5.919   1.414
 8640SOL    HW126819   5.565   5.826   1.411
 8640SOL    HW226820   5.579   5.979   1.353
 8641SOL     OW26821   5.320   4.975   3.463
 8641SOL    HW126822   5.257   4.915   3.415
 8641SOL    HW226823   5.356   4.928   3.544
 8642SOL     OW26824   4.803   1.672   1.532
 8642SOL    HW126825   4.729   1.719   1.580
 8642SOL    HW226826   4.777   1.577   1.516
 8643SOL     OW26827   4.738   1.128   6.753
 8643SOL    HW126828   4.790   1.214   6.755
 8643SOL    HW226829   4.743   1.088   6.662
 8644SOL     OW26830   6.343   3.449   5.603
 8644SOL    HW126831   6.321   3.393   5.523
 8644SOL    HW226832   6.263   3.505   5.626
 8645SOL     OW26833   6.265   4.696   1.654
 8645SOL    HW126834   6.244   4.688   1.752
 8645SOL    HW226835   6.318   4.616   1.626
 8646SOL     OW26836   5.153   0.575   0.899
 8646SOL    HW126837   5.168   0.476   0.908
 8646SOL    HW226838   5.058   0.596   0.922
 8647SOL     OW26839   4.540   5.011   2.179
 8647SOL    HW126840   4.627   5.011   2.130
 8647SOL    HW226841   4.515   4.916   2.201
 8648SOL     OW26842   5.857   1.784   4.755
 8648SOL    HW126843   5.880   1.842   4.677
 8648SOL    HW226844   5.774   1.733   4.734
 8649SOL     OW26845   0.513   4.774   5.492
 8649SOL    HW126846   0.483   4.706   5.425
 8649SOL    HW226847   0.474   4.863   5.471
 8650SOL     OW26848   0.878   4.839   2.232
 8650SOL    HW126849   0.948   4.779   2.193
 8650SOL    HW226850   0.887   4.930   2.192
 8651SOL     OW26851   3.298   2.696   1.222
 8651SOL    HW126852   3.391   2.691   1.257
 8651SOL    HW226853   3.233   2.686   1.298
 8652SOL     OW26854   1.922   3.360   4.329
 8652SOL    HW126855   2.016   3.376   4.359
 8652SOL    HW226856   1.914   3.378   4.231
 8653SOL     OW26857   5.941   3.234   6.120
 8653SOL    HW126858   6.007   3.165   6.087
 8653SOL    HW226859   5.957   3.251   6.217
 8654SOL     OW26860   6.874   6.686   3.064
 8654SOL    HW126861   6.910   6.764   3.116
 8654SOL    HW226862   6.930   6.673   2.982
 8655SOL     OW26863   6.055   6.230   4.034
 8655SOL    HW126864   6.045   6.135   4.064
 8655SOL    HW226865   5.974   6.282   4.061
 8656SOL     OW26866   6.348   2.194   1.342
 8656SOL    HW126867   6.430   2.205   1.398
 8656SOL    HW226868   6.278   2.145   1.395
 8657SOL     OW26869   3.253   4.126   0.629
 8657SOL    HW126870   3.330   4.073   0.664
 8657SOL    HW226871   3.225   4.195   0.697
 8658SOL     OW26872   0.424   5.269   0.065
 8658SOL    HW126873   0.469   5.356   0.048
 8658SOL    HW226874   0.385   5.268   0.158
 8659SOL     OW26875   4.834   0.374   3.667
 8659SOL    HW126876   4.740   0.370   3.632
 8659SOL    HW226877   4.834   0.345   3.763
 8660SOL     OW26878   5.377   4.822   0.764
 8660SOL    HW126879   5.336   4.833   0.674
 8660SOL    HW226880   5.460   4.877   0.770
 8661SOL     OW26881   6.423   3.730   1.445
 8661SOL    HW126882   6.374   3.813   1.474
 8661SOL    HW226883   6.388   3.700   1.357
 8662SOL     OW26884   7.004   0.512   0.959
 8662SOL    HW126885   0.069   0.545   0.983
 8662SOL    HW226886   7.004   0.483   0.863
 8663SOL     OW26887   2.760   5.924   0.721
 8663SOL    HW126888   2.685   5.970   0.769
 8663SOL    HW226889   2.743   5.928   0.623
 8664SOL     OW26890   4.115   5.168   1.895
 8664SOL    HW126891   4.021   5.160   1.863
 8664SOL    HW226892   4.117   5.168   1.995
 8665SOL     OW26893   4.601   5.050   5.407
 8665SOL    HW126894   4.641   5.139   5.387
 8665SOL    HW226895   4.506   5.061   5.436
 8666SOL     OW26896   5.476   3.556   4.435
 8666SOL    HW126897   5.486   3.651   4.404
 8666SOL    HW226898   5.444   3.555   4.530
 8667SOL     OW26899   5.193   1.670   3.273
 8667SOL    HW126900   5.210   1.632   3.182
 8667SOL    HW226901   5.159   1.763   3.264
 8668SOL     OW26902   3.528   1.492   4.347
 8668SOL    HW126903   3.432   1.493   4.374
 8668SOL    HW226904   3.560   1.586   4.336
 8669SOL     OW26905   4.370   0.159   5.534
 8669SOL    HW126906   4.356   0.132   5.439
 8669SOL    HW226907   4.373   0.077   5.592
 8670SOL     OW26908   4.063   4.915   3.838
 8670SOL    HW126909   4.139   4.855   3.863
 8670SOL    HW226910   4.082   5.008   3.869
 8671SOL     OW26911   5.763   6.239   2.769
 8671SOL    HW126912   5.818   6.267   2.848
 8671SOL    HW226913   5.721   6.320   2.727
 8672SOL     OW26914   3.327   4.702   5.334
 8672SOL    HW126915   3.245   4.651   5.311
 8672SOL    HW226916   3.395   4.640   5.374
 8673SOL     OW26917   5.664   2.334   0.728
 8673SOL    HW126918   5.664   2.258   0.663
 8673SOL    HW226919   5.700   2.416   0.683
 8674SOL     OW26920   0.771   0.240   2.512
 8674SOL    HW126921   0.760   0.194   2.600
 8674SOL    HW226922   0.692   0.299   2.494
 8675SOL     OW26923   1.735   1.962   2.786
 8675SOL    HW126924   1.779   2.012   2.711
 8675SOL    HW226925   1.673   1.893   2.748
 8676SOL     OW26926   4.464   6.706   3.686
 8676SOL    HW126927   4.416   6.761   3.754
 8676SOL    HW226928   4.461   6.751   3.597
 8677SOL     OW26929   2.340   4.311   5.119
 8677SOL    HW126930   2.341   4.216   5.088
 8677SOL    HW226931   2.402   4.322   5.196
 8678SOL     OW26932   1.261   0.645   6.138
 8678SOL    HW126933   1.260   0.738   6.102
 8678SOL    HW226934   1.333   0.636   6.207
 8679SOL     OW26935   6.571   2.512   4.987
 8679SOL    HW126936   6.618   2.600   4.973
 8679SOL    HW226937   6.475   2.521   4.961
 8680SOL     OW26938   1.086   3.634   0.394
 8680SOL    HW126939   1.004   3.646   0.450
 8680SOL    HW226940   1.163   3.679   0.438
 8681SOL     OW26941   4.628   3.796   1.105
 8681SOL    HW126942   4.548   3.753   1.063
 8681SOL    HW226943   4.647   3.752   1.193
 8682SOL     OW26944   1.924   5.720   2.645
 8682SOL    HW126945   1.861   5.787   2.606
 8682SOL    HW226946   1.934   5.736   2.743
 8683SOL     OW26947   6.252   3.307   6.413
 8683SOL    HW126948   6.165   3.261   6.429
 8683SOL    HW226949   6.248   3.358   6.327
 8684SOL     OW26950   6.370   2.522   4.316
 8684SOL    HW126951   6.406   2.562   4.401
 8684SOL    HW226952   6.398   2.578   4.238
 8685SOL     OW26953   0.758   2.118   5.026
 8685SOL    HW126954   0.702   2.192   5.064
 8685SOL    HW226955   0.806   2.072   5.101
 8686SOL     OW26956   6.289   2.248   3.308
 8686SOL    HW126957   6.292   2.327   3.247
 8686SOL    HW226958   6.318   2.166   3.258
 8687SOL     OW26959   4.366   0.716   2.703
 8687SOL    HW126960   4.416   0.768   2.634
 8687SOL    HW226961   4.431   0.672   2.765
 8688SOL     OW26962   2.065   6.922   2.333
 8688SOL    HW126963   2.075   7.000   2.272
 8688SOL    HW226964   2.057   6.838   2.279
 8689SOL     OW26965   4.470   5.546   0.858
 8689SOL    HW126966   4.415   5.472   0.898
 8689SOL    HW226967   4.430   5.573   0.771
 8690SOL     OW26968   1.278   1.388   2.747
 8690SOL    HW126969   1.356   1.392   2.685
 8690SOL    HW226970   1.208   1.328   2.709
 8691SOL     OW26971   5.977   1.675   0.796
 8691SOL    HW126972   5.988   1.621   0.879
 8691SOL    HW226973   5.882   1.671   0.766
 8692SOL     OW26974   1.335   1.673   4.149
 8692SOL    HW126975   1.250   1.679   4.201
 8692SOL    HW226976   1.402   1.619   4.199
 8693SOL     OW26977   5.649   2.164   0.135
 8693SOL    HW126978   5.692   2.128   0.218
 8693SOL    HW226979   5.696   2.247   0.106
 8694SOL     OW26980   3.976   6.021   6.120
 8694SOL    HW126981   3.920   6.094   6.159
 8694SOL    HW226982   3.941   5.933   6.151
 8695SOL     OW26983   4.403   4.036   5.306
 8695SOL    HW126984   4.333   3.966   5.294
 8695SOL    HW226985   4.494   3.995   5.295
 8696SOL     OW26986   1.824   5.316   0.919
 8696SOL    HW126987   1.872   5.284   1.000
 8696SOL    HW226988   1.741   5.262   0.905
 8697SOL     OW26989   5.641   4.376   0.366
 8697SOL    HW126990   5.690   4.448   0.416
 8697SOL    HW226991   5.704   4.327   0.306
 8698SOL     OW26992   6.073   5.922   4.082
 8698SOL    HW126993   6.153   5.915   4.023
 8698SOL    HW226994   6.079   5.855   4.156
 8699SOL     OW26995   1.391   1.816   5.610
 8699SOL    HW126996   1.293   1.824   5.588
 8699SOL    HW226997   1.444   1.818   5.525
 8700SOL     OW26998   2.608   1.869   6.359
 8700SOL    HW126999   2.567   1.911   6.440
 8700SOL    HW227000   2.648   1.939   6.301
 8701SOL     OW27001   1.188   2.016   4.172
 8701SOL    HW127002   1.241   1.967   4.103
 8701SOL    HW227003   1.090   2.007   4.151
 8702SOL     OW27004   5.152   5.759   6.831
 8702SOL    HW127005   5.060   5.761   6.872
 8702SOL    HW227006   5.216   5.809   6.890
 8703SOL     OW27007   1.850   5.827   1.327
 8703SOL    HW127008   1.891   5.882   1.400
 8703SOL    HW227009   1.897   5.739   1.321
 8704SOL     OW27010   0.682   4.227   1.615
 8704SOL    HW127011   0.715   4.149   1.561
 8704SOL    HW227012   0.667   4.305   1.555
 8705SOL     OW27013   4.968   6.842   4.961
 8705SOL    HW127014   4.890   6.903   4.975
 8705SOL    HW227015   4.936   6.750   4.942
 8706SOL     OW27016   5.212   2.309   6.821
 8706SOL    HW127017   5.205   2.368   6.740
 8706SOL    HW227018   5.127   2.258   6.832
 8707SOL     OW27019   4.819   2.563   5.677
 8707SOL    HW127020   4.843   2.501   5.751
 8707SOL    HW227021   4.902   2.602   5.637
 8708SOL     OW27022   4.112   1.513   0.938
 8708SOL    HW127023   4.112   1.419   0.904
 8708SOL    HW227024   4.019   1.539   0.964
 8709SOL     OW27025   6.729   3.491   0.971
 8709SOL    HW127026   6.779   3.534   0.896
 8709SOL    HW227027   6.743   3.544   1.055
 8710SOL     OW27028   0.901   3.313   3.527
 8710SOL    HW127029   0.845   3.260   3.464
 8710SOL    HW227030   0.881   3.410   3.517
 8711SOL     OW27031   0.629   1.488   4.178
 8711SOL    HW127032   0.640   1.389   4.180
 8711SOL    HW227033   0.635   1.520   4.083
 8712SOL     OW27034   3.691   1.059   5.821
 8712SOL    HW127035   3.705   1.093   5.728
 8712SOL    HW227036   3.740   1.118   5.885
 8713SOL     OW27037   6.457   4.747   2.667
 8713SOL    HW127038   6.519   4.672   2.646
 8713SOL    HW227039   6.507   4.834   2.664
 8714SOL     OW27040   1.490   1.329   4.737
 8714SOL    HW127041   1.517   1.380   4.819
 8714SOL    HW227042   1.404   1.367   4.701
 8715SOL     OW27043   5.925   1.640   1.556
 8715SOL    HW127044   5.961   1.550   1.532
 8715SOL    HW227045   5.825   1.635   1.559
 8716SOL     OW27046   1.386   1.539   1.605
 8716SOL    HW127047   1.456   1.487   1.556
 8716SOL    HW227048   1.421   1.566   1.695
 8717SOL     OW27049   3.941   3.158   0.806
 8717SOL    HW127050   3.961   3.071   0.760
 8717SOL    HW227051   3.982   3.158   0.897
 8718SOL     OW27052   6.626   3.119   5.890
 8718SOL    HW127053   6.550   3.113   5.955
 8718SOL    HW227054   6.708   3.077   5.930
 8719SOL     OW27055   6.738   0.570   6.153
 8719SOL    HW127056   6.770   0.661   6.177
 8719SOL    HW227057   6.788   0.537   6.073
 8720SOL     OW27058   5.199   3.524   5.885
 8720SOL    HW127059   5.212   3.434   5.927
 8720SOL    HW227060   5.107   3.531   5.847
 8721SOL     OW27061   0.021   2.127   4.401
 8721SOL    HW127062   0.114   2.149   4.431
 8721SOL    HW227063   0.022   2.037   4.356
 8722SOL     OW27064   3.945   2.935   0.683
 8722SOL    HW127065   3.978   2.847   0.715
 8722SOL    HW227066   3.846   2.930   0.666
 8723SOL     OW27067   6.818   4.609   0.068
 8723SOL    HW127068   6.904   4.653   0.041
 8723SOL    HW227069   6.833   4.512   0.082
 8724SOL     OW27070   5.490   6.562   6.528
 8724SOL    HW127071   5.579   6.587   6.491
 8724SOL    HW227072   5.470   6.467   6.504
 8725SOL     OW27073   2.303   5.803   0.919
 8725SOL    HW127074   2.221   5.785   0.864
 8725SOL    HW227075   2.345   5.888   0.887
 8726SOL     OW27076   4.876   0.547   1.355
 8726SOL    HW127077   4.833   0.521   1.441
 8726SOL    HW227078   4.808   0.590   1.296
 8727SOL     OW27079   6.257   5.754   0.895
 8727SOL    HW127080   6.260   5.696   0.813
 8727SOL    HW227081   6.256   5.697   0.977
 8728SOL     OW27082   2.308   6.908   5.648
 8728SOL    HW127083   2.377   6.951   5.589
 8728SOL    HW227084   2.288   6.968   5.725
 8729SOL     OW27085   5.775   6.650   4.673
 8729SOL    HW127086   5.721   6.570   4.700
 8729SOL    HW227087   5.765   6.722   4.741
 8730SOL     OW27088   0.252   7.011   1.600
 8730SOL    HW127089   0.212   0.069   1.565
 8730SOL    HW227090   0.270   7.020   1.697
 8731SOL     OW27091   1.051   2.029   2.745
 8731SOL    HW127092   1.035   1.939   2.704
 8731SOL    HW227093   0.967   2.083   2.742
 8732SOL     OW27094   5.226   4.615   1.710
 8732SOL    HW127095   5.178   4.556   1.644
 8732SOL    HW227096   5.191   4.708   1.703
 8733SOL     OW27097   0.385   6.267   1.401
 8733SOL    HW127098   0.338   6.194   1.449
 8733SOL    HW227099   0.459   6.228   1.345
 8734SOL     OW27100   6.769   4.723   0.390
 8734SOL    HW127101   6.868   4.739   0.398
 8734SOL    HW227102   6.745   4.716   0.293
 8735SOL     OW27103   6.694   2.673   6.703
 8735SOL    HW127104   6.779   2.722   6.725
 8735SOL    HW227105   6.717   2.582   6.668
 8736SOL     OW27106   0.640   4.946   6.598
 8736SOL    HW127107   0.693   4.927   6.681
 8736SOL    HW227108   0.577   5.022   6.615
 8737SOL     OW27109   3.694   5.746   6.371
 8737SOL    HW127110   3.790   5.736   6.345
 8737SOL    HW227111   3.689   5.785   6.463
 8738SOL     OW27112   1.561   3.485   4.813
 8738SOL    HW127113   1.518   3.443   4.893
 8738SOL    HW227114   1.547   3.584   4.816
 8739SOL     OW27115   1.386   2.914   5.019
 8739SOL    HW127116   1.378   2.817   4.994
 8739SOL    HW227117   1.294   2.951   5.037
 8740SOL     OW27118   1.779   6.120   1.669
 8740SOL    HW127119   1.849   6.181   1.705
 8740SOL    HW227120   1.769   6.041   1.730
 8741SOL     OW27121   1.120   3.797   2.101
 8741SOL    HW127122   1.122   3.814   2.200
 8741SOL    HW227123   1.199   3.742   2.075
 8742SOL     OW27124   4.690   6.934   2.108
 8742SOL    HW127125   4.729   6.887   2.029
 8742SOL    HW227126   4.751   6.924   2.186
 8743SOL     OW27127   2.282   4.288   3.461
 8743SOL    HW127128   2.240   4.379   3.457
 8743SOL    HW227129   2.302   4.265   3.556
 8744SOL     OW27130   3.360   2.988   5.981
 8744SOL    HW127131   3.341   3.085   5.998
 8744SOL    HW227132   3.439   2.960   6.036
 8745SOL     OW27133   6.426   1.802   6.832
 8745SOL    HW127134   6.443   1.756   6.919
 8745SOL    HW227135   6.447   1.739   6.757
 8746SOL     OW27136   5.421   4.403   5.204
 8746SOL    HW127137   5.437   4.365   5.114
 8746SOL    HW227138   5.471   4.351   5.273
 8747SOL     OW27139   1.716   2.685   4.080
 8747SOL    HW127140   1.704   2.785   4.079
 8747SOL    HW227141   1.699   2.649   3.988
 8748SOL     OW27142   2.601   0.663   6.671
 8748SOL    HW127143   2.696   0.693   6.671
 8748SOL    HW227144   2.545   0.728   6.723
 8749SOL     OW27145   4.105   1.271   4.120
 8749SOL    HW127146   4.023   1.307   4.074
 8749SOL    HW227147   4.158   1.346   4.158
 8750SOL     OW27148   2.476   0.971   5.163
 8750SOL    HW127149   2.532   0.929   5.091
 8750SOL    HW227150   2.409   1.032   5.121
 8751SOL     OW27151   2.024   0.172   2.701
 8751SOL    HW127152   1.988   0.099   2.760
 8751SOL    HW227153   2.086   0.230   2.754
 8752SOL     OW27154   1.879   2.519   6.500
 8752SOL    HW127155   1.929   2.443   6.460
 8752SOL    HW227156   1.912   2.535   6.593
 8753SOL     OW27157   5.519   1.212   5.131
 8753SOL    HW127158   5.562   1.175   5.213
 8753SOL    HW227159   5.534   1.149   5.055
 8754SOL     OW27160   1.665   1.040   5.793
 8754SOL    HW127161   1.738   1.064   5.857
 8754SOL    HW227162   1.694   1.061   5.700
 8755SOL     OW27163   2.344   2.024   0.480
 8755SOL    HW127164   2.431   2.072   0.464
 8755SOL    HW227165   2.288   2.078   0.542
 8756SOL     OW27166   2.208   3.041   4.100
 8756SOL    HW127167   2.215   2.942   4.103
 8756SOL    HW227168   2.212   3.078   4.193
 8757SOL     OW27169   4.958   5.795   4.184
 8757SOL    HW127170   4.911   5.777   4.270
 8757SOL    HW227171   4.943   5.890   4.156
 8758SOL     OW27172   5.035   6.153   2.148
 8758SOL    HW127173   5.020   6.228   2.083
 8758SOL    HW227174   5.040   6.066   2.097
 8759SOL     OW27175   5.338   1.131   5.845
 8759SOL    HW127176   5.405   1.151   5.917
 8759SOL    HW227177   5.266   1.073   5.882
 8760SOL     OW27178   1.792   2.852   3.402
 8760SOL    HW127179   1.879   2.882   3.439
 8760SOL    HW227180   1.803   2.763   3.357
 8761SOL     OW27181   5.120   6.255   1.025
 8761SOL    HW127182   5.062   6.251   0.943
 8761SOL    HW227183   5.204   6.203   1.009
 8762SOL     OW27184   0.879   4.034   6.999
 8762SOL    HW127185   0.954   4.088   0.010
 8762SOL    HW227186   0.873   3.947   0.021
 8763SOL     OW27187   6.831   6.366   5.553
 8763SOL    HW127188   6.863   6.335   5.463
 8763SOL    HW227189   6.899   6.340   5.622
 8764SOL     OW27190   3.334   2.334   5.465
 8764SOL    HW127191   3.291   2.353   5.377
 8764SOL    HW227192   3.276   2.369   5.539
 8765SOL     OW27193   0.172   0.276   5.233
 8765SOL    HW127194   0.086   0.270   5.283
 8765SOL    HW227195   0.203   0.371   5.231
 8766SOL     OW27196   2.459   4.594   2.516
 8766SOL    HW127197   2.427   4.582   2.422
 8766SOL    HW227198   2.557   4.617   2.514
 8767SOL     OW27199   5.235   1.745   4.867
 8767SOL    HW127200   5.154   1.759   4.810
 8767SOL    HW227201   5.289   1.829   4.871
 8768SOL     OW27202   1.219   3.943   6.813
 8768SOL    HW127203   1.133   3.894   6.829
 8768SOL    HW227204   1.226   3.966   6.716
 8769SOL     OW27205   2.146   0.751   5.548
 8769SOL    HW127206   2.052   0.783   5.534
 8769SOL    HW227207   2.199   0.767   5.465
 8770SOL     OW27208   5.440   2.123   2.233
 8770SOL    HW127209   5.374   2.198   2.237
 8770SOL    HW227210   5.428   2.064   2.312
 8771SOL     OW27211   1.553   2.481   6.469
 8771SOL    HW127212   1.508   2.568   6.489
 8771SOL    HW227213   1.646   2.497   6.437
 8772SOL     OW27214   5.803   6.454   6.770
 8772SOL    HW127215   5.786   6.460   6.868
 8772SOL    HW227216   5.733   6.398   6.727
 8773SOL     OW27217   3.143   2.104   3.714
 8773SOL    HW127218   3.137   2.011   3.750
 8773SOL    HW227219   3.228   2.114   3.662
 8774SOL     OW27220   1.160   1.314   6.884
 8774SOL    HW127221   1.199   1.345   6.797
 8774SOL    HW227222   1.172   1.215   6.892
 8775SOL     OW27223   6.437   0.013   4.531
 8775SOL    HW127224   6.493   6.969   4.487
 8775SOL    HW227225   6.460   0.018   4.628
 8776SOL     OW27226   2.966   3.362   4.783
 8776SOL    HW127227   3.040   3.427   4.804
 8776SOL    HW227228   2.878   3.405   4.803
 8777SOL     OW27229   6.492   5.749   2.018
 8777SOL    HW127230   6.462   5.664   2.062
 8777SOL    HW227231   6.531   5.728   1.929
 8778SOL     OW27232   0.844   2.246   3.145
 8778SOL    HW127233   0.826   2.148   3.154
 8778SOL    HW227234   0.852   2.287   3.236
 8779SOL     OW27235   1.631   4.440   0.756
 8779SOL    HW127236   1.718   4.456   0.802
 8779SOL    HW227237   1.624   4.500   0.676
 8780SOL     OW27238   2.224   5.745   4.139
 8780SOL    HW127239   2.160   5.814   4.173
 8780SOL    HW227240   2.234   5.672   4.207
 8781SOL     OW27241   0.653   2.217   2.669
 8781SOL    HW127242   0.712   2.159   2.724
 8781SOL    HW227243   0.565   2.228   2.714
 8782SOL     OW27244   5.007   1.605   2.821
 8782SOL    HW127245   4.910   1.618   2.798
 8782SOL    HW227246   5.038   1.518   2.783
 8783SOL     OW27247   5.117   2.394   5.687
 8783SOL    HW127248   5.132   2.484   5.730
 8783SOL    HW227249   5.120   2.404   5.588
 8784SOL     OW27250   5.118   4.104   5.769
 8784SOL    HW127251   5.096   4.064   5.858
 8784SOL    HW227252   5.046   4.081   5.703
 8785SOL     OW27253   5.282   4.820   6.676
 8785SOL    HW127254   5.309   4.886   6.745
 8785SOL    HW227255   5.359   4.761   6.653
 8786SOL     OW27256   1.150   5.978   0.856
 8786SOL    HW127257   1.232   5.981   0.913
 8786SOL    HW227258   1.155   6.048   0.786
 8787SOL     OW27259   1.298   2.853   0.375
 8787SOL    HW127260   1.354   2.770   0.375
 8787SOL    HW227261   1.201   2.828   0.378
 8788SOL     OW27262   1.091   1.849   5.561
 8788SOL    HW127263   1.068   1.859   5.464
 8788SOL    HW227264   1.050   1.924   5.612
 8789SOL     OW27265   0.100   7.010   6.708
 8789SOL    HW127266   0.133   6.980   6.619
 8789SOL    HW227267   0.155   0.061   6.740
 8790SOL     OW27268   5.166   1.711   0.079
 8790SOL    HW127269   5.245   1.732   0.020
 8790SOL    HW227270   5.121   1.629   0.045
 8791SOL     OW27271   4.830   6.288   5.210
 8791SOL    HW127272   4.785   6.377   5.222
 8791SOL    HW227273   4.851   6.274   5.113
 8792SOL     OW27274   5.262   0.115   3.083
 8792SOL    HW127275   5.164   0.117   3.065
 8792SOL    HW227276   5.280   0.071   3.171
 8793SOL     OW27277   1.046   4.510   4.310
 8793SOL    HW127278   1.057   4.607   4.287
 8793SOL    HW227279   1.071   4.496   4.406
 8794SOL     OW27280   2.365   6.603   2.618
 8794SOL    HW127281   2.410   6.661   2.550
 8794SOL    HW227282   2.386   6.636   2.710
 8795SOL     OW27283   1.947   6.134   5.318
 8795SOL    HW127284   2.009   6.201   5.279
 8795SOL    HW227285   1.977   6.109   5.410
 8796SOL     OW27286   5.648   2.406   5.398
 8796SOL    HW127287   5.658   2.431   5.495
 8796SOL    HW227288   5.634   2.307   5.391
 8797SOL     OW27289   0.618   6.535   6.921
 8797SOL    HW127290   0.526   6.500   6.937
 8797SOL    HW227291   0.670   6.532   7.007
 8798SOL     OW27292   4.158   3.393   6.004
 8798SOL    HW127293   4.193   3.343   5.925
 8798SOL    HW227294   4.229   3.399   6.074
 8799SOL     OW27295   3.850   6.381   2.321
 8799SOL    HW127296   3.858   6.288   2.359
 8799SOL    HW227297   3.817   6.376   2.227
 8800SOL     OW27298   4.679   5.424   0.357
 8800SOL    HW127299   4.637   5.499   0.408
 8800SOL    HW227300   4.682   5.447   0.259
 8801SOL     OW27301   3.257   6.965   5.000
 8801SOL    HW127302   3.220   6.913   4.923
 8801SOL    HW227303   3.259   6.907   5.081
 8802SOL     OW27304   2.554   0.090   2.181
 8802SOL    HW127305   2.646   0.110   2.148
 8802SOL    HW227306   2.560   0.025   2.257
 8803SOL     OW27307   3.592   6.038   0.566
 8803SOL    HW127308   3.529   5.981   0.619
 8803SOL    HW227309   3.654   5.980   0.514
 8804SOL     OW27310   3.838   0.475   0.963
 8804SOL    HW127311   3.752   0.467   1.013
 8804SOL    HW227312   3.858   0.571   0.946
 8805SOL     OW27313   0.369   0.059   3.036
 8805SOL    HW127314   0.287   0.041   3.090
 8805SOL    HW227315   0.349   0.128   2.967
 8806SOL     OW27316   2.192   5.042   0.326
 8806SOL    HW127317   2.122   4.980   0.291
 8806SOL    HW227318   2.282   5.002   0.310
 8807SOL     OW27319   1.493   6.400   6.201
 8807SOL    HW127320   1.513   6.483   6.150
 8807SOL    HW227321   1.554   6.327   6.171
 8808SOL     OW27322   6.073   1.404   0.927
 8808SOL    HW127323   6.164   1.434   0.957
 8808SOL    HW227324   6.015   1.387   1.007
 8809SOL     OW27325   6.305   4.217   0.997
 8809SOL    HW127326   6.248   4.135   1.001
 8809SOL    HW227327   6.370   4.216   1.073
 8810SOL     OW27328   4.991   1.324   3.572
 8810SOL    HW127329   5.085   1.314   3.538
 8810SOL    HW227330   4.946   1.235   3.573
 8811SOL     OW27331   0.901   1.590   4.051
 8811SOL    HW127332   0.945   1.649   4.118
 8811SOL    HW227333   0.935   1.497   4.060
 8812SOL     OW27334   1.962   0.588   0.806
 8812SOL    HW127335   1.888   0.565   0.742
 8812SOL    HW227336   2.047   0.546   0.776
 8813SOL     OW27337   1.442   5.269   0.808
 8813SOL    HW127338   1.472   5.361   0.784
 8813SOL    HW227339   1.476   5.245   0.899
 8814SOL     OW27340   5.463   6.862   0.431
 8814SOL    HW127341   5.369   6.833   0.417
 8814SOL    HW227342   5.519   6.833   0.353
 8815SOL     OW27343   0.135   5.757   2.771
 8815SOL    HW127344   0.138   5.818   2.692
 8815SOL    HW227345   0.195   5.679   2.755
 8816SOL     OW27346   0.998   6.116   2.002
 8816SOL    HW127347   1.079   6.096   1.947
 8816SOL    HW227348   0.952   6.031   2.026
 8817SOL     OW27349   2.551   4.338   5.303
 8817SOL    HW127350   2.552   4.426   5.255
 8817SOL    HW227351   2.641   4.320   5.342
 8818SOL     OW27352   7.014   5.354   4.595
 8818SOL    HW127353   0.057   5.294   4.556
 8818SOL    HW227354   6.998   5.328   4.690
 8819SOL     OW27355   5.234   0.555   4.202
 8819SOL    HW127356   5.236   0.629   4.269
 8819SOL    HW227357   5.296   0.578   4.126
 8820SOL     OW27358   1.688   2.929   4.252
 8820SOL    HW127359   1.697   2.851   4.314
 8820SOL    HW227360   1.774   2.980   4.249
 8821SOL     OW27361   2.025   0.683   6.480
 8821SOL    HW127362   1.959   0.757   6.471
 8821SOL    HW227363   2.090   0.687   6.403
 8822SOL     OW27364   0.452   1.767   4.026
 8822SOL    HW127365   0.389   1.703   3.982
 8822SOL    HW227366   0.545   1.749   3.995
 8823SOL     OW27367   2.556   5.218   2.067
 8823SOL    HW127368   2.622   5.143   2.069
 8823SOL    HW227369   2.568   5.276   2.148
 8824SOL     OW27370   4.579   3.802   0.739
 8824SOL    HW127371   4.507   3.808   0.808
 8824SOL    HW227372   4.663   3.842   0.776
 8825SOL     OW27373   1.645   2.619   1.378
 8825SOL    HW127374   1.590   2.626   1.295
 8825SOL    HW227375   1.604   2.675   1.450
 8826SOL     OW27376   5.679   0.820   6.999
 8826SOL    HW127377   5.615   0.805   0.048
 8826SOL    HW227378   5.739   0.741   6.991
 8827SOL     OW27379   0.844   1.332   3.491
 8827SOL    HW127380   0.825   1.272   3.569
 8827SOL    HW227381   0.881   1.419   3.524
 8828SOL     OW27382   1.575   6.214   2.633
 8828SOL    HW127383   1.476   6.207   2.617
 8828SOL    HW227384   1.608   6.300   2.594
 8829SOL     OW27385   0.574   1.903   6.956
 8829SOL    HW127386   0.605   1.998   6.952
 8829SOL    HW227387   0.641   1.849   7.006
 8830SOL     OW27388   0.719   1.785   0.652
 8830SOL    HW127389   0.774   1.867   0.669
 8830SOL    HW227390   0.704   1.776   0.553
 8831SOL     OW27391   6.956   0.834   2.678
 8831SOL    HW127392   7.020   0.891   2.729
 8831SOL    HW227393   6.881   0.890   2.644
 8832SOL     OW27394   0.052   0.706   2.458
 8832SOL    HW127395   0.034   0.776   2.389
 8832SOL    HW227396   7.006   0.708   2.527
 8833SOL     OW27397   1.916   4.568   3.258
 8833SOL    HW127398   1.899   4.489   3.317
 8833SOL    HW227399   1.846   4.637   3.272
 8834SOL     OW27400   5.727   3.863   4.158
 8834SOL    HW127401   5.699   3.772   4.126
 8834SOL    HW227402   5.681   3.933   4.103
 8835SOL     OW27403   0.390   6.930   6.246
 8835SOL    HW127404   0.481   6.887   6.244
 8835SOL    HW227405   0.394   7.017   6.198
 8836SOL     OW27406   4.998   1.771   1.397
 8836SOL    HW127407   4.923   1.734   1.452
 8836SOL    HW227408   4.974   1.767   1.301
 8837SOL     OW27409   1.053   1.966   2.204
 8837SOL    HW127410   1.119   2.020   2.255
 8837SOL    HW227411   0.963   2.008   2.210
 8838SOL     OW27412   2.129   5.641   3.902
 8838SOL    HW127413   2.161   5.692   3.982
 8838SOL    HW227414   2.031   5.624   3.911
 8839SOL     OW27415   5.895   6.861   4.168
 8839SOL    HW127416   5.889   6.816   4.079
 8839SOL    HW227417   5.803   6.865   4.209
 8840SOL     OW27418   5.059   1.395   2.518
 8840SOL    HW127419   5.094   1.381   2.611
 8840SOL    HW227420   5.072   1.491   2.492
 8841SOL     OW27421   1.799   0.133   4.042
 8841SOL    HW127422   1.848   0.054   4.079
 8841SOL    HW227423   1.795   0.205   4.112
 8842SOL     OW27424   1.693   2.684   2.097
 8842SOL    HW127425   1.710   2.712   2.003
 8842SOL    HW227426   1.780   2.686   2.148
 8843SOL     OW27427   0.537   3.456   4.524
 8843SOL    HW127428   0.542   3.357   4.511
 8843SOL    HW227429   0.548   3.502   4.436
 8844SOL     OW27430   5.781   1.425   6.382
 8844SOL    HW127431   5.850   1.412   6.454
 8844SOL    HW227432   5.807   1.373   6.301
 8845SOL     OW27433   5.631   3.740   6.786
 8845SOL    HW127434   5.532   3.740   6.803
 8845SOL    HW227435   5.661   3.647   6.766
 8846SOL     OW27436   2.560   4.913   3.342
 8846SOL    HW127437   2.521   4.852   3.412
 8846SOL    HW227438   2.599   4.993   3.386
 8847SOL     OW27439   1.932   0.809   2.448
 8847SOL    HW127440   1.928   0.734   2.514
 8847SOL    HW227441   1.871   0.790   2.371
 8848SOL     OW27442   1.310   0.214   2.941
 8848SOL    HW127443   1.393   0.159   2.934
 8848SOL    HW227444   1.231   0.156   2.918
 8849SOL     OW27445   2.649   6.788   1.180
 8849SOL    HW127446   2.562   6.783   1.230
 8849SOL    HW227447   2.675   6.884   1.168
 8850SOL     OW27448   2.547   2.594   7.022
 8850SOL    HW127449   2.470   2.653   7.000
 8850SOL    HW227450   2.593   2.567   6.937
 8851SOL     OW27451   1.816   3.438   2.619
 8851SOL    HW127452   1.830   3.493   2.702
 8851SOL    HW227453   1.731   3.387   2.628
 8852SOL     OW27454   1.088   2.229   5.645
 8852SOL    HW127455   1.015   2.163   5.664
 8852SOL    HW227456   1.048   2.319   5.629
 8853SOL     OW27457   5.214   0.726   1.559
 8853SOL    HW127458   5.156   0.712   1.479
 8853SOL    HW227459   5.309   0.735   1.530
 8854SOL     OW27460   1.149   2.343   4.973
 8854SOL    HW127461   1.083   2.416   4.990
 8854SOL    HW227462   1.189   2.354   4.882
 8855SOL     OW27463   5.232   5.149   1.117
 8855SOL    HW127464   5.154   5.210   1.100
 8855SOL    HW227465   5.312   5.183   1.068
 8856SOL     OW27466   6.394   0.970   5.635
 8856SOL    HW127467   6.475   0.914   5.648
 8856SOL    HW227468   6.414   1.064   5.663
 8857SOL     OW27469   6.385   2.164   6.185
 8857SOL    HW127470   6.470   2.140   6.138
 8857SOL    HW227471   6.358   2.257   6.160
 8858SOL     OW27472   6.797   6.065   4.999
 8858SOL    HW127473   6.704   6.098   5.015
 8858SOL    HW227474   6.812   5.982   5.053
 8859SOL     OW27475   0.700   5.959   3.382
 8859SOL    HW127476   0.638   6.021   3.430
 8859SOL    HW227477   0.756   6.010   3.318
 8860SOL     OW27478   0.008   4.089   2.864
 8860SOL    HW127479   0.093   4.142   2.869
 8860SOL    HW227480   6.987   4.095   2.952
 8861SOL     OW27481   3.540   2.823   1.494
 8861SOL    HW127482   3.452   2.871   1.497
 8861SOL    HW227483   3.586   2.833   1.582
 8862SOL     OW27484   4.447   4.622   4.772
 8862SOL    HW127485   4.402   4.579   4.851
 8862SOL    HW227486   4.481   4.551   4.711
 8863SOL     OW27487   1.895   3.680   3.197
 8863SOL    HW127488   1.887   3.593   3.246
 8863SOL    HW227489   1.987   3.688   3.158
 8864SOL     OW27490   6.520   2.313   5.687
 8864SOL    HW127491   6.556   2.404   5.670
 8864SOL    HW227492   6.560   2.276   5.771
 8865SOL     OW27493   3.047   1.954   0.618
 8865SOL    HW127494   3.027   1.857   0.633
 8865SOL    HW227495   2.973   2.010   0.657
 8866SOL     OW27496   5.918   6.619   2.003
 8866SOL    HW127497   5.880   6.528   2.020
 8866SOL    HW227498   5.962   6.653   2.086
 8867SOL     OW27499   6.445   3.192   2.750
 8867SOL    HW127500   6.483   3.196   2.658
 8867SOL    HW227501   6.383   3.269   2.765
 8868SOL     OW27502   0.062   3.747   3.843
 8868SOL    HW127503   0.067   3.793   3.931
 8868SOL    HW227504   0.149   3.756   3.795
 8869SOL     OW27505   4.417   0.160   3.403
 8869SOL    HW127506   4.346   0.208   3.351
 8869SOL    HW227507   4.396   0.062   3.404
 8870SOL     OW27508   1.422   0.616   2.045
 8870SOL    HW127509   1.450   0.582   1.955
 8870SOL    HW227510   1.326   0.642   2.043
 8871SOL     OW27511   7.003   0.536   1.923
 8871SOL    HW127512   0.036   0.456   1.918
 8871SOL    HW227513   0.011   0.608   1.862
 8872SOL     OW27514   0.038   4.082   3.770
 8872SOL    HW127515   0.025   4.179   3.787
 8872SOL    HW227516   0.122   4.051   3.814
 8873SOL     OW27517   2.560   2.046   2.449
 8873SOL    HW127518   2.548   2.034   2.350
 8873SOL    HW227519   2.470   2.055   2.492
 8874SOL     OW27520   2.696   6.385   7.004
 8874SOL    HW127521   2.670   6.304   0.030
 8874SOL    HW227522   2.755   6.443   0.033
 8875SOL     OW27523   6.579   3.227   4.329
 8875SOL    HW127524   6.572   3.313   4.279
 8875SOL    HW227525   6.665   3.225   4.380
 8876SOL     OW27526   4.509   0.368   6.594
 8876SOL    HW127527   4.602   0.353   6.563
 8876SOL    HW227528   4.505   0.452   6.648
 8877SOL     OW27529   1.418   5.150   1.114
 8877SOL    HW127530   1.357   5.079   1.079
 8877SOL    HW227531   1.513   5.126   1.093
 8878SOL     OW27532   5.033   4.125   1.362
 8878SOL    HW127533   4.970   4.048   1.355
 8878SOL    HW227534   5.068   4.131   1.456
 8879SOL     OW27535   6.744   4.287   2.714
 8879SOL    HW127536   6.695   4.238   2.643
 8879SOL    HW227537   6.740   4.236   2.799
 8880SOL     OW27538   4.083   1.921   3.181
 8880SOL    HW127539   4.093   2.004   3.234
 8880SOL    HW227540   4.062   1.844   3.242
 8881SOL     OW27541   4.042   4.790   3.351
 8881SOL    HW127542   4.112   4.726   3.321
 8881SOL    HW227543   3.991   4.824   3.273
 8882SOL     OW27544   4.147   0.595   0.627
 8882SOL    HW127545   4.201   0.571   0.708
 8882SOL    HW227546   4.138   0.694   0.621
 8883SOL     OW27547   6.990   6.697   3.658
 8883SOL    HW127548   6.949   6.653   3.577
 8883SOL    HW227549   6.917   6.730   3.718
 8884SOL     OW27550   4.895   2.909   5.497
 8884SOL    HW127551   4.844   2.950   5.422
 8884SOL    HW227552   4.963   2.845   5.461
 8885SOL     OW27553   6.026   5.818   0.614
 8885SOL    HW127554   5.963   5.767   0.555
 8885SOL    HW227555   5.990   5.819   0.708
 8886SOL     OW27556   3.920   5.864   6.668
 8886SOL    HW127557   4.001   5.810   6.645
 8886SOL    HW227558   3.929   5.900   6.761
 8887SOL     OW27559   4.172   0.503   1.705
 8887SOL    HW127560   4.159   0.440   1.629
 8887SOL    HW227561   4.173   0.451   1.791
 8888SOL     OW27562   3.280   1.688   2.394
 8888SOL    HW127563   3.181   1.695   2.380
 8888SOL    HW227564   3.324   1.657   2.310
 8889SOL     OW27565   1.664   5.172   0.001
 8889SOL    HW127566   1.608   5.182   6.945
 8889SOL    HW227567   1.697   5.078   0.008
 8890SOL     OW27568   1.051   6.785   0.154
 8890SOL    HW127569   0.955   6.789   0.180
 8890SOL    HW227570   1.067   6.705   0.096
 8891SOL     OW27571   5.996   4.136   5.594
 8891SOL    HW127572   6.077   4.135   5.534
 8891SOL    HW227573   6.024   4.156   5.687
 8892SOL     OW27574   2.640   5.285   5.033
 8892SOL    HW127575   2.618   5.187   5.032
 8892SOL    HW227576   2.602   5.329   4.952
 8893SOL     OW27577   1.308   5.421   5.304
 8893SOL    HW127578   1.333   5.368   5.223
 8893SOL    HW227579   1.379   5.411   5.373
 8894SOL     OW27580   5.053   1.442   1.818
 8894SOL    HW127581   5.010   1.531   1.829
 8894SOL    HW227582   5.090   1.411   1.906
 8895SOL     OW27583   6.512   3.305   1.031
 8895SOL    HW127584   6.564   3.380   0.990
 8895SOL    HW227585   6.449   3.342   1.100
 8896SOL     OW27586   0.803   1.901   3.549
 8896SOL    HW127587   0.888   1.948   3.575
 8896SOL    HW227588   0.824   1.807   3.524
 8897SOL     OW27589   1.910   5.440   4.013
 8897SOL    HW127590   1.928   5.364   3.950
 8897SOL    HW227591   1.858   5.511   3.965
 8898SOL     OW27592   4.841   3.766   2.774
 8898SOL    HW127593   4.811   3.859   2.796
 8898SOL    HW227594   4.851   3.713   2.859
 8899SOL     OW27595   1.676   3.674   3.045
 8899SOL    HW127596   1.744   3.667   3.118
 8899SOL    HW227597   1.589   3.636   3.078
 8900SOL     OW27598   4.901   1.857   4.236
 8900SOL    HW127599   4.802   1.865   4.223
 8900SOL    HW227600   4.926   1.761   4.240
 8901SOL     OW27601   1.372   5.184   4.621
 8901SOL    HW127602   1.334   5.266   4.664
 8901SOL    HW227603   1.297   5.124   4.592
 8902SOL     OW27604   0.521   4.428   0.358
 8902SOL    HW127605   0.525   4.522   0.325
 8902SOL    HW227606   0.551   4.366   0.285
 8903SOL     OW27607   1.169   0.043   5.753
 8903SOL    HW127608   1.264   0.029   5.726
 8903SOL    HW227609   1.128   0.114   5.696
 8904SOL     OW27610   0.954   1.134   3.660
 8904SOL    HW127611   0.886   1.061   3.650
 8904SOL    HW227612   1.043   1.102   3.629
 8905SOL     OW27613   1.316   3.916   2.965
 8905SOL    HW127614   1.294   3.948   3.058
 8905SOL    HW227615   1.415   3.916   2.953
 8906SOL     OW27616   5.845   0.027   0.292
 8906SOL    HW127617   5.862   0.073   0.205
 8906SOL    HW227618   5.875   0.085   0.367
 8907SOL     OW27619   3.200   2.987   5.142
 8907SOL    HW127620   3.114   3.012   5.099
 8907SOL    HW227621   3.189   2.986   5.241
 8908SOL     OW27622   1.270   4.280   6.499
 8908SOL    HW127623   1.232   4.345   6.565
 8908SOL    HW227624   1.229   4.296   6.409
 8909SOL     OW27625   1.663   5.683   1.584
 8909SOL    HW127626   1.596   5.636   1.526
 8909SOL    HW227627   1.754   5.675   1.543
 8910SOL     OW27628   1.090   0.391   3.569
 8910SOL    HW127629   1.134   0.474   3.536
 8910SOL    HW227630   1.130   0.364   3.656
 8911SOL     OW27631   4.342   2.375   4.462
 8911SOL    HW127632   4.365   2.432   4.541
 8911SOL    HW227633   4.358   2.279   4.485
 8912SOL     OW27634   3.523   3.541   3.893
 8912SOL    HW127635   3.535   3.522   3.795
 8912SOL    HW227636   3.435   3.586   3.908
 8913SOL     OW27637   5.337   6.039   0.698
 8913SOL    HW127638   5.419   5.992   0.667
 8913SOL    HW227639   5.295   6.087   0.622
 8914SOL     OW27640   4.883   5.440   5.528
 8914SOL    HW127641   4.884   5.360   5.469
 8914SOL    HW227642   4.938   5.513   5.487
 8915SOL     OW27643   1.670   1.142   2.721
 8915SOL    HW127644   1.722   1.059   2.696
 8915SOL    HW227645   1.604   1.119   2.792
 8916SOL     OW27646   5.169   1.179   1.096
 8916SOL    HW127647   5.159   1.275   1.069
 8916SOL    HW227648   5.102   1.158   1.167
 8917SOL     OW27649   5.966   1.803   0.370
 8917SOL    HW127650   5.940   1.711   0.398
 8917SOL    HW227651   5.918   1.827   0.285
 8918SOL     OW27652   0.904   3.533   2.566
 8918SOL    HW127653   0.994   3.506   2.599
 8918SOL    HW227654   0.867   3.462   2.506
 8919SOL     OW27655   6.298   2.984   1.404
 8919SOL    HW127656   6.312   2.916   1.475
 8919SOL    HW227657   6.321   2.945   1.315
 8920SOL     OW27658   0.009   0.780   6.921
 8920SOL    HW127659   0.054   0.847   6.862
 8920SOL    HW227660   0.070   0.702   6.937
 8921SOL     OW27661   1.325   3.133   2.132
 8921SOL    HW127662   1.306   3.038   2.106
 8921SOL    HW227663   1.239   3.178   2.157
 8922SOL     OW27664   4.381   5.478   3.965
 8922SOL    HW127665   4.281   5.480   3.968
 8922SOL    HW227666   4.411   5.392   3.924
 8923SOL     OW27667   2.353   1.658   4.656
 8923SOL    HW127668   2.443   1.658   4.701
 8923SOL    HW227669   2.284   1.691   4.719
 8924SOL     OW27670   6.496   5.079   5.007
 8924SOL    HW127671   6.529   4.999   4.956
 8924SOL    HW227672   6.563   5.153   5.000
 8925SOL     OW27673   0.933   6.619   2.632
 8925SOL    HW127674   0.892   6.564   2.559
 8925SOL    HW227675   1.023   6.651   2.604
 8926SOL     OW27676   6.105   0.936   6.868
 8926SOL    HW127677   6.172   0.979   6.929
 8926SOL    HW227678   6.094   0.840   6.894
 8927SOL     OW27679   1.639   0.608   6.220
 8927SOL    HW127680   1.571   0.583   6.290
 8927SOL    HW227681   1.632   0.705   6.201
 8928SOL     OW27682   0.917   6.599   5.603
 8928SOL    HW127683   0.999   6.647   5.633
 8928SOL    HW227684   0.836   6.653   5.627
 8929SOL     OW27685   6.896   1.686   3.755
 8929SOL    HW127686   6.853   1.678   3.845
 8929SOL    HW227687   6.858   1.617   3.693
 8930SOL     OW27688   2.031   4.518   3.854
 8930SOL    HW127689   2.078   4.538   3.940
 8930SOL    HW227690   2.000   4.423   3.854
 8931SOL     OW27691   4.262   3.367   0.318
 8931SOL    HW127692   4.339   3.400   0.265
 8931SOL    HW227693   4.277   3.385   0.416
 8932SOL     OW27694   1.103   3.785   3.592
 8932SOL    HW127695   1.203   3.793   3.598
 8932SOL    HW227696   1.079   3.694   3.559
 8933SOL     OW27697   4.126   1.974   5.610
 8933SOL    HW127698   4.132   1.953   5.707
 8933SOL    HW227699   4.071   1.904   5.563
 8934SOL     OW27700   2.545   5.997   2.744
 8934SOL    HW127701   2.638   5.977   2.714
 8934SOL    HW227702   2.499   5.911   2.768
 8935SOL     OW27703   0.042   4.463   0.459
 8935SOL    HW127704   6.981   4.432   0.420
 8935SOL    HW227705   0.040   4.563   0.467
 8936SOL     OW27706   3.922   2.463   0.530
 8936SOL    HW127707   4.017   2.493   0.539
 8936SOL    HW227708   3.864   2.542   0.513
 8937SOL     OW27709   0.509   6.632   6.239
 8937SOL    HW127710   0.525   6.705   6.304
 8937SOL    HW227711   0.410   6.615   6.231
 8938SOL     OW27712   4.969   6.467   1.484
 8938SOL    HW127713   5.015   6.427   1.405
 8938SOL    HW227714   5.029   6.465   1.563
 8939SOL     OW27715   4.416   1.790   5.074
 8939SOL    HW127716   4.467   1.713   5.113
 8939SOL    HW227717   4.400   1.774   4.977
 8940SOL     OW27718   5.702   7.011   2.545
 8940SOL    HW127719   5.714   0.054   2.473
 8940SOL    HW227720   5.789   6.963   2.558
 8941SOL     OW27721   4.707   1.387   6.307
 8941SOL    HW127722   4.767   1.402   6.386
 8941SOL    HW227723   4.760   1.397   6.223
 8942SOL     OW27724   1.128   2.938   5.411
 8942SOL    HW127725   1.165   2.880   5.339
 8942SOL    HW227726   1.167   3.030   5.403
 8943SOL     OW27727   5.023   3.500   0.940
 8943SOL    HW127728   5.110   3.464   0.907
 8943SOL    HW227729   5.021   3.494   1.040
 8944SOL     OW27730   4.506   5.516   1.505
 8944SOL    HW127731   4.473   5.598   1.553
 8944SOL    HW227732   4.442   5.492   1.433
 8945SOL     OW27733   1.561   0.915   4.839
 8945SOL    HW127734   1.517   0.991   4.888
 8945SOL    HW227735   1.659   0.932   4.833
 8946SOL     OW27736   3.942   1.689   4.712
 8946SOL    HW127737   3.976   1.596   4.698
 8946SOL    HW227738   3.962   1.718   4.805
 8947SOL     OW27739   3.519   4.203   4.923
 8947SOL    HW127740   3.527   4.299   4.949
 8947SOL    HW227741   3.603   4.155   4.949
 8948SOL     OW27742   6.173   5.071   2.733
 8948SOL    HW127743   6.134   5.088   2.823
 8948SOL    HW227744   6.250   5.133   2.718
 8949SOL     OW27745   2.484   5.218   6.419
 8949SOL    HW127746   2.449   5.295   6.471
 8949SOL    HW227747   2.582   5.206   6.438
 8950SOL     OW27748   4.862   2.390   4.655
 8950SOL    HW127749   4.825   2.421   4.568
 8950SOL    HW227750   4.948   2.343   4.639
 8951SOL     OW27751   2.346   2.212   5.669
 8951SOL    HW127752   2.346   2.312   5.674
 8951SOL    HW227753   2.441   2.179   5.668
 8952SOL     OW27754   6.577   0.097   3.461
 8952SOL    HW127755   6.521   0.077   3.380
 8952SOL    HW227756   6.540   0.049   3.540
 8953SOL     OW27757   1.519   4.708   6.539
 8953SOL    HW127758   1.434   4.757   6.523
 8953SOL    HW227759   1.499   4.611   6.557
 8954SOL     OW27760   1.613   6.196   5.821
 8954SOL    HW127761   1.669   6.124   5.780
 8954SOL    HW227762   1.537   6.218   5.760
 8955SOL     OW27763   6.189   3.832   3.953
 8955SOL    HW127764   6.138   3.883   3.883
 8955SOL    HW227765   6.133   3.758   3.988
 8956SOL     OW27766   1.152   0.972   5.190
 8956SOL    HW127767   1.083   1.022   5.243
 8956SOL    HW227768   1.236   0.965   5.244
 8957SOL     OW27769   2.608   5.379   2.274
 8957SOL    HW127770   2.516   5.414   2.254
 8957SOL    HW227771   2.675   5.451   2.259
 8958SOL     OW27772   2.321   0.998   4.292
 8958SOL    HW127773   2.351   1.094   4.290
 8958SOL    HW227774   2.261   0.984   4.371
 8959SOL     OW27775   3.080   4.911   0.822
 8959SOL    HW127776   3.071   4.913   0.722
 8959SOL    HW227777   3.055   5.000   0.860
 8960SOL     OW27778   3.877   6.068   1.290
 8960SOL    HW127779   3.874   6.159   1.247
 8960SOL    HW227780   3.897   6.078   1.387
 8961SOL     OW27781   1.866   2.354   3.679
 8961SOL    HW127782   1.822   2.270   3.708
 8961SOL    HW227783   1.815   2.395   3.604
 8962SOL     OW27784   5.148   0.335   3.481
 8962SOL    HW127785   5.063   0.384   3.460
 8962SOL    HW227786   5.176   0.356   3.574
 8963SOL     OW27787   7.014   0.915   3.451
 8963SOL    HW127788   6.979   0.997   3.406
 8963SOL    HW227789   6.938   0.865   3.493
 8964SOL     OW27790   6.737   4.181   2.986
 8964SOL    HW127791   6.805   4.126   3.034
 8964SOL    HW227792   6.764   4.277   2.989
 8965SOL     OW27793   1.184   5.482   1.937
 8965SOL    HW127794   1.225   5.529   1.859
 8965SOL    HW227795   1.096   5.525   1.958
 8966SOL     OW27796   3.200   2.848   5.415
 8966SOL    HW127797   3.110   2.815   5.442
 8966SOL    HW227798   3.247   2.778   5.361
 8967SOL     OW27799   4.554   7.010   0.716
 8967SOL    HW127800   4.549   0.079   0.746
 8967SOL    HW227801   4.515   7.002   0.623
 8968SOL     OW27802   4.974   4.876   2.799
 8968SOL    HW127803   5.054   4.820   2.775
 8968SOL    HW227804   4.986   4.915   2.890
 8969SOL     OW27805   6.422   0.964   4.535
 8969SOL    HW127806   6.450   0.961   4.440
 8969SOL    HW227807   6.332   0.921   4.546
 8970SOL     OW27808   3.729   2.203   1.187
 8970SOL    HW127809   3.699   2.241   1.100
 8970SOL    HW227810   3.822   2.167   1.178
 8971SOL     OW27811   4.521   6.049   3.237
 8971SOL    HW127812   4.573   5.968   3.264
 8971SOL    HW227813   4.443   6.021   3.180
 8972SOL     OW27814   5.313   0.872   4.643
 8972SOL    HW127815   5.337   0.966   4.619
 8972SOL    HW227816   5.385   0.833   4.701
 8973SOL     OW27817   1.836   4.583   0.227
 8973SOL    HW127818   1.905   4.561   0.296
 8973SOL    HW227819   1.848   4.678   0.196
 8974SOL     OW27820   0.268   2.750   3.609
 8974SOL    HW127821   0.278   2.831   3.666
 8974SOL    HW227822   0.208   2.684   3.654
 8975SOL     OW27823   3.072   7.022   6.850
 8975SOL    HW127824   3.005   6.952   6.876
 8975SOL    HW227825   3.086   7.018   6.751
 8976SOL     OW27826   0.504   5.010   4.592
 8976SOL    HW127827   0.523   5.054   4.680
 8976SOL    HW227828   0.503   5.079   4.520
 8977SOL     OW27829   5.654   1.039   6.326
 8977SOL    HW127830   5.752   1.059   6.325
 8977SOL    HW227831   5.640   0.940   6.327
 8978SOL     OW27832   5.802   5.883   0.821
 8978SOL    HW127833   5.800   5.815   0.747
 8978SOL    HW227834   5.796   5.836   0.909
 8979SOL     OW27835   1.898   5.129   5.004
 8979SOL    HW127836   1.964   5.165   5.070
 8979SOL    HW227837   1.805   5.139   5.041
 8980SOL     OW27838   3.829   3.203   4.337
 8980SOL    HW127839   3.911   3.162   4.378
 8980SOL    HW227840   3.754   3.201   4.402
 8981SOL     OW27841   2.944   0.892   5.616
 8981SOL    HW127842   2.944   0.899   5.516
 8981SOL    HW227843   2.864   0.940   5.653
 8982SOL     OW27844   4.322   4.379   0.133
 8982SOL    HW127845   4.307   4.477   0.141
 8982SOL    HW227846   4.290   4.334   0.216
 8983SOL     OW27847   5.422   5.060   0.523
 8983SOL    HW127848   5.329   5.097   0.534
 8983SOL    HW227849   5.472   5.116   0.457
 8984SOL     OW27850   1.309   6.741   3.154
 8984SOL    HW127851   1.298   6.716   3.250
 8984SOL    HW227852   1.323   6.659   3.100
 8985SOL     OW27853   3.565   2.963   5.775
 8985SOL    HW127854   3.499   2.958   5.850
 8985SOL    HW227855   3.657   2.950   5.811
 8986SOL     OW27856   3.737   6.228   2.736
 8986SOL    HW127857   3.793   6.307   2.765
 8986SOL    HW227858   3.767   6.198   2.646
 8987SOL     OW27859   5.250   6.211   1.775
 8987SOL    HW127860   5.238   6.137   1.710
 8987SOL    HW227861   5.305   6.179   1.853
 8988SOL     OW27862   0.922   5.752   5.297
 8988SOL    HW127863   1.011   5.712   5.322
 8988SOL    HW227864   0.859   5.679   5.272
 8989SOL     OW27865   3.048   3.285   6.794
 8989SOL    HW127866   3.087   3.327   6.877
 8989SOL    HW227867   2.984   3.214   6.821
 8990SOL     OW27868   0.397   6.619   3.437
 8990SOL    HW127869   0.452   6.649   3.359
 8990SOL    HW227870   0.302   6.647   3.423
 8991SOL     OW27871   1.417   1.958   5.238
 8991SOL    HW127872   1.370   2.033   5.193
 8991SOL    HW227873   1.462   1.992   5.321
 8992SOL     OW27874   5.982   2.424   0.384
 8992SOL    HW127875   6.022   2.410   0.293
 8992SOL    HW227876   6.020   2.507   0.424
 8993SOL     OW27877   4.795   2.775   0.367
 8993SOL    HW127878   4.825   2.855   0.418
 8993SOL    HW227879   4.695   2.776   0.360
 8994SOL     OW27880   1.701   5.949   4.012
 8994SOL    HW127881   1.789   5.901   4.016
 8994SOL    HW227882   1.708   6.035   4.063
 8995SOL     OW27883   0.124   0.770   0.818
 8995SOL    HW127884   0.103   0.694   0.757
 8995SOL    HW227885   0.118   0.856   0.767
 8996SOL     OW27886   4.533   5.939   5.583
 8996SOL    HW127887   4.501   5.997   5.658
 8996SOL    HW227888   4.579   5.858   5.620
 8997SOL     OW27889   6.321   0.690   5.137
 8997SOL    HW127890   6.254   0.763   5.124
 8997SOL    HW227891   6.274   0.602   5.135
 8998SOL     OW27892   6.156   3.238   4.554
 8998SOL    HW127893   6.224   3.257   4.624
 8998SOL    HW227894   6.202   3.212   4.469
 8999SOL     OW27895   3.795   6.518   5.778
 8999SOL    HW127896   3.751   6.489   5.863
 8999SOL    HW227897   3.725   6.556   5.717
 9000SOL     OW27898   1.630   4.196   1.117
 9000SOL    HW127899   1.650   4.177   1.021
 9000SOL    HW227900   1.646   4.113   1.172
 9001SOL     OW27901   1.049   5.833   2.669
 9001SOL    HW127902   0.967   5.809   2.617
 9001SOL    HW227903   1.056   5.775   2.750
 9002SOL     OW27904   0.886   4.277   0.219
 9002SOL    HW127905   0.788   4.297   0.215
 9002SOL    HW227906   0.920   4.258   0.127
 9003SOL     OW27907   5.478   0.278   1.028
 9003SOL    HW127908   5.513   0.281   1.122
 9003SOL    HW227909   5.506   0.192   0.986
 9004SOL     OW27910   4.277   4.622   6.814
 9004SOL    HW127911   4.337   4.700   6.798
 9004SOL    HW227912   4.190   4.654   6.851
 9005SOL     OW27913   5.039   1.617   5.356
 9005SOL    HW127914   5.049   1.709   5.394
 9005SOL    HW227915   5.052   1.620   5.257
 9006SOL     OW27916   3.785   5.876   0.415
 9006SOL    HW127917   3.807   5.899   0.320
 9006SOL    HW227918   3.846   5.804   0.447
 9007SOL     OW27919   2.357   0.884   2.656
 9007SOL    HW127920   2.284   0.880   2.588
 9007SOL    HW227921   2.446   0.881   2.609
 9008SOL     OW27922   1.152   6.089   2.639
 9008SOL    HW127923   1.169   6.122   2.731
 9008SOL    HW227924   1.099   6.004   2.642
 9009SOL     OW27925   3.445   6.298   1.029
 9009SOL    HW127926   3.526   6.356   1.012
 9009SOL    HW227927   3.363   6.355   1.026
 9010SOL     OW27928   1.389   5.935   4.224
 9010SOL    HW127929   1.363   5.897   4.313
 9010SOL    HW227930   1.312   5.986   4.185
 9011SOL     OW27931   2.501   2.204   1.715
 9011SOL    HW127932   2.557   2.122   1.717
 9011SOL    HW227933   2.525   2.259   1.635
 9012SOL     OW27934   1.965   6.276   6.767
 9012SOL    HW127935   1.899   6.201   6.778
 9012SOL    HW227936   1.932   6.357   6.816
 9013SOL     OW27937   1.955   6.263   3.953
 9013SOL    HW127938   1.868   6.271   3.905
 9013SOL    HW227939   1.949   6.309   4.041
 9014SOL     OW27940   5.374   3.080   3.668
 9014SOL    HW127941   5.454   3.039   3.712
 9014SOL    HW227942   5.395   3.098   3.572
 9015SOL     OW27943   5.178   1.502   6.563
 9015SOL    HW127944   5.221   1.495   6.654
 9015SOL    HW227945   5.182   1.596   6.531
 9016SOL     OW27946   5.066   5.271   6.330
 9016SOL    HW127947   5.141   5.231   6.383
 9016SOL    HW227948   4.994   5.203   6.318
 9017SOL     OW27949   3.867   0.357   4.194
 9017SOL    HW127950   3.782   0.342   4.143
 9017SOL    HW227951   3.927   0.278   4.181
 9018SOL     OW27952   4.116   4.506   6.209
 9018SOL    HW127953   4.157   4.469   6.126
 9018SOL    HW227954   4.161   4.592   6.232
 9019SOL     OW27955   0.552   3.775   3.983
 9019SOL    HW127956   0.476   3.712   3.989
 9019SOL    HW227957   0.638   3.725   3.995
 9020SOL     OW27958   5.439   5.635   2.681
 9020SOL    HW127959   5.465   5.539   2.686
 9020SOL    HW227960   5.433   5.663   2.586
 9021SOL     OW27961   0.219   0.919   4.525
 9021SOL    HW127962   0.175   0.949   4.610
 9021SOL    HW227963   0.301   0.973   4.510
 9022SOL     OW27964   4.795   3.567   6.022
 9022SOL    HW127965   4.796   3.663   6.049
 9022SOL    HW227966   4.727   3.554   5.950
 9023SOL     OW27967   5.946   4.263   0.702
 9023SOL    HW127968   5.916   4.210   0.781
 9023SOL    HW227969   5.903   4.353   0.703
 9024SOL     OW27970   2.242   6.056   6.077
 9024SOL    HW127971   2.250   6.074   6.175
 9024SOL    HW227972   2.253   5.958   6.060
 9025SOL     OW27973   0.970   5.669   1.289
 9025SOL    HW127974   0.979   5.752   1.233
 9025SOL    HW227975   0.885   5.672   1.340
 9026SOL     OW27976   5.212   1.770   0.498
 9026SOL    HW127977   5.247   1.816   0.416
 9026SOL    HW227978   5.167   1.685   0.472
 9027SOL     OW27979   0.783   3.841   3.162
 9027SOL    HW127980   0.750   3.901   3.089
 9027SOL    HW227981   0.842   3.894   3.224
 9028SOL     OW27982   3.303   5.216   5.893
 9028SOL    HW127983   3.398   5.201   5.865
 9028SOL    HW227984   3.299   5.225   5.992
 9029SOL     OW27985   4.187   6.788   4.459
 9029SOL    HW127986   4.182   6.718   4.531
 9029SOL    HW227987   4.172   6.746   4.370
 9030SOL     OW27988   2.847   1.472   2.597
 9030SOL    HW127989   2.907   1.393   2.611
 9030SOL    HW227990   2.857   1.536   2.673
 9031SOL     OW27991   4.454   6.783   4.367
 9031SOL    HW127992   4.531   6.831   4.409
 9031SOL    HW227993   4.376   6.784   4.429
 9032SOL     OW27994   4.905   3.675   2.218
 9032SOL    HW127995   4.954   3.676   2.305
 9032SOL    HW227996   4.850   3.758   2.209
 9033SOL     OW27997   0.842   6.887   3.157
 9033SOL    HW127998   0.869   6.935   3.240
 9033SOL    HW227999   0.793   6.803   3.181
 9034SOL     OW28000   4.297   0.120   3.973
 9034SOL    HW128001   4.269   0.149   4.065
 9034SOL    HW228002   4.349   0.035   3.979
 9035SOL     OW28003   2.260   4.834   6.283
 9035SOL    HW128004   2.310   4.819   6.198
 9035SOL    HW228005   2.171   4.789   6.278
 9036SOL     OW28006   1.869   3.876   5.417
 9036SOL    HW128007   1.916   3.877   5.329
 9036SOL    HW228008   1.930   3.837   5.486
 9037SOL     OW28009   1.507   1.670   2.917
 9037SOL    HW128010   1.463   1.597   2.969
 9037SOL    HW228011   1.603   1.647   2.902
 9038SOL     OW28012   4.413   2.816   5.602
 9038SOL    HW128013   4.321   2.786   5.577
 9038SOL    HW228014   4.477   2.791   5.530
 9039SOL     OW28015   4.116   5.686   6.607
 9039SOL    HW128016   4.137   5.656   6.514
 9039SOL    HW228017   4.117   5.607   6.669
 9040SOL     OW28018   2.457   1.872   1.326
 9040SOL    HW128019   2.391   1.948   1.322
 9040SOL    HW228020   2.526   1.892   1.395
 9041SOL     OW28021   6.678   1.869   2.019
 9041SOL    HW128022   6.629   1.824   2.094
 9041SOL    HW228023   6.612   1.895   1.948
 9042SOL     OW28024   3.678   6.163   0.248
 9042SOL    HW128025   3.709   6.136   0.339
 9042SOL    HW228026   3.734   6.239   0.215
 9043SOL     OW28027   3.190   2.075   0.439
 9043SOL    HW128028   3.128   2.072   0.360
 9043SOL    HW228029   3.144   2.036   0.519
 9044SOL     OW28030   0.683   1.239   0.248
 9044SOL    HW128031   0.750   1.295   0.199
 9044SOL    HW228032   0.619   1.298   0.297
 9045SOL     OW28033   4.027   1.646   3.262
 9045SOL    HW128034   3.935   1.618   3.290
 9045SOL    HW228035   4.030   1.655   3.162
 9046SOL     OW28036   3.538   3.331   2.013
 9046SOL    HW128037   3.576   3.248   1.974
 9046SOL    HW228038   3.532   3.322   2.112
 9047SOL     OW28039   1.452   3.790   6.186
 9047SOL    HW128040   1.410   3.700   6.172
 9047SOL    HW228041   1.487   3.796   6.280
 9048SOL     OW28042   6.916   1.786   6.418
 9048SOL    HW128043   6.976   1.757   6.493
 9048SOL    HW228044   6.898   1.884   6.426
 9049SOL     OW28045   3.241   6.949   6.191
 9049SOL    HW128046   3.263   6.888   6.115
 9049SOL    HW228047   3.266   6.905   6.277
 9050SOL     OW28048   0.844   4.937   0.848
 9050SOL    HW128049   0.894   4.912   0.931
 9050SOL    HW228050   0.751   4.899   0.853
 9051SOL     OW28051   2.908   0.766   1.367
 9051SOL    HW128052   2.909   0.791   1.270
 9051SOL    HW228053   2.976   0.820   1.416
 9052SOL     OW28054   1.168   2.555   5.180
 9052SOL    HW128055   1.098   2.519   5.242
 9052SOL    HW228056   1.255   2.508   5.197
 9053SOL     OW28057   1.543   1.099   0.118
 9053SOL    HW128058   1.521   1.092   0.020
 9053SOL    HW228059   1.509   1.018   0.166
 9054SOL     OW28060   2.157   5.756   2.438
 9054SOL    HW128061   2.082   5.768   2.503
 9054SOL    HW228062   2.147   5.822   2.363
 9055SOL     OW28063   0.218   3.672   4.356
 9055SOL    HW128064   0.229   3.750   4.417
 9055SOL    HW228065   0.136   3.683   4.300
 9056SOL     OW28066   6.676   2.913   2.679
 9056SOL    HW128067   6.628   3.000   2.667
 9056SOL    HW228068   6.704   2.903   2.774
 9057SOL     OW28069   4.141   2.000   4.357
 9057SOL    HW128070   4.118   1.913   4.400
 9057SOL    HW228071   4.100   2.005   4.266
 9058SOL     OW28072   2.454   0.549   5.625
 9058SOL    HW128073   2.528   0.556   5.692
 9058SOL    HW228074   2.463   0.465   5.573
 9059SOL     OW28075   1.215   2.436   2.763
 9059SOL    HW128076   1.304   2.453   2.720
 9059SOL    HW228077   1.217   2.347   2.809
 9060SOL     OW28078   5.374   2.604   5.629
 9060SOL    HW128079   5.374   2.650   5.540
 9060SOL    HW228080   5.329   2.662   5.697
 9061SOL     OW28081   3.081   5.554   3.133
 9061SOL    HW128082   3.113   5.639   3.089
 9061SOL    HW228083   3.138   5.534   3.212
 9062SOL     OW28084   1.436   5.698   1.196
 9062SOL    HW128085   1.514   5.703   1.133
 9062SOL    HW228086   1.454   5.629   1.265
 9063SOL     OW28087   2.928   1.894   1.755
 9063SOL    HW128088   3.019   1.856   1.741
 9063SOL    HW228089   2.936   1.987   1.790
 9064SOL     OW28090   5.582   3.525   0.456
 9064SOL    HW128091   5.543   3.507   0.546
 9064SOL    HW228092   5.648   3.599   0.462
 9065SOL     OW28093   2.205   0.795   6.948
 9065SOL    HW128094   2.177   0.734   6.874
 9065SOL    HW228095   2.244   0.741   7.022
 9066SOL     OW28096   5.078   6.683   6.930
 9066SOL    HW128097   5.124   6.596   6.913
 9066SOL    HW228098   5.114   6.724   7.014
 9067SOL     OW28099   1.525   6.855   2.178
 9067SOL    HW128100   1.574   6.847   2.265
 9067SOL    HW228101   1.434   6.814   2.188
 9068SOL     OW28102   1.004   6.281   6.460
 9068SOL    HW128103   1.089   6.308   6.414
 9068SOL    HW228104   0.993   6.182   6.454
 9069SOL     OW28105   1.242   2.455   6.139
 9069SOL    HW128106   1.247   2.442   6.040
 9069SOL    HW228107   1.147   2.446   6.169
 9070SOL     OW28108   1.278   4.421   3.649
 9070SOL    HW128109   1.301   4.450   3.742
 9070SOL    HW228110   1.192   4.369   3.651
 9071SOL     OW28111   4.898   5.653   0.246
 9071SOL    HW128112   4.944   5.739   0.270
 9071SOL    HW228113   4.948   5.609   0.172
 9072SOL     OW28114   5.923   4.851   0.141
 9072SOL    HW128115   5.993   4.923   0.143
 9072SOL    HW228116   5.922   4.809   0.051
 9073SOL     OW28117   1.919   0.380   1.579
 9073SOL    HW128118   1.995   0.415   1.525
 9073SOL    HW228119   1.953   0.308   1.641
 9074SOL     OW28120   0.410   0.329   3.362
 9074SOL    HW128121   0.416   0.263   3.437
 9074SOL    HW228122   0.498   0.332   3.314
 9075SOL     OW28123   0.823   0.599   2.065
 9075SOL    HW128124   0.781   0.689   2.082
 9075SOL    HW228125   0.819   0.578   1.967
 9076SOL     OW28126   0.010   1.922   5.052
 9076SOL    HW128127   7.002   1.828   5.056
 9076SOL    HW228128   6.965   1.982   5.017
 9077SOL     OW28129   6.185   5.804   1.704
 9077SOL    HW128130   6.236   5.861   1.769
 9077SOL    HW228131   6.215   5.709   1.713
 9078SOL     OW28132   3.954   3.016   5.105
 9078SOL    HW128133   3.938   2.969   5.018
 9078SOL    HW228134   3.966   3.114   5.087
 9079SOL     OW28135   4.012   0.823   5.546
 9079SOL    HW128136   4.026   0.921   5.562
 9079SOL    HW228137   3.951   0.811   5.468
 9080SOL     OW28138   5.457   1.692   0.611
 9080SOL    HW128139   5.531   1.737   0.562
 9080SOL    HW228140   5.370   1.737   0.590
 9081SOL     OW28141   5.350   0.149   2.373
 9081SOL    HW128142   5.293   0.222   2.409
 9081SOL    HW228143   5.427   0.132   2.435
 9082SOL     OW28144   3.037   0.729   2.608
 9082SOL    HW128145   2.971   0.788   2.655
 9082SOL    HW228146   2.988   0.671   2.543
 9083SOL     OW28147   4.519   4.750   4.220
 9083SOL    HW128148   4.532   4.671   4.280
 9083SOL    HW228149   4.458   4.816   4.264
 9084SOL     OW28150   3.403   3.983   2.878
 9084SOL    HW128151   3.436   3.997   2.784
 9084SOL    HW228152   3.352   3.897   2.882
 9085SOL     OW28153   0.854   2.059   0.660
 9085SOL    HW128154   0.807   2.145   0.641
 9085SOL    HW228155   0.944   2.059   0.615
 9086SOL     OW28156   0.253   3.656   0.033
 9086SOL    HW128157   0.153   3.665   0.042
 9086SOL    HW228158   0.292   3.744   0.005
 9087SOL     OW28159   5.091   3.584   2.047
 9087SOL    HW128160   5.055   3.504   2.000
 9087SOL    HW228161   5.022   3.621   2.109
 9088SOL     OW28162   4.959   6.241   0.819
 9088SOL    HW128163   4.937   6.310   0.750
 9088SOL    HW228164   4.875   6.203   0.857
 9089SOL     OW28165   4.537   0.150   6.002
 9089SOL    HW128166   4.584   0.063   5.991
 9089SOL    HW228167   4.599   0.225   5.978
 9090SOL     OW28168   5.622   1.425   3.096
 9090SOL    HW128169   5.573   1.510   3.119
 9090SOL    HW228170   5.721   1.442   3.099
 9091SOL     OW28171   3.515   2.361   6.918
 9091SOL    HW128172   3.567   2.277   6.907
 9091SOL    HW228173   3.564   2.423   6.980
 9092SOL     OW28174   0.044   2.855   6.637
 9092SOL    HW128175   0.131   2.805   6.645
 9092SOL    HW228176   0.021   2.896   6.725
 9093SOL     OW28177   1.984   6.151   4.666
 9093SOL    HW128178   1.994   6.052   4.676
 9093SOL    HW228179   1.911   6.183   4.726
 9094SOL     OW28180   1.271   3.987   1.317
 9094SOL    HW128181   1.274   3.987   1.417
 9094SOL    HW228182   1.178   4.008   1.286
 9095SOL     OW28183   6.657   6.710   5.927
 9095SOL    HW128184   6.602   6.700   5.844
 9095SOL    HW228185   6.607   6.674   6.005
 9096SOL     OW28186   6.590   5.212   3.701
 9096SOL    HW128187   6.628   5.287   3.646
 9096SOL    HW228188   6.600   5.234   3.799
 9097SOL     OW28189   1.157   2.688   5.985
 9097SOL    HW128190   1.135   2.701   6.082
 9097SOL    HW228191   1.078   2.648   5.939
 9098SOL     OW28192   2.187   4.092   3.670
 9098SOL    HW128193   2.118   4.088   3.743
 9098SOL    HW228194   2.169   4.020   3.603
 9099SOL     OW28195   2.320   1.557   6.618
 9099SOL    HW128196   2.225   1.537   6.644
 9099SOL    HW228197   2.321   1.631   6.551
 9100SOL     OW28198   1.620   4.337   4.033
 9100SOL    HW128199   1.677   4.418   4.019
 9100SOL    HW228200   1.562   4.351   4.113
 9101SOL     OW28201   0.484   2.341   0.897
 9101SOL    HW128202   0.451   2.313   0.987
 9101SOL    HW228203   0.444   2.282   0.827
 9102SOL     OW28204   3.980   6.885   2.710
 9102SOL    HW128205   4.002   6.798   2.754
 9102SOL    HW228206   3.935   6.946   2.776
 9103SOL     OW28207   6.286   1.265   1.170
 9103SOL    HW128208   6.301   1.181   1.117
 9103SOL    HW228209   6.281   1.343   1.108
 9104SOL     OW28210   5.951   1.760   6.262
 9104SOL    HW128211   5.852   1.774   6.268
 9104SOL    HW228212   5.975   1.728   6.170
 9105SOL     OW28213   2.647   1.400   5.785
 9105SOL    HW128214   2.613   1.328   5.724
 9105SOL    HW228215   2.680   1.359   5.870
 9106SOL     OW28216   1.410   3.903   0.042
 9106SOL    HW128217   1.426   3.878   0.138
 9106SOL    HW228218   1.495   3.893   7.017
 9107SOL     OW28219   3.275   1.686   0.422
 9107SOL    HW128220   3.214   1.765   0.414
 9107SOL    HW228221   3.224   1.603   0.402
 9108SOL     OW28222   6.832   5.649   5.898
 9108SOL    HW128223   6.737   5.672   5.916
 9108SOL    HW228224   6.875   5.614   5.981
 9109SOL     OW28225   5.807   3.706   2.996
 9109SOL    HW128226   5.779   3.678   2.904
 9109SOL    HW228227   5.739   3.768   3.034
 9110SOL     OW28228   1.340   6.044   3.350
 9110SOL    HW128229   1.380   5.966   3.400
 9110SOL    HW228230   1.303   6.109   3.416
 9111SOL     OW28231   3.779   2.416   6.574
 9111SOL    HW128232   3.679   2.407   6.567
 9111SOL    HW228233   3.817   2.437   6.484
 9112SOL     OW28234   0.670   5.311   1.522
 9112SOL    HW128235   0.613   5.377   1.474
 9112SOL    HW228236   0.759   5.305   1.477
 9113SOL     OW28237   5.589   0.595   4.505
 9113SOL    HW128238   5.510   0.533   4.493
 9113SOL    HW228239   5.673   0.541   4.506
 9114SOL     OW28240   0.965   6.934   5.845
 9114SOL    HW128241   1.028   7.005   5.815
 9114SOL    HW228242   0.872   6.971   5.851
 9115SOL     OW28243   4.947   4.262   5.305
 9115SOL    HW128244   4.854   4.288   5.330
 9115SOL    HW228245   4.953   4.248   5.206
 9116SOL     OW28246   1.943   0.266   3.584
 9116SOL    HW128247   2.018   0.230   3.640
 9116SOL    HW228248   1.864   0.284   3.642
 9117SOL     OW28249   2.078   6.793   0.188
 9117SOL    HW128250   1.979   6.789   0.201
 9117SOL    HW228251   2.104   6.732   0.113
 9118SOL     OW28252   6.798   3.762   1.767
 9118SOL    HW128253   6.711   3.800   1.798
 9118SOL    HW228254   6.872   3.794   1.827
 9119SOL     OW28255   3.110   1.270   0.444
 9119SOL    HW128256   3.052   1.311   0.514
 9119SOL    HW228257   3.107   1.325   0.361
 9120SOL     OW28258   6.318   3.963   4.423
 9120SOL    HW128259   6.318   3.972   4.323
 9120SOL    HW228260   6.330   3.867   4.448
 9121SOL     OW28261   3.794   0.871   4.103
 9121SOL    HW128262   3.763   0.852   4.010
 9121SOL    HW228263   3.812   0.785   4.150
 9122SOL     OW28264   0.756   2.603   1.671
 9122SOL    HW128265   0.769   2.505   1.681
 9122SOL    HW228266   0.730   2.624   1.576
 9123SOL     OW28267   0.536   6.002   4.578
 9123SOL    HW128268   0.452   6.045   4.613
 9123SOL    HW228269   0.547   5.912   4.620
 9124SOL     OW28270   3.235   5.666   0.870
 9124SOL    HW128271   3.244   5.742   0.806
 9124SOL    HW228272   3.166   5.602   0.836
 9125SOL     OW28273   5.495   6.449   1.671
 9125SOL    HW128274   5.535   6.495   1.750
 9125SOL    HW228275   5.442   6.370   1.702
 9126SOL     OW28276   4.491   4.918   0.860
 9126SOL    HW128277   4.392   4.914   0.847
 9126SOL    HW228278   4.511   4.923   0.958
 9127SOL     OW28279   6.562   4.779   5.339
 9127SOL    HW128280   6.647   4.777   5.286
 9127SOL    HW228281   6.549   4.871   5.377
 9128SOL     OW28282   5.693   4.217   5.894
 9128SOL    HW128283   5.596   4.196   5.910
 9128SOL    HW228284   5.705   4.251   5.801
 9129SOL     OW28285   0.637   3.111   0.429
 9129SOL    HW128286   0.599   3.038   0.487
 9129SOL    HW228287   0.565   3.150   0.372
 9130SOL     OW28288   2.952   3.163   5.042
 9130SOL    HW128289   2.903   3.203   4.965
 9130SOL    HW228290   2.887   3.134   5.112
 9131SOL     OW28291   5.603   2.703   0.859
 9131SOL    HW128292   5.508   2.714   0.829
 9131SOL    HW228293   5.662   2.692   0.780
 9132SOL     OW28294   0.927   3.862   3.770
 9132SOL    HW128295   1.004   3.836   3.711
 9132SOL    HW228296   0.937   3.819   3.860
 9133SOL     OW28297   5.802   0.310   1.044
 9133SOL    HW128298   5.878   0.254   1.009
 9133SOL    HW228299   5.744   0.253   1.102
 9134SOL     OW28300   4.927   4.657   0.165
 9134SOL    HW128301   4.863   4.655   0.242
 9134SOL    HW228302   4.930   4.750   0.128
 9135SOL     OW28303   6.398   5.916   2.600
 9135SOL    HW128304   6.413   5.982   2.674
 9135SOL    HW228305   6.486   5.877   2.572
 9136SOL     OW28306   0.286   5.097   0.459
 9136SOL    HW128307   0.291   5.168   0.389
 9136SOL    HW228308   0.192   5.090   0.492
 9137SOL     OW28309   5.564   6.387   5.238
 9137SOL    HW128310   5.614   6.466   5.273
 9137SOL    HW228311   5.467   6.409   5.230
 9138SOL     OW28312   2.410   3.956   6.292
 9138SOL    HW128313   2.469   4.008   6.229
 9138SOL    HW228314   2.320   3.999   6.297
 9139SOL     OW28315   6.994   0.189   1.854
 9139SOL    HW128316   0.007   0.209   1.943
 9139SOL    HW228317   6.899   0.217   1.852
 9140SOL     OW28318   2.105   3.764   2.408
 9140SOL    HW128319   2.172   3.835   2.387
 9140SOL    HW228320   2.017   3.807   2.430
 9141SOL     OW28321   0.285   6.131   5.016
 9141SOL    HW128322   0.245   6.054   4.966
 9141SOL    HW228323   0.380   6.143   4.988
 9142SOL     OW28324   0.817   4.304   3.419
 9142SOL    HW128325   0.816   4.368   3.496
 9142SOL    HW228326   0.894   4.326   3.359
 9143SOL     OW28327   6.541   3.906   3.339
 9143SOL    HW128328   6.544   3.888   3.241
 9143SOL    HW228329   6.629   3.881   3.380
 9144SOL     OW28330   3.132   4.245   5.399
 9144SOL    HW128331   3.098   4.203   5.315
 9144SOL    HW228332   3.230   4.227   5.407
 9145SOL     OW28333   1.782   5.913   5.407
 9145SOL    HW128334   1.840   5.993   5.390
 9145SOL    HW228335   1.779   5.856   5.325
 9146SOL     OW28336   6.349   2.412   3.096
 9146SOL    HW128337   6.374   2.364   3.012
 9146SOL    HW228338   6.297   2.494   3.073
 9147SOL     OW28339   3.957   0.255   5.520
 9147SOL    HW128340   3.967   0.253   5.421
 9147SOL    HW228341   3.865   0.224   5.545
 9148SOL     OW28342   5.031   5.487   1.808
 9148SOL    HW128343   4.998   5.459   1.898
 9148SOL    HW228344   4.970   5.453   1.737
 9149SOL     OW28345   1.219   3.832   1.058
 9149SOL    HW128346   1.300   3.782   1.087
 9149SOL    HW228347   1.201   3.906   1.123
 9150SOL     OW28348   2.987   3.801   6.800
 9150SOL    HW128349   3.021   3.892   6.824
 9150SOL    HW228350   2.898   3.809   6.756
 9151SOL     OW28351   2.114   3.211   3.658
 9151SOL    HW128352   2.016   3.225   3.644
 9151SOL    HW228353   2.164   3.240   3.577
 9152SOL     OW28354   2.044   4.127   2.463
 9152SOL    HW128355   2.005   4.186   2.391
 9152SOL    HW228356   2.144   4.129   2.457
 9153SOL     OW28357   0.133   3.000   6.905
 9153SOL    HW128358   0.172   3.026   6.993
 9153SOL    HW228359   0.086   3.079   6.865
 9154SOL     OW28360   4.869   4.689   3.366
 9154SOL    HW128361   4.827   4.600   3.382
 9154SOL    HW228362   4.809   4.744   3.308
 9155SOL     OW28363   1.055   6.406   2.922
 9155SOL    HW128364   0.973   6.442   2.878
 9155SOL    HW228365   1.115   6.482   2.948
 9156SOL     OW28366   6.970   4.053   5.672
 9156SOL    HW128367   6.961   4.139   5.622
 9156SOL    HW228368   7.017   4.069   5.759
 9157SOL     OW28369   1.989   4.129   5.584
 9157SOL    HW128370   2.073   4.083   5.613
 9157SOL    HW228371   1.912   4.096   5.639
 9158SOL     OW28372   7.014   3.794   4.793
 9158SOL    HW128373   0.074   3.756   4.760
 9158SOL    HW228374   6.963   3.724   4.844
 9159SOL     OW28375   2.353   1.261   3.987
 9159SOL    HW128376   2.260   1.260   3.950
 9159SOL    HW228377   2.404   1.338   3.947
 9160SOL     OW28378   1.283   2.844   6.676
 9160SOL    HW128379   1.243   2.805   6.758
 9160SOL    HW228380   1.244   2.935   6.660
 9161SOL     OW28381   6.317   3.303   3.024
 9161SOL    HW128382   6.274   3.387   2.989
 9161SOL    HW228383   6.399   3.282   2.970
 9162SOL     OW28384   3.821   2.381   1.644
 9162SOL    HW128385   3.867   2.295   1.620
 9162SOL    HW228386   3.765   2.366   1.725
 9163SOL     OW28387   1.913   2.332   4.044
 9163SOL    HW128388   1.865   2.364   3.962
 9163SOL    HW228389   1.860   2.357   4.125
 9164SOL     OW28390   2.278   6.775   6.681
 9164SOL    HW128391   2.216   6.697   6.681
 9164SOL    HW228392   2.246   6.844   6.746
 9165SOL     OW28393   5.052   1.682   5.919
 9165SOL    HW128394   5.078   1.608   5.982
 9165SOL    HW228395   4.952   1.684   5.911
 9166SOL     OW28396   4.133   6.542   2.040
 9166SOL    HW128397   4.093   6.573   2.125
 9166SOL    HW228398   4.191   6.614   2.002
 9167SOL     OW28399   1.480   1.524   4.332
 9167SOL    HW128400   1.579   1.536   4.344
 9167SOL    HW228401   1.437   1.509   4.422
 9168SOL     OW28402   6.258   5.806   5.074
 9168SOL    HW128403   6.228   5.772   5.163
 9168SOL    HW228404   6.205   5.763   5.001
 9169SOL     OW28405   6.568   5.753   0.412
 9169SOL    HW128406   6.565   5.654   0.423
 9169SOL    HW228407   6.486   5.784   0.362
 9170SOL     OW28408   1.904   0.782   5.794
 9170SOL    HW128409   1.855   0.792   5.707
 9170SOL    HW228410   1.988   0.836   5.791
 9171SOL     OW28411   3.455   6.194   0.110
 9171SOL    HW128412   3.540   6.191   0.164
 9171SOL    HW228413   3.397   6.118   0.136
 9172SOL     OW28414   4.507   1.713   5.697
 9172SOL    HW128415   4.606   1.700   5.701
 9172SOL    HW228416   4.479   1.786   5.760
 9173SOL     OW28417   6.122   3.774   5.588
 9173SOL    HW128418   6.141   3.870   5.605
 9173SOL    HW228419   6.069   3.736   5.664
 9174SOL     OW28420   6.123   4.436   0.973
 9174SOL    HW128421   6.188   4.360   0.979
 9174SOL    HW228422   6.065   4.437   1.055
 9175SOL     OW28423   2.152   0.209   1.298
 9175SOL    HW128424   2.059   0.176   1.284
 9175SOL    HW228425   2.212   0.169   1.229
 9176SOL     OW28426   2.073   1.024   1.920
 9176SOL    HW128427   2.033   1.086   1.852
 9176SOL    HW228428   2.112   0.945   1.875
 9177SOL     OW28429   0.857   6.248   3.967
 9177SOL    HW128430   0.832   6.337   3.929
 9177SOL    HW228431   0.957   6.244   3.979
 9178SOL     OW28432   1.247   4.222   0.914
 9178SOL    HW128433   1.300   4.170   0.847
 9178SOL    HW228434   1.168   4.168   0.943
 9179SOL     OW28435   4.010   5.142   3.638
 9179SOL    HW128436   4.096   5.186   3.610
 9179SOL    HW228437   3.992   5.064   3.578
 9180SOL     OW28438   0.357   0.784   5.240
 9180SOL    HW128439   0.445   0.823   5.267
 9180SOL    HW228440   0.332   0.819   5.150
 9181SOL     OW28441   2.663   1.958   3.907
 9181SOL    HW128442   2.617   2.042   3.879
 9181SOL    HW228443   2.648   1.887   3.839
 9182SOL     OW28444   7.017   1.944   2.398
 9182SOL    HW128445   0.004   2.019   2.463
 9182SOL    HW228446   6.950   1.972   2.329
 9183SOL     OW28447   1.809   1.468   6.353
 9183SOL    HW128448   1.824   1.567   6.356
 9183SOL    HW228449   1.875   1.422   6.413
 9184SOL     OW28450   2.822   4.618   1.260
 9184SOL    HW128451   2.758   4.694   1.270
 9184SOL    HW228452   2.883   4.615   1.339
 9185SOL     OW28453   1.678   0.343   5.794
 9185SOL    HW128454   1.642   0.314   5.883
 9185SOL    HW228455   1.762   0.395   5.807
 9186SOL     OW28456   5.359   6.596   6.757
 9186SOL    HW128457   5.399   6.678   6.797
 9186SOL    HW228458   5.419   6.561   6.685
 9187SOL     OW28459   5.343   2.708   0.759
 9187SOL    HW128460   5.301   2.705   0.849
 9187SOL    HW228461   5.345   2.616   0.719
 9188SOL     OW28462   1.330   0.247   1.500
 9188SOL    HW128463   1.254   0.219   1.441
 9188SOL    HW228464   1.410   0.192   1.480
 9189SOL     OW28465   3.045   0.527   5.441
 9189SOL    HW128466   3.013   0.465   5.370
 9189SOL    HW228467   3.040   0.621   5.409
 9190SOL     OW28468   4.624   0.728   5.188
 9190SOL    HW128469   4.530   0.738   5.222
 9190SOL    HW228470   4.687   0.720   5.266
 9191SOL     OW28471   5.555   6.850   1.564
 9191SOL    HW128472   5.629   6.800   1.609
 9191SOL    HW228473   5.548   6.941   1.604
 9192SOL     OW28474   4.890   3.987   4.847
 9192SOL    HW128475   4.958   4.030   4.788
 9192SOL    HW228476   4.888   3.889   4.831
 9193SOL     OW28477   3.477   4.170   3.220
 9193SOL    HW128478   3.511   4.183   3.126
 9193SOL    HW228479   3.392   4.220   3.232
 9194SOL     OW28480   3.903   4.890   3.111
 9194SOL    HW128481   3.873   4.837   3.032
 9194SOL    HW228482   3.835   4.961   3.131
 9195SOL     OW28483   0.481   2.758   2.626
 9195SOL    HW128484   0.451   2.797   2.713
 9195SOL    HW228485   0.557   2.696   2.641
 9196SOL     OW28486   4.793   6.399   4.192
 9196SOL    HW128487   4.742   6.389   4.106
 9196SOL    HW228488   4.729   6.410   4.268
 9197SOL     OW28489   4.526   1.613   6.826
 9197SOL    HW128490   4.447   1.674   6.840
 9197SOL    HW228491   4.517   1.533   6.886
 9198SOL     OW28492   5.839   2.750   5.442
 9198SOL    HW128493   5.902   2.782   5.512
 9198SOL    HW228494   5.745   2.769   5.470
 9199SOL     OW28495   1.479   3.231   6.296
 9199SOL    HW128496   1.423   3.309   6.324
 9199SOL    HW228497   1.425   3.147   6.302
 9200SOL     OW28498   5.087   5.929   1.233
 9200SOL    HW128499   5.161   5.959   1.293
 9200SOL    HW228500   5.051   5.841   1.265
 9201SOL     OW28501   0.244   3.372   2.126
 9201SOL    HW128502   0.190   3.295   2.158
 9201SOL    HW228503   0.257   3.365   2.027
 9202SOL     OW28504   2.761   6.163   4.201
 9202SOL    HW128505   2.700   6.180   4.124
 9202SOL    HW228506   2.731   6.081   4.250
 9203SOL     OW28507   5.026   1.020   6.960
 9203SOL    HW128508   5.081   0.937   6.962
 9203SOL    HW228509   5.016   1.051   6.865
 9204SOL     OW28510   5.151   4.603   2.641
 9204SOL    HW128511   5.124   4.545   2.717
 9204SOL    HW228512   5.192   4.687   2.677
 9205SOL     OW28513   4.345   2.298   1.600
 9205SOL    HW128514   4.292   2.379   1.577
 9205SOL    HW228515   4.412   2.281   1.528
 9206SOL     OW28516   6.102   6.036   4.537
 9206SOL    HW128517   6.187   6.040   4.591
 9206SOL    HW228518   6.100   6.113   4.473
 9207SOL     OW28519   4.497   6.417   0.188
 9207SOL    HW128520   4.474   6.324   0.160
 9207SOL    HW228521   4.469   6.431   0.284
 9208SOL     OW28522   4.501   4.328   1.559
 9208SOL    HW128523   4.436   4.291   1.492
 9208SOL    HW228524   4.477   4.295   1.650
 9209SOL     OW28525   4.448   0.306   3.095
 9209SOL    HW128526   4.471   0.215   3.059
 9209SOL    HW228527   4.532   0.355   3.117
 9210SOL     OW28528   0.756   6.594   0.131
 9210SOL    HW128529   0.693   6.538   0.185
 9210SOL    HW228530   0.750   6.689   0.161
 9211SOL     OW28531   4.854   1.108   6.306
 9211SOL    HW128532   4.799   1.051   6.245
 9211SOL    HW228533   4.812   1.199   6.314
 9212SOL     OW28534   5.805   3.712   5.476
 9212SOL    HW128535   5.823   3.637   5.540
 9212SOL    HW228536   5.849   3.795   5.509
 9213SOL     OW28537   6.527   5.741   1.736
 9213SOL    HW128538   6.573   5.686   1.666
 9213SOL    HW228539   6.509   5.833   1.699
 9214SOL     OW28540   2.277   1.578   5.746
 9214SOL    HW128541   2.278   1.664   5.797
 9214SOL    HW228542   2.317   1.506   5.802
 9215SOL     OW28543   0.347   3.773   3.750
 9215SOL    HW128544   0.424   3.781   3.686
 9215SOL    HW228545   0.378   3.727   3.833
 9216SOL     OW28546   2.069   6.201   3.433
 9216SOL    HW128547   2.160   6.219   3.394
 9216SOL    HW228548   2.026   6.288   3.457
 9217SOL     OW28549   3.928   2.280   0.042
 9217SOL    HW128550   3.896   2.228   6.989
 9217SOL    HW228551   4.028   2.287   0.039
 9218SOL     OW28552   5.340   5.837   6.299
 9218SOL    HW128553   5.351   5.820   6.397
 9218SOL    HW228554   5.271   5.775   6.262
 9219SOL     OW28555   3.582   2.136   6.012
 9219SOL    HW128556   3.636   2.211   6.049
 9219SOL    HW228557   3.493   2.171   5.983
 9220SOL     OW28558   0.564   6.396   3.218
 9220SOL    HW128559   0.524   6.333   3.286
 9220SOL    HW228560   0.496   6.414   3.146
 9221SOL     OW28561   3.018   1.820   1.412
 9221SOL    HW128562   2.983   1.852   1.500
 9221SOL    HW228563   3.048   1.899   1.359
 9222SOL     OW28564   1.572   5.296   3.935
 9222SOL    HW128565   1.646   5.268   3.996
 9222SOL    HW228566   1.609   5.315   3.844
 9223SOL     OW28567   6.713   3.475   4.635
 9223SOL    HW128568   6.705   3.572   4.660
 9223SOL    HW228569   6.630   3.427   4.662
 9224SOL     OW28570   1.750   4.222   2.266
 9224SOL    HW128571   1.662   4.261   2.242
 9224SOL    HW228572   1.795   4.187   2.183
 9225SOL     OW28573   6.932   5.510   6.139
 9225SOL    HW128574   6.980   5.585   6.186
 9225SOL    HW228575   6.874   5.462   6.203
 9226SOL     OW28576   0.962   0.728   5.365
 9226SOL    HW128577   0.986   0.818   5.402
 9226SOL    HW228578   0.904   0.739   5.285
 9227SOL     OW28579   3.755   4.216   1.154
 9227SOL    HW128580   3.822   4.284   1.185
 9227SOL    HW228581   3.804   4.136   1.118
 9228SOL     OW28582   4.165   3.467   4.784
 9228SOL    HW128583   4.108   3.451   4.865
 9228SOL    HW228584   4.260   3.447   4.805
 9229SOL     OW28585   0.250   5.307   0.279
 9229SOL    HW128586   0.267   5.359   0.363
 9229SOL    HW228587   0.154   5.315   0.253
 9230SOL     OW28588   4.557   0.259   5.116
 9230SOL    HW128589   4.652   0.240   5.092
 9230SOL    HW228590   4.552   0.292   5.210
 9231SOL     OW28591   6.279   5.920   1.928
 9231SOL    HW128592   6.359   5.900   1.985
 9231SOL    HW228593   6.263   6.019   1.926
 9232SOL     OW28594   1.249   5.759   2.384
 9232SOL    HW128595   1.264   5.725   2.476
 9232SOL    HW228596   1.335   5.757   2.333
 9233SOL     OW28597   0.744   0.168   5.626
 9233SOL    HW128598   0.675   0.124   5.683
 9233SOL    HW228599   0.728   0.267   5.625
 9234SOL     OW28600   3.420   4.473   5.743
 9234SOL    HW128601   3.443   4.496   5.649
 9234SOL    HW228602   3.469   4.535   5.805
 9235SOL     OW28603   2.434   1.967   2.848
 9235SOL    HW128604   2.433   1.876   2.808
 9235SOL    HW228605   2.353   1.980   2.906
 9236SOL     OW28606   1.394   3.214   5.804
 9236SOL    HW128607   1.405   3.264   5.890
 9236SOL    HW228608   1.452   3.255   5.734
 9237SOL     OW28609   6.097   5.133   2.986
 9237SOL    HW128610   6.035   5.211   2.989
 9237SOL    HW228611   6.081   5.074   3.066
 9238SOL     OW28612   1.688   2.779   4.995
 9238SOL    HW128613   1.607   2.809   4.946
 9238SOL    HW228614   1.769   2.791   4.937
 9239SOL     OW28615   1.503   5.695   6.221
 9239SOL    HW128616   1.408   5.701   6.190
 9239SOL    HW228617   1.557   5.766   6.175
 9240SOL     OW28618   4.010   1.742   3.816
 9240SOL    HW128619   4.043   1.699   3.900
 9240SOL    HW228620   4.029   1.682   3.738
 9241SOL     OW28621   5.898   6.469   0.254
 9241SOL    HW128622   5.941   6.522   0.327
 9241SOL    HW228623   5.799   6.467   0.267
 9242SOL     OW28624   1.834   2.306   1.124
 9242SOL    HW128625   1.873   2.298   1.033
 9242SOL    HW228626   1.854   2.397   1.162
 9243SOL     OW28627   1.879   0.183   0.588
 9243SOL    HW128628   1.911   0.100   0.542
 9243SOL    HW228629   1.939   0.260   0.563
 9244SOL     OW28630   2.388   5.778   6.776
 9244SOL    HW128631   2.354   5.866   6.810
 9244SOL    HW228632   2.488   5.782   6.766
 9245SOL     OW28633   1.011   4.886   3.011
 9245SOL    HW128634   0.927   4.891   3.065
 9245SOL    HW228635   1.078   4.951   3.047
 9246SOL     OW28636   5.317   6.140   6.757
 9246SOL    HW128637   5.224   6.144   6.792
 9246SOL    HW228638   5.369   6.072   6.808
 9247SOL     OW28639   3.690   6.730   2.678
 9247SOL    HW128640   3.759   6.678   2.628
 9247SOL    HW228641   3.615   6.753   2.617
 9248SOL     OW28642   2.667   0.132   6.548
 9248SOL    HW128643   2.636   0.104   6.639
 9248SOL    HW228644   2.664   0.232   6.541
 9249SOL     OW28645   2.846   6.969   0.054
 9249SOL    HW128646   2.893   6.992   0.139
 9249SOL    HW228647   2.760   6.922   0.076
 9250SOL     OW28648   0.319   3.610   3.308
 9250SOL    HW128649   0.383   3.684   3.288
 9250SOL    HW228650   0.242   3.646   3.359
 9251SOL     OW28651   3.694   1.907   1.015
 9251SOL    HW128652   3.725   1.983   1.072
 9251SOL    HW228653   3.634   1.847   1.068
 9252SOL     OW28654   5.643   1.328   4.689
 9252SOL    HW128655   5.639   1.270   4.770
 9252SOL    HW228656   5.641   1.424   4.716
 9253SOL     OW28657   2.246   4.853   4.239
 9253SOL    HW128658   2.212   4.946   4.224
 9253SOL    HW228659   2.297   4.850   4.325
 9254SOL     OW28660   0.329   5.142   2.083
 9254SOL    HW128661   0.361   5.231   2.051
 9254SOL    HW228662   0.288   5.091   2.007
 9255SOL     OW28663   6.230   3.507   0.908
 9255SOL    HW128664   6.299   3.470   0.970
 9255SOL    HW228665   6.140   3.505   0.953
 9256SOL     OW28666   2.704   6.754   0.719
 9256SOL    HW128667   2.795   6.765   0.759
 9256SOL    HW228668   2.649   6.692   0.776
 9257SOL     OW28669   6.353   6.053   4.698
 9257SOL    HW128670   6.442   6.024   4.663
 9257SOL    HW228671   6.320   5.986   4.765
 9258SOL     OW28672   4.781   5.236   2.195
 9258SOL    HW128673   4.843   5.305   2.233
 9258SOL    HW228674   4.793   5.150   2.244
 9259SOL     OW28675   0.451   2.479   6.792
 9259SOL    HW128676   0.356   2.466   6.763
 9259SOL    HW228677   0.490   2.558   6.745
 9260SOL     OW28678   4.966   3.703   4.816
 9260SOL    HW128679   4.902   3.661   4.881
 9260SOL    HW228680   5.001   3.632   4.755
 9261SOL     OW28681   1.309   2.923   1.651
 9261SOL    HW128682   1.282   3.018   1.639
 9261SOL    HW228683   1.267   2.867   1.580
 9262SOL     OW28684   6.656   6.326   5.920
 9262SOL    HW128685   6.594   6.355   5.847
 9262SOL    HW228686   6.656   6.226   5.926
 9263SOL     OW28687   2.576   4.503   3.147
 9263SOL    HW128688   2.605   4.459   3.063
 9263SOL    HW228689   2.498   4.562   3.128
 9264SOL     OW28690   5.504   3.745   5.688
 9264SOL    HW128691   5.592   3.757   5.735
 9264SOL    HW228692   5.464   3.658   5.715
 9265SOL     OW28693   4.616   0.935   1.526
 9265SOL    HW128694   4.630   0.836   1.533
 9265SOL    HW228695   4.694   0.983   1.564
 9266SOL     OW28696   2.036   4.908   0.831
 9266SOL    HW128697   1.960   4.909   0.896
 9266SOL    HW228698   2.011   4.959   0.749
 9267SOL     OW28699   0.110   1.751   3.668
 9267SOL    HW128700   0.016   1.729   3.693
 9267SOL    HW228701   0.130   1.714   3.577
 9268SOL     OW28702   0.427   0.712   1.911
 9268SOL    HW128703   0.436   0.616   1.937
 9268SOL    HW228704   0.390   0.718   1.818
 9269SOL     OW28705   4.558   0.999   0.454
 9269SOL    HW128706   4.585   1.093   0.431
 9269SOL    HW228707   4.515   0.998   0.544
 9270SOL     OW28708   2.539   1.226   5.596
 9270SOL    HW128709   2.465   1.202   5.660
 9270SOL    HW228710   2.569   1.143   5.549
 9271SOL     OW28711   1.547   4.760   5.917
 9271SOL    HW128712   1.513   4.793   6.005
 9271SOL    HW228713   1.479   4.779   5.846
 9272SOL     OW28714   6.145   6.089   5.553
 9272SOL    HW128715   6.161   6.165   5.490
 9272SOL    HW228716   6.224   6.080   5.614
 9273SOL     OW28717   5.850   3.249   3.937
 9273SOL    HW128718   5.799   3.305   4.002
 9273SOL    HW228719   5.788   3.181   3.897
 9274SOL     OW28720   0.250   3.633   0.333
 9274SOL    HW128721   0.349   3.635   0.345
 9274SOL    HW228722   0.228   3.658   0.239
 9275SOL     OW28723   5.765   1.037   0.455
 9275SOL    HW128724   5.798   0.979   0.381
 9275SOL    HW228725   5.666   1.044   0.450
 9276SOL     OW28726   2.126   4.411   6.689
 9276SOL    HW128727   2.176   4.433   6.606
 9276SOL    HW228728   2.028   4.428   6.675
 9277SOL     OW28729   4.338   5.915   2.450
 9277SOL    HW128730   4.367   6.008   2.424
 9277SOL    HW228731   4.350   5.903   2.549
 9278SOL     OW28732   0.697   6.975   5.850
 9278SOL    HW128733   0.607   7.017   5.839
 9278SOL    HW228734   0.689   6.891   5.905
 9279SOL     OW28735   2.792   6.063   2.287
 9279SOL    HW128736   2.697   6.031   2.288
 9279SOL    HW228737   2.836   6.040   2.374
 9280SOL     OW28738   1.346   5.940   2.860
 9280SOL    HW128739   1.270   5.907   2.916
 9280SOL    HW228740   1.324   6.031   2.824
 9281SOL     OW28741   1.563   5.116   0.636
 9281SOL    HW128742   1.515   5.058   0.569
 9281SOL    HW228743   1.497   5.177   0.680
 9282SOL     OW28744   2.743   6.845   5.192
 9282SOL    HW128745   2.797   6.855   5.108
 9282SOL    HW228746   2.717   6.935   5.226
 9283SOL     OW28747   4.862   6.060   0.042
 9283SOL    HW128748   4.813   6.135   0.086
 9283SOL    HW228749   4.812   6.031   6.987
 9284SOL     OW28750   4.183   5.908   0.390
 9284SOL    HW128751   4.172   5.908   0.489
 9284SOL    HW228752   4.279   5.893   0.367
 9285SOL     OW28753   6.921   6.045   3.645
 9285SOL    HW128754   6.919   5.947   3.628
 9285SOL    HW228755   6.901   6.095   3.561
 9286SOL     OW28756   5.093   6.813   1.731
 9286SOL    HW128757   5.084   6.809   1.831
 9286SOL    HW228758   5.107   6.908   1.703
 9287SOL     OW28759   4.105   3.899   6.295
 9287SOL    HW128760   4.022   3.898   6.239
 9287SOL    HW228761   4.110   3.985   6.346
 9288SOL     OW28762   3.789   1.859   2.338
 9288SOL    HW128763   3.862   1.842   2.273
 9288SOL    HW228764   3.819   1.927   2.405
 9289SOL     OW28765   4.376   6.165   1.552
 9289SOL    HW128766   4.420   6.123   1.473
 9289SOL    HW228767   4.321   6.097   1.600
 9290SOL     OW28768   5.859   1.034   3.558
 9290SOL    HW128769   5.832   1.023   3.463
 9290SOL    HW228770   5.832   1.126   3.590
 9291SOL     OW28771   0.357   4.222   5.601
 9291SOL    HW128772   0.340   4.243   5.505
 9291SOL    HW228773   0.404   4.134   5.607
 9292SOL     OW28774   0.408   1.506   6.762
 9292SOL    HW128775   0.488   1.447   6.759
 9292SOL    HW228776   0.385   1.525   6.858
 9293SOL     OW28777   4.427   2.037   5.210
 9293SOL    HW128778   4.463   2.121   5.170
 9293SOL    HW228779   4.433   1.963   5.142
 9294SOL     OW28780   4.843   6.357   6.959
 9294SOL    HW128781   4.812   6.320   0.020
 9294SOL    HW228782   4.825   6.455   6.956
 9295SOL     OW28783   5.996   0.999   3.876
 9295SOL    HW128784   6.028   0.959   3.790
 9295SOL    HW228785   5.968   0.926   3.939
 9296SOL     OW28786   2.144   4.182   5.992
 9296SOL    HW128787   2.207   4.249   6.032
 9296SOL    HW228788   2.050   4.210   6.011
 9297SOL     OW28789   0.132   4.844   2.203
 9297SOL    HW128790   0.222   4.820   2.166
 9297SOL    HW228791   0.067   4.772   2.180
 9298SOL     OW28792   0.815   4.246   6.178
 9298SOL    HW128793   0.899   4.245   6.233
 9298SOL    HW228794   0.743   4.293   6.229
 9299SOL     OW28795   2.783   1.807   4.576
 9299SOL    HW128796   2.704   1.809   4.637
 9299SOL    HW228797   2.863   1.842   4.623
 9300SOL     OW28798   2.365   6.266   4.760
 9300SOL    HW128799   2.435   6.252   4.690
 9300SOL    HW228800   2.409   6.269   4.850
 9301SOL     OW28801   1.239   4.131   3.934
 9301SOL    HW128802   1.243   4.217   3.986
 9301SOL    HW228803   1.181   4.065   3.982
 9302SOL     OW28804   2.969   5.540   4.295
 9302SOL    HW128805   2.892   5.565   4.235
 9302SOL    HW228806   3.025   5.621   4.311
 9303SOL     OW28807   2.931   4.654   0.034
 9303SOL    HW128808   3.026   4.626   0.027
 9303SOL    HW228809   2.911   4.683   0.127
 9304SOL     OW28810   5.538   5.802   6.516
 9304SOL    HW128811   5.450   5.776   6.558
 9304SOL    HW228812   5.571   5.727   6.460
 9305SOL     OW28813   1.577   1.578   0.999
 9305SOL    HW128814   1.599   1.590   0.902
 9305SOL    HW228815   1.662   1.574   1.051
 9306SOL     OW28816   6.682   6.313   4.471
 9306SOL    HW128817   6.681   6.376   4.548
 9306SOL    HW228818   6.592   6.272   4.460
 9307SOL     OW28819   1.541   3.979   1.584
 9307SOL    HW128820   1.532   4.071   1.548
 9307SOL    HW228821   1.567   3.983   1.681
 9308SOL     OW28822   2.296   3.763   1.712
 9308SOL    HW128823   2.231   3.724   1.777
 9308SOL    HW228824   2.354   3.691   1.675
 9309SOL     OW28825   4.874   5.260   6.066
 9309SOL    HW128826   4.962   5.215   6.052
 9309SOL    HW228827   4.812   5.236   5.991
 9310SOL     OW28828   5.865   6.034   5.547
 9310SOL    HW128829   5.963   6.041   5.527
 9310SOL    HW228830   5.853   6.013   5.644
 9311SOL     OW28831   5.359   3.937   0.935
 9311SOL    HW128832   5.279   3.919   0.991
 9311SOL    HW228833   5.404   4.020   0.966
 9312SOL     OW28834   6.738   2.792   3.627
 9312SOL    HW128835   6.831   2.755   3.627
 9312SOL    HW228836   6.679   2.734   3.570
 9313SOL     OW28837   0.862   0.735   2.624
 9313SOL    HW128838   0.779   0.757   2.572
 9313SOL    HW228839   0.837   0.720   2.720
 9314SOL     OW28840   5.210   5.121   1.647
 9314SOL    HW128841   5.237   5.198   1.705
 9314SOL    HW228842   5.143   5.152   1.580
 9315SOL     OW28843   5.771   5.626   5.631
 9315SOL    HW128844   5.776   5.563   5.708
 9315SOL    HW228845   5.684   5.613   5.583
 9316SOL     OW28846   5.063   6.792   0.898
 9316SOL    HW128847   5.125   6.723   0.934
 9316SOL    HW228848   4.980   6.748   0.864
 9317SOL     OW28849   1.939   5.808   3.624
 9317SOL    HW128850   1.885   5.875   3.573
 9317SOL    HW228851   2.024   5.851   3.655
 9318SOL     OW28852   3.615   0.004   2.506
 9318SOL    HW128853   3.690   6.991   2.452
 9318SOL    HW228854   3.557   6.956   2.540
 9319SOL     OW28855   4.156   1.939   0.294
 9319SOL    HW128856   4.126   1.843   0.292
 9319SOL    HW228857   4.154   1.972   0.389
 9320SOL     OW28858   6.839   6.554   6.530
 9320SOL    HW128859   6.769   6.523   6.594
 9320SOL    HW228860   6.927   6.515   6.556
 9321SOL     OW28861   1.369   3.282   4.089
 9321SOL    HW128862   1.407   3.194   4.061
 9321SOL    HW228863   1.347   3.280   4.186
 9322SOL     OW28864   5.613   2.741   0.024
 9322SOL    HW128865   5.592   2.797   0.104
 9322SOL    HW228866   5.711   2.726   0.018
 9323SOL     OW28867   0.510   2.009   5.801
 9323SOL    HW128868   0.425   1.990   5.851
 9323SOL    HW228869   0.487   2.037   5.708
 9324SOL     OW28870   0.461   4.862   1.226
 9324SOL    HW128871   0.377   4.827   1.184
 9324SOL    HW228872   0.441   4.948   1.274
 9325SOL     OW28873   0.792   4.875   3.167
 9325SOL    HW128874   0.739   4.820   3.102
 9325SOL    HW228875   0.829   4.815   3.238
 9326SOL     OW28876   4.879   4.516   0.558
 9326SOL    HW128877   4.781   4.499   0.551
 9326SOL    HW228878   4.896   4.614   0.565
 9327SOL     OW28879   2.999   1.417   3.376
 9327SOL    HW128880   2.924   1.404   3.440
 9327SOL    HW228881   2.979   1.370   3.290
 9328SOL     OW28882   1.623   0.836   3.326
 9328SOL    HW128883   1.563   0.778   3.272
 9328SOL    HW228884   1.576   0.865   3.410
 9329SOL     OW28885   1.293   5.503   6.675
 9329SOL    HW128886   1.385   5.527   6.704
 9329SOL    HW228887   1.261   5.424   6.728
 9330SOL     OW28888   1.138   6.865   0.774
 9330SOL    HW128889   1.126   6.924   0.854
 9330SOL    HW228890   1.060   6.803   0.766
 9331SOL     OW28891   2.346   4.360   4.286
 9331SOL    HW128892   2.432   4.402   4.256
 9331SOL    HW228893   2.301   4.316   4.208
 9332SOL     OW28894   6.604   5.062   6.875
 9332SOL    HW128895   6.573   5.141   6.824
 9332SOL    HW228896   6.702   5.069   6.892
 9333SOL     OW28897   2.745   4.692   1.580
 9333SOL    HW128898   2.708   4.744   1.657
 9333SOL    HW228899   2.791   4.610   1.614
 9334SOL     OW28900   6.932   5.678   6.447
 9334SOL    HW128901   7.001   5.689   6.376
 9334SOL    HW228902   6.974   5.643   6.530
 9335SOL     OW28903   0.433   3.901   1.239
 9335SOL    HW128904   0.361   3.834   1.257
 9335SOL    HW228905   0.431   3.972   1.310
 9336SOL     OW28906   5.214   6.835   6.062
 9336SOL    HW128907   5.189   6.758   6.121
 9336SOL    HW228908   5.188   6.921   6.105
 9337SOL     OW28909   2.774   1.473   5.500
 9337SOL    HW128910   2.860   1.520   5.484
 9337SOL    HW228911   2.781   1.417   5.582
 9338SOL     OW28912   5.359   6.154   0.927
 9338SOL    HW128913   5.447   6.129   0.968
 9338SOL    HW228914   5.345   6.101   0.843
 9339SOL     OW28915   6.816   3.826   5.276
 9339SOL    HW128916   6.865   3.901   5.232
 9339SOL    HW228917   6.843   3.820   5.372
 9340SOL     OW28918   2.592   4.946   2.334
 9340SOL    HW128919   2.662   5.015   2.355
 9340SOL    HW228920   2.603   4.868   2.396
 9341SOL     OW28921   5.831   5.281   6.809
 9341SOL    HW128922   5.799   5.188   6.789
 9341SOL    HW228923   5.758   5.346   6.792
 9342SOL     OW28924   3.323   6.686   5.108
 9342SOL    HW128925   3.281   6.733   5.186
 9342SOL    HW228926   3.404   6.637   5.138
 9343SOL     OW28927   4.998   4.106   0.933
 9343SOL    HW128928   5.033   4.047   0.860
 9343SOL    HW228929   4.903   4.128   0.915
 9344SOL     OW28930   5.912   0.265   5.079
 9344SOL    HW128931   5.914   0.338   5.147
 9344SOL    HW228932   5.975   0.288   5.004
 9345SOL     OW28933   0.136   4.678   0.059
 9345SOL    HW128934   0.110   4.772   0.082
 9345SOL    HW228935   0.167   4.631   0.142
 9346SOL     OW28936   5.095   0.406   2.153
 9346SOL    HW128937   5.142   0.494   2.142
 9346SOL    HW228938   5.042   0.407   2.238
 9347SOL     OW28939   4.585   6.315   1.678
 9347SOL    HW128940   4.568   6.261   1.761
 9347SOL    HW228941   4.548   6.266   1.600
 9348SOL     OW28942   2.339   5.147   1.933
 9348SOL    HW128943   2.283   5.088   1.991
 9348SOL    HW228944   2.423   5.173   1.981
 9349SOL     OW28945   6.564   6.442   1.114
 9349SOL    HW128946   6.477   6.478   1.147
 9349SOL    HW228947   6.638   6.467   1.177
 9350SOL     OW28948   6.584   0.509   0.502
 9350SOL    HW128949   6.557   0.426   0.550
 9350SOL    HW228950   6.519   0.582   0.523
 9351SOL     OW28951   3.937   3.425   6.232
 9351SOL    HW128952   4.013   3.482   6.261
 9351SOL    HW228953   3.910   3.449   6.139
 9352SOL     OW28954   2.925   2.693   6.866
 9352SOL    HW128955   2.870   2.688   6.782
 9352SOL    HW228956   2.896   2.621   6.929
 9353SOL     OW28957   0.977   2.924   1.616
 9353SOL    HW128958   1.034   2.998   1.651
 9353SOL    HW228959   0.932   2.954   1.533
 9354SOL     OW28960   5.303   1.712   1.917
 9354SOL    HW128961   5.205   1.694   1.923
 9354SOL    HW228962   5.352   1.626   1.908
 9355SOL     OW28963   6.927   1.220   2.262
 9355SOL    HW128964   6.909   1.278   2.182
 9355SOL    HW228965   6.968   1.276   2.335
 9356SOL     OW28966   5.239   3.285   2.787
 9356SOL    HW128967   5.338   3.275   2.775
 9356SOL    HW228968   5.191   3.246   2.708
 9357SOL     OW28969   2.843   4.258   0.614
 9357SOL    HW128970   2.908   4.295   0.681
 9357SOL    HW228971   2.871   4.166   0.587
 9358SOL     OW28972   5.147   4.013   2.600
 9358SOL    HW128973   5.050   3.988   2.595
 9358SOL    HW228974   5.177   4.046   2.511
 9359SOL     OW28975   5.334   4.997   6.079
 9359SOL    HW128976   5.391   5.077   6.060
 9359SOL    HW228977   5.348   4.968   6.173
 9360SOL     OW28978   1.273   1.300   5.252
 9360SOL    HW128979   1.245   1.337   5.163
 9360SOL    HW228980   1.336   1.224   5.238
 9361SOL     OW28981   2.326   1.257   1.902
 9361SOL    HW128982   2.391   1.331   1.918
 9361SOL    HW228983   2.283   1.231   1.989
 9362SOL     OW28984   2.029   1.896   3.455
 9362SOL    HW128985   1.950   1.839   3.434
 9362SOL    HW228986   1.999   1.985   3.489
 9363SOL     OW28987   1.853   6.487   2.082
 9363SOL    HW128988   1.836   6.581   2.112
 9363SOL    HW228989   1.903   6.488   1.995
 9364SOL     OW28990   5.534   4.486   1.040
 9364SOL    HW128991   5.544   4.497   1.139
 9364SOL    HW228992   5.565   4.570   0.995
 9365SOL     OW28993   2.491   1.460   4.848
 9365SOL    HW128994   2.585   1.427   4.855
 9365SOL    HW228995   2.430   1.383   4.830
 9366SOL     OW28996   3.421   1.361   1.631
 9366SOL    HW128997   3.512   1.355   1.588
 9366SOL    HW228998   3.386   1.268   1.645
 9367SOL     OW28999   6.596   5.994   4.461
 9367SOL    HW129000   6.633   5.911   4.503
 9367SOL    HW229001   6.665   6.034   4.400
 9368SOL     OW29002   4.630   2.911   1.121
 9368SOL    HW129003   4.685   2.868   1.193
 9368SOL    HW229004   4.674   2.995   1.090
 9369SOL     OW29005   0.135   2.350   6.030
 9369SOL    HW129006   0.164   2.335   6.124
 9369SOL    HW229007   0.047   2.304   6.014
 9370SOL     OW29008   6.136   5.854   3.386
 9370SOL    HW129009   6.235   5.849   3.384
 9370SOL    HW229010   6.104   5.854   3.480
 9371SOL     OW29011   1.338   6.701   0.722
 9371SOL    HW129012   1.274   6.771   0.754
 9371SOL    HW229013   1.293   6.644   0.653
 9372SOL     OW29014   5.758   6.384   0.013
 9372SOL    HW129015   5.791   6.464   0.063
 9372SOL    HW229016   5.822   6.308   0.023
 9373SOL     OW29017   4.784   2.689   4.116
 9373SOL    HW129018   4.874   2.728   4.133
 9373SOL    HW229019   4.724   2.707   4.194
 9374SOL     OW29020   5.189   4.505   0.493
 9374SOL    HW129021   5.093   4.490   0.515
 9374SOL    HW229022   5.246   4.443   0.547
 9375SOL     OW29023   0.272   1.648   3.872
 9375SOL    HW129024   0.283   1.549   3.879
 9375SOL    HW229025   0.214   1.670   3.794
 9376SOL     OW29026   1.748   2.772   1.799
 9376SOL    HW129027   1.769   2.867   1.823
 9376SOL    HW229028   1.834   2.723   1.781
 9377SOL     OW29029   6.014   5.398   2.525
 9377SOL    HW129030   5.985   5.303   2.532
 9377SOL    HW229031   5.970   5.452   2.597
 9378SOL     OW29032   3.334   6.228   1.484
 9378SOL    HW129033   3.244   6.270   1.471
 9378SOL    HW229034   3.380   6.221   1.396
 9379SOL     OW29035   5.841   4.312   5.401
 9379SOL    HW129036   5.904   4.292   5.327
 9379SOL    HW229037   5.843   4.410   5.421
 9380SOL     OW29038   5.859   5.536   6.604
 9380SOL    HW129039   5.838   5.474   6.528
 9380SOL    HW229040   5.872   5.629   6.568
 9381SOL     OW29041   1.633   0.779   0.640
 9381SOL    HW129042   1.701   0.850   0.621
 9381SOL    HW229043   1.665   0.691   0.606
 9382SOL     OW29044   5.636   2.067   2.051
 9382SOL    HW129045   5.564   2.084   2.118
 9382SOL    HW229046   5.663   1.971   2.054
 9383SOL     OW29047   5.822   5.221   5.665
 9383SOL    HW129048   5.909   5.240   5.619
 9383SOL    HW229049   5.817   5.272   5.751
 9384SOL     OW29050   3.891   6.591   2.524
 9384SOL    HW129051   3.941   6.673   2.497
 9384SOL    HW229052   3.924   6.513   2.471
 9385SOL     OW29053   3.524   0.407   4.009
 9385SOL    HW129054   3.516   0.445   3.916
 9385SOL    HW229055   3.466   0.460   4.071
 9386SOL     OW29056   4.005   6.994   5.156
 9386SOL    HW129057   3.918   6.948   5.178
 9386SOL    HW229058   4.004   0.060   5.196
 9387SOL     OW29059   3.993   6.401   0.909
 9387SOL    HW129060   3.948   6.478   0.864
 9387SOL    HW229061   3.973   6.317   0.859
 9388SOL     OW29062   6.198   6.717   2.467
 9388SOL    HW129063   6.126   6.678   2.524
 9388SOL    HW229064   6.279   6.733   2.523
 9389SOL     OW29065   3.398   1.421   6.972
 9389SOL    HW129066   3.325   1.450   6.910
 9389SOL    HW229067   3.389   1.323   6.991
 9390SOL     OW29068   2.592   6.404   1.740
 9390SOL    HW129069   2.648   6.487   1.739
 9390SOL    HW229070   2.613   6.351   1.822
 9391SOL     OW29071   7.000   1.369   5.371
 9391SOL    HW129072   0.068   1.370   5.405
 9391SOL    HW229073   6.955   1.455   5.395
 9392SOL     OW29074   1.179   6.498   4.582
 9392SOL    HW129075   1.149   6.562   4.510
 9392SOL    HW229076   1.180   6.545   4.670
 9393SOL     OW29077   3.838   1.876   5.547
 9393SOL    HW129078   3.866   1.967   5.576
 9393SOL    HW229079   3.873   1.859   5.454
 9394SOL     OW29080   5.688   2.689   1.663
 9394SOL    HW129081   5.686   2.777   1.711
 9394SOL    HW229082   5.721   2.703   1.570
 9395SOL     OW29083   2.055   2.957   6.249
 9395SOL    HW129084   2.151   2.964   6.220
 9395SOL    HW229085   2.022   2.863   6.235
 9396SOL     OW29086   6.140   0.317   6.693
 9396SOL    HW129087   6.155   0.353   6.601
 9396SOL    HW229088   6.206   0.243   6.710
 9397SOL     OW29089   3.061   1.283   1.045
 9397SOL    HW129090   3.015   1.234   1.119
 9397SOL    HW229091   3.051   1.381   1.058
 9398SOL     OW29092   2.162   1.202   0.944
 9398SOL    HW129093   2.234   1.150   0.990
 9398SOL    HW229094   2.079   1.202   1.000
 9399SOL     OW29095   6.702   0.567   5.564
 9399SOL    HW129096   6.790   0.590   5.608
 9399SOL    HW229097   6.635   0.547   5.635
 9400SOL     OW29098   4.555   2.161   3.261
 9400SOL    HW129099   4.540   2.076   3.212
 9400SOL    HW229100   4.652   2.172   3.282
 9401SOL     OW29101   4.205   0.312   3.271
 9401SOL    HW129102   4.142   0.379   3.231
 9401SOL    HW229103   4.289   0.307   3.216
 9402SOL     OW29104   2.067   4.822   0.216
 9402SOL    HW129105   2.080   4.797   0.120
 9402SOL    HW229106   2.058   4.739   0.271
 9403SOL     OW29107   5.659   0.774   5.071
 9403SOL    HW129108   5.604   0.839   5.019
 9403SOL    HW229109   5.602   0.697   5.100
 9404SOL     OW29110   0.983   4.069   5.191
 9404SOL    HW129111   1.070   4.117   5.179
 9404SOL    HW229112   0.933   4.068   5.105
 9405SOL     OW29113   6.752   0.462   0.757
 9405SOL    HW129114   6.706   0.494   0.675
 9405SOL    HW229115   6.690   0.471   0.835
 9406SOL     OW29116   6.609   1.145   5.537
 9406SOL    HW129117   6.614   1.046   5.528
 9406SOL    HW229118   6.657   1.174   5.620
 9407SOL     OW29119   3.571   6.266   3.022
 9407SOL    HW129120   3.595   6.180   3.069
 9407SOL    HW229121   3.646   6.293   2.962
 9408SOL     OW29122   3.924   1.829   6.746
 9408SOL    HW129123   3.933   1.897   6.673
 9408SOL    HW229124   3.984   1.751   6.726
 9409SOL     OW29125   6.194   3.538   3.363
 9409SOL    HW129126   6.198   3.581   3.454
 9409SOL    HW229127   6.214   3.441   3.372
 9410SOL     OW29128   4.656   6.605   2.072
 9410SOL    HW129129   4.686   6.672   2.004
 9410SOL    HW229130   4.685   6.514   2.044
 9411SOL     OW29131   4.795   5.500   1.327
 9411SOL    HW129132   4.743   5.431   1.279
 9411SOL    HW229133   4.733   5.570   1.364
 9412SOL     OW29134   6.564   3.110   1.998
 9412SOL    HW129135   6.485   3.114   1.937
 9412SOL    HW229136   6.551   3.174   2.074
 9413SOL     OW29137   3.473   5.328   4.427
 9413SOL    HW129138   3.486   5.240   4.381
 9413SOL    HW229139   3.378   5.358   4.415
 9414SOL     OW29140   2.462   1.390   2.305
 9414SOL    HW129141   2.499   1.455   2.372
 9414SOL    HW229142   2.366   1.412   2.288
 9415SOL     OW29143   2.550   0.876   2.295
 9415SOL    HW129144   2.604   0.886   2.212
 9415SOL    HW229145   2.469   0.934   2.289
 9416SOL     OW29146   1.495   1.818   1.179
 9416SOL    HW129147   1.594   1.807   1.168
 9416SOL    HW229148   1.448   1.742   1.133
 9417SOL     OW29149   2.215   0.358   4.416
 9417SOL    HW129150   2.264   0.405   4.489
 9417SOL    HW229151   2.223   0.411   4.331
 9418SOL     OW29152   3.971   4.542   1.070
 9418SOL    HW129153   4.060   4.588   1.077
 9418SOL    HW229154   3.931   4.534   1.161
 9419SOL     OW29155   3.765   5.793   4.710
 9419SOL    HW129156   3.804   5.788   4.618
 9419SOL    HW229157   3.675   5.836   4.706
 9420SOL     OW29158   0.901   1.383   4.270
 9420SOL    HW129159   0.839   1.347   4.340
 9420SOL    HW229160   0.855   1.455   4.218
 9421SOL     OW29161   1.863   5.102   4.742
 9421SOL    HW129162   1.883   5.094   4.839
 9421SOL    HW229163   1.773   5.145   4.729
 9422SOL     OW29164   3.630   1.029   2.494
 9422SOL    HW129165   3.727   1.044   2.474
 9422SOL    HW229166   3.598   0.947   2.447
 9423SOL     OW29167   4.892   0.438   4.554
 9423SOL    HW129168   4.797   0.416   4.534
 9423SOL    HW229169   4.949   0.357   4.537
 9424SOL     OW29170   2.968   6.136   4.392
 9424SOL    HW129171   2.903   6.159   4.320
 9424SOL    HW229172   3.058   6.121   4.351
 9425SOL     OW29173   1.007   4.948   3.611
 9425SOL    HW129174   1.015   4.849   3.595
 9425SOL    HW229175   0.998   4.995   3.523
 9426SOL     OW29176   4.023   6.389   0.497
 9426SOL    HW129177   3.969   6.313   0.461
 9426SOL    HW229178   4.105   6.353   0.541
 9427SOL     OW29179   3.077   4.916   4.226
 9427SOL    HW129180   3.069   4.995   4.286
 9427SOL    HW229181   3.112   4.945   4.137
 9428SOL     OW29182   4.461   6.015   2.102
 9428SOL    HW129183   4.467   6.056   2.193
 9428SOL    HW229184   4.519   5.933   2.098
 9429SOL     OW29185   6.690   3.143   2.336
 9429SOL    HW129186   6.754   3.144   2.413
 9429SOL    HW229187   6.718   3.073   2.271
 9430SOL     OW29188   6.225   6.830   1.810
 9430SOL    HW129189   6.243   6.914   1.758
 9430SOL    HW229190   6.266   6.838   1.901
 9431SOL     OW29191   6.239   4.039   1.274
 9431SOL    HW129192   6.156   4.027   1.220
 9431SOL    HW229193   6.315   4.064   1.214
 9432SOL     OW29194   6.828   6.707   4.427
 9432SOL    HW129195   6.883   6.708   4.344
 9432SOL    HW229196   6.888   6.706   4.507
 9433SOL     OW29197   3.149   4.890   4.611
 9433SOL    HW129198   3.060   4.924   4.639
 9433SOL    HW229199   3.200   4.859   4.691
 9434SOL     OW29200   4.994   4.954   3.080
 9434SOL    HW129201   5.021   4.858   3.085
 9434SOL    HW229202   5.057   5.009   3.135
 9435SOL     OW29203   1.637   1.811   5.148
 9435SOL    HW129204   1.556   1.862   5.177
 9435SOL    HW229205   1.698   1.872   5.096
 9436SOL     OW29206   2.042   2.482   6.232
 9436SOL    HW129207   2.115   2.467   6.165
 9436SOL    HW229208   1.990   2.564   6.205
 9437SOL     OW29209   0.488   4.866   4.083
 9437SOL    HW129210   0.536   4.929   4.144
 9437SOL    HW229211   0.410   4.913   4.041
 9438SOL     OW29212   0.893   6.912   2.029
 9438SOL    HW129213   0.857   6.829   1.986
 9438SOL    HW229214   0.825   6.949   2.093
 9439SOL     OW29215   1.163   2.754   1.474
 9439SOL    HW129216   1.182   2.671   1.526
 9439SOL    HW229217   1.065   2.773   1.476
 9440SOL     OW29218   4.525   5.678   5.014
 9440SOL    HW129219   4.611   5.658   5.061
 9440SOL    HW229220   4.540   5.678   4.915
 9441SOL     OW29221   1.965   5.560   4.937
 9441SOL    HW129222   2.009   5.524   5.020
 9441SOL    HW229223   1.900   5.493   4.902
 9442SOL     OW29224   0.809   3.791   1.215
 9442SOL    HW129225   0.884   3.800   1.281
 9442SOL    HW229226   0.847   3.782   1.123
 9443SOL     OW29227   2.183   3.348   1.454
 9443SOL    HW129228   2.167   3.276   1.521
 9443SOL    HW229229   2.223   3.427   1.499
 9444SOL     OW29230   0.546   3.892   6.005
 9444SOL    HW129231   0.582   3.961   5.942
 9444SOL    HW229232   0.619   3.831   6.034
 9445SOL     OW29233   6.244   3.422   1.458
 9445SOL    HW129234   6.152   3.413   1.420
 9445SOL    HW229235   6.252   3.509   1.506
 9446SOL     OW29236   6.139   4.861   0.991
 9446SOL    HW129237   6.190   4.795   0.936
 9446SOL    HW229238   6.182   4.869   1.082
 9447SOL     OW29239   6.087   2.642   1.553
 9447SOL    HW129240   6.059   2.679   1.464
 9447SOL    HW229241   6.074   2.543   1.554
 9448SOL     OW29242   6.067   6.106   0.582
 9448SOL    HW129243   6.010   6.061   0.513
 9448SOL    HW229244   6.162   6.078   0.571
 9449SOL     OW29245   6.913   5.173   5.123
 9449SOL    HW129246   7.006   5.139   5.114
 9449SOL    HW229247   6.875   5.142   5.211
 9450SOL     OW29248   2.872   5.386   4.508
 9450SOL    HW129249   2.813   5.429   4.577
 9450SOL    HW229250   2.894   5.453   4.437
 9451SOL     OW29251   4.097   4.108   5.514
 9451SOL    HW129252   4.041   4.031   5.481
 9451SOL    HW229253   4.193   4.090   5.494
 9452SOL     OW29254   2.868   4.319   1.157
 9452SOL    HW129255   2.846   4.344   1.252
 9452SOL    HW229256   2.817   4.377   1.094
 9453SOL     OW29257   3.137   5.018   2.123
 9453SOL    HW129258   3.085   4.933   2.134
 9453SOL    HW229259   3.211   5.003   2.056
 9454SOL     OW29260   2.144   2.409   5.389
 9454SOL    HW129261   2.197   2.342   5.337
 9454SOL    HW229262   2.090   2.362   5.459
 9455SOL     OW29263   2.921   1.956   2.163
 9455SOL    HW129264   2.960   1.991   2.078
 9455SOL    HW229265   2.864   1.876   2.143
 9456SOL     OW29266   1.463   3.406   0.840
 9456SOL    HW129267   1.560   3.422   0.859
 9456SOL    HW229268   1.427   3.337   0.904
 9457SOL     OW29269   6.949   3.376   0.752
 9457SOL    HW129270   6.933   3.475   0.748
 9457SOL    HW229271   0.009   3.358   0.799
 9458SOL     OW29272   0.489   5.741   4.644
 9458SOL    HW129273   0.513   5.715   4.738
 9458SOL    HW229274   0.552   5.697   4.581
 9459SOL     OW29275   4.144   5.886   1.563
 9459SOL    HW129276   4.086   5.805   1.576
 9459SOL    HW229277   4.096   5.967   1.596
 9460SOL     OW29278   0.943   2.534   5.012
 9460SOL    HW129279   0.942   2.575   5.103
 9460SOL    HW229280   0.988   2.596   4.948
 9461SOL     OW29281   0.952   0.492   2.849
 9461SOL    HW129282   1.029   0.481   2.913
 9461SOL    HW229283   0.902   0.576   2.872
 9462SOL     OW29284   0.140   3.672   3.128
 9462SOL    HW129285   0.228   3.681   3.175
 9462SOL    HW229286   0.109   3.577   3.132
 9463SOL     OW29287   5.319   2.117   6.645
 9463SOL    HW129288   5.303   2.183   6.718
 9463SOL    HW229289   5.335   2.165   6.559
 9464SOL     OW29290   4.259   6.860   5.920
 9464SOL    HW129291   4.244   6.762   5.905
 9464SOL    HW229292   4.223   6.885   6.009
 9465SOL     OW29293   5.932   0.218   4.430
 9465SOL    HW129294   5.984   0.170   4.501
 9465SOL    HW229295   5.946   0.173   4.342
 9466SOL     OW29296   2.386   2.037   6.794
 9466SOL    HW129297   2.302   2.081   6.761
 9466SOL    HW229298   2.455   2.107   6.812
 9467SOL     OW29299   2.031   3.249   1.935
 9467SOL    HW129300   2.112   3.305   1.950
 9467SOL    HW229301   1.970   3.255   2.013
 9468SOL     OW29302   0.492   2.520   6.305
 9468SOL    HW129303   0.461   2.606   6.345
 9468SOL    HW229304   0.472   2.520   6.207
 9469SOL     OW29305   6.343   4.029   2.423
 9469SOL    HW129306   6.346   4.126   2.449
 9469SOL    HW229307   6.248   3.998   2.420
 9470SOL     OW29308   5.970   3.696   1.459
 9470SOL    HW129309   5.891   3.655   1.412
 9470SOL    HW229310   5.953   3.698   1.557
 9471SOL     OW29311   0.592   2.327   5.925
 9471SOL    HW129312   0.621   2.232   5.918
 9471SOL    HW229313   0.553   2.356   5.838
 9472SOL     OW29314   6.493   3.077   4.747
 9472SOL    HW129315   6.538   3.036   4.667
 9472SOL    HW229316   6.525   3.032   4.830
 9473SOL     OW29317   3.737   5.338   4.245
 9473SOL    HW129318   3.733   5.354   4.343
 9473SOL    HW229319   3.675   5.263   4.221
 9474SOL     OW29320   3.764   5.501   3.489
 9474SOL    HW129321   3.832   5.573   3.476
 9474SOL    HW229322   3.684   5.519   3.433
 9475SOL     OW29323   1.393   3.499   1.189
 9475SOL    HW129324   1.379   3.424   1.124
 9475SOL    HW229325   1.417   3.582   1.139
 9476SOL     OW29326   3.786   4.292   5.138
 9476SOL    HW129327   3.877   4.273   5.174
 9476SOL    HW229328   3.761   4.221   5.071
 9477SOL     OW29329   0.777   2.937   0.781
 9477SOL    HW129330   0.823   3.015   0.738
 9477SOL    HW229331   0.714   2.971   0.851
 9478SOL     OW29332   5.205   4.792   5.115
 9478SOL    HW129333   5.292   4.745   5.130
 9478SOL    HW229334   5.200   4.873   5.174
 9479SOL     OW29335   6.437   5.914   5.512
 9479SOL    HW129336   6.415   5.819   5.530
 9479SOL    HW229337   6.446   5.928   5.413
 9480SOL     OW29338   5.771   4.220   6.737
 9480SOL    HW129339   5.804   4.128   6.759
 9480SOL    HW229340   5.833   4.263   6.672
 9481SOL     OW29341   6.246   3.711   2.289
 9481SOL    HW129342   6.215   3.701   2.384
 9481SOL    HW229343   6.345   3.697   2.284
 9482SOL     OW29344   4.090   0.096   2.546
 9482SOL    HW129345   4.081   0.165   2.617
 9482SOL    HW229346   4.044   0.012   2.574
 9483SOL     OW29347   1.681   1.616   0.692
 9483SOL    HW129348   1.611   1.686   0.680
 9483SOL    HW229349   1.771   1.660   0.699
 9484SOL     OW29350   6.203   1.574   2.826
 9484SOL    HW129351   6.238   1.535   2.911
 9484SOL    HW229352   6.117   1.529   2.801
 9485SOL     OW29353   0.855   0.739   2.902
 9485SOL    HW129354   0.781   0.806   2.899
 9485SOL    HW229355   0.897   0.741   2.993
 9486SOL     OW29356   2.867   5.885   2.457
 9486SOL    HW129357   2.781   5.850   2.420
 9486SOL    HW229358   2.944   5.844   2.408
 9487SOL     OW29359   3.506   2.872   3.541
 9487SOL    HW129360   3.540   2.787   3.580
 9487SOL    HW229361   3.489   2.938   3.614
 9488SOL     OW29362   1.330   0.566   1.392
 9488SOL    HW129363   1.276   0.611   1.463
 9488SOL    HW229364   1.426   0.560   1.422
 9489SOL     OW29365   3.888   4.472   0.836
 9489SOL    HW129366   3.903   4.483   0.934
 9489SOL    HW229367   3.790   4.478   0.816
 9490SOL     OW29368   5.647   1.404   7.018
 9490SOL    HW129369   5.745   1.422   7.008
 9490SOL    HW229370   5.607   1.468   0.057
 9491SOL     OW29371   6.504   5.360   5.886
 9491SOL    HW129372   6.509   5.264   5.858
 9491SOL    HW229373   6.556   5.416   5.822
 9492SOL     OW29374   2.940   3.932   1.529
 9492SOL    HW129375   3.015   3.929   1.596
 9492SOL    HW229376   2.863   3.879   1.563
 9493SOL     OW29377   5.528   6.169   2.981
 9493SOL    HW129378   5.609   6.181   2.923
 9493SOL    HW229379   5.453   6.132   2.926
 9494SOL     OW29380   3.897   3.467   5.954
 9494SOL    HW129381   3.861   3.427   5.870
 9494SOL    HW229382   3.989   3.433   5.971
 9495SOL     OW29383   5.774   2.615   5.012
 9495SOL    HW129384   5.846   2.622   5.081
 9495SOL    HW229385   5.695   2.669   5.041
 9496SOL     OW29386   5.576   3.949   0.255
 9496SOL    HW129387   5.634   3.972   0.333
 9496SOL    HW229388   5.626   3.964   0.170
 9497SOL     OW29389   6.986   6.666   6.006
 9497SOL    HW129390   6.886   6.673   6.002
 9497SOL    HW229391   7.021   6.725   6.079
 9498SOL     OW29392   4.063   0.076   5.945
 9498SOL    HW129393   4.068   0.032   5.855
 9498SOL    HW229394   4.155   0.080   5.985
 9499SOL     OW29395   4.975   4.110   6.248
 9499SOL    HW129396   4.878   4.097   6.230
 9499SOL    HW229397   4.990   4.198   6.293
 9500SOL     OW29398   4.951   5.632   2.161
 9500SOL    HW129399   5.020   5.704   2.169
 9500SOL    HW229400   4.991   5.545   2.192
 9501SOL     OW29401   3.295   1.580   5.012
 9501SOL    HW129402   3.253   1.546   5.096
 9501SOL    HW229403   3.324   1.675   5.025
 9502SOL     OW29404   5.122   3.240   5.489
 9502SOL    HW129405   5.182   3.284   5.556
 9502SOL    HW229406   5.178   3.202   5.415
 9503SOL     OW29407   1.349   6.740   1.544
 9503SOL    HW129408   1.422   6.741   1.612
 9503SOL    HW229409   1.310   6.831   1.535
 9504SOL     OW29410   0.675   3.501   6.775
 9504SOL    HW129411   0.581   3.537   6.777
 9504SOL    HW229412   0.675   3.408   6.810
 9505SOL     OW29413   5.377   3.389   3.066
 9505SOL    HW129414   5.390   3.471   3.011
 9505SOL    HW229415   5.298   3.401   3.126
 9506SOL     OW29416   6.237   2.891   0.401
 9506SOL    HW129417   6.314   2.849   0.448
 9506SOL    HW229418   6.266   2.923   0.311
 9507SOL     OW29419   0.887   2.073   3.883
 9507SOL    HW129420   0.891   2.169   3.854
 9507SOL    HW229421   0.812   2.027   3.834
 9508SOL     OW29422   5.039   2.238   0.139
 9508SOL    HW129423   5.039   2.159   0.200
 9508SOL    HW229424   5.128   2.282   0.140
 9509SOL     OW29425   2.750   6.590   5.263
 9509SOL    HW129426   2.813   6.582   5.340
 9509SOL    HW229427   2.750   6.685   5.230
 9510SOL     OW29428   6.244   4.086   3.167
 9510SOL    HW129429   6.275   4.181   3.180
 9510SOL    HW229430   6.151   4.087   3.129
 9511SOL     OW29431   1.681   1.296   0.756
 9511SOL    HW129432   1.657   1.386   0.720
 9511SOL    HW229433   1.633   1.281   0.843
 9512SOL     OW29434   1.490   2.519   4.353
 9512SOL    HW129435   1.576   2.476   4.325
 9512SOL    HW229436   1.428   2.523   4.275
 9513SOL     OW29437   2.445   4.445   4.030
 9513SOL    HW129438   2.523   4.504   4.010
 9513SOL    HW229439   2.445   4.368   3.966
 9514SOL     OW29440   2.535   2.755   6.197
 9514SOL    HW129441   2.513   2.815   6.275
 9514SOL    HW229442   2.633   2.735   6.197
 9515SOL     OW29443   2.718   5.693   5.457
 9515SOL    HW129444   2.674   5.609   5.488
 9515SOL    HW229445   2.781   5.671   5.383
 9516SOL     OW29446   5.655   4.114   4.871
 9516SOL    HW129447   5.587   4.071   4.930
 9516SOL    HW229448   5.736   4.055   4.865
 9517SOL     OW29449   0.912   5.884   2.080
 9517SOL    HW129450   0.951   5.807   2.030
 9517SOL    HW229451   0.882   5.855   2.171
 9518SOL     OW29452   0.843   3.076   5.496
 9518SOL    HW129453   0.876   3.004   5.435
 9518SOL    HW229454   0.920   3.112   5.549
 9519SOL     OW29455   3.900   3.533   3.007
 9519SOL    HW129456   3.980   3.499   2.959
 9519SOL    HW229457   3.928   3.601   3.075
 9520SOL     OW29458   4.957   0.645   6.023
 9520SOL    HW129459   4.934   0.629   6.119
 9520SOL    HW229460   4.873   0.644   5.969
 9521SOL     OW29461   3.577   0.914   1.120
 9521SOL    HW129462   3.663   0.965   1.118
 9521SOL    HW229463   3.502   0.972   1.087
 9522SOL     OW29464   3.223   6.222   2.664
 9522SOL    HW129465   3.322   6.228   2.656
 9522SOL    HW229466   3.198   6.183   2.752
 9523SOL     OW29467   2.926   4.803   3.926
 9523SOL    HW129468   3.010   4.854   3.942
 9523SOL    HW229469   2.873   4.799   4.010
 9524SOL     OW29470   2.400   3.898   0.862
 9524SOL    HW129471   2.495   3.896   0.832
 9524SOL    HW229472   2.341   3.860   0.791
 9525SOL     OW29473   2.501   3.268   5.368
 9525SOL    HW129474   2.493   3.192   5.304
 9525SOL    HW229475   2.550   3.237   5.450
 9526SOL     OW29476   5.423   4.999   0.121
 9526SOL    HW129477   5.470   4.938   0.057
 9526SOL    HW229478   5.438   4.967   0.214
 9527SOL     OW29479   4.126   0.116   3.753
 9527SOL    HW129480   4.194   0.120   3.826
 9527SOL    HW229481   4.040   0.080   3.790
 9528SOL     OW29482   5.442   2.289   0.469
 9528SOL    HW129483   5.413   2.382   0.491
 9528SOL    HW229484   5.501   2.291   0.388
 9529SOL     OW29485   5.859   1.109   1.330
 9529SOL    HW129486   5.815   1.020   1.317
 9529SOL    HW229487   5.888   1.118   1.425
 9530SOL     OW29488   1.841   5.638   3.804
 9530SOL    HW129489   1.771   5.694   3.849
 9530SOL    HW229490   1.885   5.691   3.732
 9531SOL     OW29491   3.480   5.707   2.746
 9531SOL    HW129492   3.495   5.764   2.827
 9531SOL    HW229493   3.531   5.745   2.669
 9532SOL     OW29494   6.736   5.343   3.046
 9532SOL    HW129495   6.781   5.433   3.046
 9532SOL    HW229496   6.805   5.271   3.037
 9533SOL     OW29497   1.427   3.788   3.567
 9533SOL    HW129498   1.394   3.819   3.656
 9533SOL    HW229499   1.491   3.855   3.530
 9534SOL     OW29500   5.638   4.949   4.310
 9534SOL    HW129501   5.592   5.003   4.380
 9534SOL    HW229502   5.737   4.960   4.318
 9535SOL     OW29503   0.548   1.752   5.338
 9535SOL    HW129504   0.634   1.780   5.380
 9535SOL    HW229505   0.543   1.790   5.245
 9536SOL     OW29506   3.452   3.943   4.925
 9536SOL    HW129507   3.411   3.928   5.014
 9536SOL    HW229508   3.482   4.038   4.917
 9537SOL     OW29509   0.071   2.021   3.996
 9537SOL    HW129510   0.115   2.080   4.063
 9537SOL    HW229511   0.066   1.928   4.031
 9538SOL     OW29512   4.834   0.483   4.958
 9538SOL    HW129513   4.795   0.497   4.867
 9538SOL    HW229514   4.781   0.534   5.026
 9539SOL     OW29515   2.926   3.738   1.841
 9539SOL    HW129516   3.010   3.780   1.808
 9539SOL    HW229517   2.851   3.761   1.780
 9540SOL     OW29518   4.434   4.741   3.495
 9540SOL    HW129519   4.456   4.822   3.439
 9540SOL    HW229520   4.424   4.768   3.590
 9541SOL     OW29521   2.528   5.896   5.171
 9541SOL    HW129522   2.488   5.856   5.089
 9541SOL    HW229523   2.612   5.945   5.148
 9542SOL     OW29524   6.302   4.367   4.071
 9542SOL    HW129525   6.287   4.369   4.170
 9542SOL    HW229526   6.232   4.309   4.028
 9543SOL     OW29527   2.501   6.936   5.997
 9543SOL    HW129528   2.585   6.921   6.050
 9543SOL    HW229529   2.424   6.894   6.044
 9544SOL     OW29530   5.965   3.339   4.371
 9544SOL    HW129531   6.015   3.323   4.456
 9544SOL    HW229532   5.884   3.395   4.390
 9545SOL     OW29533   0.277   4.336   1.673
 9545SOL    HW129534   0.254   4.433   1.676
 9545SOL    HW229535   0.374   4.326   1.651
 9546SOL     OW29536   2.391   2.912   0.373
 9546SOL    HW129537   2.337   2.929   0.455
 9546SOL    HW229538   2.478   2.870   0.398
 9547SOL     OW29539   3.897   6.903   3.740
 9547SOL    HW129540   3.903   6.978   3.674
 9547SOL    HW229541   3.897   6.941   3.833
 9548SOL     OW29542   1.476   5.147   6.803
 9548SOL    HW129543   1.410   5.136   6.877
 9548SOL    HW229544   1.429   5.180   6.721
 9549SOL     OW29545   4.848   2.074   0.546
 9549SOL    HW129546   4.906   2.014   0.600
 9549SOL    HW229547   4.803   2.140   0.606
 9550SOL     OW29548   5.291   3.352   1.700
 9550SOL    HW129549   5.194   3.375   1.697
 9550SOL    HW229550   5.315   3.297   1.621
 9551SOL     OW29551   6.524   3.678   6.344
 9551SOL    HW129552   6.608   3.624   6.352
 9551SOL    HW229553   6.447   3.624   6.378
 9552SOL     OW29554   3.287   1.812   6.888
 9552SOL    HW129555   3.288   1.874   6.967
 9552SOL    HW229556   3.206   1.754   6.893
 9553SOL     OW29557   5.287   1.689   6.291
 9553SOL    HW129558   5.324   1.782   6.283
 9553SOL    HW229559   5.193   1.694   6.326
 9554SOL     OW29560   3.309   0.894   4.089
 9554SOL    HW129561   3.342   0.948   4.012
 9554SOL    HW229562   3.263   0.812   4.055
 9555SOL     OW29563   6.749   0.405   3.818
 9555SOL    HW129564   6.737   0.348   3.899
 9555SOL    HW229565   6.826   0.467   3.833
 9556SOL     OW29566   1.825   4.714   6.616
 9556SOL    HW129567   1.846   4.620   6.644
 9556SOL    HW229568   1.730   4.720   6.585
 9557SOL     OW29569   4.898   0.773   1.704
 9557SOL    HW129570   4.885   0.737   1.797
 9557SOL    HW229571   4.883   0.699   1.638
 9558SOL     OW29572   4.899   6.932   6.760
 9558SOL    HW129573   4.817   6.883   6.732
 9558SOL    HW229574   4.973   6.867   6.779
 9559SOL     OW29575   1.675   4.420   0.093
 9559SOL    HW129576   1.701   4.327   0.119
 9559SOL    HW229577   1.715   4.485   0.157
 9560SOL     OW29578   3.265   6.952   2.341
 9560SOL    HW129579   3.302   6.951   2.248
 9560SOL    HW229580   3.287   0.013   2.385
 9561SOL     OW29581   0.929   0.412   0.349
 9561SOL    HW129582   0.970   0.321   0.351
 9561SOL    HW229583   0.994   0.479   0.386
 9562SOL     OW29584   2.680   6.222   2.898
 9562SOL    HW129585   2.630   6.301   2.932
 9562SOL    HW229586   2.624   6.171   2.833
 9563SOL     OW29587   0.406   6.003   0.663
 9563SOL    HW129588   0.432   5.908   0.679
 9563SOL    HW229589   0.308   6.007   0.642
 9564SOL     OW29590   1.272   0.720   0.041
 9564SOL    HW129591   1.177   0.749   0.024
 9564SOL    HW229592   1.304   0.666   6.989
 9565SOL     OW29593   3.097   1.795   4.061
 9565SOL    HW129594   3.192   1.762   4.055
 9565SOL    HW229595   3.097   1.888   4.100
 9566SOL     OW29596   3.192   0.701   6.835
 9566SOL    HW129597   3.266   0.720   6.899
 9566SOL    HW229598   3.230   0.669   6.748
 9567SOL     OW29599   0.113   3.572   1.211
 9567SOL    HW129600   0.054   3.496   1.184
 9567SOL    HW229601   0.130   3.568   1.309
 9568SOL     OW29602   4.894   1.471   6.784
 9568SOL    HW129603   4.985   1.483   6.825
 9568SOL    HW229604   4.831   1.439   6.855
 9569SOL     OW29605   5.627   0.734   1.917
 9569SOL    HW129606   5.639   0.709   2.013
 9569SOL    HW229607   5.715   0.725   1.870
 9570SOL     OW29608   0.603   2.952   1.774
 9570SOL    HW129609   0.617   2.958   1.873
 9570SOL    HW229610   0.690   2.935   1.729
 9571SOL     OW29611   1.948   2.235   6.733
 9571SOL    HW129612   1.951   2.293   6.814
 9571SOL    HW229613   1.855   2.232   6.696
 9572SOL     OW29614   2.346   4.242   3.839
 9572SOL    HW129615   2.302   4.192   3.764
 9572SOL    HW229616   2.307   4.212   3.926
 9573SOL     OW29617   6.559   0.807   4.695
 9573SOL    HW129618   6.524   0.715   4.682
 9573SOL    HW229619   6.503   0.871   4.641
 9574SOL     OW29620   3.448   3.253   1.211
 9574SOL    HW129621   3.464   3.164   1.169
 9574SOL    HW229622   3.351   3.274   1.209
 9575SOL     OW29623   6.124   6.656   1.296
 9575SOL    HW129624   6.109   6.697   1.206
 9575SOL    HW229625   6.087   6.563   1.297
 9576SOL     OW29626   1.260   6.965   6.932
 9576SOL    HW129627   1.189   6.894   6.928
 9576SOL    HW229628   1.345   6.929   6.894
 9577SOL     OW29629   6.163   5.001   2.470
 9577SOL    HW129630   6.180   5.081   2.413
 9577SOL    HW229631   6.184   5.023   2.565
 9578SOL     OW29632   2.215   2.982   2.621
 9578SOL    HW129633   2.205   3.059   2.558
 9578SOL    HW229634   2.221   3.016   2.715
 9579SOL     OW29635   5.980   5.638   1.975
 9579SOL    HW129636   5.902   5.604   2.025
 9579SOL    HW229637   5.992   5.736   1.993
 9580SOL     OW29638   5.244   4.562   2.958
 9580SOL    HW129639   5.177   4.615   3.009
 9580SOL    HW229640   5.203   4.476   2.928
 9581SOL     OW29641   6.253   0.961   0.216
 9581SOL    HW129642   6.158   0.976   0.243
 9581SOL    HW229643   6.308   1.041   0.241
 9582SOL     OW29644   4.660   6.070   4.274
 9582SOL    HW129645   4.589   6.129   4.235
 9582SOL    HW229646   4.620   5.982   4.298
 9583SOL     OW29647   3.852   4.652   1.695
 9583SOL    HW129648   3.766   4.648   1.745
 9583SOL    HW229649   3.867   4.567   1.646
 9584SOL     OW29650   2.586   5.371   4.442
 9584SOL    HW129651   2.547   5.462   4.453
 9584SOL    HW229652   2.675   5.367   4.489
 9585SOL     OW29653   4.415   5.989   0.929
 9585SOL    HW129654   4.363   5.904   0.936
 9585SOL    HW229655   4.370   6.060   0.984
 9586SOL     OW29656   4.041   4.972   2.854
 9586SOL    HW129657   3.941   4.976   2.844
 9586SOL    HW229658   4.077   4.898   2.798
 9587SOL     OW29659   2.659   5.424   1.894
 9587SOL    HW129660   2.609   5.352   1.941
 9587SOL    HW229661   2.705   5.482   1.962
 9588SOL     OW29662   6.752   5.020   0.501
 9588SOL    HW129663   6.783   4.937   0.454
 9588SOL    HW229664   6.657   5.008   0.530
 9589SOL     OW29665   1.605   3.772   6.415
 9589SOL    HW129666   1.698   3.804   6.434
 9589SOL    HW229667   1.587   3.688   6.467
 9590SOL     OW29668   5.860   0.994   0.941
 9590SOL    HW129669   5.831   1.065   0.876
 9590SOL    HW229670   5.958   0.978   0.931
 9591SOL     OW29671   4.258   0.782   7.024
 9591SOL    HW129672   4.202   0.724   0.056
 9591SOL    HW229673   4.203   0.857   6.989
 9592SOL     OW29674   2.452   6.147   5.647
 9592SOL    HW129675   2.433   6.172   5.742
 9592SOL    HW229676   2.368   6.153   5.593
 9593SOL     OW29677   1.723   1.320   4.240
 9593SOL    HW129678   1.668   1.298   4.320
 9593SOL    HW229679   1.764   1.236   4.205
 9594SOL     OW29680   0.189   6.950   3.869
 9594SOL    HW129681   0.286   6.964   3.889
 9594SOL    HW229682   0.175   6.858   3.832
 9595SOL     OW29683   0.422   3.346   3.268
 9595SOL    HW129684   0.471   3.328   3.353
 9595SOL    HW229685   0.358   3.422   3.281
 9596SOL     OW29686   0.441   6.978   0.929
 9596SOL    HW129687   0.371   6.943   0.991
 9596SOL    HW229688   0.528   6.985   0.978
 9597SOL     OW29689   0.816   3.216   2.564
 9597SOL    HW129690   0.807   3.253   2.472
 9597SOL    HW229691   0.740   3.153   2.582
 9598SOL     OW29692   1.863   3.818   3.624
 9598SOL    HW129693   1.955   3.851   3.645
 9598SOL    HW229694   1.820   3.783   3.708
 9599SOL     OW29695   4.202   6.793   3.538
 9599SOL    HW129696   4.107   6.764   3.544
 9599SOL    HW229697   4.229   6.837   3.624
 9600SOL     OW29698   3.014   0.784   1.798
 9600SOL    HW129699   2.968   0.734   1.871
 9600SOL    HW229700   3.067   0.859   1.838
 9601SOL     OW29701   0.376   4.005   1.522
 9601SOL    HW129702   0.279   3.982   1.523
 9601SOL    HW229703   0.424   3.949   1.590
 9602SOL     OW29704   4.339   5.059   5.469
 9602SOL    HW129705   4.301   5.015   5.551
 9602SOL    HW229706   4.267   5.067   5.400
 9603SOL     OW29707   5.011   5.586   5.098
 9603SOL    HW129708   5.088   5.649   5.101
 9603SOL    HW229709   5.045   5.492   5.098
 9604SOL     OW29710   5.168   6.462   0.122
 9604SOL    HW129711   5.174   6.562   0.126
 9604SOL    HW229712   5.192   6.431   0.030
 9605SOL     OW29713   6.486   6.241   2.575
 9605SOL    HW129714   6.404   6.297   2.569
 9605SOL    HW229715   6.462   6.151   2.611
 9606SOL     OW29716   1.450   1.652   6.557
 9606SOL    HW129717   1.478   1.742   6.523
 9606SOL    HW229718   1.351   1.650   6.568
 9607SOL     OW29719   3.218   2.793   6.153
 9607SOL    HW129720   3.280   2.797   6.232
 9607SOL    HW229721   3.250   2.854   6.081
 9608SOL     OW29722   6.656   3.572   3.954
 9608SOL    HW129723   6.589   3.643   3.931
 9608SOL    HW229724   6.631   3.486   3.908
 9609SOL     OW29725   4.467   3.298   6.532
 9609SOL    HW129726   4.496   3.334   6.621
 9609SOL    HW229727   4.399   3.226   6.546
 9610SOL     OW29728   1.255   4.373   3.341
 9610SOL    HW129729   1.335   4.343   3.289
 9610SOL    HW229730   1.284   4.405   3.431
 9611SOL     OW29731   1.589   0.048   0.418
 9611SOL    HW129732   1.614   0.100   0.337
 9611SOL    HW229733   1.514   7.011   0.396
 9612SOL     OW29734   0.055   2.967   3.632
 9612SOL    HW129735   0.012   2.881   3.604
 9612SOL    HW229736   0.063   2.969   3.732
 9613SOL     OW29737   5.804   5.635   3.705
 9613SOL    HW129738   5.738   5.563   3.725
 9613SOL    HW229739   5.823   5.687   3.788
 9614SOL     OW29740   4.854   2.522   3.431
 9614SOL    HW129741   4.793   2.529   3.353
 9614SOL    HW229742   4.840   2.600   3.492
 9615SOL     OW29743   2.398   3.621   1.006
 9615SOL    HW129744   2.391   3.720   1.000
 9615SOL    HW229745   2.395   3.592   1.101
 9616SOL     OW29746   4.393   3.437   0.063
 9616SOL    HW129747   4.435   3.364   0.008
 9616SOL    HW229748   4.341   3.498   0.003
 9617SOL     OW29749   2.096   2.156   3.948
 9617SOL    HW129750   2.029   2.209   3.999
 9617SOL    HW229751   2.162   2.218   3.906
 9618SOL     OW29752   2.837   1.562   0.794
 9618SOL    HW129753   2.916   1.621   0.780
 9618SOL    HW229754   2.756   1.618   0.812
 9619SOL     OW29755   2.901   1.196   4.883
 9619SOL    HW129756   2.986   1.229   4.843
 9619SOL    HW229757   2.849   1.274   4.919
 9620SOL     OW29758   5.997   0.692   5.863
 9620SOL    HW129759   6.034   0.665   5.774
 9620SOL    HW229760   5.924   0.759   5.850
 9621SOL     OW29761   1.842   2.619   3.267
 9621SOL    HW129762   1.811   2.650   3.177
 9621SOL    HW229763   1.928   2.570   3.257
 9622SOL     OW29764   5.635   6.981   1.215
 9622SOL    HW129765   5.704   6.950   1.150
 9622SOL    HW229766   5.634   0.055   1.217
 9623SOL     OW29767   2.725   3.750   6.255
 9623SOL    HW129768   2.647   3.691   6.231
 9623SOL    HW229769   2.785   3.701   6.318
 9624SOL     OW29770   6.267   3.540   3.658
 9624SOL    HW129771   6.362   3.547   3.629
 9624SOL    HW229772   6.263   3.519   3.756
 9625SOL     OW29773   6.081   5.973   0.310
 9625SOL    HW129774   6.039   6.060   0.285
 9625SOL    HW229775   6.174   5.969   0.273
 9626SOL     OW29776   2.887   6.447   6.459
 9626SOL    HW129777   2.806   6.404   6.418
 9626SOL    HW229778   2.858   6.527   6.511
 9627SOL     OW29779   1.332   6.603   6.701
 9627SOL    HW129780   1.248   6.549   6.694
 9627SOL    HW229781   1.361   6.632   6.610
 9628SOL     OW29782   4.083   6.253   2.189
 9628SOL    HW129783   4.010   6.191   2.216
 9628SOL    HW229784   4.044   6.337   2.151
 9629SOL     OW29785   2.542   6.667   0.942
 9629SOL    HW129786   2.459   6.612   0.946
 9629SOL    HW229787   2.558   6.710   1.031
 9630SOL     OW29788   6.494   0.854   6.381
 9630SOL    HW129789   6.417   0.915   6.399
 9630SOL    HW229790   6.463   0.778   6.324
 9631SOL     OW29791   5.856   6.160   0.275
 9631SOL    HW129792   5.860   6.251   0.316
 9631SOL    HW229793   5.772   6.152   0.221
 9632SOL     OW29794   1.519   6.299   2.213
 9632SOL    HW129795   1.593   6.266   2.154
 9632SOL    HW229796   1.553   6.371   2.273
 9633SOL     OW29797   6.767   5.387   6.289
 9633SOL    HW129798   6.747   5.437   6.373
 9633SOL    HW229799   6.829   5.311   6.309
 9634SOL     OW29800   1.077   5.863   4.884
 9634SOL    HW129801   1.155   5.920   4.859
 9634SOL    HW229802   1.093   5.769   4.855
 9635SOL     OW29803   1.637   5.130   5.528
 9635SOL    HW129804   1.706   5.170   5.469
 9635SOL    HW229805   1.673   5.047   5.571
 9636SOL     OW29806   4.101   1.618   6.703
 9636SOL    HW129807   4.170   1.659   6.762
 9636SOL    HW229808   4.133   1.529   6.671
 9637SOL     OW29809   2.263   1.104   0.189
 9637SOL    HW129810   2.267   1.097   0.089
 9637SOL    HW229811   2.187   1.163   0.215
 9638SOL     OW29812   7.008   2.242   5.471
 9638SOL    HW129813   7.001   2.283   5.381
 9638SOL    HW229814   6.931   2.179   5.486
 9639SOL     OW29815   4.035   0.860   2.727
 9639SOL    HW129816   4.132   0.880   2.719
 9639SOL    HW229817   3.999   0.900   2.811
 9640SOL     OW29818   2.113   2.540   2.307
 9640SOL    HW129819   2.018   2.573   2.309
 9640SOL    HW229820   2.170   2.608   2.261
 9641SOL     OW29821   6.164   5.517   0.330
 9641SOL    HW129822   6.134   5.601   0.376
 9641SOL    HW229823   6.118   5.438   0.371
 9642SOL     OW29824   3.363   0.200   4.236
 9642SOL    HW129825   3.448   0.231   4.278
 9642SOL    HW229826   3.384   0.140   4.159
 9643SOL     OW29827   4.264   4.656   3.283
 9643SOL    HW129828   4.330   4.606   3.227
 9643SOL    HW229829   4.305   4.677   3.372
 9644SOL     OW29830   2.476   1.823   6.633
 9644SOL    HW129831   2.432   1.875   6.706
 9644SOL    HW229832   2.543   1.761   6.672
 9645SOL     OW29833   2.924   5.284   5.113
 9645SOL    HW129834   2.935   5.224   5.193
 9645SOL    HW229835   2.835   5.265   5.070
 9646SOL     OW29836   4.105   5.432   3.421
 9646SOL    HW129837   4.073   5.526   3.437
 9646SOL    HW229838   4.093   5.408   3.325
 9647SOL     OW29839   6.813   2.878   0.226
 9647SOL    HW129840   6.820   2.945   0.152
 9647SOL    HW229841   6.731   2.822   0.212
 9648SOL     OW29842   4.445   3.580   0.970
 9648SOL    HW129843   4.400   3.519   0.904
 9648SOL    HW229844   4.376   3.617   1.033
 9649SOL     OW29845   2.194   5.706   0.630
 9649SOL    HW129846   2.256   5.639   0.591
 9649SOL    HW229847   2.154   5.761   0.556
 9650SOL     OW29848   6.933   6.930   1.962
 9650SOL    HW129849   7.016   6.920   2.017
 9650SOL    HW229850   6.948   7.000   1.892
 9651SOL     OW29851   0.542   1.857   5.074
 9651SOL    HW129852   0.462   1.917   5.079
 9651SOL    HW229853   0.570   1.847   4.979
 9652SOL     OW29854   0.419   5.690   2.614
 9652SOL    HW129855   0.388   5.635   2.537
 9652SOL    HW229856   0.470   5.632   2.678
 9653SOL     OW29857   6.253   5.426   4.193
 9653SOL    HW129858   6.196   5.458   4.269
 9653SOL    HW229859   6.330   5.489   4.182
 9654SOL     OW29860   2.276   2.766   2.239
 9654SOL    HW129861   2.314   2.754   2.147
 9654SOL    HW229862   2.251   2.862   2.252
 9655SOL     OW29863   5.986   2.357   6.933
 9655SOL    HW129864   5.966   2.267   6.895
 9655SOL    HW229865   6.055   2.403   6.877
 9656SOL     OW29866   3.744   0.610   2.870
 9656SOL    HW129867   3.735   0.667   2.789
 9656SOL    HW229868   3.796   0.659   2.940
 9657SOL     OW29869   0.296   0.234   4.984
 9657SOL    HW129870   0.287   0.276   5.074
 9657SOL    HW229871   0.385   0.189   4.977
 9658SOL     OW29872   5.896   2.408   2.923
 9658SOL    HW129873   5.987   2.433   2.890
 9658SOL    HW229874   5.898   2.393   3.021
 9659SOL     OW29875   0.710   5.236   6.868
 9659SOL    HW129876   0.653   5.171   6.818
 9659SOL    HW229877   0.666   5.326   6.867
 9660SOL     OW29878   0.490   5.159   0.673
 9660SOL    HW129879   0.421   5.153   0.601
 9660SOL    HW229880   0.487   5.250   0.715
 9661SOL     OW29881   4.569   6.340   1.029
 9661SOL    HW129882   4.597   6.390   1.111
 9661SOL    HW229883   4.503   6.394   0.978
 9662SOL     OW29884   4.811   0.839   4.586
 9662SOL    HW129885   4.855   0.868   4.501
 9662SOL    HW229886   4.880   0.802   4.648
 9663SOL     OW29887   2.286   5.994   3.229
 9663SOL    HW129888   2.297   6.094   3.228
 9663SOL    HW229889   2.328   5.957   3.312
 9664SOL     OW29890   2.343   5.839   1.631
 9664SOL    HW129891   2.348   5.826   1.730
 9664SOL    HW229892   2.275   5.908   1.609
 9665SOL     OW29893   5.153   4.126   4.329
 9665SOL    HW129894   5.167   4.029   4.349
 9665SOL    HW229895   5.227   4.159   4.270
 9666SOL     OW29896   5.688   4.800   4.643
 9666SOL    HW129897   5.663   4.732   4.574
 9666SOL    HW229898   5.613   4.809   4.709
 9667SOL     OW29899   3.737   4.103   3.596
 9667SOL    HW129900   3.821   4.049   3.607
 9667SOL    HW229901   3.713   4.109   3.499
 9668SOL     OW29902   0.521   1.215   4.835
 9668SOL    HW129903   0.568   1.132   4.866
 9668SOL    HW229904   0.512   1.278   4.912
 9669SOL     OW29905   1.878   5.943   0.223
 9669SOL    HW129906   1.822   5.880   0.276
 9669SOL    HW229907   1.952   5.979   0.280
 9670SOL     OW29908   6.137   4.589   6.595
 9670SOL    HW129909   6.206   4.519   6.578
 9670SOL    HW229910   6.163   4.644   6.675
 9671SOL     OW29911   0.389   0.286   0.002
 9671SOL    HW129912   0.345   0.259   0.088
 9671SOL    HW229913   0.479   0.324   0.021
 9672SOL     OW29914   0.885   6.445   4.939
 9672SOL    HW129915   0.958   6.378   4.925
 9672SOL    HW229916   0.797   6.400   4.927
 9673SOL     OW29917   2.682   2.428   6.411
 9673SOL    HW129918   2.631   2.384   6.337
 9673SOL    HW229919   2.618   2.468   6.477
 9674SOL     OW29920   2.835   0.154   2.071
 9674SOL    HW129921   2.906   0.112   2.129
 9674SOL    HW229922   2.846   0.121   1.977
 9675SOL     OW29923   0.165   3.235   1.899
 9675SOL    HW129924   0.130   3.216   1.807
 9675SOL    HW229925   0.129   3.322   1.931
 9676SOL     OW29926   0.335   3.462   4.703
 9676SOL    HW129927   0.366   3.450   4.798
 9676SOL    HW229928   0.414   3.463   4.642
 9677SOL     OW29929   2.040   3.415   4.905
 9677SOL    HW129930   1.950   3.374   4.895
 9677SOL    HW229931   2.067   3.414   5.001
 9678SOL     OW29932   4.160   3.387   3.104
 9678SOL    HW129933   4.119   3.409   3.193
 9678SOL    HW229934   4.135   3.293   3.079
 9679SOL     OW29935   1.037   3.340   1.094
 9679SOL    HW129936   1.021   3.415   1.031
 9679SOL    HW229937   0.980   3.262   1.068
 9680SOL     OW29938   5.657   5.059   3.239
 9680SOL    HW129939   5.680   5.026   3.330
 9680SOL    HW229940   5.710   5.142   3.218
 9681SOL     OW29941   1.041   1.347   3.990
 9681SOL    HW129942   1.134   1.324   4.018
 9681SOL    HW229943   0.983   1.266   3.997
 9682SOL     OW29944   6.924   4.777   2.909
 9682SOL    HW129945   6.836   4.739   2.880
 9682SOL    HW229946   6.999   4.721   2.874
 9683SOL     OW29947   4.467   6.291   6.053
 9683SOL    HW129948   4.527   6.359   6.011
 9683SOL    HW229949   4.521   6.212   6.083
 9684SOL     OW29950   0.853   4.461   3.671
 9684SOL    HW129951   0.865   4.381   3.731
 9684SOL    HW229952   0.771   4.511   3.697
 9685SOL     OW29953   1.928   2.106   0.214
 9685SOL    HW129954   1.890   2.190   0.254
 9685SOL    HW229955   1.857   2.035   0.213
 9686SOL     OW29956   5.467   0.528   1.813
 9686SOL    HW129957   5.370   0.548   1.807
 9686SOL    HW229958   5.516   0.608   1.848
 9687SOL     OW29959   3.494   0.463   3.723
 9687SOL    HW129960   3.445   0.550   3.717
 9687SOL    HW229961   3.455   0.397   3.659
 9688SOL     OW29962   6.792   1.922   3.659
 9688SOL    HW129963   6.838   1.969   3.734
 9688SOL    HW229964   6.833   1.832   3.646
 9689SOL     OW29965   2.029   5.848   5.967
 9689SOL    HW129966   2.015   5.845   5.868
 9689SOL    HW229967   2.126   5.835   5.987
 9690SOL     OW29968   6.224   4.156   0.721
 9690SOL    HW129969   6.250   4.189   0.812
 9690SOL    HW229970   6.137   4.196   0.695
 9691SOL     OW29971   1.546   4.252   1.511
 9691SOL    HW129972   1.487   4.283   1.436
 9691SOL    HW229973   1.521   4.300   1.595
 9692SOL     OW29974   2.190   5.822   1.325
 9692SOL    HW129975   2.158   5.917   1.323
 9692SOL    HW229976   2.284   5.819   1.291
 9693SOL     OW29977   5.965   5.535   1.739
 9693SOL    HW129978   5.968   5.572   1.832
 9693SOL    HW229979   6.058   5.535   1.701
 9694SOL     OW29980   2.414   2.239   0.201
 9694SOL    HW129981   2.408   2.302   0.279
 9694SOL    HW229982   2.510   2.217   0.183
 9695SOL     OW29983   6.001   4.294   1.454
 9695SOL    HW129984   6.000   4.204   1.411
 9695SOL    HW229985   6.031   4.286   1.549
 9696SOL     OW29986   3.733   3.984   0.975
 9696SOL    HW129987   3.669   3.946   1.042
 9696SOL    HW229988   3.802   3.915   0.952
 9697SOL     OW29989   0.569   5.972   6.782
 9697SOL    HW129990   0.617   6.042   6.728
 9697SOL    HW229991   0.477   6.005   6.805
 9698SOL     OW29992   5.712   1.832   5.326
 9698SOL    HW129993   5.700   1.899   5.399
 9698SOL    HW229994   5.682   1.742   5.357
 9699SOL     OW29995   2.048   3.174   0.570
 9699SOL    HW129996   2.096   3.205   0.489
 9699SOL    HW229997   1.967   3.122   0.543
 9700SOL     OW29998   2.924   3.758   4.337
 9700SOL    HW129999   2.913   3.744   4.435
 9700SOL    HW230000   2.966   3.847   4.320
 9701SOL     OW30001   5.502   3.913   5.080
 9701SOL    HW130002   5.459   3.887   5.167
 9701SOL    HW230003   5.553   3.835   5.044
 9702SOL     OW30004   4.158   0.660   0.989
 9702SOL    HW130005   4.127   0.565   0.987
 9702SOL    HW230006   4.105   0.711   1.057
 9703SOL     OW30007   2.870   6.444   4.098
 9703SOL    HW130008   2.868   6.463   4.000
 9703SOL    HW230009   2.949   6.387   4.120
 9704SOL     OW30010   2.598   0.423   3.492
 9704SOL    HW130011   2.649   0.509   3.495
 9704SOL    HW230012   2.630   0.368   3.415
 9705SOL     OW30013   3.482   3.984   0.697
 9705SOL    HW130014   3.485   3.965   0.598
 9705SOL    HW230015   3.564   4.035   0.723
 9706SOL     OW30016   5.764   2.624   2.809
 9706SOL    HW130017   5.672   2.588   2.821
 9706SOL    HW230018   5.828   2.548   2.797
 9707SOL     OW30019   2.826   5.168   3.211
 9707SOL    HW130020   2.762   5.104   3.169
 9707SOL    HW230021   2.920   5.138   3.192
 9708SOL     OW30022   2.109   1.934   2.632
 9708SOL    HW130023   2.034   1.997   2.651
 9708SOL    HW230024   2.098   1.896   2.540
 9709SOL     OW30025   1.780   4.697   2.757
 9709SOL    HW130026   1.773   4.602   2.787
 9709SOL    HW230027   1.876   4.722   2.749
 9710SOL     OW30028   0.160   0.662   3.724
 9710SOL    HW130029   0.203   0.644   3.635
 9710SOL    HW230030   0.129   0.757   3.728
 9711SOL     OW30031   1.538   4.053   5.574
 9711SOL    HW130032   1.456   4.109   5.564
 9711SOL    HW230033   1.578   4.035   5.484
 9712SOL     OW30034   4.643   2.667   4.621
 9712SOL    HW130035   4.733   2.655   4.663
 9712SOL    HW230036   4.573   2.630   4.682
 9713SOL     OW30037   6.648   5.210   2.165
 9713SOL    HW130038   6.735   5.199   2.215
 9713SOL    HW230039   6.581   5.254   2.225
 9714SOL     OW30040   1.517   2.547   1.956
 9714SOL    HW130041   1.565   2.611   2.016
 9714SOL    HW230042   1.500   2.462   2.005
 9715SOL     OW30043   5.492   5.444   4.693
 9715SOL    HW130044   5.446   5.426   4.606
 9715SOL    HW230045   5.447   5.393   4.766
 9716SOL     OW30046   4.113   2.096   6.853
 9716SOL    HW130047   4.153   2.004   6.858
 9716SOL    HW230048   4.085   2.115   6.759
 9717SOL     OW30049   5.961   4.586   3.091
 9717SOL    HW130050   5.864   4.605   3.078
 9717SOL    HW230051   6.011   4.613   3.008
 9718SOL     OW30052   4.331   3.571   1.748
 9718SOL    HW130053   4.420   3.536   1.718
 9718SOL    HW230054   4.300   3.644   1.687
 9719SOL     OW30055   0.589   1.509   0.618
 9719SOL    HW130056   0.621   1.601   0.642
 9719SOL    HW230057   0.533   1.473   0.692
 9720SOL     OW30058   0.557   0.510   1.188
 9720SOL    HW130059   0.641   0.525   1.239
 9720SOL    HW230060   0.483   0.563   1.230
 9721SOL     OW30061   6.722   3.274   2.798
 9721SOL    HW130062   6.637   3.234   2.765
 9721SOL    HW230063   6.706   3.318   2.886
 9722SOL     OW30064   6.999   0.370   4.310
 9722SOL    HW130065   6.901   0.358   4.294
 9722SOL    HW230066   7.021   0.340   4.403
 9723SOL     OW30067   6.848   1.507   3.517
 9723SOL    HW130068   6.850   1.407   3.520
 9723SOL    HW230069   6.759   1.537   3.483
 9724SOL     OW30070   3.983   3.071   1.205
 9724SOL    HW130071   4.001   3.042   1.299
 9724SOL    HW230072   3.891   3.108   1.198
 9725SOL     OW30073   4.343   3.213   5.853
 9725SOL    HW130074   4.417   3.215   5.785
 9725SOL    HW230075   4.381   3.196   5.944
 9726SOL     OW30076   5.589   5.634   4.855
 9726SOL    HW130077   5.561   5.546   4.819
 9726SOL    HW230078   5.526   5.705   4.823
 9727SOL     OW30079   1.345   2.080   6.359
 9727SOL    HW130080   1.268   2.046   6.305
 9727SOL    HW230081   1.373   2.170   6.325
 9728SOL     OW30082   3.124   5.850   0.121
 9728SOL    HW130083   3.050   5.822   0.061
 9728SOL    HW230084   3.206   5.796   0.101
 9729SOL     OW30085   3.025   5.495   2.656
 9729SOL    HW130086   3.077   5.560   2.711
 9729SOL    HW230087   3.080   5.464   2.579
 9730SOL     OW30088   6.145   3.739   2.890
 9730SOL    HW130089   6.134   3.836   2.865
 9730SOL    HW230090   6.170   3.732   2.987
 9731SOL     OW30091   4.981   5.314   1.203
 9731SOL    HW130092   4.942   5.397   1.242
 9731SOL    HW230093   4.933   5.291   1.118
 9732SOL     OW30094   6.533   5.368   3.307
 9732SOL    HW130095   6.437   5.379   3.335
 9732SOL    HW230096   6.592   5.417   3.371
 9733SOL     OW30097   5.242   4.188   6.754
 9733SOL    HW130098   5.324   4.132   6.764
 9733SOL    HW230099   5.185   4.151   6.680
 9734SOL     OW30100   5.136   2.318   4.609
 9734SOL    HW130101   5.170   2.303   4.702
 9734SOL    HW230102   5.213   2.337   4.548
 9735SOL     OW30103   1.878   3.927   0.036
 9735SOL    HW130104   1.822   3.855   7.021
 9735SOL    HW230105   1.934   3.887   0.108
 9736SOL     OW30106   3.495   1.412   1.279
 9736SOL    HW130107   3.546   1.447   1.358
 9736SOL    HW230108   3.430   1.342   1.309
 9737SOL     OW30109   4.020   2.208   5.094
 9737SOL    HW130110   4.001   2.196   4.997
 9737SOL    HW230111   4.085   2.282   5.108
 9738SOL     OW30112   1.790   0.723   2.219
 9738SOL    HW130113   1.693   0.721   2.241
 9738SOL    HW230114   1.810   0.658   2.145
 9739SOL     OW30115   5.147   5.105   2.007
 9739SOL    HW130116   5.231   5.114   2.061
 9739SOL    HW230117   5.166   5.130   1.912
 9740SOL     OW30118   6.572   3.696   3.594
 9740SOL    HW130119   6.663   3.732   3.612
 9740SOL    HW230120   6.575   3.631   3.519
 9741SOL     OW30121   3.850   1.908   1.691
 9741SOL    HW130122   3.828   1.998   1.654
 9741SOL    HW230123   3.843   1.911   1.791
 9742SOL     OW30124   4.563   1.604   4.133
 9742SOL    HW130125   4.621   1.639   4.059
 9742SOL    HW230126   4.473   1.648   4.128
 9743SOL     OW30127   1.749   2.322   5.502
 9743SOL    HW130128   1.709   2.238   5.465
 9743SOL    HW230129   1.845   2.305   5.525
 9744SOL     OW30130   1.990   0.528   1.835
 9744SOL    HW130131   2.077   0.562   1.800
 9744SOL    HW230132   1.934   0.494   1.760
 9745SOL     OW30133   0.033   1.708   4.736
 9745SOL    HW130134   6.976   1.746   4.775
 9745SOL    HW230135   0.080   1.777   4.682
 9746SOL     OW30136   5.914   1.472   3.986
 9746SOL    HW130137   5.824   1.442   4.018
 9746SOL    HW230138   5.976   1.394   3.982
 9747SOL     OW30139   0.639   6.905   6.967
 9747SOL    HW130140   0.669   6.994   6.930
 9747SOL    HW230141   0.615   6.844   6.892
 9748SOL     OW30142   0.516   5.331   4.140
 9748SOL    HW130143   0.503   5.430   4.135
 9748SOL    HW230144   0.426   5.286   4.138
 9749SOL     OW30145   0.774   4.082   4.141
 9749SOL    HW130146   0.775   4.107   4.238
 9749SOL    HW230147   0.680   4.064   4.113
 9750SOL     OW30148   3.672   5.078   3.152
 9750SOL    HW130149   3.634   5.027   3.228
 9750SOL    HW230150   3.623   5.055   3.068
 9751SOL     OW30151   1.919   2.562   0.424
 9751SOL    HW130152   1.823   2.579   0.401
 9751SOL    HW230153   1.935   2.585   0.520
 9752SOL     OW30154   3.497   1.727   6.306
 9752SOL    HW130155   3.507   1.740   6.405
 9752SOL    HW230156   3.456   1.638   6.289
 9753SOL     OW30157   6.925   6.229   5.232
 9753SOL    HW130158   6.941   6.180   5.146
 9753SOL    HW230159   6.934   6.327   5.217
 9754SOL     OW30160   6.830   2.286   6.874
 9754SOL    HW130161   6.900   2.289   6.945
 9754SOL    HW230162   6.839   2.202   6.821
 9755SOL     OW30163   4.254   4.714   5.247
 9755SOL    HW130164   4.262   4.618   5.221
 9755SOL    HW230165   4.264   4.771   5.166
 9756SOL     OW30166   5.373   2.265   6.005
 9756SOL    HW130167   5.334   2.188   5.955
 9756SOL    HW230168   5.466   2.243   6.033
 9757SOL     OW30169   6.045   2.313   3.436
 9757SOL    HW130170   6.130   2.283   3.394
 9757SOL    HW230171   6.005   2.238   3.489
 9758SOL     OW30172   2.805   0.844   6.980
 9758SOL    HW130173   2.840   0.929   6.941
 9758SOL    HW230174   2.806   0.772   6.910
 9759SOL     OW30175   2.873   5.617   1.354
 9759SOL    HW130176   2.863   5.518   1.347
 9759SOL    HW230177   2.784   5.661   1.336
 9760SOL     OW30178   5.622   4.687   6.143
 9760SOL    HW130179   5.638   4.615   6.210
 9760SOL    HW230180   5.524   4.707   6.139
 9761SOL     OW30181   5.359   6.116   2.793
 9761SOL    HW130182   5.266   6.085   2.812
 9761SOL    HW230183   5.415   6.039   2.762
 9762SOL     OW30184   2.735   1.369   3.508
 9762SOL    HW130185   2.684   1.454   3.521
 9762SOL    HW230186   2.704   1.323   3.425
 9763SOL     OW30187   1.572   1.698   1.828
 9763SOL    HW130188   1.547   1.681   1.923
 9763SOL    HW230189   1.586   1.796   1.814
 9764SOL     OW30190   0.888   2.786   1.828
 9764SOL    HW130191   0.925   2.847   1.758
 9764SOL    HW230192   0.840   2.710   1.785
 9765SOL     OW30193   0.030   1.521   5.103
 9765SOL    HW130194   0.122   1.538   5.069
 9765SOL    HW230195   0.034   1.494   5.199
 9766SOL     OW30196   2.891   0.206   2.429
 9766SOL    HW130197   2.950   0.259   2.490
 9766SOL    HW230198   2.798   0.243   2.432
 9767SOL     OW30199   5.131   0.473   5.311
 9767SOL    HW130200   5.165   0.391   5.358
 9767SOL    HW230201   5.189   0.491   5.231
 9768SOL     OW30202   5.089   2.260   3.723
 9768SOL    HW130203   5.136   2.325   3.664
 9768SOL    HW230204   5.055   2.307   3.804
 9769SOL     OW30205   0.456   1.591   1.889
 9769SOL    HW130206   0.367   1.566   1.927
 9769SOL    HW230207   0.486   1.678   1.929
 9770SOL     OW30208   6.429   4.539   6.052
 9770SOL    HW130209   6.482   4.553   6.136
 9770SOL    HW230210   6.484   4.566   5.973
 9771SOL     OW30211   3.194   5.227   4.233
 9771SOL    HW130212   3.285   5.205   4.196
 9771SOL    HW230213   3.197   5.318   4.275
 9772SOL     OW30214   6.502   0.361   1.668
 9772SOL    HW130215   6.480   0.458   1.668
 9772SOL    HW230216   6.522   0.332   1.574
 9773SOL     OW30217   5.678   5.446   3.314
 9773SOL    HW130218   5.653   5.394   3.396
 9773SOL    HW230219   5.757   5.504   3.335
 9774SOL     OW30220   6.927   4.727   3.203
 9774SOL    HW130221   6.912   4.779   3.119
 9774SOL    HW230222   6.924   4.789   3.281
 9775SOL     OW30223   2.884   2.213   5.041
 9775SOL    HW130224   2.838   2.228   5.129
 9775SOL    HW230225   2.960   2.277   5.032
 9776SOL     OW30226   0.227   4.584   4.649
 9776SOL    HW130227   0.239   4.650   4.723
 9776SOL    HW230228   0.256   4.625   4.563
 9777SOL     OW30229   5.681   5.039   6.401
 9777SOL    HW130230   5.694   5.085   6.313
 9777SOL    HW230231   5.656   5.106   6.470
 9778SOL     OW30232   3.973   0.585   3.543
 9778SOL    HW130233   3.883   0.543   3.542
 9778SOL    HW230234   4.038   0.523   3.588
 9779SOL     OW30235   2.894   1.977   6.486
 9779SOL    HW130236   2.850   1.898   6.527
 9779SOL    HW230237   2.829   2.054   6.484
 9780SOL     OW30238   3.590   4.282   0.528
 9780SOL    HW130239   3.665   4.218   0.547
 9780SOL    HW230240   3.597   4.360   0.591
 9781SOL     OW30241   1.755   6.185   4.123
 9781SOL    HW130242   1.843   6.203   4.167
 9781SOL    HW230243   1.697   6.267   4.129
 9782SOL     OW30244   6.246   0.581   1.437
 9782SOL    HW130245   6.204   0.527   1.510
 9782SOL    HW230246   6.174   0.617   1.377
 9783SOL     OW30247   5.927   1.440   2.965
 9783SOL    HW130248   5.954   1.407   3.055
 9783SOL    HW230249   5.960   1.376   2.895
 9784SOL     OW30250   5.251   0.769   4.378
 9784SOL    HW130251   5.348   0.781   4.359
 9784SOL    HW230252   5.236   0.774   4.477
 9785SOL     OW30253   0.847   3.127   0.620
 9785SOL    HW130254   0.922   3.146   0.557
 9785SOL    HW230255   0.760   3.153   0.578
 9786SOL     OW30256   2.009   0.127   5.258
 9786SOL    HW130257   2.046   0.053   5.202
 9786SOL    HW230258   1.913   0.108   5.280
 9787SOL     OW30259   5.878   4.712   1.819
 9787SOL    HW130260   5.837   4.624   1.794
 9787SOL    HW230261   5.971   4.696   1.853
 9788SOL     OW30262   0.319   1.132   5.132
 9788SOL    HW130263   0.238   1.191   5.129
 9788SOL    HW230264   0.309   1.059   5.064
 9789SOL     OW30265   1.320   5.880   4.513
 9789SOL    HW130266   1.234   5.917   4.548
 9789SOL    HW230267   1.324   5.782   4.532
 9790SOL     OW30268   6.821   1.594   4.036
 9790SOL    HW130269   6.889   1.540   4.087
 9790SOL    HW230270   6.800   1.677   4.087
 9791SOL     OW30271   1.072   2.419   1.383
 9791SOL    HW130272   1.130   2.455   1.456
 9791SOL    HW230273   1.130   2.389   1.307
 9792SOL     OW30274   4.002   5.828   1.930
 9792SOL    HW130275   4.085   5.873   1.962
 9792SOL    HW230276   4.024   5.738   1.895
 9793SOL     OW30277   5.239   6.343   2.674
 9793SOL    HW130278   5.172   6.385   2.735
 9793SOL    HW230279   5.291   6.274   2.724
 9794SOL     OW30280   3.044   3.542   6.680
 9794SOL    HW130281   3.048   3.467   6.746
 9794SOL    HW230282   3.027   3.628   6.728
 9795SOL     OW30283   2.617   4.634   4.013
 9795SOL    HW130284   2.595   4.727   3.981
 9795SOL    HW230285   2.625   4.634   4.112
 9796SOL     OW30286   3.916   4.650   0.401
 9796SOL    HW130287   3.945   4.568   0.351
 9796SOL    HW230288   3.941   4.731   0.349
 9797SOL     OW30289   4.808   2.673   4.848
 9797SOL    HW130290   4.754   2.599   4.889
 9797SOL    HW230291   4.900   2.640   4.829
 9798SOL     OW30292   2.110   1.794   1.620
 9798SOL    HW130293   2.182   1.725   1.615
 9798SOL    HW230294   2.069   1.793   1.711
 9799SOL     OW30295   3.285   3.398   1.933
 9799SOL    HW130296   3.292   3.483   1.881
 9799SOL    HW230297   3.374   3.375   1.972
 9800SOL     OW30298   3.514   5.170   0.196
 9800SOL    HW130299   3.543   5.110   0.121
 9800SOL    HW230300   3.493   5.115   0.276
 9801SOL     OW30301   4.727   5.376   6.901
 9801SOL    HW130302   4.676   5.306   6.851
 9801SOL    HW230303   4.825   5.358   6.895
 9802SOL     OW30304   0.930   4.925   1.530
 9802SOL    HW130305   1.029   4.934   1.525
 9802SOL    HW230306   0.905   4.889   1.620
 9803SOL     OW30307   4.882   0.552   6.267
 9803SOL    HW130308   4.950   0.547   6.340
 9803SOL    HW230309   4.824   0.471   6.270
 9804SOL     OW30310   5.823   5.292   4.216
 9804SOL    HW130311   5.866   5.285   4.306
 9804SOL    HW230312   5.863   5.369   4.165
 9805SOL     OW30313   3.288   4.432   1.556
 9805SOL    HW130314   3.379   4.425   1.597
 9805SOL    HW230315   3.297   4.434   1.456
 9806SOL     OW30316   6.697   1.864   2.411
 9806SOL    HW130317   6.660   1.774   2.389
 9806SOL    HW230318   6.728   1.865   2.506
 9807SOL     OW30319   3.476   2.717   0.727
 9807SOL    HW130320   3.443   2.625   0.705
 9807SOL    HW230321   3.422   2.755   0.802
 9808SOL     OW30322   2.031   2.271   4.730
 9808SOL    HW130323   1.940   2.275   4.689
 9808SOL    HW230324   2.027   2.308   4.823
 9809SOL     OW30325   0.653   0.548   4.373
 9809SOL    HW130326   0.563   0.523   4.408
 9809SOL    HW230327   0.719   0.552   4.448
 9810SOL     OW30328   4.308   1.227   3.461
 9810SOL    HW130329   4.223   1.245   3.412
 9810SOL    HW230330   4.341   1.135   3.440
 9811SOL     OW30331   1.031   0.142   2.794
 9811SOL    HW130332   0.938   0.168   2.822
 9811SOL    HW230333   1.070   0.215   2.738
 9812SOL     OW30334   5.390   2.771   5.394
 9812SOL    HW130335   5.449   2.732   5.324
 9812SOL    HW230336   5.434   2.851   5.435
 9813SOL     OW30337   6.585   4.317   1.039
 9813SOL    HW130338   6.540   4.385   1.097
 9813SOL    HW230339   6.597   4.355   0.947
 9814SOL     OW30340   6.630   0.844   5.606
 9814SOL    HW130341   6.651   0.812   5.699
 9814SOL    HW230342   6.627   0.765   5.545
 9815SOL     OW30343   6.900   3.928   2.652
 9815SOL    HW130344   6.934   3.987   2.725
 9815SOL    HW230345   6.976   3.874   2.616
 9816SOL     OW30346   6.057   0.667   6.140
 9816SOL    HW130347   6.115   0.729   6.193
 9816SOL    HW230348   6.061   0.691   6.044
 9817SOL     OW30349   2.342   0.693   0.429
 9817SOL    HW130350   2.407   0.766   0.405
 9817SOL    HW230351   2.326   0.693   0.528
 9818SOL     OW30352   0.663   0.081   3.095
 9818SOL    HW130353   0.564   0.067   3.086
 9818SOL    HW230354   0.706   7.022   3.124
 9819SOL     OW30355   6.925   2.367   4.467
 9819SOL    HW130356   6.989   2.313   4.413
 9819SOL    HW230357   6.924   2.334   4.561
 9820SOL     OW30358   3.441   2.555   6.283
 9820SOL    HW130359   3.456   2.476   6.342
 9820SOL    HW230360   3.394   2.627   6.335
 9821SOL     OW30361   4.001   2.892   1.000
 9821SOL    HW130362   3.997   2.970   1.062
 9821SOL    HW230363   3.909   2.855   0.988
 9822SOL     OW30364   3.431   5.791   4.409
 9822SOL    HW130365   3.331   5.788   4.406
 9822SOL    HW230366   3.460   5.858   4.477
 9823SOL     OW30367   3.650   6.532   3.203
 9823SOL    HW130368   3.564   6.579   3.181
 9823SOL    HW230369   3.712   6.538   3.126
 9824SOL     OW30370   0.818   5.802   5.871
 9824SOL    HW130371   0.825   5.812   5.772
 9824SOL    HW230372   0.801   5.892   5.912
 9825SOL     OW30373   7.016   6.498   5.207
 9825SOL    HW130374   0.053   6.504   5.131
 9825SOL    HW230375   0.038   6.517   5.293
 9826SOL     OW30376   1.544   5.734   5.295
 9826SOL    HW130377   1.643   5.720   5.288
 9826SOL    HW230378   1.503   5.657   5.344
 9827SOL     OW30379   2.082   4.292   1.977
 9827SOL    HW130380   2.170   4.247   1.991
 9827SOL    HW230381   2.008   4.226   1.992
 9828SOL     OW30382   4.154   1.814   5.164
 9828SOL    HW130383   4.137   1.735   5.223
 9828SOL    HW230384   4.245   1.807   5.125
 9829SOL     OW30385   5.279   4.990   5.307
 9829SOL    HW130386   5.225   5.045   5.370
 9829SOL    HW230387   5.356   5.044   5.272
 9830SOL     OW30388   5.535   1.857   3.806
 9830SOL    HW130389   5.507   1.817   3.893
 9830SOL    HW230390   5.456   1.862   3.745
 9831SOL     OW30391   0.462   4.558   1.622
 9831SOL    HW130392   0.477   4.655   1.602
 9831SOL    HW230393   0.550   4.512   1.633
 9832SOL     OW30394   4.859   5.773   4.457
 9832SOL    HW130395   4.818   5.825   4.532
 9832SOL    HW230396   4.848   5.675   4.475
 9833SOL     OW30397   4.174   3.509   4.220
 9833SOL    HW130398   4.193   3.480   4.126
 9833SOL    HW230399   4.101   3.576   4.220
 9834SOL     OW30400   2.995   6.109   5.567
 9834SOL    HW130401   3.010   6.167   5.647
 9834SOL    HW230402   3.031   6.018   5.584
 9835SOL     OW30403   3.828   4.010   3.886
 9835SOL    HW130404   3.743   3.964   3.912
 9835SOL    HW230405   3.813   4.063   3.802
 9836SOL     OW30406   6.705   3.675   5.708
 9836SOL    HW130407   6.618   3.637   5.741
 9836SOL    HW230408   6.766   3.601   5.680
 9837SOL     OW30409   5.698   1.537   3.370
 9837SOL    HW130410   5.612   1.564   3.327
 9837SOL    HW230411   5.703   1.437   3.375
 9838SOL     OW30412   0.927   5.943   1.132
 9838SOL    HW130413   0.990   5.998   1.077
 9838SOL    HW230414   0.883   6.001   1.201
 9839SOL     OW30415   4.989   6.604   3.831
 9839SOL    HW130416   5.042   6.522   3.851
 9839SOL    HW230417   4.891   6.585   3.841
 9840SOL     OW30418   6.642   1.782   6.361
 9840SOL    HW130419   6.733   1.774   6.401
 9840SOL    HW230420   6.638   1.732   6.275
 9841SOL     OW30421   6.949   6.081   2.533
 9841SOL    HW130422   6.873   6.102   2.472
 9841SOL    HW230423   6.953   6.150   2.606
 9842SOL     OW30424   3.543   0.121   6.957
 9842SOL    HW130425   3.484   0.184   7.008
 9842SOL    HW230426   3.528   0.028   6.989
 9843SOL     OW30427   0.090   0.706   1.739
 9843SOL    HW130428   0.089   0.796   1.694
 9843SOL    HW230429   0.143   0.642   1.684
 9844SOL     OW30430   4.625   0.424   4.550
 9844SOL    HW130431   4.531   0.439   4.521
 9844SOL    HW230432   4.641   0.475   4.635
 9845SOL     OW30433   1.198   4.042   2.292
 9845SOL    HW130434   1.228   4.120   2.237
 9845SOL    HW230435   1.120   4.068   2.348
 9846SOL     OW30436   6.117   2.373   1.593
 9846SOL    HW130437   6.214   2.385   1.615
 9846SOL    HW230438   6.106   2.289   1.539
 9847SOL     OW30439   3.997   4.268   6.642
 9847SOL    HW130440   3.898   4.252   6.647
 9847SOL    HW230441   4.041   4.229   6.723
 9848SOL     OW30442   3.289   3.831   5.675
 9848SOL    HW130443   3.250   3.812   5.584
 9848SOL    HW230444   3.228   3.893   5.725
 9849SOL     OW30445   1.655   2.180   4.244
 9849SOL    HW130446   1.682   2.276   4.236
 9849SOL    HW230447   1.676   2.147   4.336
 9850SOL     OW30448   1.528   6.780   4.672
 9850SOL    HW130449   1.584   6.845   4.723
 9850SOL    HW230450   1.578   6.750   4.590
 9851SOL     OW30451   3.808   5.934   3.655
 9851SOL    HW130452   3.768   5.884   3.578
 9851SOL    HW230453   3.869   6.005   3.619
 9852SOL     OW30454   1.798   6.677   0.159
 9852SOL    HW130455   1.876   6.615   0.167
 9852SOL    HW230456   1.790   6.732   0.241
 9853SOL     OW30457   0.353   4.586   3.610
 9853SOL    HW130458   0.286   4.629   3.550
 9853SOL    HW230459   0.306   4.531   3.679
 9854SOL     OW30460   6.870   3.605   6.777
 9854SOL    HW130461   6.967   3.582   6.781
 9854SOL    HW230462   6.848   3.642   6.686
 9855SOL     OW30463   0.673   6.091   0.610
 9855SOL    HW130464   0.724   6.011   0.641
 9855SOL    HW230465   0.577   6.082   0.636
 9856SOL     OW30466   5.393   3.111   3.077
 9856SOL    HW130467   5.371   3.203   3.044
 9856SOL    HW230468   5.481   3.082   3.039
 9857SOL     OW30469   4.670   0.036   5.698
 9857SOL    HW130470   4.699   0.122   5.738
 9857SOL    HW230471   4.700   0.032   5.602
 9858SOL     OW30472   6.457   6.200   2.209
 9858SOL    HW130473   6.509   6.278   2.243
 9858SOL    HW230474   6.362   6.228   2.192
 9859SOL     OW30475   0.557   5.521   2.798
 9859SOL    HW130476   0.561   5.549   2.894
 9859SOL    HW230477   0.582   5.425   2.790
 9860SOL     OW30478   1.850   3.128   3.964
 9860SOL    HW130479   1.926   3.190   3.944
 9860SOL    HW230480   1.854   3.100   4.060
 9861SOL     OW30481   3.705   1.884   3.284
 9861SOL    HW130482   3.797   1.862   3.318
 9861SOL    HW230483   3.646   1.804   3.293
 9862SOL     OW30484   1.591   3.538   6.553
 9862SOL    HW130485   1.502   3.557   6.596
 9862SOL    HW230486   1.611   3.441   6.558
 9863SOL     OW30487   4.155   6.948   2.023
 9863SOL    HW130488   4.198   6.860   2.002
 9863SOL    HW230489   4.201   6.990   2.101
 9864SOL     OW30490   2.230   6.244   5.496
 9864SOL    HW130491   2.163   6.188   5.545
 9864SOL    HW230492   2.228   6.220   5.398
 9865SOL     OW30493   2.098   5.832   5.691
 9865SOL    HW130494   2.198   5.837   5.685
 9865SOL    HW230495   2.067   5.745   5.653
 9866SOL     OW30496   6.276   5.415   6.044
 9866SOL    HW130497   6.356   5.405   5.986
 9866SOL    HW230498   6.241   5.325   6.069
 9867SOL     OW30499   4.317   1.535   1.908
 9867SOL    HW130500   4.296   1.525   2.006
 9867SOL    HW230501   4.272   1.617   1.873
 9868SOL     OW30502   2.231   4.608   4.042
 9868SOL    HW130503   2.308   4.545   4.041
 9868SOL    HW230504   2.259   4.694   4.085
 9869SOL     OW30505   0.077   2.072   1.850
 9869SOL    HW130506   0.017   2.008   1.900
 9869SOL    HW230507   0.095   2.036   1.759
 9870SOL     OW30508   2.405   2.390   2.664
 9870SOL    HW130509   2.413   2.449   2.744
 9870SOL    HW230510   2.437   2.439   2.583
 9871SOL     OW30511   5.709   5.828   3.533
 9871SOL    HW130512   5.734   5.918   3.571
 9871SOL    HW230513   5.732   5.757   3.600
 9872SOL     OW30514   0.479   5.679   5.312
 9872SOL    HW130515   0.456   5.772   5.285
 9872SOL    HW230516   0.399   5.620   5.300
 9873SOL     OW30517   1.405   1.368   5.482
 9873SOL    HW130518   1.334   1.367   5.411
 9873SOL    HW230519   1.369   1.324   5.565
 9874SOL     OW30520   0.455   2.042   3.573
 9874SOL    HW130521   0.507   2.126   3.586
 9874SOL    HW230522   0.424   2.007   3.662
 9875SOL     OW30523   6.476   5.876   0.789
 9875SOL    HW130524   6.407   5.819   0.834
 9875SOL    HW230525   6.467   5.970   0.822
 9876SOL     OW30526   0.094   6.855   3.474
 9876SOL    HW130527   0.051   6.819   3.556
 9876SOL    HW230528   0.102   6.782   3.406
 9877SOL     OW30529   0.513   6.183   4.884
 9877SOL    HW130530   0.571   6.230   4.818
 9877SOL    HW230531   0.566   6.111   4.929
 9878SOL     OW30532   3.478   2.677   6.890
 9878SOL    HW130533   3.511   2.690   6.797
 9878SOL    HW230534   3.378   2.681   6.890
 9879SOL     OW30535   6.390   5.550   5.308
 9879SOL    HW130536   6.303   5.597   5.299
 9879SOL    HW230537   6.430   5.570   5.398
 9880SOL     OW30538   2.850   1.155   0.882
 9880SOL    HW130539   2.908   1.225   0.924
 9880SOL    HW230540   2.762   1.196   0.857
 9881SOL     OW30541   5.882   0.799   3.123
 9881SOL    HW130542   5.894   0.738   3.202
 9881SOL    HW230543   5.807   0.766   3.066
 9882SOL     OW30544   3.553   3.149   4.505
 9882SOL    HW130545   3.457   3.122   4.512
 9882SOL    HW230546   3.611   3.076   4.540
 9883SOL     OW30547   2.171   6.210   2.195
 9883SOL    HW130548   2.225   6.279   2.146
 9883SOL    HW230549   2.074   6.224   2.177
 9884SOL     OW30550   3.331   2.656   5.255
 9884SOL    HW130551   3.322   2.556   5.249
 9884SOL    HW230552   3.340   2.694   5.164
 9885SOL     OW30553   4.455   2.251   5.586
 9885SOL    HW130554   4.437   2.201   5.671
 9885SOL    HW230555   4.414   2.201   5.509
 9886SOL     OW30556   3.135   5.767   1.387
 9886SOL    HW130557   3.163   5.760   1.291
 9886SOL    HW230558   3.038   5.743   1.395
 9887SOL     OW30559   3.411   1.164   0.266
 9887SOL    HW130560   3.491   1.105   0.275
 9887SOL    HW230561   3.328   1.109   0.264
 9888SOL     OW30562   6.184   6.842   4.275
 9888SOL    HW130563   6.092   6.860   4.238
 9888SOL    HW230564   6.252   6.883   4.215
 9889SOL     OW30565   0.127   5.121   2.505
 9889SOL    HW130566   0.150   5.107   2.409
 9889SOL    HW230567   0.210   5.110   2.561
 9890SOL     OW30568   1.109   3.428   2.744
 9890SOL    HW130569   1.062   3.364   2.804
 9890SOL    HW230570   1.197   3.454   2.785
 9891SOL     OW30571   5.050   6.734   1.993
 9891SOL    HW130572   5.003   6.683   2.066
 9891SOL    HW230573   5.136   6.770   2.028
 9892SOL     OW30574   1.543   5.960   3.782
 9892SOL    HW130575   1.601   5.949   3.862
 9892SOL    HW230576   1.457   6.004   3.808
 9893SOL     OW30577   5.743   4.656   5.107
 9893SOL    HW130578   5.768   4.612   5.021
 9893SOL    HW230579   5.782   4.604   5.183
 9894SOL     OW30580   4.265   3.798   5.247
 9894SOL    HW130581   4.253   3.715   5.192
 9894SOL    HW230582   4.179   3.849   5.249
 9895SOL     OW30583   5.360   2.288   6.414
 9895SOL    HW130584   5.331   2.271   6.320
 9895SOL    HW230585   5.448   2.336   6.413
 9896SOL     OW30586   3.705   3.822   6.746
 9896SOL    HW130587   3.605   3.813   6.744
 9896SOL    HW230588   3.743   3.784   6.662
 9897SOL     OW30589   0.286   1.188   2.819
 9897SOL    HW130590   0.210   1.251   2.830
 9897SOL    HW230591   0.356   1.207   2.888
 9898SOL     OW30592   1.276   5.093   0.104
 9898SOL    HW130593   1.272   5.190   0.080
 9898SOL    HW230594   1.244   5.038   0.027
 9899SOL     OW30595   4.432   5.055   2.681
 9899SOL    HW130596   4.447   4.965   2.638
 9899SOL    HW230597   4.419   5.124   2.610
 9900SOL     OW30598   1.746   4.573   4.061
 9900SOL    HW130599   1.769   4.623   3.978
 9900SOL    HW230600   1.829   4.558   4.115
 9901SOL     OW30601   2.160   1.952   6.018
 9901SOL    HW130602   2.194   2.044   5.997
 9901SOL    HW230603   2.161   1.937   6.117
 9902SOL     OW30604   4.426   3.824   6.558
 9902SOL    HW130605   4.409   3.801   6.653
 9902SOL    HW230606   4.484   3.905   6.553
 9903SOL     OW30607   3.652   1.792   1.513
 9903SOL    HW130608   3.746   1.805   1.546
 9903SOL    HW230609   3.632   1.858   1.441
 9904SOL     OW30610   0.175   6.956   2.404
 9904SOL    HW130611   0.181   0.030   2.410
 9904SOL    HW230612   0.261   6.916   2.435
 9905SOL     OW30613   1.439   6.654   5.720
 9905SOL    HW130614   1.386   6.587   5.667
 9905SOL    HW230615   1.493   6.711   5.657
 9906SOL     OW30616   3.722   3.586   5.699
 9906SOL    HW130617   3.640   3.532   5.682
 9906SOL    HW230618   3.795   3.559   5.636
 9907SOL     OW30619   1.132   6.698   2.852
 9907SOL    HW130620   1.162   6.784   2.892
 9907SOL    HW230621   1.033   6.692   2.855
 9908SOL     OW30622   6.174   3.439   5.018
 9908SOL    HW130623   6.250   3.450   5.082
 9908SOL    HW230624   6.092   3.410   5.069
 9909SOL     OW30625   3.644   6.549   1.940
 9909SOL    HW130626   3.653   6.625   2.004
 9909SOL    HW230627   3.682   6.575   1.851
 9910SOL     OW30628   1.046   4.752   0.752
 9910SOL    HW130629   1.050   4.729   0.655
 9910SOL    HW230630   0.972   4.817   0.768
 9911SOL     OW30631   3.915   5.336   3.049
 9911SOL    HW130632   3.897   5.305   3.142
 9911SOL    HW230633   3.854   5.289   2.986
 9912SOL     OW30634   4.035   0.045   0.858
 9912SOL    HW130635   4.017   6.977   0.830
 9912SOL    HW230636   3.969   0.106   0.814
 9913SOL     OW30637   4.803   2.493   2.693
 9913SOL    HW130638   4.868   2.451   2.629
 9913SOL    HW230639   4.756   2.422   2.745
 9914SOL     OW30640   2.006   4.937   4.586
 9914SOL    HW130641   1.964   5.018   4.627
 9914SOL    HW230642   1.978   4.930   4.490
 9915SOL     OW30643   6.304   3.988   4.151
 9915SOL    HW130644   6.366   4.053   4.108
 9915SOL    HW230645   6.259   3.932   4.081
 9916SOL     OW30646   2.656   3.653   0.559
 9916SOL    HW130647   2.713   3.598   0.620
 9916SOL    HW230648   2.560   3.631   0.574
 9917SOL     OW30649   2.211   2.964   4.862
 9917SOL    HW130650   2.271   2.994   4.937
 9917SOL    HW230651   2.200   2.864   4.867
 9918SOL     OW30652   2.620   1.061   4.911
 9918SOL    HW130653   2.525   1.050   4.882
 9918SOL    HW230654   2.628   1.141   4.970
 9919SOL     OW30655   0.982   5.413   2.469
 9919SOL    HW130656   1.015   5.461   2.387
 9919SOL    HW230657   0.960   5.318   2.446
 9920SOL     OW30658   4.300   6.869   2.764
 9920SOL    HW130659   4.360   6.795   2.795
 9920SOL    HW230660   4.309   6.947   2.825
 9921SOL     OW30661   5.097   0.268   2.564
 9921SOL    HW130662   5.071   0.176   2.536
 9921SOL    HW230663   5.178   0.264   2.623
 9922SOL     OW30664   5.313   3.032   1.969
 9922SOL    HW130665   5.377   2.982   1.912
 9922SOL    HW230666   5.347   3.125   1.983
 9923SOL     OW30667   5.909   0.809   6.631
 9923SOL    HW130668   5.971   0.744   6.675
 9923SOL    HW230669   5.816   0.773   6.634
 9924SOL     OW30670   5.047   0.821   4.232
 9924SOL    HW130671   5.066   0.817   4.134
 9924SOL    HW230672   5.124   0.783   4.283
 9925SOL     OW30673   3.787   2.105   4.954
 9925SOL    HW130674   3.727   2.093   5.034
 9925SOL    HW230675   3.731   2.127   4.874
 9926SOL     OW30676   1.469   0.867   5.876
 9926SOL    HW130677   1.544   0.929   5.856
 9926SOL    HW230678   1.491   0.775   5.842
 9927SOL     OW30679   0.821   3.055   3.092
 9927SOL    HW130680   0.776   3.024   3.009
 9927SOL    HW230681   0.837   2.977   3.153
 9928SOL     OW30682   0.403   3.073   2.181
 9928SOL    HW130683   0.428   3.028   2.267
 9928SOL    HW230684   0.319   3.032   2.146
 9929SOL     OW30685   0.408   4.619   5.281
 9929SOL    HW130686   0.400   4.642   5.184
 9929SOL    HW230687   0.432   4.523   5.291
 9930SOL     OW30688   6.513   5.551   6.206
 9930SOL    HW130689   6.427   5.527   6.251
 9930SOL    HW230690   6.540   5.477   6.144
 9931SOL     OW30691   2.811   4.849   6.691
 9931SOL    HW130692   2.901   4.891   6.686
 9931SOL    HW230693   2.741   4.917   6.667
 9932SOL     OW30694   2.338   2.808   1.102
 9932SOL    HW130695   2.307   2.898   1.131
 9932SOL    HW230696   2.419   2.782   1.154
 9933SOL     OW30697   0.894   1.620   2.501
 9933SOL    HW130698   0.837   1.617   2.419
 9933SOL    HW230699   0.840   1.591   2.580
 9934SOL     OW30700   5.337   0.577   5.917
 9934SOL    HW130701   5.305   0.490   5.880
 9934SOL    HW230702   5.290   0.653   5.872
 9935SOL     OW30703   2.641   2.818   0.428
 9935SOL    HW130704   2.720   2.874   0.405
 9935SOL    HW230705   2.629   2.747   0.359
 9936SOL     OW30706   4.898   6.755   6.415
 9936SOL    HW130707   4.878   6.850   6.441
 9936SOL    HW230708   4.965   6.717   6.478
 9937SOL     OW30709   1.563   6.685   3.667
 9937SOL    HW130710   1.614   6.741   3.602
 9937SOL    HW230711   1.570   6.589   3.640
 9938SOL     OW30712   0.052   1.419   3.178
 9938SOL    HW130713   0.026   1.492   3.240
 9938SOL    HW230714   0.139   1.441   3.134
 9939SOL     OW30715   2.750   4.175   1.661
 9939SOL    HW130716   2.666   4.122   1.670
 9939SOL    HW230717   2.827   4.113   1.645
 9940SOL     OW30718   6.707   0.783   3.057
 9940SOL    HW130719   6.771   0.859   3.070
 9940SOL    HW230720   6.716   0.720   3.134
 9941SOL     OW30721   5.792   3.580   1.302
 9941SOL    HW130722   5.798   3.627   1.214
 9941SOL    HW230723   5.702   3.539   1.312
 9942SOL     OW30724   6.436   6.069   2.817
 9942SOL    HW130725   6.516   6.087   2.874
 9942SOL    HW230726   6.355   6.058   2.876
 9943SOL     OW30727   2.120   3.780   5.556
 9943SOL    HW130728   2.142   3.875   5.579
 9943SOL    HW230729   2.061   3.741   5.626
 9944SOL     OW30730   2.260   5.685   6.312
 9944SOL    HW130731   2.283   5.754   6.381
 9944SOL    HW230732   2.193   5.622   6.351
 9945SOL     OW30733   6.439   3.599   7.024
 9945SOL    HW130734   6.378   3.596   6.944
 9945SOL    HW230735   6.480   3.509   0.012
 9946SOL     OW30736   4.907   2.042   1.797
 9946SOL    HW130737   4.901   2.118   1.733
 9946SOL    HW230738   4.975   1.976   1.764
 9947SOL     OW30739   1.364   1.631   2.246
 9947SOL    HW130740   1.376   1.661   2.341
 9947SOL    HW230741   1.266   1.618   2.228
 9948SOL     OW30742   6.093   0.741   5.597
 9948SOL    HW130743   6.083   0.823   5.654
 9948SOL    HW230744   6.141   0.765   5.512
 9949SOL     OW30745   6.992   3.570   3.513
 9949SOL    HW130746   6.952   3.479   3.513
 9949SOL    HW230747   6.945   3.627   3.580
 9950SOL     OW30748   4.518   4.148   5.580
 9950SOL    HW130749   4.597   4.111   5.531
 9950SOL    HW230750   4.494   4.237   5.542
 9951SOL     OW30751   0.097   2.384   2.471
 9951SOL    HW130752   0.100   2.432   2.383
 9951SOL    HW230753   0.055   2.442   2.540
 9952SOL     OW30754   1.702   4.580   1.444
 9952SOL    HW130755   1.742   4.616   1.359
 9952SOL    HW230756   1.774   4.571   1.513
 9953SOL     OW30757   6.759   4.263   3.589
 9953SOL    HW130758   6.776   4.294   3.496
 9953SOL    HW230759   6.693   4.188   3.587
 9954SOL     OW30760   3.856   1.517   1.106
 9954SOL    HW130761   3.905   1.517   1.193
 9954SOL    HW230762   3.806   1.431   1.096
 9955SOL     OW30763   5.696   5.200   1.261
 9955SOL    HW130764   5.596   5.203   1.255
 9955SOL    HW230765   5.725   5.237   1.350
 9956SOL     OW30766   1.508   3.299   2.927
 9956SOL    HW130767   1.598   3.329   2.957
 9956SOL    HW230768   1.463   3.249   3.000
 9957SOL     OW30769   5.182   6.892   0.360
 9957SOL    HW130770   5.124   6.904   0.440
 9957SOL    HW230771   5.216   6.981   0.330
 9958SOL     OW30772   5.892   6.093   6.625
 9958SOL    HW130773   5.971   6.145   6.593
 9958SOL    HW230774   5.897   6.000   6.588
 9959SOL     OW30775   6.045   4.482   0.240
 9959SOL    HW130776   6.027   4.424   0.160
 9959SOL    HW230777   5.962   4.489   0.295
 9960SOL     OW30778   6.345   0.108   6.814
 9960SOL    HW130779   6.303   0.133   6.901
 9960SOL    HW230780   6.360   0.009   6.812
 9961SOL     OW30781   3.142   6.175   1.119
 9961SOL    HW130782   3.079   6.115   1.071
 9961SOL    HW230783   3.223   6.123   1.148
 9962SOL     OW30784   3.252   0.463   1.826
 9962SOL    HW130785   3.271   0.545   1.772
 9962SOL    HW230786   3.313   0.390   1.797
 9963SOL     OW30787   0.797   6.995   6.452
 9963SOL    HW130788   0.863   7.006   6.527
 9963SOL    HW230789   0.837   7.026   6.366
 9964SOL     OW30790   4.311   4.979   5.094
 9964SOL    HW130791   4.381   4.911   5.075
 9964SOL    HW230792   4.302   4.993   5.192
 9965SOL     OW30793   2.675   5.052   4.085
 9965SOL    HW130794   2.739   5.124   4.058
 9965SOL    HW230795   2.725   4.974   4.121
 9966SOL     OW30796   3.502   5.856   2.979
 9966SOL    HW130797   3.572   5.922   3.005
 9966SOL    HW230798   3.492   5.788   3.052
 9967SOL     OW30799   0.322   0.791   3.096
 9967SOL    HW130800   0.400   0.794   3.033
 9967SOL    HW230801   0.327   0.708   3.151
 9968SOL     OW30802   4.228   6.834   0.096
 9968SOL    HW130803   4.161   6.761   0.087
 9968SOL    HW230804   4.284   6.818   0.177
 9969SOL     OW30805   0.239   5.772   3.600
 9969SOL    HW130806   0.200   5.863   3.582
 9969SOL    HW230807   0.328   5.765   3.555
 9970SOL     OW30808   6.510   3.654   2.188
 9970SOL    HW130809   6.498   3.614   2.097
 9970SOL    HW230810   6.540   3.749   2.179
 9971SOL     OW30811   0.441   5.203   4.425
 9971SOL    HW130812   0.396   5.172   4.341
 9971SOL    HW230813   0.440   5.303   4.428
 9972SOL     OW30814   2.835   4.655   6.099
 9972SOL    HW130815   2.786   4.661   6.012
 9972SOL    HW230816   2.791   4.714   6.166
 9973SOL     OW30817   3.021   1.906   3.276
 9973SOL    HW130818   3.055   2.000   3.278
 9973SOL    HW230819   3.071   1.851   3.344
 9974SOL     OW30820   1.636   2.277   3.079
 9974SOL    HW130821   1.540   2.305   3.085
 9974SOL    HW230822   1.678   2.316   2.998
 9975SOL     OW30823   2.600   4.392   6.304
 9975SOL    HW130824   2.693   4.425   6.317
 9975SOL    HW230825   2.553   4.389   6.392
 9976SOL     OW30826   3.833   5.865   5.366
 9976SOL    HW130827   3.930   5.857   5.390
 9976SOL    HW230828   3.779   5.866   5.450
 9977SOL     OW30829   4.239   0.347   5.157
 9977SOL    HW130830   4.193   0.393   5.081
 9977SOL    HW230831   4.303   0.410   5.201
 9978SOL     OW30832   0.631   2.504   0.306
 9978SOL    HW130833   0.542   2.485   0.346
 9978SOL    HW230834   0.702   2.495   0.376
 9979SOL     OW30835   3.434   4.157   4.666
 9979SOL    HW130836   3.525   4.187   4.638
 9979SOL    HW230837   3.426   4.163   4.765
 9980SOL     OW30838   1.084   0.639   0.441
 9980SOL    HW130839   1.173   0.616   0.480
 9980SOL    HW230840   1.017   0.651   0.514
 9981SOL     OW30841   5.469   0.936   0.230
 9981SOL    HW130842   5.428   0.845   0.224
 9981SOL    HW230843   5.398   1.005   0.212
 9982SOL     OW30844   2.141   2.299   4.399
 9982SOL    HW130845   2.161   2.348   4.483
 9982SOL    HW230846   2.225   2.258   4.363
 9983SOL     OW30847   0.803   3.829   2.263
 9983SOL    HW130848   0.881   3.796   2.210
 9983SOL    HW230849   0.744   3.752   2.287
 9984SOL     OW30850   0.606   4.807   0.992
 9984SOL    HW130851   0.566   4.848   1.074
 9984SOL    HW230852   0.626   4.711   1.009
 9985SOL     OW30853   4.868   4.444   0.007
 9985SOL    HW130854   4.889   4.361   0.059
 9985SOL    HW230855   4.881   4.524   0.066
 9986SOL     OW30856   5.796   4.924   0.604
 9986SOL    HW130857   5.720   4.934   0.667
 9986SOL    HW230858   5.773   4.856   0.534
 9987SOL     OW30859   5.269   2.035   1.159
 9987SOL    HW130860   5.278   2.121   1.109
 9987SOL    HW230861   5.174   2.002   1.153
 9988SOL     OW30862   6.431   6.934   3.662
 9988SOL    HW130863   6.504   6.922   3.729
 9988SOL    HW230864   6.418   6.848   3.611
 9989SOL     OW30865   6.775   5.635   2.088
 9989SOL    HW130866   6.753   5.555   2.032
 9989SOL    HW230867   6.692   5.689   2.102
 9990SOL     OW30868   0.009   0.146   3.003
 9990SOL    HW130869   0.011   0.085   2.924
 9990SOL    HW230870   0.099   0.187   3.017
 9991SOL     OW30871   2.406   4.567   2.251
 9991SOL    HW130872   2.498   4.599   2.230
 9991SOL    HW230873   2.377   4.500   2.182
 9992SOL     OW30874   2.955   5.298   0.189
 9992SOL    HW130875   2.910   5.226   0.138
 9992SOL    HW230876   2.931   5.292   0.286
 9993SOL     OW30877   4.130   0.297   4.704
 9993SOL    HW130878   4.206   0.357   4.729
 9993SOL    HW230879   4.153   0.247   4.620
 9994SOL     OW30880   6.019   4.760   5.003
 9994SOL    HW130881   6.090   4.695   4.978
 9994SOL    HW230882   5.930   4.726   4.972
 9995SOL     OW30883   3.830   1.862   6.397
 9995SOL    HW130884   3.861   1.917   6.320
 9995SOL    HW230885   3.835   1.765   6.372
 9996SOL     OW30886   3.169   4.495   1.085
 9996SOL    HW130887   3.102   4.556   1.042
 9996SOL    HW230888   3.133   4.402   1.087
 9997SOL     OW30889   6.637   1.585   2.412
 9997SOL    HW130890   6.589   1.558   2.495
 9997SOL    HW230891   6.736   1.578   2.427
 9998SOL     OW30892   5.393   3.820   2.548
 9998SOL    HW130893   5.293   3.822   2.554
 9998SOL    HW230894   5.426   3.728   2.570
 9999SOL     OW30895   0.699   0.018   4.800
 9999SOL    HW130896   0.672   0.014   4.704
 9999SOL    HW230897   0.797   0.039   4.807
10000SOL     OW30898   4.527   2.257   1.361
10000SOL    HW130899   4.578   2.193   1.418
10000SOL    HW230900   4.491   2.210   1.281
10001SOL     OW30901   3.688   6.473   1.237
10001SOL    HW130902   3.655   6.401   1.297
10001SOL    HW230903   3.660   6.453   1.143
10002SOL     OW30904   2.365   6.829   2.259
10002SOL    HW130905   2.398   6.865   2.171
10002SOL    HW230906   2.383   6.896   2.331
10003SOL     OW30907   1.374   1.183   2.478
10003SOL    HW130908   1.447   1.156   2.416
10003SOL    HW230909   1.389   1.277   2.509
10004SOL     OW30910   0.614   4.437   3.963
10004SOL    HW130911   0.683   4.405   3.898
10004SOL    HW230912   0.656   4.448   4.053
10005SOL     OW30913   2.628   5.879   3.614
10005SOL    HW130914   2.558   5.847   3.678
10005SOL    HW230915   2.715   5.889   3.663
10006SOL     OW30916   5.229   1.134   5.439
10006SOL    HW130917   5.154   1.104   5.498
10006SOL    HW230918   5.264   1.221   5.472
10007SOL     OW30919   0.658   5.252   3.905
10007SOL    HW130920   0.638   5.314   3.980
10007SOL    HW230921   0.710   5.173   3.940
10008SOL     OW30922   4.180   1.009   6.248
10008SOL    HW130923   4.262   1.066   6.251
10008SOL    HW230924   4.198   0.926   6.195
10009SOL     OW30925   1.051   4.510   2.299
10009SOL    HW130926   1.028   4.415   2.322
10009SOL    HW230927   1.084   4.557   2.382
10010SOL     OW30928   2.129   4.394   1.384
10010SOL    HW130929   2.129   4.482   1.431
10010SOL    HW230930   2.044   4.345   1.406
10011SOL     OW30931   2.518   3.006   0.136
10011SOL    HW130932   2.456   3.084   0.128
10011SOL    HW230933   2.502   2.959   0.223
10012SOL     OW30934   5.516   1.659   3.177
10012SOL    HW130935   5.511   1.705   3.088
10012SOL    HW230936   5.466   1.713   3.245
10013SOL     OW30937   0.593   6.700   4.704
10013SOL    HW130938   0.610   6.612   4.749
10013SOL    HW230939   0.533   6.756   4.761
10014SOL     OW30940   1.445   1.118   2.924
10014SOL    HW130941   1.386   1.070   2.859
10014SOL    HW230942   1.393   1.189   2.971
10015SOL     OW30943   3.491   6.781   6.165
10015SOL    HW130944   3.415   6.743   6.112
10015SOL    HW230945   3.535   6.707   6.217
10016SOL     OW30946   2.020   0.599   4.507
10016SOL    HW130947   2.008   0.627   4.602
10016SOL    HW230948   2.114   0.569   4.493
10017SOL     OW30949   3.410   1.953   2.427
10017SOL    HW130950   3.481   1.994   2.370
10017SOL    HW230951   3.365   1.879   2.377
10018SOL     OW30952   6.966   4.036   5.190
10018SOL    HW130953   6.977   4.011   5.094
10018SOL    HW230954   0.029   4.037   5.235
10019SOL     OW30955   0.564   1.899   1.693
10019SOL    HW130956   0.522   1.826   1.639
10019SOL    HW230957   0.541   1.887   1.789
10020SOL     OW30958   6.816   1.397   2.083
10020SOL    HW130959   6.805   1.492   2.111
10020SOL    HW230960   6.732   1.366   2.037
10021SOL     OW30961   1.107   3.281   2.236
10021SOL    HW130962   1.133   3.326   2.321
10021SOL    HW230963   1.047   3.341   2.183
10022SOL     OW30964   1.643   5.897   6.069
10022SOL    HW130965   1.568   5.961   6.051
10022SOL    HW230966   1.662   5.843   5.987
10023SOL     OW30967   0.192   1.748   5.738
10023SOL    HW130968   0.227   1.755   5.644
10023SOL    HW230969   0.201   1.654   5.770
10024SOL     OW30970   1.978   4.353   2.631
10024SOL    HW130971   1.976   4.262   2.589
10024SOL    HW230972   1.997   4.422   2.562
10025SOL     OW30973   1.305   3.813   0.798
10025SOL    HW130974   1.253   3.810   0.884
10025SOL    HW230975   1.329   3.908   0.776
10026SOL     OW30976   5.723   1.538   5.253
10026SOL    HW130977   5.629   1.525   5.223
10026SOL    HW230978   5.781   1.557   5.174
10027SOL     OW30979   3.774   1.378   5.236
10027SOL    HW130980   3.764   1.454   5.173
10027SOL    HW230981   3.809   1.411   5.324
10028SOL     OW30982   4.588   0.030   1.755
10028SOL    HW130983   4.491   0.052   1.749
10028SOL    HW230984   4.600   6.957   1.751
10029SOL     OW30985   0.492   4.135   4.703
10029SOL    HW130986   0.506   4.101   4.610
10029SOL    HW230987   0.439   4.219   4.701
10030SOL     OW30988   2.572   0.392   4.347
10030SOL    HW130989   2.541   0.483   4.319
10030SOL    HW230990   2.530   0.366   4.434
10031SOL     OW30991   2.307   5.670   2.808
10031SOL    HW130992   2.378   5.667   2.738
10031SOL    HW230993   2.347   5.696   2.895
10032SOL     OW30994   2.906   6.335   4.601
10032SOL    HW130995   2.896   6.284   4.515
10032SOL    HW230996   2.943   6.275   4.671
10033SOL     OW30997   3.520   1.192   4.739
10033SOL    HW130998   3.529   1.188   4.640
10033SOL    HW230999   3.454   1.263   4.764
10034SOL     OW31000   2.626   1.148   2.994
10034SOL    HW131001   2.664   1.060   2.965
10034SOL    HW231002   2.621   1.210   2.916
10035SOL     OW31003   6.457   2.813   2.464
10035SOL    HW131004   6.439   2.905   2.428
10035SOL    HW231005   6.554   2.793   2.457
10036SOL     OW31006   0.806   1.406   0.020
10036SOL    HW131007   0.895   1.379   0.056
10036SOL    HW231008   0.793   1.505   0.034
10037SOL     OW31009   5.848   6.649   6.565
10037SOL    HW131010   5.802   6.578   6.618
10037SOL    HW231011   5.811   6.650   6.472
10038SOL     OW31012   4.293   6.317   6.503
10038SOL    HW131013   4.369   6.316   6.439
10038SOL    HW231014   4.209   6.341   6.455
10039SOL     OW31015   0.629   6.092   2.650
10039SOL    HW131016   0.722   6.126   2.664
10039SOL    HW231017   0.611   6.085   2.551
10040SOL     OW31018   2.879   0.364   0.718
10040SOL    HW131019   2.788   0.374   0.679
10040SOL    HW231020   2.885   0.413   0.804
10041SOL     OW31021   6.079   5.658   4.919
10041SOL    HW131022   6.047   5.620   5.006
10041SOL    HW231023   6.010   5.721   4.884
10042SOL     OW31024   6.695   0.483   5.302
10042SOL    HW131025   6.688   0.510   5.398
10042SOL    HW231026   6.647   0.550   5.245
10043SOL     OW31027   0.878   0.598   3.707
10043SOL    HW131028   0.921   0.687   3.691
10043SOL    HW231029   0.940   0.525   3.678
10044SOL     OW31030   3.093   1.603   0.009
10044SOL    HW131031   3.107   1.535   6.963
10044SOL    HW231032   3.003   1.645   7.025
10045SOL     OW31033   3.851   6.769   4.481
10045SOL    HW131034   3.774   6.719   4.441
10045SOL    HW231035   3.858   6.746   4.578
10046SOL     OW31036   6.762   2.894   1.109
10046SOL    HW131037   6.788   2.959   1.037
10046SOL    HW231038   6.844   2.847   1.142
10047SOL     OW31039   0.479   1.480   3.223
10047SOL    HW131040   0.540   1.411   3.263
10047SOL    HW231041   0.509   1.571   3.250
10048SOL     OW31042   3.628   2.580   1.717
10048SOL    HW131043   3.660   2.498   1.765
10048SOL    HW231044   3.695   2.605   1.647
10049SOL     OW31045   1.631   6.859   4.171
10049SOL    HW131046   1.595   6.871   4.078
10049SOL    HW231047   1.581   6.786   4.217
10050SOL     OW31048   5.871   1.611   4.455
10050SOL    HW131049   5.889   1.590   4.551
10050SOL    HW231050   5.844   1.707   4.446
10051SOL     OW31051   6.332   2.254   6.696
10051SOL    HW131052   6.432   2.243   6.701
10051SOL    HW231053   6.289   2.164   6.695
10052SOL     OW31054   1.268   4.228   1.777
10052SOL    HW131055   1.250   4.323   1.803
10052SOL    HW231056   1.190   4.192   1.728
10053SOL     OW31057   2.705   6.540   3.420
10053SOL    HW131058   2.784   6.591   3.454
10053SOL    HW231059   2.706   6.447   3.457
10054SOL     OW31060   4.367   5.814   3.746
10054SOL    HW131061   4.317   5.776   3.824
10054SOL    HW231062   4.441   5.873   3.779
10055SOL     OW31063   6.742   3.239   6.620
10055SOL    HW131064   6.739   3.294   6.703
10055SOL    HW231065   6.710   3.146   6.639
10056SOL     OW31066   6.621   5.054   1.946
10056SOL    HW131067   6.641   4.957   1.962
10056SOL    HW231068   6.630   5.104   2.032
10057SOL     OW31069   2.732   2.357   4.124
10057SOL    HW131070   2.779   2.357   4.212
10057SOL    HW231071   2.695   2.266   4.106
10058SOL     OW31072   0.610   4.596   3.686
10058SOL    HW131073   0.629   4.641   3.773
10058SOL    HW231074   0.511   4.589   3.672
10059SOL     OW31075   5.250   7.007   1.148
10059SOL    HW131076   5.283   6.914   1.133
10059SOL    HW231077   5.153   7.012   1.126
10060SOL     OW31078   2.208   2.826   1.909
10060SOL    HW131079   2.274   2.762   1.948
10060SOL    HW231080   2.156   2.869   1.982
10061SOL     OW31081   6.325   1.993   4.901
10061SOL    HW131082   6.237   1.946   4.892
10061SOL    HW231083   6.333   2.062   4.829
10062SOL     OW31084   6.202   5.644   3.077
10062SOL    HW131085   6.211   5.700   2.995
10062SOL    HW231086   6.126   5.678   3.132
10063SOL     OW31087   0.850   2.709   2.683
10063SOL    HW131088   0.946   2.716   2.712
10063SOL    HW231089   0.799   2.788   2.715
10064SOL     OW31090   5.413   6.251   4.358
10064SOL    HW131091   5.503   6.253   4.402
10064SOL    HW231092   5.343   6.232   4.426
10065SOL     OW31093   0.939   6.613   3.683
10065SOL    HW131094   1.020   6.629   3.739
10065SOL    HW231095   0.960   6.634   3.587
10066SOL     OW31096   0.644   0.452   3.722
10066SOL    HW131097   0.595   0.468   3.808
10066SOL    HW231098   0.718   0.519   3.714
10067SOL     OW31099   4.548   6.120   3.631
10067SOL    HW131100   4.621   6.188   3.633
10067SOL    HW231101   4.474   6.148   3.692
10068SOL     OW31102   5.397   3.739   5.415
10068SOL    HW131103   5.452   3.733   5.498
10068SOL    HW231104   5.301   3.725   5.437
10069SOL     OW31105   3.765   0.784   3.602
10069SOL    HW131106   3.704   0.735   3.540
10069SOL    HW231107   3.854   0.796   3.558
10070SOL     OW31108   1.193   6.638   4.837
10070SOL    HW131109   1.197   6.630   4.937
10070SOL    HW231110   1.126   6.707   4.811
10071SOL     OW31111   5.424   5.290   4.930
10071SOL    HW131112   5.514   5.248   4.935
10071SOL    HW231113   5.355   5.219   4.916
10072SOL     OW31114   0.862   6.958   3.922
10072SOL    HW131115   0.941   6.915   3.878
10072SOL    HW231116   0.780   6.905   3.903
10073SOL     OW31117   0.432   5.439   6.640
10073SOL    HW131118   0.387   5.411   6.725
10073SOL    HW231119   0.477   5.527   6.654
10074SOL     OW31120   2.339   6.644   5.574
10074SOL    HW131121   2.396   6.566   5.600
10074SOL    HW231122   2.349   6.717   5.642
10075SOL     OW31123   2.311   2.341   3.843
10075SOL    HW131124   2.247   2.401   3.795
10075SOL    HW231125   2.371   2.296   3.776
10076SOL     OW31126   5.787   0.411   4.780
10076SOL    HW131127   5.737   0.349   4.842
10076SOL    HW231128   5.748   0.404   4.688
10077SOL     OW31129   3.761   1.128   6.883
10077SOL    HW131130   3.735   1.187   6.806
10077SOL    HW231131   3.814   1.181   6.949
10078SOL     OW31132   5.821   6.192   5.833
10078SOL    HW131133   5.757   6.248   5.886
10078SOL    HW231134   5.795   6.095   5.841
10079SOL     OW31135   6.845   4.284   6.415
10079SOL    HW131136   6.854   4.234   6.329
10079SOL    HW231137   6.845   4.219   6.491
10080SOL     OW31138   1.757   3.256   6.056
10080SOL    HW131139   1.801   3.187   5.999
10080SOL    HW231140   1.765   3.229   6.152
10081SOL     OW31141   0.159   0.693   6.646
10081SOL    HW131142   0.140   0.625   6.717
10081SOL    HW231143   0.251   0.679   6.610
10082SOL     OW31144   6.484   1.058   0.883
10082SOL    HW131145   6.417   1.021   0.947
10082SOL    HW231146   6.575   1.055   0.924
10083SOL     OW31147   5.355   1.139   4.216
10083SOL    HW131148   5.367   1.069   4.286
10083SOL    HW231149   5.327   1.225   4.259
10084SOL     OW31150   2.626   0.973   6.052
10084SOL    HW131151   2.607   0.978   6.150
10084SOL    HW231152   2.718   0.935   6.038
10085SOL     OW31153   0.754   5.718   2.814
10085SOL    HW131154   0.745   5.817   2.815
10085SOL    HW231155   0.664   5.676   2.802
10086SOL     OW31156   6.090   3.842   2.494
10086SOL    HW131157   6.032   3.790   2.556
10086SOL    HW231158   6.051   3.840   2.401
10087SOL     OW31159   1.237   0.404   4.085
10087SOL    HW131160   1.188   0.371   4.165
10087SOL    HW231161   1.323   0.354   4.075
10088SOL     OW31162   0.113   0.484   4.588
10088SOL    HW131163   0.145   0.468   4.681
10088SOL    HW231164   0.077   0.577   4.581
10089SOL     OW31165   1.210   3.309   2.507
10089SOL    HW131166   1.292   3.252   2.501
10089SOL    HW231167   1.173   3.304   2.599
10090SOL     OW31168   0.826   4.613   1.208
10090SOL    HW131169   0.877   4.572   1.131
10090SOL    HW231170   0.732   4.578   1.207
10091SOL     OW31171   0.752   2.343   3.838
10091SOL    HW131172   0.659   2.377   3.847
10091SOL    HW231173   0.815   2.420   3.827
10092SOL     OW31174   1.701   3.862   5.083
10092SOL    HW131175   1.652   3.812   5.011
10092SOL    HW231176   1.799   3.846   5.073
10093SOL     OW31177   6.676   4.963   6.198
10093SOL    HW131178   6.726   4.930   6.278
10093SOL    HW231179   6.685   5.063   6.192
10094SOL     OW31180   1.687   1.072   1.636
10094SOL    HW131181   1.615   1.135   1.666
10094SOL    HW231182   1.665   1.039   1.544
10095SOL     OW31183   0.246   0.825   5.869
10095SOL    HW131184   0.281   0.910   5.909
10095SOL    HW231185   0.309   0.750   5.889
10096SOL     OW31186   0.617   4.870   2.342
10096SOL    HW131187   0.623   4.810   2.421
10096SOL    HW231188   0.698   4.856   2.284
10097SOL     OW31189   1.325   2.039   6.879
10097SOL    HW131190   1.272   1.961   6.915
10097SOL    HW231191   1.303   2.052   6.783
10098SOL     OW31192   3.664   4.768   6.211
10098SOL    HW131193   3.589   4.718   6.168
10098SOL    HW231194   3.748   4.713   6.205
10099SOL     OW31195   6.509   4.749   4.519
10099SOL    HW131196   6.561   4.669   4.552
10099SOL    HW231197   6.498   4.814   4.594
10100SOL     OW31198   5.778   1.436   5.903
10100SOL    HW131199   5.687   1.437   5.943
10100SOL    HW231200   5.784   1.360   5.837
10101SOL     OW31201   0.429   4.485   1.937
10101SOL    HW131202   0.420   4.386   1.943
10101SOL    HW231203   0.525   4.510   1.928
10102SOL     OW31204   3.796   1.160   3.134
10102SOL    HW131205   3.857   1.239   3.129
10102SOL    HW231206   3.706   1.185   3.099
10103SOL     OW31207   2.810   1.684   6.978
10103SOL    HW131208   2.710   1.677   6.970
10103SOL    HW231209   2.840   1.773   6.946
10104SOL     OW31210   1.452   5.967   5.103
10104SOL    HW131211   1.550   5.947   5.099
10104SOL    HW231212   1.414   5.934   5.189
10105SOL     OW31213   2.473   0.644   6.162
10105SOL    HW131214   2.573   0.647   6.158
10105SOL    HW231215   2.439   0.575   6.098
10106SOL     OW31216   5.817   5.207   0.552
10106SOL    HW131217   5.807   5.111   0.527
10106SOL    HW231218   5.838   5.215   0.649
10107SOL     OW31219   5.636   1.514   6.159
10107SOL    HW131220   5.689   1.518   6.244
10107SOL    HW231221   5.546   1.475   6.178
10108SOL     OW31222   6.169   6.604   0.260
10108SOL    HW131223   6.122   6.560   0.184
10108SOL    HW231224   6.191   6.537   0.330
10109SOL     OW31225   4.913   5.174   3.309
10109SOL    HW131226   4.958   5.131   3.387
10109SOL    HW231227   4.967   5.253   3.278
10110SOL     OW31228   3.206   1.141   5.413
10110SOL    HW131229   3.248   1.227   5.439
10110SOL    HW231230   3.109   1.155   5.393
10111SOL     OW31231   0.314   2.488   2.797
10111SOL    HW131232   0.224   2.445   2.809
10111SOL    HW231233   0.303   2.575   2.749
10112SOL     OW31234   3.998   3.730   5.841
10112SOL    HW131235   4.024   3.634   5.844
10112SOL    HW231236   3.898   3.738   5.834
10113SOL     OW31237   3.651   6.488   6.870
10113SOL    HW131238   3.683   6.546   6.795
10113SOL    HW231239   3.552   6.476   6.863
10114SOL     OW31240   4.242   1.111   1.197
10114SOL    HW131241   4.200   1.174   1.263
10114SOL    HW231242   4.275   1.030   1.246
10115SOL     OW31243   1.509   2.309   3.672
10115SOL    HW131244   1.415   2.280   3.689
10115SOL    HW231245   1.517   2.347   3.580
10116SOL     OW31246   1.421   0.799   1.223
10116SOL    HW131247   1.509   0.790   1.176
10116SOL    HW231248   1.359   0.727   1.192
10117SOL     OW31249   5.092   0.871   5.585
10117SOL    HW131250   5.047   0.829   5.506
10117SOL    HW231251   5.024   0.915   5.642
10118SOL     OW31252   6.371   5.228   2.638
10118SOL    HW131253   6.347   5.325   2.639
10118SOL    HW231254   6.470   5.218   2.643
10119SOL     OW31255   2.604   0.143   5.746
10119SOL    HW131256   2.669   0.066   5.742
10119SOL    HW231257   2.621   0.197   5.828
10120SOL     OW31258   6.230   3.124   3.403
10120SOL    HW131259   6.250   3.031   3.373
10120SOL    HW231260   6.239   3.130   3.503
10121SOL     OW31261   0.057   4.966   4.719
10121SOL    HW131262   0.056   4.923   4.629
10121SOL    HW231263   0.117   5.047   4.716
10122SOL     OW31264   5.412   3.054   0.510
10122SOL    HW131265   5.424   3.121   0.582
10122SOL    HW231266   5.355   3.093   0.437
10123SOL     OW31267   6.977   0.008   0.268
10123SOL    HW131268   6.941   7.020   0.360
10123SOL    HW231269   6.971   6.948   0.217
10124SOL     OW31270   3.444   4.438   0.951
10124SOL    HW131271   3.478   4.376   1.022
10124SOL    HW231272   3.363   4.485   0.984
10125SOL     OW31273   1.226   6.972   1.508
10125SOL    HW131274   1.169   0.009   1.455
10125SOL    HW231275   1.256   7.018   1.592
10126SOL     OW31276   6.079   4.733   0.360
10126SOL    HW131277   6.009   4.768   0.297
10126SOL    HW231278   6.118   4.649   0.324
10127SOL     OW31279   3.688   4.771   5.514
10127SOL    HW131280   3.627   4.848   5.492
10127SOL    HW231281   3.706   4.769   5.612
10128SOL     OW31282   0.416   1.963   1.273
10128SOL    HW131283   0.505   1.918   1.270
10128SOL    HW231284   0.345   1.899   1.246
10129SOL     OW31285   5.452   1.993   3.175
10129SOL    HW131286   5.512   2.011   3.097
10129SOL    HW231287   5.488   2.038   3.257
10130SOL     OW31288   6.759   5.050   1.693
10130SOL    HW131289   6.855   5.030   1.714
10130SOL    HW231290   6.714   5.087   1.775
10131SOL     OW31291   6.874   1.110   1.171
10131SOL    HW131292   6.842   1.171   1.099
10131SOL    HW231293   6.871   1.157   1.259
10132SOL     OW31294   3.048   7.003   2.760
10132SOL    HW131295   3.054   6.907   2.733
10132SOL    HW231296   2.993   7.010   2.844
10133SOL     OW31297   5.232   5.773   2.873
10133SOL    HW131298   5.304   5.772   2.804
10133SOL    HW231299   5.187   5.684   2.876
10134SOL     OW31300   0.069   1.293   2.526
10134SOL    HW131301   7.015   1.352   2.527
10134SOL    HW231302   0.081   1.252   2.616
10135SOL     OW31303   3.853   6.126   3.459
10135SOL    HW131304   3.933   6.136   3.399
10135SOL    HW231305   3.774   6.171   3.416
10136SOL     OW31306   6.067   6.615   2.242
10136SOL    HW131307   6.087   6.683   2.313
10136SOL    HW231308   6.014   6.540   2.282
10137SOL     OW31309   5.606   4.705   4.116
10137SOL    HW131310   5.694   4.662   4.133
10137SOL    HW231311   5.603   4.794   4.160
10138SOL     OW31312   5.571   2.464   6.568
10138SOL    HW131313   5.573   2.461   6.668
10138SOL    HW231314   5.658   2.432   6.532
10139SOL     OW31315   3.975   3.782   3.234
10139SOL    HW131316   4.007   3.790   3.328
10139SOL    HW231317   4.053   3.791   3.172
10140SOL     OW31318   0.189   5.135   5.702
10140SOL    HW131319   0.218   5.051   5.658
10140SOL    HW231320   0.207   5.130   5.800
10141SOL     OW31321   2.404   0.477   3.673
10141SOL    HW131322   2.381   0.567   3.708
10141SOL    HW231323   2.466   0.486   3.595
10142SOL     OW31324   5.198   5.613   4.426
10142SOL    HW131325   5.218   5.690   4.364
10142SOL    HW231326   5.121   5.561   4.391
10143SOL     OW31327   5.093   6.338   1.287
10143SOL    HW131328   5.113   6.317   1.191
10143SOL    HW231329   5.035   6.266   1.326
10144SOL     OW31330   3.009   5.517   3.593
10144SOL    HW131331   3.006   5.603   3.542
10144SOL    HW231332   3.099   5.506   3.635
10145SOL     OW31333   3.347   5.818   6.085
10145SOL    HW131334   3.440   5.804   6.120
10145SOL    HW231335   3.332   5.759   6.006
10146SOL     OW31336   4.698   5.017   4.180
10146SOL    HW131337   4.690   5.032   4.278
10146SOL    HW231338   4.710   4.919   4.162
10147SOL     OW31339   5.284   5.088   4.806
10147SOL    HW131340   5.229   5.006   4.820
10147SOL    HW231341   5.343   5.075   4.725
10148SOL     OW31342   5.440   5.268   1.315
10148SOL    HW131343   5.417   5.198   1.247
10148SOL    HW231344   5.371   5.341   1.313
10149SOL     OW31345   4.257   3.371   0.883
10149SOL    HW131346   4.181   3.430   0.855
10149SOL    HW231347   4.248   3.350   0.981
10150SOL     OW31348   4.877   4.758   1.277
10150SOL    HW131349   4.811   4.719   1.341
10150SOL    HW231350   4.964   4.774   1.324
10151SOL     OW31351   1.361   6.944   5.399
10151SOL    HW131352   1.358   6.845   5.386
10151SOL    HW231353   1.268   6.982   5.389
10152SOL     OW31354   0.257   5.434   3.577
10152SOL    HW131355   0.339   5.390   3.613
10152SOL    HW231356   0.277   5.528   3.552
10153SOL     OW31357   5.551   6.669   4.032
10153SOL    HW131358   5.622   6.618   4.081
10153SOL    HW231359   5.463   6.624   4.046
10154SOL     OW31360   6.620   5.554   5.753
10154SOL    HW131361   6.577   5.618   5.816
10154SOL    HW231362   6.713   5.585   5.732
10155SOL     OW31363   3.861   1.563   6.395
10155SOL    HW131364   3.934   1.497   6.379
10155SOL    HW231365   3.839   1.566   6.493
10156SOL     OW31366   5.895   0.927   2.202
10156SOL    HW131367   5.973   0.929   2.264
10156SOL    HW231368   5.812   0.904   2.253
10157SOL     OW31369   5.723   0.823   6.031
10157SOL    HW131370   5.668   0.761   5.975
10157SOL    HW231371   5.698   0.812   6.128
10158SOL     OW31372   4.253   3.619   6.938
10158SOL    HW131373   4.329   3.679   6.914
10158SOL    HW231374   4.168   3.671   6.939
10159SOL     OW31375   1.370   1.244   5.961
10159SOL    HW131376   1.332   1.334   5.982
10159SOL    HW231377   1.468   1.253   5.941
10160SOL     OW31378   0.274   6.042   3.564
10160SOL    HW131379   0.372   6.052   3.578
10160SOL    HW231380   0.241   6.115   3.505
10161SOL     OW31381   2.720   5.515   5.901
10161SOL    HW131382   2.663   5.567   5.837
10161SOL    HW231383   2.698   5.541   5.994
10162SOL     OW31384   3.349   2.023   6.733
10162SOL    HW131385   3.433   2.055   6.778
10162SOL    HW231386   3.329   1.929   6.764
10163SOL     OW31387   6.516   3.058   5.412
10163SOL    HW131388   6.514   3.097   5.504
10163SOL    HW231389   6.611   3.036   5.388
10164SOL     OW31390   0.406   3.074   4.982
10164SOL    HW131391   0.495   3.118   4.970
10164SOL    HW231392   0.392   3.055   5.080
10165SOL     OW31393   6.779   1.972   2.979
10165SOL    HW131394   6.702   1.908   2.975
10165SOL    HW231395   6.753   2.054   3.029
10166SOL     OW31396   1.817   1.042   2.047
10166SOL    HW131397   1.904   1.007   2.012
10166SOL    HW231398   1.778   0.975   2.111
10167SOL     OW31399   4.420   0.295   6.916
10167SOL    HW131400   4.433   0.375   6.857
10167SOL    HW231401   4.432   0.212   6.862
10168SOL     OW31402   6.735   4.513   4.594
10168SOL    HW131403   6.828   4.541   4.571
10168SOL    HW231404   6.699   4.453   4.522
10169SOL     OW31405   6.318   4.595   3.932
10169SOL    HW131406   6.335   4.506   3.974
10169SOL    HW231407   6.325   4.587   3.833
10170SOL     OW31408   1.917   4.217   4.994
10170SOL    HW131409   1.895   4.161   4.914
10170SOL    HW231410   1.834   4.259   5.030
10171SOL     OW31411   5.922   3.713   5.779
10171SOL    HW131412   5.904   3.657   5.860
10171SOL    HW231413   5.847   3.778   5.766
10172SOL     OW31414   4.886   1.052   3.009
10172SOL    HW131415   4.817   1.043   2.937
10172SOL    HW231416   4.976   1.034   2.971
10173SOL     OW31417   2.029   1.783   2.199
10173SOL    HW131418   1.967   1.713   2.165
10173SOL    HW231419   1.979   1.843   2.262
10174SOL     OW31420   6.884   4.278   1.854
10174SOL    HW131421   6.914   4.372   1.835
10174SOL    HW231422   6.787   4.269   1.832
10175SOL     OW31423   6.288   2.856   5.871
10175SOL    HW131424   6.387   2.846   5.858
10175SOL    HW231425   6.260   2.947   5.839
10176SOL     OW31426   1.993   4.140   6.926
10176SOL    HW131427   1.993   4.212   6.996
10176SOL    HW231428   1.947   4.059   6.961
10177SOL     OW31429   1.898   6.504   6.945
10177SOL    HW131430   1.830   6.574   6.968
10177SOL    HW231431   1.925   6.455   0.001
10178SOL     OW31432   5.542   1.918   4.542
10178SOL    HW131433   5.547   1.993   4.476
10178SOL    HW231434   5.609   1.934   4.615
10179SOL     OW31435   1.332   3.378   6.473
10179SOL    HW131436   1.280   3.411   6.393
10179SOL    HW231437   1.315   3.439   6.550
10180SOL     OW31438   2.883   6.224   5.869
10180SOL    HW131439   2.922   6.147   5.920
10180SOL    HW231440   2.786   6.208   5.854
10181SOL     OW31441   5.380   3.235   1.463
10181SOL    HW131442   5.421   3.303   1.402
10181SOL    HW231443   5.347   3.157   1.410
10182SOL     OW31444   5.517   1.144   0.804
10182SOL    HW131445   5.503   1.045   0.806
10182SOL    HW231446   5.612   1.164   0.780
10183SOL     OW31447   1.643   1.505   6.704
10183SOL    HW131448   1.728   1.554   6.689
10183SOL    HW231449   1.569   1.551   6.655
10184SOL     OW31450   4.096   0.775   5.849
10184SOL    HW131451   3.997   0.790   5.854
10184SOL    HW231452   4.142   0.835   5.914
10185SOL     OW31453   5.004   6.653   0.512
10185SOL    HW131454   5.030   6.740   0.554
10185SOL    HW231455   5.072   6.584   0.535
10186SOL     OW31456   4.451   2.456   2.810
10186SOL    HW131457   4.365   2.417   2.843
10186SOL    HW231458   4.436   2.551   2.783
10187SOL     OW31459   0.986   1.888   1.711
10187SOL    HW131460   0.914   1.886   1.641
10187SOL    HW231461   1.017   1.982   1.725
10188SOL     OW31462   3.709   6.075   1.040
10188SOL    HW131463   3.622   6.102   0.999
10188SOL    HW231464   3.695   6.051   1.136
10189SOL     OW31465   1.264   6.694   5.426
10189SOL    HW131466   1.176   6.673   5.384
10189SOL    HW231467   1.314   6.609   5.443
10190SOL     OW31468   5.448   2.801   0.543
10190SOL    HW131469   5.417   2.780   0.635
10190SOL    HW231470   5.420   2.894   0.518
10191SOL     OW31471   6.444   4.308   6.940
10191SOL    HW131472   6.482   4.234   6.995
10191SOL    HW231473   6.453   4.395   6.988
10192SOL     OW31474   3.241   0.976   5.633
10192SOL    HW131475   3.215   1.025   5.549
10192SOL    HW231476   3.162   0.924   5.666
10193SOL     OW31477   4.877   4.244   0.622
10193SOL    HW131478   4.905   4.314   0.556
10193SOL    HW231479   4.836   4.167   0.573
10194SOL     OW31480   5.263   3.353   5.118
10194SOL    HW131481   5.178   3.300   5.118
10194SOL    HW231482   5.309   3.342   5.206
10195SOL     OW31483   6.980   3.871   1.904
10195SOL    HW131484   6.994   3.951   1.845
10195SOL    HW231485   0.025   3.869   1.974
10196SOL     OW31486   0.552   1.552   4.551
10196SOL    HW131487   0.495   1.562   4.470
10196SOL    HW231488   0.595   1.639   4.574
10197SOL     OW31489   5.876   1.059   6.065
10197SOL    HW131490   5.833   0.971   6.044
10197SOL    HW231491   5.941   1.082   5.993
10198SOL     OW31492   3.455   6.707   3.093
10198SOL    HW131493   3.422   6.617   3.066
10198SOL    HW231494   3.416   6.732   3.181
10199SOL     OW31495   1.401   2.422   5.224
10199SOL    HW131496   1.474   2.433   5.291
10199SOL    HW231497   1.392   2.325   5.201
10200SOL     OW31498   5.960   3.016   1.685
10200SOL    HW131499   5.864   2.992   1.693
10200SOL    HW231500   6.003   2.959   1.615
10201SOL     OW31501   1.274   3.081   0.561
10201SOL    HW131502   1.287   3.043   0.469
10201SOL    HW231503   1.340   3.156   0.575
10202SOL     OW31504   3.499   0.461   5.019
10202SOL    HW131505   3.480   0.546   5.069
10202SOL    HW231506   3.591   0.464   4.981
10203SOL     OW31507   6.241   2.101   4.640
10203SOL    HW131508   6.314   2.126   4.575
10203SOL    HW231509   6.200   2.014   4.612
10204SOL     OW31510   5.636   5.888   6.739
10204SOL    HW131511   5.619   5.853   6.647
10204SOL    HW231512   5.733   5.912   6.748
10205SOL     OW31513   0.953   0.864   5.937
10205SOL    HW131514   0.902   0.850   6.021
10205SOL    HW231515   1.051   0.873   5.958
10206SOL     OW31516   1.553   1.039   5.137
10206SOL    HW131517   1.623   1.107   5.158
10206SOL    HW231518   1.485   1.079   5.075
10207SOL     OW31519   1.904   2.273   5.240
10207SOL    HW131520   1.842   2.239   5.169
10207SOL    HW231521   1.860   2.349   5.288
10208SOL     OW31522   6.386   5.128   5.538
10208SOL    HW131523   6.437   5.094   5.617
10208SOL    HW231524   6.301   5.076   5.527
10209SOL     OW31525   6.792   6.927   5.818
10209SOL    HW131526   6.869   6.928   5.754
10209SOL    HW231527   6.773   6.833   5.846
10210SOL     OW31528   3.323   6.577   2.176
10210SOL    HW131529   3.328   6.528   2.090
10210SOL    HW231530   3.242   6.637   2.177
10211SOL     OW31531   5.458   5.791   5.369
10211SOL    HW131532   5.365   5.827   5.363
10211SOL    HW231533   5.523   5.857   5.332
10212SOL     OW31534   0.680   0.120   6.876
10212SOL    HW131535   0.674   0.142   6.778
10212SOL    HW231536   0.666   0.203   6.930
10213SOL     OW31537   6.073   1.928   0.776
10213SOL    HW131538   6.052   1.953   0.682
10213SOL    HW231539   6.031   1.839   0.796
10214SOL     OW31540   0.696   2.302   0.675
10214SOL    HW131541   0.692   2.342   0.766
10214SOL    HW231542   0.605   2.275   0.645
10215SOL     OW31543   3.360   3.073   2.271
10215SOL    HW131544   3.262   3.062   2.287
10215SOL    HW231545   3.379   3.061   2.173
10216SOL     OW31546   6.954   6.254   2.733
10216SOL    HW131547   6.916   6.240   2.824
10216SOL    HW231548   6.941   6.349   2.705
10217SOL     OW31549   3.545   1.093   4.142
10217SOL    HW131550   3.449   1.113   4.127
10217SOL    HW231551   3.554   1.011   4.199
10218SOL     OW31552   1.556   2.868   2.912
10218SOL    HW131553   1.601   2.906   2.993
10218SOL    HW231554   1.625   2.829   2.851
10219SOL     OW31555   6.771   0.156   2.824
10219SOL    HW131556   6.841   0.085   2.814
10219SOL    HW231557   6.815   0.246   2.824
10220SOL     OW31558   3.977   2.685   0.806
10220SOL    HW131559   3.912   2.612   0.825
10220SOL    HW231560   4.000   2.733   0.891
10221SOL     OW31561   0.746   5.551   3.996
10221SOL    HW131562   0.797   5.529   3.913
10221SOL    HW231563   0.678   5.622   3.976
10222SOL     OW31564   2.987   3.592   4.586
10222SOL    HW131565   3.085   3.588   4.606
10222SOL    HW231566   2.960   3.511   4.534
10223SOL     OW31567   0.678   6.318   1.747
10223SOL    HW131568   0.716   6.231   1.715
10223SOL    HW231569   0.647   6.371   1.668
10224SOL     OW31570   5.975   4.161   3.100
10224SOL    HW131571   5.962   4.181   3.198
10224SOL    HW231572   5.901   4.202   3.048
10225SOL     OW31573   2.855   3.669   5.859
10225SOL    HW131574   2.856   3.747   5.797
10225SOL    HW231575   2.906   3.692   5.942
10226SOL     OW31576   5.247   2.827   0.144
10226SOL    HW131577   5.235   2.854   0.049
10226SOL    HW231578   5.163   2.847   0.195
10227SOL     OW31579   5.121   3.860   1.605
10227SOL    HW131580   5.110   3.817   1.515
10227SOL    HW231581   5.216   3.886   1.618
10228SOL     OW31582   5.323   0.808   0.982
10228SOL    HW131583   5.233   0.851   0.980
10228SOL    HW231584   5.321   0.724   0.927
10229SOL     OW31585   6.548   3.268   5.048
10229SOL    HW131586   6.475   3.202   5.061
10229SOL    HW231587   6.516   3.343   4.991
10230SOL     OW31588   0.106   6.282   2.296
10230SOL    HW131589   0.086   6.190   2.263
10230SOL    HW231590   0.184   6.279   2.359
10231SOL     OW31591   1.361   5.448   3.213
10231SOL    HW131592   1.393   5.524   3.156
10231SOL    HW231593   1.342   5.481   3.305
10232SOL     OW31594   5.285   4.465   4.139
10232SOL    HW131595   5.330   4.548   4.105
10232SOL    HW231596   5.216   4.491   4.207
10233SOL     OW31597   3.079   3.977   5.998
10233SOL    HW131598   3.075   4.064   6.048
10233SOL    HW231599   3.075   3.996   5.899
10234SOL     OW31600   0.653   1.039   2.364
10234SOL    HW131601   0.575   1.090   2.400
10234SOL    HW231602   0.737   1.092   2.378
10235SOL     OW31603   1.532   0.818   2.837
10235SOL    HW131604   1.482   0.904   2.832
10235SOL    HW231605   1.629   0.834   2.819
10236SOL     OW31606   2.584   6.747   2.534
10236SOL    HW131607   2.574   6.826   2.473
10236SOL    HW231608   2.670   6.700   2.513
10237SOL     OW31609   0.359   3.474   5.003
10237SOL    HW131610   0.267   3.436   5.000
10237SOL    HW231611   0.375   3.516   5.093
10238SOL     OW31612   3.677   6.792   2.086
10238SOL    HW131613   3.668   6.820   1.990
10238SOL    HW231614   3.606   6.836   2.140
10239SOL     OW31615   0.916   2.612   4.148
10239SOL    HW131616   0.851   2.553   4.196
10239SOL    HW231617   0.967   2.558   4.081
10240SOL     OW31618   2.374   6.467   0.640
10240SOL    HW131619   2.431   6.549   0.644
10240SOL    HW231620   2.418   6.400   0.579
10241SOL     OW31621   3.893   2.629   1.548
10241SOL    HW131622   3.991   2.643   1.535
10241SOL    HW231623   3.877   2.539   1.590
10242SOL     OW31624   6.970   2.497   6.773
10242SOL    HW131625   6.905   2.426   6.801
10242SOL    HW231626   6.957   2.578   6.830
10243SOL     OW31627   2.519   5.485   1.655
10243SOL    HW131628   2.564   5.456   1.739
10243SOL    HW231629   2.521   5.410   1.588
10244SOL     OW31630   2.895   4.367   1.472
10244SOL    HW131631   2.992   4.380   1.448
10244SOL    HW231632   2.888   4.347   1.570
10245SOL     OW31633   4.579   4.073   1.004
10245SOL    HW131634   4.620   3.992   1.047
10245SOL    HW231635   4.479   4.067   1.011
10246SOL     OW31636   3.589   2.903   3.991
10246SOL    HW131637   3.567   2.832   4.058
10246SOL    HW231638   3.583   2.993   4.034
10247SOL     OW31639   0.537   2.461   4.162
10247SOL    HW131640   0.594   2.542   4.175
10247SOL    HW231641   0.510   2.455   4.066
10248SOL     OW31642   1.066   0.820   4.110
10248SOL    HW131643   1.028   0.911   4.094
10248SOL    HW231644   1.024   0.755   4.047
10249SOL     OW31645   2.889   5.402   6.143
10249SOL    HW131646   2.822   5.406   6.069
10249SOL    HW231647   2.879   5.483   6.201
10250SOL     OW31648   4.275   2.579   1.066
10250SOL    HW131649   4.241   2.662   1.021
10250SOL    HW231650   4.369   2.594   1.098
10251SOL     OW31651   1.397   0.558   4.372
10251SOL    HW131652   1.471   0.591   4.431
10251SOL    HW231653   1.435   0.533   4.283
10252SOL     OW31654   5.311   4.379   6.278
10252SOL    HW131655   5.376   4.322   6.327
10252SOL    HW231656   5.307   4.351   6.182
10253SOL     OW31657   3.559   6.103   6.128
10253SOL    HW131658   3.484   6.153   6.085
10253SOL    HW231659   3.616   6.167   6.180
10254SOL     OW31660   5.962   1.618   5.856
10254SOL    HW131661   5.885   1.568   5.896
10254SOL    HW231662   6.027   1.642   5.929
10255SOL     OW31663   4.112   4.439   1.497
10255SOL    HW131664   4.071   4.529   1.487
10255SOL    HW231665   4.158   4.413   1.412
10256SOL     OW31666   3.925   1.189   3.528
10256SOL    HW131667   3.953   1.114   3.468
10256SOL    HW231668   3.878   1.151   3.608
10257SOL     OW31669   4.066   5.868   3.236
10257SOL    HW131670   4.142   5.828   3.184
10257SOL    HW231671   4.090   5.961   3.264
10258SOL     OW31672   1.813   1.645   1.706
10258SOL    HW131673   1.719   1.668   1.733
10258SOL    HW231674   1.878   1.694   1.764
10259SOL     OW31675   2.216   4.152   4.067
10259SOL    HW131676   2.117   4.167   4.063
10259SOL    HW231677   2.235   4.065   4.113
10260SOL     OW31678   1.115   0.696   3.353
10260SOL    HW131679   1.139   0.772   3.292
10260SOL    HW231680   1.198   0.652   3.386
10261SOL     OW31681   0.236   3.724   1.004
10261SOL    HW131682   0.156   3.672   1.033
10261SOL    HW231683   0.311   3.662   0.985
10262SOL     OW31684   4.471   1.628   0.665
10262SOL    HW131685   4.432   1.660   0.751
10262SOL    HW231686   4.504   1.534   0.677
10263SOL     OW31687   5.929   1.417   2.375
10263SOL    HW131688   5.954   1.321   2.391
10263SOL    HW231689   5.876   1.423   2.290
10264SOL     OW31690   6.653   6.411   6.709
10264SOL    HW131691   6.563   6.450   6.729
10264SOL    HW231692   6.653   6.314   6.734
10265SOL     OW31693   2.017   2.090   0.798
10265SOL    HW131694   1.919   2.079   0.816
10265SOL    HW231695   2.065   2.006   0.821
10266SOL     OW31696   2.659   3.488   1.724
10266SOL    HW131697   2.584   3.487   1.790
10266SOL    HW231698   2.709   3.402   1.729
10267SOL     OW31699   5.694   0.836   1.297
10267SOL    HW131700   5.709   0.773   1.373
10267SOL    HW231701   5.596   0.847   1.281
10268SOL     OW31702   3.788   6.376   1.643
10268SOL    HW131703   3.817   6.472   1.648
10268SOL    HW231704   3.790   6.336   1.735
10269SOL     OW31705   2.975   2.489   0.895
10269SOL    HW131706   2.953   2.533   0.808
10269SOL    HW231707   3.031   2.550   0.950
10270SOL     OW31708   2.838   0.372   2.885
10270SOL    HW131709   2.804   0.432   2.812
10270SOL    HW231710   2.765   0.311   2.914
10271SOL     OW31711   1.510   1.887   6.428
10271SOL    HW131712   1.576   1.923   6.494
10271SOL    HW231713   1.437   1.953   6.414
10272SOL     OW31714   6.024   0.067   4.632
10272SOL    HW131715   6.113   0.047   4.674
10272SOL    HW231716   5.976   7.008   4.614
10273SOL     OW31717   2.276   5.343   3.406
10273SOL    HW131718   2.193   5.366   3.356
10273SOL    HW231719   2.255   5.327   3.502
10274SOL     OW31720   0.950   5.003   5.491
10274SOL    HW131721   0.904   5.045   5.569
10274SOL    HW231722   0.887   4.940   5.446
10275SOL     OW31723   6.784   0.444   2.543
10275SOL    HW131724   6.847   0.432   2.467
10275SOL    HW231725   6.740   0.534   2.537
10276SOL     OW31726   3.709   5.263   5.360
10276SOL    HW131727   3.720   5.295   5.454
10276SOL    HW231728   3.798   5.258   5.316
10277SOL     OW31729   0.475   5.869   4.291
10277SOL    HW131730   0.511   5.951   4.247
10277SOL    HW231731   0.418   5.895   4.369
10278SOL     OW31732   6.737   0.118   4.995
10278SOL    HW131733   6.778   0.144   5.083
10278SOL    HW231734   6.805   0.129   4.923
10279SOL     OW31735   2.282   6.220   4.186
10279SOL    HW131736   2.356   6.193   4.248
10279SOL    HW231737   2.312   6.300   4.133
10280SOL     OW31738   6.374   4.266   0.394
10280SOL    HW131739   6.325   4.328   0.455
10280SOL    HW231740   6.427   4.201   0.448
10281SOL     OW31741   6.486   1.486   3.558
10281SOL    HW131742   6.497   1.394   3.597
10281SOL    HW231743   6.436   1.544   3.622
10282SOL     OW31744   4.939   3.102   3.639
10282SOL    HW131745   4.954   3.192   3.599
10282SOL    HW231746   4.970   3.031   3.576
10283SOL     OW31747   0.844   2.765   1.151
10283SOL    HW131748   0.759   2.807   1.120
10283SOL    HW231749   0.826   2.671   1.182
10284SOL     OW31750   0.219   3.312   3.840
10284SOL    HW131751   0.249   3.277   3.751
10284SOL    HW231752   0.130   3.356   3.830
10285SOL     OW31753   6.133   5.671   5.281
10285SOL    HW131754   6.093   5.735   5.346
10285SOL    HW231755   6.060   5.622   5.233
10286SOL     OW31756   2.889   1.010   3.127
10286SOL    HW131757   2.874   0.992   3.224
10286SOL    HW231758   2.936   0.932   3.086
10287SOL     OW31759   2.187   5.473   2.966
10287SOL    HW131760   2.246   5.487   3.046
10287SOL    HW231761   2.187   5.556   2.910
10288SOL     OW31762   3.890   6.604   5.131
10288SOL    HW131763   3.801   6.578   5.094
10288SOL    HW231764   3.896   6.575   5.227
10289SOL     OW31765   3.353   5.615   6.840
10289SOL    HW131766   3.421   5.681   6.872
10289SOL    HW231767   3.283   5.663   6.787
10290SOL     OW31768   3.655   2.862   1.769
10290SOL    HW131769   3.751   2.859   1.795
10290SOL    HW231770   3.615   2.770   1.777
10291SOL     OW31771   1.965   1.794   1.887
10291SOL    HW131772   1.990   1.752   1.974
10291SOL    HW231773   1.939   1.889   1.902
10292SOL     OW31774   6.551   6.923   6.204
10292SOL    HW131775   6.504   6.839   6.177
10292SOL    HW231776   6.574   6.918   6.301
10293SOL     OW31777   1.346   4.371   4.759
10293SOL    HW131778   1.440   4.373   4.724
10293SOL    HW231779   1.322   4.278   4.786
10294SOL     OW31780   3.251   1.308   2.339
10294SOL    HW131781   3.263   1.303   2.239
10294SOL    HW231782   3.182   1.376   2.361
10295SOL     OW31783   1.163   2.044   6.627
10295SOL    HW131784   1.082   2.011   6.579
10295SOL    HW231785   1.237   2.058   6.561
10296SOL     OW31786   6.042   1.217   5.481
10296SOL    HW131787   6.100   1.284   5.527
10296SOL    HW231788   5.960   1.262   5.445
10297SOL     OW31789   3.536   0.954   6.786
10297SOL    HW131790   3.619   1.008   6.802
10297SOL    HW231791   3.481   0.954   6.869
10298SOL     OW31792   0.663   2.394   1.985
10298SOL    HW131793   0.605   2.404   2.066
10298SOL    HW231794   0.712   2.479   1.968
10299SOL     OW31795   4.205   6.527   2.860
10299SOL    HW131796   4.209   6.522   2.760
10299SOL    HW231797   4.143   6.457   2.895
10300SOL     OW31798   1.262   3.970   1.575
10300SOL    HW131799   1.187   3.972   1.640
10300SOL    HW231800   1.349   3.978   1.624
10301SOL     OW31801   4.073   0.578   6.539
10301SOL    HW131802   4.072   0.496   6.597
10301SOL    HW231803   4.137   0.564   6.463
10302SOL     OW31804   2.674   6.070   5.005
10302SOL    HW131805   2.597   6.134   5.014
10302SOL    HW231806   2.760   6.122   5.004
10303SOL     OW31807   0.497   5.601   4.966
10303SOL    HW131808   0.435   5.680   4.974
10303SOL    HW231809   0.591   5.632   4.981
10304SOL     OW31810   6.148   6.398   0.500
10304SOL    HW131811   6.110   6.310   0.531
10304SOL    HW231812   6.240   6.408   0.536
10305SOL     OW31813   3.155   4.065   5.741
10305SOL    HW131814   3.158   4.163   5.760
10305SOL    HW231815   3.097   4.049   5.661
10306SOL     OW31816   4.453   0.766   1.081
10306SOL    HW131817   4.479   0.691   1.021
10306SOL    HW231818   4.355   0.762   1.100
10307SOL     OW31819   2.208   0.212   5.399
10307SOL    HW131820   2.143   0.180   5.329
10307SOL    HW231821   2.183   0.304   5.428
10308SOL     OW31822   2.614   5.107   2.624
10308SOL    HW131823   2.656   5.167   2.692
10308SOL    HW231824   2.565   5.033   2.670
10309SOL     OW31825   7.005   1.218   4.678
10309SOL    HW131826   6.916   1.261   4.692
10309SOL    HW231827   0.040   1.282   4.633
10310SOL     OW31828   2.191   4.013   5.745
10310SOL    HW131829   2.287   3.989   5.729
10310SOL    HW231830   2.184   4.069   5.828
10311SOL     OW31831   5.092   5.526   6.393
10311SOL    HW131832   5.090   5.430   6.366
10311SOL    HW231833   5.074   5.533   6.491
10312SOL     OW31834   4.428   0.236   2.148
10312SOL    HW131835   4.449   0.328   2.180
10312SOL    HW231836   4.453   0.227   2.052
10313SOL     OW31837   5.294   0.029   3.330
10313SOL    HW131838   5.273   0.097   3.401
10313SOL    HW231839   5.379   7.008   3.354
10314SOL     OW31840   0.391   0.369   0.852
10314SOL    HW131841   0.484   0.379   0.889
10314SOL    HW231842   0.325   0.402   0.919
10315SOL     OW31843   5.571   5.289   3.549
10315SOL    HW131844   5.585   5.321   3.642
10315SOL    HW231845   5.619   5.202   3.536
10316SOL     OW31846   0.325   1.847   6.611
10316SOL    HW131847   0.410   1.797   6.629
10316SOL    HW231848   0.323   1.931   6.665
10317SOL     OW31849   3.674   5.991   5.179
10317SOL    HW131850   3.722   5.938   5.249
10317SOL    HW231851   3.638   5.930   5.109
10318SOL     OW31852   6.527   6.697   0.409
10318SOL    HW131853   6.623   6.679   0.388
10318SOL    HW231854   6.478   6.720   0.325
10319SOL     OW31855   0.833   4.285   3.913
10319SOL    HW131856   0.799   4.194   3.940
10319SOL    HW231857   0.902   4.316   3.978
10320SOL     OW31858   0.403   6.702   3.715
10320SOL    HW131859   0.428   6.658   3.629
10320SOL    HW231860   0.312   6.672   3.743
10321SOL     OW31861   5.070   2.639   2.144
10321SOL    HW131862   5.138   2.712   2.135
10321SOL    HW231863   5.010   2.659   2.221
10322SOL     OW31864   4.619   4.369   4.979
10322SOL    HW131865   4.622   4.332   4.886
10322SOL    HW231866   4.525   4.396   5.001
10323SOL     OW31867   0.813   4.571   5.567
10323SOL    HW131868   0.790   4.637   5.495
10323SOL    HW231869   0.774   4.482   5.544
10324SOL     OW31870   3.425   3.010   2.024
10324SOL    HW131871   3.493   3.051   1.963
10324SOL    HW231872   3.374   2.939   1.975
10325SOL     OW31873   6.928   5.573   3.359
10325SOL    HW131874   6.880   5.582   3.272
10325SOL    HW231875   6.935   5.476   3.383
10326SOL     OW31876   5.358   3.682   6.822
10326SOL    HW131877   5.300   3.706   6.745
10326SOL    HW231878   5.362   3.582   6.831
10327SOL     OW31879   2.213   4.568   1.179
10327SOL    HW131880   2.157   4.512   1.239
10327SOL    HW231881   2.308   4.567   1.210
10328SOL     OW31882   6.050   2.180   2.052
10328SOL    HW131883   5.976   2.128   2.008
10328SOL    HW231884   6.119   2.202   1.983
10329SOL     OW31885   3.568   1.492   3.173
10329SOL    HW131886   3.477   1.461   3.143
10329SOL    HW231887   3.608   1.550   3.102
10330SOL     OW31888   4.415   1.310   1.525
10330SOL    HW131889   4.408   1.212   1.544
10330SOL    HW231890   4.500   1.346   1.563
10331SOL     OW31891   6.486   5.283   6.757
10331SOL    HW131892   6.415   5.270   6.687
10331SOL    HW231893   6.444   5.312   6.843
10332SOL     OW31894   1.517   1.051   6.884
10332SOL    HW131895   1.578   0.989   6.836
10332SOL    HW231896   1.504   1.134   6.830
10333SOL     OW31897   0.704   4.616   4.667
10333SOL    HW131898   0.788   4.640   4.618
10333SOL    HW231899   0.701   4.517   4.681
10334SOL     OW31900   3.238   0.075   3.502
10334SOL    HW131901   3.298   0.080   3.422
10334SOL    HW231902   3.260   0.150   3.565
10335SOL     OW31903   0.802   2.383   5.719
10335SOL    HW131904   0.713   2.406   5.680
10335SOL    HW231905   0.803   2.287   5.746
10336SOL     OW31906   5.292   7.004   3.801
10336SOL    HW131907   5.248   0.040   3.736
10336SOL    HW231908   5.236   6.922   3.811
10337SOL     OW31909   6.618   5.704   6.431
10337SOL    HW131910   6.717   5.693   6.427
10337SOL    HW231911   6.577   5.661   6.350
10338SOL     OW31912   1.379   6.316   1.948
10338SOL    HW131913   1.302   6.380   1.941
10338SOL    HW231914   1.415   6.318   2.041
10339SOL     OW31915   6.292   2.665   5.280
10339SOL    HW131916   6.240   2.666   5.365
10339SOL    HW231917   6.254   2.597   5.218
10340SOL     OW31918   2.387   3.280   6.463
10340SOL    HW131919   2.333   3.196   6.475
10340SOL    HW231920   2.446   3.271   6.383
10341SOL     OW31921   2.378   2.788   3.063
10341SOL    HW131922   2.358   2.715   3.128
10341SOL    HW231923   2.419   2.749   2.980
10342SOL     OW31924   0.669   1.498   3.841
10342SOL    HW131925   0.731   1.576   3.832
10342SOL    HW231926   0.720   1.413   3.826
10343SOL     OW31927   3.219   5.406   2.486
10343SOL    HW131928   3.205   5.395   2.387
10343SOL    HW231929   3.226   5.315   2.528
10344SOL     OW31930   4.585   5.832   5.923
10344SOL    HW131931   4.528   5.821   6.004
10344SOL    HW231932   4.570   5.922   5.882
10345SOL     OW31933   2.111   3.700   4.322
10345SOL    HW131934   2.140   3.605   4.315
10345SOL    HW231935   2.092   3.723   4.417
10346SOL     OW31936   6.828   6.018   0.576
10346SOL    HW131937   6.815   6.054   0.484
10346SOL    HW231938   6.770   5.937   0.589
10347SOL     OW31939   5.238   1.697   4.257
10347SOL    HW131940   5.221   1.689   4.355
10347SOL    HW231941   5.153   1.678   4.207
10348SOL     OW31942   6.598   3.913   0.815
10348SOL    HW131943   6.586   4.004   0.774
10348SOL    HW231944   6.685   3.910   0.865
10349SOL     OW31945   0.819   6.584   6.713
10349SOL    HW131946   0.787   6.605   6.621
10349SOL    HW231947   0.745   6.543   6.766
10350SOL     OW31948   3.597   6.767   5.902
10350SOL    HW131949   3.541   6.688   5.878
10350SOL    HW231950   3.583   6.790   5.998
10351SOL     OW31951   4.276   5.092   6.808
10351SOL    HW131952   4.193   5.035   6.805
10351SOL    HW231953   4.346   5.046   6.862
10352SOL     OW31954   3.537   3.336   6.243
10352SOL    HW131955   3.532   3.261   6.309
10352SOL    HW231956   3.451   3.387   6.244
10353SOL     OW31957   0.565   2.391   4.751
10353SOL    HW131958   0.641   2.407   4.688
10353SOL    HW231959   0.512   2.312   4.721
10354SOL     OW31960   5.653   1.600   1.566
10354SOL    HW131961   5.563   1.640   1.581
10354SOL    HW231962   5.644   1.512   1.520
10355SOL     OW31963   1.611   4.845   2.172
10355SOL    HW131964   1.679   4.900   2.122
10355SOL    HW231965   1.615   4.867   2.269
10356SOL     OW31966   0.047   3.052   4.268
10356SOL    HW131967   7.026   2.969   4.242
10356SOL    HW231968   0.087   3.095   4.187
10357SOL     OW31969   2.630   2.115   0.637
10357SOL    HW131970   2.628   2.071   0.547
10357SOL    HW231971   2.717   2.095   0.682
10358SOL     OW31972   0.169   1.620   2.307
10358SOL    HW131973   0.084   1.617   2.360
10358SOL    HW231974   0.224   1.699   2.336
10359SOL     OW31975   0.436   1.151   1.544
10359SOL    HW131976   0.424   1.158   1.644
10359SOL    HW231977   0.347   1.140   1.501
10360SOL     OW31978   6.423   6.355   3.684
10360SOL    HW131979   6.505   6.399   3.645
10360SOL    HW231980   6.372   6.422   3.738
10361SOL     OW31981   1.729   4.964   1.311
10361SOL    HW131982   1.698   4.872   1.289
10361SOL    HW231983   1.828   4.967   1.312
10362SOL     OW31984   1.277   4.980   4.119
10362SOL    HW131985   1.239   5.073   4.126
10362SOL    HW231986   1.353   4.969   4.183
10363SOL     OW31987   5.952   0.373   3.867
10363SOL    HW131988   5.855   0.398   3.871
10363SOL    HW231989   6.000   0.436   3.805
10364SOL     OW31990   1.441   4.647   1.116
10364SOL    HW131991   1.372   4.714   1.141
10364SOL    HW231992   1.413   4.556   1.147
10365SOL     OW31993   4.395   5.888   0.093
10365SOL    HW131994   4.432   5.899   0.185
10365SOL    HW231995   4.323   5.819   0.094
10366SOL     OW31996   3.211   0.080   3.863
10366SOL    HW131997   3.213   0.070   3.962
10366SOL    HW231998   3.303   0.097   3.829
10367SOL     OW31999   6.659   2.167   3.129
10367SOL    HW132000   6.681   2.264   3.142
10367SOL    HW232001   6.562   2.152   3.147
10368SOL     OW32002   2.703   0.286   1.132
10368SOL    HW132003   2.639   0.284   1.055
10368SOL    HW232004   2.748   0.375   1.136
10369SOL     OW32005   4.375   3.087   0.326
10369SOL    HW132006   4.306   3.015   0.335
10369SOL    HW232007   4.329   3.175   0.318
10370SOL     OW32008   3.460   0.696   5.151
10370SOL    HW132009   3.541   0.752   5.169
10370SOL    HW232010   3.411   0.679   5.236
10371SOL     OW32011   5.145   6.513   5.607
10371SOL    HW132012   5.137   6.581   5.535
10371SOL    HW232013   5.061   6.512   5.661
10372SOL     OW32014   0.704   0.456   3.045
10372SOL    HW132015   0.668   0.395   3.115
10372SOL    HW232016   0.760   0.527   3.088
10373SOL     OW32017   1.587   5.349   4.950
10373SOL    HW132018   1.513   5.306   4.897
10373SOL    HW232019   1.657   5.383   4.887
10374SOL     OW32020   2.700   2.350   4.576
10374SOL    HW132021   2.608   2.364   4.539
10374SOL    HW232022   2.696   2.358   4.676
10375SOL     OW32023   6.799   2.145   0.470
10375SOL    HW132024   6.710   2.148   0.426
10375SOL    HW232025   6.864   2.201   0.419
10376SOL     OW32026   6.690   1.019   3.441
10376SOL    HW132027   6.592   1.025   3.422
10376SOL    HW232028   6.715   0.924   3.459
10377SOL     OW32029   0.959   6.767   4.775
10377SOL    HW132030   0.884   6.731   4.831
10377SOL    HW232031   0.921   6.815   4.696
10378SOL     OW32032   6.882   6.828   6.256
10378SOL    HW132033   6.838   6.897   6.199
10378SOL    HW232034   6.832   6.742   6.248
10379SOL     OW32035   5.622   1.623   4.699
10379SOL    HW132036   5.567   1.625   4.615
10379SOL    HW232037   5.564   1.600   4.777
10380SOL     OW32038   4.390   0.919   3.096
10380SOL    HW132039   4.408   0.928   3.194
10380SOL    HW232040   4.429   0.998   3.048
10381SOL     OW32041   3.947   5.221   4.934
10381SOL    HW132042   3.859   5.216   4.886
10381SOL    HW232043   3.992   5.132   4.929
10382SOL     OW32044   1.801   5.557   0.477
10382SOL    HW132045   1.702   5.550   0.487
10382SOL    HW232046   1.844   5.552   0.567
10383SOL     OW32047   6.222   2.712   6.771
10383SOL    HW132048   6.195   2.620   6.743
10383SOL    HW232049   6.218   2.718   6.871
10384SOL     OW32050   6.189   0.207   0.017
10384SOL    HW132051   6.243   0.290   0.027
10384SOL    HW232052   6.092   0.229   0.030
10385SOL     OW32053   5.744   2.411   0.063
10385SOL    HW132054   5.731   2.481   0.134
10385SOL    HW232055   5.825   2.434   0.009
10386SOL     OW32056   6.378   2.478   6.462
10386SOL    HW132057   6.354   2.420   6.540
10386SOL    HW232058   6.355   2.430   6.377
10387SOL     OW32059   2.063   3.248   2.574
10387SOL    HW132060   2.077   3.311   2.498
10387SOL    HW232061   2.058   3.300   2.660
10388SOL     OW32062   1.694   4.219   2.550
10388SOL    HW132063   1.737   4.182   2.467
10388SOL    HW232064   1.700   4.319   2.550
10389SOL     OW32065   0.584   5.520   3.064
10389SOL    HW132066   0.665   5.465   3.082
10389SOL    HW232067   0.516   5.502   3.135
10390SOL     OW32068   1.946   3.098   3.111
10390SOL    HW132069   1.951   3.011   3.061
10390SOL    HW232070   2.031   3.149   3.096
10391SOL     OW32071   3.367   6.361   5.091
10391SOL    HW132072   3.330   6.368   5.184
10391SOL    HW232073   3.302   6.401   5.026
10392SOL     OW32074   6.808   4.819   6.706
10392SOL    HW132075   6.830   4.891   6.772
10392SOL    HW232076   6.727   4.769   6.737
10393SOL     OW32077   1.438   1.012   3.905
10393SOL    HW132078   1.343   1.004   3.875
10393SOL    HW232079   1.487   1.072   3.841
10394SOL     OW32080   2.918   6.793   6.884
10394SOL    HW132081   2.955   6.721   6.942
10394SOL    HW232082   2.867   6.858   6.939
10395SOL     OW32083   1.019   1.858   4.905
10395SOL    HW132084   1.109   1.867   4.863
10395SOL    HW232085   0.954   1.825   4.837
10396SOL     OW32086   0.572   0.131   5.015
10396SOL    HW132087   0.566   0.076   5.098
10396SOL    HW232088   0.618   0.079   4.943
10397SOL     OW32089   4.042   2.140   2.698
10397SOL    HW132090   4.006   2.119   2.788
10397SOL    HW232091   4.130   2.093   2.685
10398SOL     OW32092   6.586   3.289   2.541
10398SOL    HW132093   6.621   3.265   2.450
10398SOL    HW232094   6.601   3.386   2.557
10399SOL     OW32095   6.147   2.631   5.514
10399SOL    HW132096   6.156   2.592   5.606
10399SOL    HW232097   6.144   2.731   5.520
10400SOL     OW32098   1.833   4.652   1.674
10400SOL    HW132099   1.833   4.621   1.769
10400SOL    HW232100   1.796   4.745   1.669
10401SOL     OW32101   0.822   6.026   1.392
10401SOL    HW132102   0.921   6.010   1.391
10401SOL    HW232103   0.794   6.050   1.485
10402SOL     OW32104   0.659   2.232   4.318
10402SOL    HW132105   0.593   2.304   4.296
10402SOL    HW232106   0.750   2.272   4.328
10403SOL     OW32107   4.338   1.458   2.173
10403SOL    HW132108   4.425   1.419   2.202
10403SOL    HW232109   4.263   1.398   2.203
10404SOL     OW32110   0.011   0.076   3.731
10404SOL    HW132111   0.035   0.140   3.658
10404SOL    HW232112   0.094   0.031   3.765
10405SOL     OW32113   2.098   6.575   6.633
10405SOL    HW132114   2.159   6.506   6.594
10405SOL    HW232115   2.011   6.574   6.583
10406SOL     OW32116   2.047   5.576   5.588
10406SOL    HW132117   2.009   5.494   5.630
10406SOL    HW232118   2.126   5.551   5.532
10407SOL     OW32119   1.898   1.423   5.690
10407SOL    HW132120   1.916   1.444   5.594
10407SOL    HW232121   1.805   1.386   5.699
10408SOL     OW32122   4.129   6.273   2.958
10408SOL    HW132123   4.040   6.227   2.954
10408SOL    HW232124   4.194   6.216   3.008
10409SOL     OW32125   6.573   4.699   2.217
10409SOL    HW132126   6.639   4.686   2.291
10409SOL    HW232127   6.489   4.739   2.254
10410SOL     OW32128   5.761   6.584   0.681
10410SOL    HW132129   5.699   6.662   0.678
10410SOL    HW232130   5.841   6.603   0.625
10411SOL     OW32131   1.771   4.016   2.765
10411SOL    HW132132   1.733   4.088   2.707
10411SOL    HW232133   1.839   4.056   2.826
10412SOL     OW32134   0.112   2.225   6.501
10412SOL    HW132135   0.151   2.295   6.441
10412SOL    HW232136   0.116   2.136   6.456
10413SOL     OW32137   0.276   2.263   5.743
10413SOL    HW132138   0.242   2.283   5.835
10413SOL    HW232139   0.276   2.164   5.728
10414SOL     OW32140   5.672   6.838   5.006
10414SOL    HW132141   5.768   6.826   5.031
10414SOL    HW232142   5.666   6.880   4.915
10415SOL     OW32143   0.358   5.247   3.082
10415SOL    HW132144   0.361   5.150   3.105
10415SOL    HW232145   0.426   5.296   3.137
10416SOL     OW32146   5.211   6.741   0.141
10416SOL    HW132147   5.281   6.802   0.104
10416SOL    HW232148   5.191   6.767   0.236
10417SOL     OW32149   4.060   4.848   4.167
10417SOL    HW132150   4.091   4.807   4.253
10417SOL    HW232151   4.042   4.775   4.101
10418SOL     OW32152   6.610   3.700   0.216
10418SOL    HW132153   6.552   3.642   0.158
10418SOL    HW232154   6.631   3.653   0.301
10419SOL     OW32155   1.925   1.024   4.413
10419SOL    HW132156   1.901   1.016   4.316
10419SOL    HW232157   1.844   1.007   4.469
10420SOL     OW32158   5.453   3.044   4.208
10420SOL    HW132159   5.454   2.971   4.140
10420SOL    HW232160   5.546   3.058   4.244
10421SOL     OW32161   1.395   4.468   3.892
10421SOL    HW132162   1.405   4.565   3.913
10421SOL    HW232163   1.452   4.414   3.954
10422SOL     OW32164   5.723   3.131   5.321
10422SOL    HW132165   5.707   3.218   5.367
10422SOL    HW232166   5.796   3.142   5.253
10423SOL     OW32167   2.287   5.528   3.702
10423SOL    HW132168   2.254   5.550   3.794
10423SOL    HW232169   2.257   5.436   3.677
10424SOL     OW32170   3.692   1.288   1.090
10424SOL    HW132171   3.645   1.311   1.175
10424SOL    HW232172   3.625   1.282   1.015
10425SOL     OW32173   1.693   3.793   0.544
10425SOL    HW132174   1.640   3.744   0.614
10425SOL    HW232175   1.708   3.733   0.466
10426SOL     OW32176   6.006   2.224   6.092
10426SOL    HW132177   6.069   2.296   6.066
10426SOL    HW232178   6.026   2.141   6.039
10427SOL     OW32179   5.455   1.052   3.374
10427SOL    HW132180   5.447   0.958   3.341
10427SOL    HW232181   5.418   1.058   3.467
10428SOL     OW32182   2.075   6.377   5.263
10428SOL    HW132183   2.000   6.433   5.229
10428SOL    HW232184   2.150   6.436   5.294
10429SOL     OW32185   1.432   3.668   1.600
10429SOL    HW132186   1.489   3.733   1.549
10429SOL    HW232187   1.486   3.626   1.673
10430SOL     OW32188   2.958   0.403   4.215
10430SOL    HW132189   2.953   0.383   4.313
10430SOL    HW232190   2.871   0.441   4.184
10431SOL     OW32191   4.251   1.495   4.225
10431SOL    HW132192   4.249   1.567   4.294
10431SOL    HW232193   4.337   1.444   4.232
10432SOL     OW32194   1.310   5.281   0.343
10432SOL    HW132195   1.246   5.335   0.287
10432SOL    HW232196   1.297   5.184   0.323
10433SOL     OW32197   3.717   6.500   3.914
10433SOL    HW132198   3.815   6.493   3.895
10433SOL    HW232199   3.666   6.452   3.842
10434SOL     OW32200   4.084   1.023   6.511
10434SOL    HW132201   4.087   0.992   6.415
10434SOL    HW232202   4.063   1.121   6.513
10435SOL     OW32203   2.698   1.769   1.154
10435SOL    HW132204   2.653   1.795   1.239
10435SOL    HW232205   2.776   1.711   1.174
10436SOL     OW32206   1.127   3.272   4.865
10436SOL    HW132207   1.166   3.187   4.830
10436SOL    HW232208   1.192   3.314   4.929
10437SOL     OW32209   6.752   6.536   5.134
10437SOL    HW132210   6.743   6.475   5.055
10437SOL    HW232211   6.848   6.543   5.160
10438SOL     OW32212   6.819   5.888   0.058
10438SOL    HW132213   6.761   5.954   0.106
10438SOL    HW232214   6.785   5.796   0.075
10439SOL     OW32215   6.498   5.466   4.819
10439SOL    HW132216   6.422   5.404   4.842
10439SOL    HW232217   6.524   5.518   4.900
10440SOL     OW32218   6.071   2.192   1.059
10440SOL    HW132219   6.081   2.097   1.088
10440SOL    HW232220   5.986   2.229   1.098
10441SOL     OW32221   4.429   2.172   6.889
10441SOL    HW132222   4.336   2.191   6.920
10441SOL    HW232223   4.473   2.107   6.951
10442SOL     OW32224   2.416   1.641   5.062
10442SOL    HW132225   2.496   1.639   5.122
10442SOL    HW232226   2.434   1.586   4.981
10443SOL     OW32227   1.262   0.578   0.656
10443SOL    HW132228   1.304   0.590   0.746
10443SOL    HW232229   1.228   0.484   0.648
10444SOL     OW32230   4.475   4.826   3.757
10444SOL    HW132231   4.419   4.848   3.838
10444SOL    HW232232   4.562   4.787   3.787
10445SOL     OW32233   1.121   3.196   3.954
10445SOL    HW132234   1.194   3.230   4.013
10445SOL    HW232235   1.088   3.270   3.896
10446SOL     OW32236   2.443   4.714   5.628
10446SOL    HW132237   2.360   4.712   5.571
10446SOL    HW232238   2.506   4.643   5.597
10447SOL     OW32239   0.778   1.999   2.815
10447SOL    HW132240   0.709   1.955   2.758
10447SOL    HW232241   0.834   1.928   2.860
10448SOL     OW32242   1.784   5.670   2.352
10448SOL    HW132243   1.713   5.706   2.412
10448SOL    HW232244   1.811   5.579   2.383
10449SOL     OW32245   4.024   5.108   4.212
10449SOL    HW132246   3.929   5.088   4.190
10449SOL    HW232247   4.077   5.023   4.210
10450SOL     OW32248   0.221   1.079   4.200
10450SOL    HW132249   0.124   1.061   4.215
10450SOL    HW232250   0.266   1.098   4.287
10451SOL     OW32251   3.325   1.989   4.452
10451SOL    HW132252   3.369   1.907   4.490
10451SOL    HW232253   3.384   2.029   4.382
10452SOL     OW32254   6.432   2.626   4.587
10452SOL    HW132255   6.525   2.625   4.623
10452SOL    HW232256   6.369   2.588   4.655
10453SOL     OW32257   4.128   6.166   4.252
10453SOL    HW132258   4.095   6.126   4.338
10453SOL    HW232259   4.092   6.114   4.175
10454SOL     OW32260   6.304   1.032   6.452
10454SOL    HW132261   6.267   1.119   6.485
10454SOL    HW232262   6.285   0.960   6.519
10455SOL     OW32263   0.293   5.856   2.973
10455SOL    HW132264   0.236   5.847   2.891
10455SOL    HW232265   0.388   5.874   2.945
10456SOL     OW32266   0.950   5.690   6.753
10456SOL    HW132267   0.911   5.598   6.764
10456SOL    HW232268   0.997   5.695   6.665
10457SOL     OW32269   3.768   1.637   6.643
10457SOL    HW132270   3.721   1.590   6.718
10457SOL    HW232271   3.814   1.719   6.678
10458SOL     OW32272   1.205   6.397   6.329
10458SOL    HW132273   1.193   6.438   6.238
10458SOL    HW232274   1.302   6.397   6.352
10459SOL     OW32275   5.943   5.555   1.010
10459SOL    HW132276   6.019   5.554   1.076
10459SOL    HW232277   5.859   5.526   1.056
10460SOL     OW32278   6.079   0.711   0.506
10460SOL    HW132279   6.070   0.806   0.479
10460SOL    HW232280   6.080   0.652   0.425
10461SOL     OW32281   0.129   4.659   6.326
10461SOL    HW132282   0.147   4.590   6.397
10461SOL    HW232283   0.128   4.614   6.236
10462SOL     OW32284   3.236   3.805   6.124
10462SOL    HW132285   3.300   3.771   6.055
10462SOL    HW232286   3.152   3.835   6.079
10463SOL     OW32287   4.991   2.696   6.560
10463SOL    HW132288   4.927   2.711   6.635
10463SOL    HW232289   5.037   2.608   6.573
10464SOL     OW32290   6.729   4.756   1.797
10464SOL    HW132291   6.741   4.786   1.892
10464SOL    HW232292   6.716   4.835   1.738
10465SOL     OW32293   5.902   4.710   1.283
10465SOL    HW132294   5.818   4.678   1.327
10465SOL    HW232295   5.891   4.805   1.256
10466SOL     OW32296   5.912   4.142   6.038
10466SOL    HW132297   5.952   4.076   5.975
10466SOL    HW232298   5.833   4.185   5.995
10467SOL     OW32299   0.178   2.345   6.730
10467SOL    HW132300   0.181   2.305   6.638
10467SOL    HW232301   0.089   2.389   6.744
10468SOL     OW32302   1.594   4.653   4.562
10468SOL    HW132303   1.660   4.700   4.620
10468SOL    HW232304   1.620   4.557   4.552
10469SOL     OW32305   0.967   1.622   3.780
10469SOL    HW132306   1.002   1.712   3.804
10469SOL    HW232307   0.976   1.561   3.859
10470SOL     OW32308   2.078   3.547   2.595
10470SOL    HW132309   2.109   3.610   2.524
10470SOL    HW232310   1.979   3.550   2.602
10471SOL     OW32311   2.402   5.857   6.481
10471SOL    HW132312   2.494   5.821   6.468
10471SOL    HW232313   2.369   5.834   6.572
10472SOL     OW32314   3.932   5.188   6.704
10472SOL    HW132315   3.871   5.256   6.662
10472SOL    HW232316   3.902   5.096   6.680
10473SOL     OW32317   6.408   4.641   0.648
10473SOL    HW132318   6.505   4.615   0.637
10473SOL    HW232319   6.354   4.600   0.575
10474SOL     OW32320   6.456   6.932   5.189
10474SOL    HW132321   6.488   6.886   5.106
10474SOL    HW232322   6.371   6.981   5.169
10475SOL     OW32323   0.936   5.312   1.397
10475SOL    HW132324   0.930   5.249   1.320
10475SOL    HW232325   0.942   5.406   1.363
10476SOL     OW32326   5.142   6.632   1.283
10476SOL    HW132327   5.060   6.678   1.315
10476SOL    HW232328   5.119   6.540   1.252
10477SOL     OW32329   6.950   5.785   3.560
10477SOL    HW132330   6.930   5.719   3.632
10477SOL    HW232331   6.941   5.741   3.471
10478SOL     OW32332   7.016   0.875   6.553
10478SOL    HW132333   6.931   0.835   6.520
10478SOL    HW232334   0.049   0.804   6.589
10479SOL     OW32335   0.563   2.823   2.244
10479SOL    HW132336   0.630   2.756   2.275
10479SOL    HW232337   0.533   2.879   2.322
10480SOL     OW32338   2.825   1.157   3.647
10480SOL    HW132339   2.788   1.239   3.602
10480SOL    HW232340   2.753   1.113   3.700
10481SOL     OW32341   6.814   1.494   0.889
10481SOL    HW132342   6.747   1.553   0.934
10481SOL    HW232343   6.834   1.415   0.947
10482SOL     OW32344   5.583   2.865   3.750
10482SOL    HW132345   5.625   2.775   3.765
10482SOL    HW232346   5.655   2.934   3.742
10483SOL     OW32347   6.429   6.243   0.371
10483SOL    HW132348   6.334   6.239   0.339
10483SOL    HW232349   6.442   6.324   0.428
10484SOL     OW32350   6.564   1.007   2.365
10484SOL    HW132351   6.472   1.018   2.327
10484SOL    HW232352   6.601   0.919   2.337
10485SOL     OW32353   5.110   3.126   5.036
10485SOL    HW132354   5.163   3.098   5.116
10485SOL    HW232355   5.172   3.139   4.958
10486SOL     OW32356   5.453   2.876   2.710
10486SOL    HW132357   5.391   2.833   2.776
10486SOL    HW232358   5.545   2.878   2.749
10487SOL     OW32359   5.415   6.769   2.071
10487SOL    HW132360   5.467   6.842   2.115
10487SOL    HW232361   5.354   6.726   2.138
10488SOL     OW32362   3.431   3.770   6.784
10488SOL    HW132363   3.438   3.671   6.795
10488SOL    HW232364   3.395   3.792   6.694
10489SOL     OW32365   1.436   5.598   5.039
10489SOL    HW132366   1.504   5.526   5.026
10489SOL    HW232367   1.456   5.648   5.123
10490SOL     OW32368   6.715   0.335   4.364
10490SOL    HW132369   6.625   0.376   4.351
10490SOL    HW232370   6.714   0.241   4.331
10491SOL     OW32371   0.311   5.329   5.533
10491SOL    HW132372   0.277   5.271   5.606
10491SOL    HW232373   0.263   5.418   5.536
10492SOL     OW32374   4.161   4.367   5.966
10492SOL    HW132375   4.214   4.286   5.939
10492SOL    HW232376   4.071   4.364   5.924
10493SOL     OW32377   3.513   1.248   0.901
10493SOL    HW132378   3.443   1.177   0.888
10493SOL    HW232379   3.477   1.336   0.870
10494SOL     OW32380   5.587   2.050   4.809
10494SOL    HW132381   5.507   2.027   4.865
10494SOL    HW232382   5.605   2.148   4.817
10495SOL     OW32383   1.743   6.617   0.579
10495SOL    HW132384   1.684   6.671   0.520
10495SOL    HW232385   1.715   6.629   0.675
10496SOL     OW32386   6.313   0.500   5.541
10496SOL    HW132387   6.362   0.513   5.628
10496SOL    HW232388   6.287   0.588   5.504
10497SOL     OW32389   0.967   1.653   6.665
10497SOL    HW132390   0.951   1.748   6.639
10497SOL    HW232391   0.885   1.600   6.648
10498SOL     OW32392   3.086   4.972   6.271
10498SOL    HW132393   3.096   4.888   6.323
10498SOL    HW232394   3.054   4.950   6.179
10499SOL     OW32395   2.519   5.344   3.541
10499SOL    HW132396   2.433   5.334   3.491
10499SOL    HW232397   2.563   5.429   3.513
10500SOL     OW32398   2.214   2.472   0.052
10500SOL    HW132399   2.309   2.484   0.024
10500SOL    HW232400   2.176   2.391   0.008
10501SOL     OW32401   1.215   2.311   3.411
10501SOL    HW132402   1.219   2.212   3.428
10501SOL    HW232403   1.223   2.328   3.313
10502SOL     OW32404   3.099   5.826   5.000
10502SOL    HW132405   3.008   5.822   5.043
10502SOL    HW232406   3.162   5.877   5.059
10503SOL     OW32407   2.716   3.395   5.309
10503SOL    HW132408   2.777   3.324   5.275
10503SOL    HW232409   2.621   3.363   5.306
10504SOL     OW32410   2.347   3.387   1.212
10504SOL    HW132411   2.300   3.408   1.298
10504SOL    HW232412   2.299   3.432   1.136
10505SOL     OW32413   0.309   0.142   0.736
10505SOL    HW132414   0.338   0.211   0.802
10505SOL    HW232415   0.388   0.088   0.707
10506SOL     OW32416   0.091   3.702   5.455
10506SOL    HW132417   0.116   3.783   5.401
10506SOL    HW232418   0.052   3.633   5.395
10507SOL     OW32419   1.102   0.244   4.287
10507SOL    HW132420   1.162   0.227   4.364
10507SOL    HW232421   1.050   0.161   4.265
10508SOL     OW32422   5.148   3.661   2.394
10508SOL    HW132423   5.190   3.570   2.394
10508SOL    HW232424   5.075   3.664   2.461
10509SOL     OW32425   1.556   0.651   5.705
10509SOL    HW132426   1.558   0.555   5.734
10509SOL    HW232427   1.568   0.655   5.606
10510SOL     OW32428   6.123   6.528   7.011
10510SOL    HW132429   6.121   6.624   6.983
10510SOL    HW232430   6.115   6.469   6.930
10511SOL     OW32431   0.208   1.814   0.936
10511SOL    HW132432   0.237   1.910   0.934
10511SOL    HW232433   0.258   1.762   0.866
10512SOL     OW32434   3.328   6.204   6.308
10512SOL    HW132435   3.419   6.230   6.341
10512SOL    HW232436   3.266   6.197   6.386
10513SOL     OW32437   0.018   2.030   0.552
10513SOL    HW132438   0.009   1.938   0.591
10513SOL    HW232439   6.954   2.067   0.533
10514SOL     OW32440   6.678   3.609   1.421
10514SOL    HW132441   6.703   3.523   1.467
10514SOL    HW232442   6.582   3.629   1.438
10515SOL     OW32443   6.124   2.487   4.438
10515SOL    HW132444   6.223   2.482   4.426
10515SOL    HW232445   6.102   2.567   4.495
10516SOL     OW32446   3.475   0.372   0.179
10516SOL    HW132447   3.454   0.421   0.264
10516SOL    HW232448   3.573   0.355   0.175
10517SOL     OW32449   0.066   2.393   2.788
10517SOL    HW132450   7.000   2.401   2.750
10517SOL    HW232451   0.069   2.317   2.853
10518SOL     OW32452   0.693   6.791   2.460
10518SOL    HW132453   0.753   6.871   2.454
10518SOL    HW232454   0.746   6.708   2.440
10519SOL     OW32455   3.337   3.563   5.211
10519SOL    HW132456   3.264   3.508   5.170
10519SOL    HW232457   3.425   3.536   5.172
10520SOL     OW32458   3.784   4.295   6.189
10520SOL    HW132459   3.836   4.306   6.104
10520SOL    HW232460   3.687   4.286   6.167
10521SOL     OW32461   6.463   5.301   2.368
10521SOL    HW132462   6.465   5.212   2.415
10521SOL    HW232463   6.463   5.374   2.436
10522SOL     OW32464   6.309   0.122   1.935
10522SOL    HW132465   6.308   0.179   2.017
10522SOL    HW232466   6.336   0.178   1.856
10523SOL     OW32467   0.211   5.560   6.812
10523SOL    HW132468   0.121   5.543   6.851
10523SOL    HW232469   0.239   5.654   6.833
10524SOL     OW32470   4.372   0.640   4.565
10524SOL    HW132471   4.309   0.712   4.595
10524SOL    HW232472   4.455   0.682   4.527
10525SOL     OW32473   2.860   6.280   4.979
10525SOL    HW132474   2.927   6.314   5.044
10525SOL    HW232475   2.906   6.253   4.894
10526SOL     OW32476   5.580   6.973   2.134
10526SOL    HW132477   5.578   0.045   2.116
10526SOL    HW232478   5.672   6.945   2.163
10527SOL     OW32479   1.697   2.684   4.438
10527SOL    HW132480   1.619   2.630   4.405
10527SOL    HW232481   1.779   2.628   4.438
10528SOL     OW32482   6.103   4.761   5.692
10528SOL    HW132483   6.092   4.810   5.606
10528SOL    HW232484   6.072   4.819   5.768
10529SOL     OW32485   6.794   6.306   4.195
10529SOL    HW132486   6.738   6.304   4.278
10529SOL    HW232487   6.825   6.213   4.174
10530SOL     OW32488   2.470   1.803   5.617
10530SOL    HW132489   2.410   1.806   5.697
10530SOL    HW232490   2.456   1.717   5.568
10531SOL     OW32491   1.836   2.273   5.863
10531SOL    HW132492   1.841   2.185   5.910
10531SOL    HW232493   1.797   2.341   5.924
10532SOL     OW32494   3.470   3.004   5.367
10532SOL    HW132495   3.419   2.922   5.391
10532SOL    HW232496   3.557   2.978   5.325
10533SOL     OW32497   2.904   0.888   6.010
10533SOL    HW132498   2.951   0.800   6.025
10533SOL    HW232499   2.964   0.962   6.040
10534SOL     OW32500   6.081   5.968   0.953
10534SOL    HW132501   5.998   5.951   0.900
10534SOL    HW232502   6.152   5.903   0.925
10535SOL     OW32503   1.054   1.247   2.695
10535SOL    HW132504   0.973   1.287   2.652
10535SOL    HW232505   1.042   1.148   2.703
10536SOL     OW32506   5.223   6.623   4.052
10536SOL    HW132507   5.135   6.609   4.097
10536SOL    HW232508   5.212   6.689   3.976
10537SOL     OW32509   0.184   5.493   1.806
10537SOL    HW132510   0.100   5.439   1.817
10537SOL    HW232511   0.166   5.588   1.830
10538SOL     OW32512   4.596   4.298   6.598
10538SOL    HW132513   4.541   4.272   6.677
10538SOL    HW232514   4.682   4.247   6.599
10539SOL     OW32515   1.026   3.385   5.493
10539SOL    HW132516   1.078   3.321   5.548
10539SOL    HW232517   0.929   3.361   5.497
10540SOL     OW32518   2.958   0.817   0.258
10540SOL    HW132519   3.023   0.749   0.224
10540SOL    HW232520   2.874   0.813   0.203
10541SOL     OW32521   4.861   2.455   0.689
10541SOL    HW132522   4.836   2.447   0.593
10541SOL    HW232523   4.819   2.381   0.742
10542SOL     OW32524   1.437   2.557   0.449
10542SOL    HW132525   1.467   2.465   0.474
10542SOL    HW232526   1.366   2.586   0.513
10543SOL     OW32527   2.415   1.328   5.367
10543SOL    HW132528   2.449   1.287   5.452
10543SOL    HW232529   2.493   1.361   5.313
10544SOL     OW32530   0.091   2.551   1.555
10544SOL    HW132531   0.076   2.504   1.642
10544SOL    HW232532   0.100   2.650   1.571
10545SOL     OW32533   5.108   0.678   3.511
10545SOL    HW132534   5.195   0.628   3.520
10545SOL    HW232535   5.035   0.614   3.489
10546SOL     OW32536   3.849   1.129   5.036
10546SOL    HW132537   3.885   1.218   5.009
10546SOL    HW232538   3.802   1.087   4.958
10547SOL     OW32539   3.936   0.690   1.204
10547SOL    HW132540   3.889   0.760   1.259
10547SOL    HW232541   3.881   0.607   1.201
10548SOL     OW32542   4.791   4.574   5.055
10548SOL    HW132543   4.704   4.527   5.040
10548SOL    HW232544   4.861   4.532   4.997
10549SOL     OW32545   1.161   1.023   1.631
10549SOL    HW132546   1.155   1.121   1.646
10549SOL    HW232547   1.243   1.002   1.577
10550SOL     OW32548   5.447   0.030   5.103
10550SOL    HW132549   5.471   6.989   5.173
10550SOL    HW232550   5.393   7.013   5.031
10551SOL     OW32551   1.384   2.623   5.862
10551SOL    HW132552   1.366   2.526   5.876
10551SOL    HW232553   1.311   2.677   5.903
10552SOL     OW32554   3.362   2.144   5.186
10552SOL    HW132555   3.319   2.230   5.212
10552SOL    HW232556   3.298   2.090   5.131
10553SOL     OW32557   3.288   4.929   5.959
10553SOL    HW132558   3.288   5.011   5.901
10553SOL    HW232559   3.193   4.903   5.979
10554SOL     OW32560   6.210   4.278   5.701
10554SOL    HW132561   6.226   4.328   5.786
10554SOL    HW232562   6.158   4.336   5.638
10555SOL     OW32563   3.702   2.440   1.335
10555SOL    HW132564   3.705   2.351   1.290
10555SOL    HW232565   3.749   2.434   1.423
10556SOL     OW32566   2.198   3.398   4.360
10556SOL    HW132567   2.292   3.391   4.327
10556SOL    HW232568   2.199   3.428   4.455
10557SOL     OW32569   5.830   1.610   3.588
10557SOL    HW132570   5.780   1.603   3.502
10557SOL    HW232571   5.898   1.537   3.593
10558SOL     OW32572   5.614   5.903   4.628
10558SOL    HW132573   5.574   5.905   4.536
10558SOL    HW232574   5.540   5.909   4.695
10559SOL     OW32575   4.594   2.612   0.850
10559SOL    HW132576   4.570   2.609   0.947
10559SOL    HW232577   4.683   2.656   0.839
10560SOL     OW32578   0.218   3.175   4.096
10560SOL    HW132579   0.224   3.229   4.013
10560SOL    HW232580   0.234   3.233   4.176
10561SOL     OW32581   2.934   4.393   6.045
10561SOL    HW132582   2.921   4.490   6.064
10561SOL    HW232583   2.845   4.347   6.046
10562SOL     OW32584   3.574   1.447   0.480
10562SOL    HW132585   3.552   1.353   0.503
10562SOL    HW232586   3.537   1.468   0.389
10563SOL     OW32587   1.360   1.991   3.751
10563SOL    HW132588   1.448   2.033   3.774
10563SOL    HW232589   1.345   1.911   3.809
10564SOL     OW32590   0.220   2.311   1.999
10564SOL    HW132591   0.173   2.222   1.992
10564SOL    HW232592   0.307   2.307   1.949
10565SOL     OW32593   5.339   1.686   5.209
10565SOL    HW132594   5.393   1.605   5.185
10565SOL    HW232595   5.249   1.680   5.167
10566SOL     OW32596   4.341   5.347   6.909
10566SOL    HW132597   4.332   5.255   6.871
10566SOL    HW232598   4.324   5.344   7.008
10567SOL     OW32599   1.954   4.872   4.038
10567SOL    HW132600   1.996   4.784   4.060
10567SOL    HW232601   1.961   4.889   3.939
10568SOL     OW32602   3.871   1.807   2.776
10568SOL    HW132603   3.885   1.893   2.824
10568SOL    HW232604   3.775   1.799   2.747
10569SOL     OW32605   5.950   3.054   3.602
10569SOL    HW132606   6.029   3.057   3.662
10569SOL    HW232607   5.952   2.970   3.547
10570SOL     OW32608   1.043   4.458   1.546
10570SOL    HW132609   0.982   4.530   1.515
10570SOL    HW232610   1.109   4.436   1.474
10571SOL     OW32611   6.323   6.587   5.078
10571SOL    HW132612   6.243   6.569   5.022
10571SOL    HW232613   6.369   6.671   5.045
10572SOL     OW32614   6.565   3.303   1.750
10572SOL    HW132615   6.563   3.261   1.659
10572SOL    HW232616   6.527   3.239   1.817
10573SOL     OW32617   6.110   4.209   6.384
10573SOL    HW132618   6.125   4.254   6.296
10573SOL    HW232619   6.192   4.216   6.440
10574SOL     OW32620   0.768   1.988   3.274
10574SOL    HW132621   0.772   1.963   3.370
10574SOL    HW232622   0.703   1.928   3.226
10575SOL     OW32623   0.634   6.756   6.035
10575SOL    HW132624   0.724   6.783   6.070
10575SOL    HW232625   0.584   6.707   6.107
10576SOL     OW32626   1.257   5.042   3.065
10576SOL    HW132627   1.324   5.005   3.130
10576SOL    HW232628   1.204   5.114   3.110
10577SOL     OW32629   0.481   3.256   5.813
10577SOL    HW132630   0.575   3.224   5.820
10577SOL    HW232631   0.421   3.180   5.789
10578SOL     OW32632   5.574   1.286   5.597
10578SOL    HW132633   5.658   1.342   5.602
10578SOL    HW232634   5.495   1.347   5.590
10579SOL     OW32635   4.981   0.160   0.902
10579SOL    HW132636   4.986   0.091   0.974
10579SOL    HW232637   5.038   0.239   0.927
10580SOL     OW32638   6.317   5.993   0.565
10580SOL    HW132639   6.398   6.013   0.620
10580SOL    HW232640   6.328   5.906   0.519
10581SOL     OW32641   4.753   1.879   3.876
10581SOL    HW132642   4.846   1.914   3.883
10581SOL    HW232643   4.705   1.925   3.802
10582SOL     OW32644   3.155   4.922   0.106
10582SOL    HW132645   3.112   4.957   0.189
10582SOL    HW232646   3.110   4.960   0.026
10583SOL     OW32647   4.186   0.967   0.984
10583SOL    HW132648   4.273   0.958   0.936
10583SOL    HW232649   4.198   1.024   1.065
10584SOL     OW32650   6.528   0.251   1.420
10584SOL    HW132651   6.575   0.303   1.348
10584SOL    HW232652   6.482   0.172   1.379
10585SOL     OW32653   1.993   4.159   6.568
10585SOL    HW132654   2.066   4.202   6.515
10585SOL    HW232655   2.005   4.181   6.665
10586SOL     OW32656   4.983   1.800   0.247
10586SOL    HW132657   4.942   1.718   0.288
10586SOL    HW232658   5.063   1.775   0.194
10587SOL     OW32659   5.987   3.539   0.627
10587SOL    HW132660   6.046   3.549   0.547
10587SOL    HW232661   5.999   3.448   0.666
10588SOL     OW32662   1.368   4.754   3.409
10588SOL    HW132663   1.436   4.823   3.433
10588SOL    HW232664   1.330   4.714   3.492
10589SOL     OW32665   5.982   1.144   4.333
10589SOL    HW132666   5.976   1.221   4.396
10589SOL    HW232667   6.061   1.155   4.273
10590SOL     OW32668   1.667   0.480   5.000
10590SOL    HW132669   1.752   0.524   5.031
10590SOL    HW232670   1.618   0.543   4.939
10591SOL     OW32671   1.310   2.418   0.795
10591SOL    HW132672   1.389   2.365   0.825
10591SOL    HW232673   1.247   2.430   0.872
10592SOL     OW32674   6.349   1.282   6.930
10592SOL    HW132675   6.270   1.260   6.872
10592SOL    HW232676   6.333   1.368   6.978
10593SOL     OW32677   1.562   4.815   1.858
10593SOL    HW132678   1.531   4.765   1.939
10593SOL    HW232679   1.524   4.907   1.860
10594SOL     OW32680   0.646   1.765   4.264
10594SOL    HW132681   0.629   1.667   4.265
10594SOL    HW232682   0.663   1.796   4.171
10595SOL     OW32683   2.454   5.722   4.964
10595SOL    HW132684   2.554   5.723   4.962
10595SOL    HW232685   2.420   5.648   4.907
10596SOL     OW32686   3.072   0.684   2.290
10596SOL    HW132687   3.022   0.753   2.238
10596SOL    HW232688   3.144   0.645   2.233
10597SOL     OW32689   1.857   0.748   3.665
10597SOL    HW132690   1.901   0.711   3.583
10597SOL    HW232691   1.791   0.817   3.640
10598SOL     OW32692   2.297   1.527   0.001
10598SOL    HW132693   2.266   1.570   0.085
10598SOL    HW232694   2.218   1.511   6.967
10599SOL     OW32695   5.046   0.561   6.499
10599SOL    HW132696   4.962   0.508   6.515
10599SOL    HW232697   5.122   0.518   6.549
10600SOL     OW32698   1.571   2.113   5.422
10600SOL    HW132699   1.599   2.051   5.496
10600SOL    HW232700   1.483   2.154   5.445
10601SOL     OW32701   3.372   5.691   5.325
10601SOL    HW132702   3.406   5.721   5.414
10601SOL    HW232703   3.387   5.593   5.314
10602SOL     OW32704   4.430   1.070   1.669
10602SOL    HW132705   4.479   1.011   1.605
10602SOL    HW232706   4.333   1.047   1.669
10603SOL     OW32707   0.705   4.943   4.405
10603SOL    HW132708   0.692   5.017   4.339
10603SOL    HW232709   0.631   4.943   4.472
10604SOL     OW32710   6.759   4.130   5.356
10604SOL    HW132711   6.699   4.051   5.347
10604SOL    HW232712   6.847   4.111   5.311
10605SOL     OW32713   1.983   5.225   5.978
10605SOL    HW132714   1.948   5.132   5.968
10605SOL    HW232715   1.916   5.290   5.942
10606SOL     OW32716   0.486   0.813   2.878
10606SOL    HW132717   0.556   0.883   2.890
10606SOL    HW232718   0.414   0.847   2.818
10607SOL     OW32719   5.767   5.020   6.747
10607SOL    HW132720   5.782   5.002   6.649
10607SOL    HW232721   5.715   4.945   6.787
10608SOL     OW32722   5.609   0.657   2.503
10608SOL    HW132723   5.629   0.569   2.547
10608SOL    HW232724   5.687   0.718   2.515
10609SOL     OW32725   3.880   6.914   1.861
10609SOL    HW132726   3.949   6.903   1.789
10609SOL    HW232727   3.924   6.905   1.951
10610SOL     OW32728   1.953   4.173   4.418
10610SOL    HW132729   1.964   4.259   4.470
10610SOL    HW232730   2.042   4.142   4.387
10611SOL     OW32731   5.004   2.301   6.404
10611SOL    HW132732   5.022   2.216   6.453
10611SOL    HW232733   5.036   2.294   6.310
10612SOL     OW32734   1.337   6.628   1.301
10612SOL    HW132735   1.349   6.666   1.393
10612SOL    HW232736   1.404   6.670   1.239
10613SOL     OW32737   0.638   6.215   6.666
10613SOL    HW132738   0.555   6.270   6.666
10613SOL    HW232739   0.648   6.169   6.577
10614SOL     OW32740   6.766   0.942   4.393
10614SOL    HW132741   6.755   0.982   4.484
10614SOL    HW232742   6.763   0.842   4.401
10615SOL     OW32743   0.029   5.896   5.272
10615SOL    HW132744   6.972   5.854   5.237
10615SOL    HW232745   0.010   5.941   5.359
10616SOL     OW32746   2.716   5.963   0.444
10616SOL    HW132747   2.767   6.049   0.434
10616SOL    HW232748   2.619   5.983   0.456
10617SOL     OW32749   0.067   1.710   6.614
10617SOL    HW132750   0.077   1.622   6.660
10617SOL    HW232751   0.156   1.754   6.609
10618SOL     OW32752   6.205   3.894   1.520
10618SOL    HW132753   6.123   3.839   1.505
10618SOL    HW232754   6.202   3.974   1.461
10619SOL     OW32755   0.359   4.155   3.629
10619SOL    HW132756   0.324   4.226   3.690
10619SOL    HW232757   0.439   4.189   3.581
10620SOL     OW32758   1.073   5.218   4.220
10620SOL    HW132759   1.074   5.255   4.313
10620SOL    HW232760   0.982   5.183   4.198
10621SOL     OW32761   2.796   6.371   0.653
10621SOL    HW132762   2.724   6.388   0.720
10621SOL    HW232763   2.880   6.416   0.683
10622SOL     OW32764   4.594   1.855   1.300
10622SOL    HW132765   4.635   1.913   1.370
10622SOL    HW232766   4.614   1.892   1.209
10623SOL     OW32767   6.806   0.653   4.400
10623SOL    HW132768   6.857   0.678   4.483
10623SOL    HW232769   6.866   0.606   4.337
10624SOL     OW32770   2.901   1.615   4.147
10624SOL    HW132771   2.806   1.628   4.176
10624SOL    HW232772   2.939   1.702   4.116
10625SOL     OW32773   0.354   3.416   0.062
10625SOL    HW132774   0.335   3.514   0.048
10625SOL    HW232775   0.269   3.365   0.050
10626SOL     OW32776   6.114   2.042   1.806
10626SOL    HW132777   6.046   1.975   1.776
10626SOL    HW232778   6.128   2.109   1.733
10627SOL     OW32779   6.345   5.745   4.694
10627SOL    HW132780   6.278   5.750   4.620
10627SOL    HW232781   6.315   5.676   4.761
10628SOL     OW32782   0.006   6.014   5.987
10628SOL    HW132783   0.058   5.992   5.904
10628SOL    HW232784   7.016   6.112   5.992
10629SOL     OW32785   2.870   5.170   6.266
10629SOL    HW132786   2.886   5.258   6.221
10629SOL    HW232787   2.943   5.107   6.240
10630SOL     OW32788   6.601   0.656   2.579
10630SOL    HW132789   6.652   0.679   2.662
10630SOL    HW232790   6.525   0.720   2.567
10631SOL     OW32791   0.821   6.737   5.160
10631SOL    HW132792   0.919   6.749   5.145
10631SOL    HW232793   0.806   6.688   5.246
10632SOL     OW32794   0.404   2.966   5.561
10632SOL    HW132795   0.331   3.008   5.508
10632SOL    HW232796   0.392   2.988   5.658
10633SOL     OW32797   1.244   4.974   0.979
10633SOL    HW132798   1.205   4.886   1.004
10633SOL    HW232799   1.206   5.005   0.892
10634SOL     OW32800   4.160   6.595   1.551
10634SOL    HW132801   4.172   6.508   1.599
10634SOL    HW232802   4.147   6.578   1.454
10635SOL     OW32803   1.404   0.959   1.552
10635SOL    HW132804   1.460   0.963   1.469
10635SOL    HW232805   1.462   0.937   1.630
10636SOL     OW32806   6.351   1.396   0.606
10636SOL    HW132807   6.322   1.488   0.632
10636SOL    HW232808   6.450   1.387   0.619
10637SOL     OW32809   3.795   4.577   5.711
10637SOL    HW132810   3.894   4.587   5.705
10637SOL    HW232811   3.770   4.483   5.689
10638SOL     OW32812   6.819   0.501   5.912
10638SOL    HW132813   6.810   0.402   5.901
10638SOL    HW232814   6.813   0.545   5.823
10639SOL     OW32815   3.263   1.360   5.537
10639SOL    HW132816   3.207   1.371   5.620
10639SOL    HW232817   3.320   1.441   5.525
10640SOL     OW32818   4.274   6.412   0.965
10640SOL    HW132819   4.176   6.410   0.945
10640SOL    HW232820   4.312   6.500   0.938
10641SOL     OW32821   4.283   0.979   6.668
10641SOL    HW132822   4.268   1.060   6.725
10641SOL    HW232823   4.219   0.979   6.591
10642SOL     OW32824   6.845   4.104   0.742
10642SOL    HW132825   6.905   4.059   0.808
10642SOL    HW232826   6.900   4.147   0.671
10643SOL     OW32827   4.193   3.266   5.253
10643SOL    HW132828   4.205   3.332   5.327
10643SOL    HW232829   4.176   3.175   5.292
10644SOL     OW32830   3.602   1.561   5.060
10644SOL    HW132831   3.575   1.466   5.043
10644SOL    HW232832   3.541   1.622   5.011
10645SOL     OW32833   2.141   6.692   5.330
10645SOL    HW132834   2.101   6.726   5.416
10645SOL    HW232835   2.075   6.706   5.256
10646SOL     OW32836   1.057   4.406   6.647
10646SOL    HW132837   0.975   4.418   6.703
10646SOL    HW232838   1.101   4.494   6.632
10647SOL     OW32839   0.839   5.462   0.817
10647SOL    HW132840   0.916   5.522   0.838
10647SOL    HW232841   0.804   5.422   0.902
10648SOL     OW32842   4.634   5.282   6.322
10648SOL    HW132843   4.555   5.341   6.305
10648SOL    HW232844   4.716   5.325   6.284
10649SOL     OW32845   0.005   4.624   5.865
10649SOL    HW132846   7.006   4.710   5.911
10649SOL    HW232847   0.072   4.575   5.921
10650SOL     OW32848   3.063   0.820   4.751
10650SOL    HW132849   3.152   0.862   4.733
10650SOL    HW232850   3.035   0.839   4.845
10651SOL     OW32851   2.835   0.063   5.514
10651SOL    HW132852   2.790   0.005   5.582
10651SOL    HW232853   2.843   0.156   5.550
10652SOL     OW32854   4.244   1.228   0.434
10652SOL    HW132855   4.304   1.267   0.364
10652SOL    HW232856   4.210   1.140   0.403
10653SOL     OW32857   5.794   2.722   4.170
10653SOL    HW132858   5.860   2.753   4.239
10653SOL    HW232859   5.751   2.801   4.127
10654SOL     OW32860   4.540   1.044   1.272
10654SOL    HW132861   4.554   1.020   1.368
10654SOL    HW232862   4.480   0.977   1.229
10655SOL     OW32863   2.909   5.347   1.312
10655SOL    HW132864   2.921   5.294   1.396
10655SOL    HW232865   2.960   5.304   1.238
10656SOL     OW32866   6.435   3.136   6.494
10656SOL    HW132867   6.520   3.159   6.447
10656SOL    HW232868   6.362   3.198   6.465
10657SOL     OW32869   6.110   6.972   1.540
10657SOL    HW132870   6.173   0.018   1.571
10657SOL    HW232871   6.045   6.951   1.613
10658SOL     OW32872   0.474   6.874   4.891
10658SOL    HW132873   0.565   6.913   4.877
10658SOL    HW232874   0.481   6.792   4.949
10659SOL     OW32875   5.275   0.953   0.563
10659SOL    HW132876   5.326   0.982   0.645
10659SOL    HW232877   5.216   0.876   0.587
10660SOL     OW32878   5.383   5.274   5.655
10660SOL    HW132879   5.353   5.369   5.647
10660SOL    HW232880   5.303   5.214   5.658
10661SOL     OW32881   0.874   0.347   2.139
10661SOL    HW132882   0.846   0.443   2.129
10661SOL    HW232883   0.940   0.339   2.214
10662SOL     OW32884   5.685   1.671   0.785
10662SOL    HW132885   5.608   1.645   0.727
10662SOL    HW232886   5.668   1.639   0.878
10663SOL     OW32887   0.480   1.047   0.562
10663SOL    HW132888   0.530   1.023   0.479
10663SOL    HW232889   0.536   1.026   0.642
10664SOL     OW32890   2.192   5.386   5.995
10664SOL    HW132891   2.139   5.445   6.056
10664SOL    HW232892   2.131   5.342   5.930
10665SOL     OW32893   5.721   1.139   6.669
10665SOL    HW132894   5.732   1.120   6.767
10665SOL    HW232895   5.660   1.071   6.629
10666SOL     OW32896   0.587   0.161   0.362
10666SOL    HW132897   0.511   0.220   0.389
10666SOL    HW232898   0.599   0.165   0.263
10667SOL     OW32899   3.367   2.259   5.855
10667SOL    HW132900   3.348   2.180   5.797
10667SOL    HW232901   3.282   2.295   5.893
10668SOL     OW32902   2.374   0.740   6.411
10668SOL    HW132903   2.427   0.825   6.410
10668SOL    HW232904   2.400   0.684   6.332
10669SOL     OW32905   1.080   6.450   6.673
10669SOL    HW132906   1.096   6.390   6.595
10669SOL    HW232907   0.983   6.473   6.678
10670SOL     OW32908   6.782   4.808   5.153
10670SOL    HW132909   6.777   4.828   5.055
10670SOL    HW232910   6.866   4.846   5.190
10671SOL     OW32911   1.932   2.126   3.522
10671SOL    HW132912   1.852   2.173   3.485
10671SOL    HW232913   1.916   2.103   3.618
10672SOL     OW32914   0.040   2.482   1.137
10672SOL    HW132915   0.094   2.477   1.052
10672SOL    HW232916   0.099   2.458   1.214
10673SOL     OW32917   3.546   3.604   4.640
10673SOL    HW132918   3.589   3.545   4.572
10673SOL    HW232919   3.482   3.551   4.695
10674SOL     OW32920   3.656   1.476   2.739
10674SOL    HW132921   3.754   1.464   2.728
10674SOL    HW232922   3.616   1.504   2.652
10675SOL     OW32923   0.704   1.098   6.005
10675SOL    HW132924   0.775   1.128   5.942
10675SOL    HW232925   0.727   1.128   6.098
10676SOL     OW32926   6.791   0.115   0.068
10676SOL    HW132927   6.858   0.072   0.128
10676SOL    HW232928   6.779   0.061   7.012
10677SOL     OW32929   6.167   1.263   0.451
10677SOL    HW132930   6.187   1.168   0.475
10677SOL    HW232931   6.231   1.323   0.498
10678SOL     OW32932   1.696   5.374   3.699
10678SOL    HW132933   1.734   5.462   3.728
10678SOL    HW232934   1.723   5.356   3.605
10679SOL     OW32935   5.336   5.236   3.429
10679SOL    HW132936   5.351   5.139   3.449
10679SOL    HW232937   5.409   5.290   3.472
10680SOL     OW32938   1.156   2.676   3.772
10680SOL    HW132939   1.207   2.760   3.789
10680SOL    HW232940   1.161   2.653   3.674
10681SOL     OW32941   0.605   2.045   6.270
10681SOL    HW132942   0.534   2.110   6.296
10681SOL    HW232943   0.563   1.960   6.239
10682SOL     OW32944   6.181   1.845   2.719
10682SOL    HW132945   6.120   1.766   2.706
10682SOL    HW232946   6.137   1.927   2.681
10683SOL     OW32947   1.606   0.534   4.179
10683SOL    HW132948   1.672   0.490   4.240
10683SOL    HW232949   1.652   0.600   4.121
10684SOL     OW32950   5.562   5.999   0.543
10684SOL    HW132951   5.605   6.063   0.606
10684SOL    HW232952   5.629   5.969   0.475
10685SOL     OW32953   6.159   2.827   2.431
10685SOL    HW132954   6.126   2.799   2.341
10685SOL    HW232955   6.259   2.831   2.430
10686SOL     OW32956   4.619   4.442   0.611
10686SOL    HW132957   4.597   4.402   0.701
10686SOL    HW232958   4.600   4.540   0.613
10687SOL     OW32959   6.623   5.416   0.882
10687SOL    HW132960   6.529   5.382   0.892
10687SOL    HW232961   6.686   5.349   0.921
10688SOL     OW32962   0.009   5.387   1.066
10688SOL    HW132963   0.022   5.479   1.028
10688SOL    HW232964   0.023   5.319   0.995
10689SOL     OW32965   0.813   0.446   1.280
10689SOL    HW132966   0.883   0.517   1.284
10689SOL    HW232967   0.835   0.381   1.208
10690SOL     OW32968   4.723   6.038   2.814
10690SOL    HW132969   4.790   5.992   2.873
10690SOL    HW232970   4.771   6.095   2.748
10691SOL     OW32971   6.170   1.793   1.575
10691SOL    HW132972   6.077   1.757   1.576
10691SOL    HW232973   6.234   1.719   1.599
10692SOL     OW32974   5.763   6.330   4.065
10692SOL    HW132975   5.734   6.354   3.973
10692SOL    HW232976   5.707   6.379   4.132
10693SOL     OW32977   5.134   2.673   3.598
10693SOL    HW132978   5.092   2.626   3.676
10693SOL    HW232979   5.227   2.701   3.621
10694SOL     OW32980   3.022   6.516   0.724
10694SOL    HW132981   3.028   6.466   0.810
10694SOL    HW232982   2.999   6.611   0.742
10695SOL     OW32983   5.572   2.925   5.549
10695SOL    HW132984   5.623   2.874   5.618
10695SOL    HW232985   5.633   2.990   5.503
10696SOL     OW32986   6.536   6.697   1.803
10696SOL    HW132987   6.557   6.632   1.875
10696SOL    HW232988   6.437   6.712   1.799
10697SOL     OW32989   2.176   6.537   3.048
10697SOL    HW132990   2.123   6.617   3.017
10697SOL    HW232991   2.195   6.547   3.146
10698SOL     OW32992   2.921   0.822   4.182
10698SOL    HW132993   2.832   0.848   4.222
10698SOL    HW232994   2.974   0.905   4.163
10699SOL     OW32995   2.343   2.390   3.498
10699SOL    HW132996   2.439   2.416   3.504
10699SOL    HW232997   2.287   2.460   3.545
10700SOL     OW32998   0.726   1.583   2.253
10700SOL    HW132999   0.698   1.541   2.166
10700SOL    HW233000   0.647   1.627   2.295
10701SOL     OW33001   3.266   0.216   1.383
10701SOL    HW133002   3.343   0.165   1.344
10701SOL    HW233003   3.200   0.235   1.310
10702SOL     OW33004   5.174   2.477   0.692
10702SOL    HW133005   5.102   2.432   0.639
10702SOL    HW233006   5.195   2.421   0.773
10703SOL     OW33007   3.960   3.117   4.043
10703SOL    HW133008   3.977   3.095   4.139
10703SOL    HW233009   3.948   3.216   4.033
10704SOL     OW33010   5.935   6.243   1.932
10704SOL    HW133011   5.932   6.306   1.855
10704SOL    HW233012   5.873   6.167   1.915
10705SOL     OW33013   1.500   3.392   6.044
10705SOL    HW133014   1.585   3.382   5.993
10705SOL    HW233015   1.501   3.332   6.124
10706SOL     OW33016   3.749   2.840   1.129
10706SOL    HW133017   3.809   2.869   1.203
10706SOL    HW233018   3.712   2.749   1.151
10707SOL     OW33019   6.328   6.713   6.343
10707SOL    HW133020   6.380   6.754   6.419
10707SOL    HW233021   6.247   6.769   6.325
10708SOL     OW33022   4.765   1.369   1.312
10708SOL    HW133023   4.684   1.419   1.282
10708SOL    HW233024   4.763   1.358   1.412
10709SOL     OW33025   0.645   0.195   6.190
10709SOL    HW133026   0.674   0.267   6.127
10709SOL    HW233027   0.557   0.157   6.160
10710SOL     OW33028   6.850   6.275   3.851
10710SOL    HW133029   6.859   6.213   3.772
10710SOL    HW233030   6.754   6.297   3.865
10711SOL     OW33031   2.476   5.289   5.244
10711SOL    HW133032   2.572   5.281   5.220
10711SOL    HW233033   2.420   5.251   5.170
10712SOL     OW33034   3.604   1.206   6.139
10712SOL    HW133035   3.676   1.203   6.069
10712SOL    HW233036   3.639   1.169   6.225
10713SOL     OW33037   2.207   6.156   0.861
10713SOL    HW133038   2.157   6.076   0.829
10713SOL    HW233039   2.151   6.238   0.850
10714SOL     OW33040   6.526   5.596   5.071
10714SOL    HW133041   6.486   5.681   5.038
10714SOL    HW233042   6.466   5.554   5.138
10715SOL     OW33043   5.672   1.140   3.029
10715SOL    HW133044   5.644   1.232   3.001
10715SOL    HW233045   5.593   1.078   3.024
10716SOL     OW33046   0.254   1.349   2.267
10716SOL    HW133047   0.244   1.307   2.357
10716SOL    HW233048   0.208   1.438   2.267
10717SOL     OW33049   6.914   6.701   1.833
10717SOL    HW133050   6.926   6.789   1.878
10717SOL    HW233051   6.962   6.630   1.884
10718SOL     OW33052   0.805   4.001   5.382
10718SOL    HW133053   0.751   3.947   5.318
10718SOL    HW233054   0.887   4.035   5.335
10719SOL     OW33055   3.791   6.359   2.074
10719SOL    HW133056   3.727   6.420   2.028
10719SOL    HW233057   3.794   6.272   2.026
10720SOL     OW33058   0.191   3.313   6.349
10720SOL    HW133059   0.111   3.319   6.288
10720SOL    HW233060   0.161   3.279   6.439
10721SOL     OW33061   5.554   2.313   4.849
10721SOL    HW133062   5.486   2.346   4.913
10721SOL    HW233063   5.580   2.388   4.787
10722SOL     OW33064   0.045   4.920   0.178
10722SOL    HW133065   0.136   4.945   0.210
10722SOL    HW233066   7.020   5.002   0.155
10723SOL     OW33067   6.211   4.149   6.789
10723SOL    HW133068   6.137   4.177   6.850
10723SOL    HW233069   6.247   4.230   6.742
10724SOL     OW33070   3.368   6.933   5.710
10724SOL    HW133071   3.373   6.850   5.766
10724SOL    HW233072   3.374   7.013   5.769
10725SOL     OW33073   6.927   0.339   5.305
10725SOL    HW133074   6.852   0.404   5.313
10725SOL    HW233075   6.892   0.251   5.274
10726SOL     OW33076   6.359   0.781   3.554
10726SOL    HW133077   6.424   0.767   3.629
10726SOL    HW233078   6.347   0.696   3.503
10727SOL     OW33079   4.083   7.003   6.430
10727SOL    HW133080   4.012   0.047   6.420
10727SOL    HW233081   4.050   6.932   6.491
10728SOL     OW33082   6.111   5.078   3.645
10728SOL    HW133083   6.193   5.130   3.667
10728SOL    HW233084   6.030   5.129   3.674
10729SOL     OW33085   6.080   3.385   3.820
10729SOL    HW133086   6.001   3.362   3.877
10729SOL    HW233087   6.147   3.311   3.825
10730SOL     OW33088   1.146   6.105   4.218
10730SOL    HW133089   1.219   6.173   4.216
10730SOL    HW233090   1.080   6.129   4.290
10731SOL     OW33091   5.138   5.672   6.181
10731SOL    HW133092   5.165   5.601   6.116
10731SOL    HW233093   5.112   5.630   6.268
10732SOL     OW33094   6.663   5.916   2.378
10732SOL    HW133095   6.721   5.835   2.373
10732SOL    HW233096   6.653   5.955   2.287
10733SOL     OW33097   0.548   1.656   5.915
10733SOL    HW133098   0.450   1.654   5.897
10733SOL    HW233099   0.593   1.716   5.848
10734SOL     OW33100   0.920   0.576   4.548
10734SOL    HW133101   1.017   0.556   4.531
10734SOL    HW233102   0.895   0.660   4.499
10735SOL     OW33103   0.400   0.518   2.249
10735SOL    HW133104   0.497   0.496   2.260
10735SOL    HW233105   0.375   0.510   2.152
10736SOL     OW33106   6.063   5.586   3.650
10736SOL    HW133107   6.099   5.679   3.645
10736SOL    HW233108   5.964   5.588   3.635
10737SOL     OW33109   6.493   0.622   1.588
10737SOL    HW133110   6.583   0.664   1.596
10737SOL    HW233111   6.458   0.636   1.495
10738SOL     OW33112   2.487   0.153   1.419
10738SOL    HW133113   2.544   0.076   1.447
10738SOL    HW233114   2.544   0.235   1.409
10739SOL     OW33115   4.869   3.162   4.282
10739SOL    HW133116   4.788   3.141   4.226
10739SOL    HW233117   4.854   3.247   4.332
10740SOL     OW33118   2.731   0.358   6.187
10740SOL    HW133119   2.716   0.455   6.171
10740SOL    HW233120   2.829   0.339   6.186
10741SOL     OW33121   1.475   2.626   3.555
10741SOL    HW133122   1.379   2.613   3.529
10741SOL    HW233123   1.483   2.702   3.619
10742SOL     OW33124   6.697   0.256   1.838
10742SOL    HW133125   6.709   0.168   1.793
10742SOL    HW233126   6.618   0.303   1.798
10743SOL     OW33127   3.841   2.007   5.863
10743SOL    HW133128   3.772   1.997   5.935
10743SOL    HW233129   3.817   2.084   5.804
10744SOL     OW33130   2.741   2.126   1.383
10744SOL    HW133131   2.801   2.179   1.443
10744SOL    HW233132   2.728   2.034   1.421
10745SOL     OW33133   2.507   4.833   1.484
10745SOL    HW133134   2.594   4.787   1.502
10745SOL    HW233135   2.490   4.900   1.557
10746SOL     OW33136   2.356   5.196   6.133
10746SOL    HW133137   2.273   5.247   6.113
10746SOL    HW233138   2.367   5.189   6.233
10747SOL     OW33139   0.040   0.964   4.742
10747SOL    HW133140   7.025   0.941   4.830
10747SOL    HW233141   0.016   1.058   4.718
10748SOL     OW33142   2.722   6.359   2.602
10748SOL    HW133143   2.633   6.351   2.557
10748SOL    HW233144   2.755   6.268   2.629
10749SOL     OW33145   5.955   4.408   1.980
10749SOL    HW133146   5.887   4.335   1.973
10749SOL    HW233147   5.909   4.497   1.977
10750SOL     OW33148   3.955   2.136   4.547
10750SOL    HW133149   4.013   2.096   4.476
10750SOL    HW233150   3.859   2.127   4.521
10751SOL     OW33151   6.455   6.206   4.428
10751SOL    HW133152   6.490   6.113   4.443
10751SOL    HW233153   6.357   6.207   4.444
10752SOL     OW33154   6.802   6.464   6.940
10752SOL    HW133155   6.790   6.446   6.842
10752SOL    HW233156   6.718   6.440   6.989
10753SOL     OW33157   5.355   6.719   5.249
10753SOL    HW133158   5.256   6.713   5.267
10753SOL    HW233159   5.397   6.782   5.314
10754SOL     OW33160   0.858   5.091   1.855
10754SOL    HW133161   0.769   5.132   1.832
10754SOL    HW233162   0.931   5.152   1.825
10755SOL     OW33163   0.523   2.169   1.622
10755SOL    HW133164   0.453   2.173   1.551
10755SOL    HW233165   0.531   2.075   1.656
10756SOL     OW33166   1.285   0.294   6.854
10756SOL    HW133167   1.214   0.226   6.840
10756SOL    HW233168   1.292   0.316   6.952
10757SOL     OW33169   7.019   2.896   2.327
10757SOL    HW133170   7.013   2.808   2.374
10757SOL    HW233171   6.947   2.902   2.258
10758SOL     OW33172   1.122   0.895   0.255
10758SOL    HW133173   1.219   0.919   0.265
10758SOL    HW233174   1.099   0.819   0.315
10759SOL     OW33175   3.361   2.914   4.771
10759SOL    HW133176   3.329   2.885   4.681
10759SOL    HW233177   3.293   2.976   4.812
10760SOL     OW33178   0.595   4.699   0.343
10760SOL    HW133179   0.607   4.775   0.406
10760SOL    HW233180   0.675   4.690   0.285
10761SOL     OW33181   1.691   1.616   5.975
10761SOL    HW133182   1.785   1.587   5.960
10761SOL    HW233183   1.689   1.706   6.018
10762SOL     OW33184   1.763   6.223   0.213
10762SOL    HW133185   1.670   6.222   0.249
10762SOL    HW233186   1.797   6.130   0.203
10763SOL     OW33187   4.949   0.793   3.314
10763SOL    HW133188   4.976   0.879   3.270
10763SOL    HW233189   5.012   0.773   3.389
10764SOL     OW33190   5.188   5.879   4.630
10764SOL    HW133191   5.104   5.831   4.655
10764SOL    HW233192   5.181   5.911   4.535
10765SOL     OW33193   0.917   1.760   1.020
10765SOL    HW133194   0.985   1.831   1.002
10765SOL    HW233195   0.964   1.677   1.050
10766SOL     OW33196   2.743   5.197   6.506
10766SOL    HW133197   2.779   5.177   6.415
10766SOL    HW233198   2.813   5.243   6.561
10767SOL     OW33199   1.576   4.734   6.835
10767SOL    HW133200   1.656   4.681   6.861
10767SOL    HW233201   1.558   4.722   6.737
10768SOL     OW33202   5.172   6.434   6.858
10768SOL    HW133203   5.249   6.459   6.798
10768SOL    HW233204   5.125   6.354   6.821
10769SOL     OW33205   3.029   3.142   4.628
10769SOL    HW133206   2.969   3.126   4.549
10769SOL    HW233207   3.022   3.237   4.656
10770SOL     OW33208   5.523   0.184   2.975
10770SOL    HW133209   5.579   0.249   3.026
10770SOL    HW233210   5.434   0.174   3.020
10771SOL     OW33211   4.749   6.257   5.802
10771SOL    HW133212   4.707   6.318   5.869
10771SOL    HW233213   4.681   6.188   5.774
10772SOL     OW33214   5.373   4.575   2.467
10772SOL    HW133215   5.299   4.594   2.532
10772SOL    HW233216   5.433   4.655   2.461
10773SOL     OW33217   0.936   3.839   0.168
10773SOL    HW133218   0.926   3.751   0.216
10773SOL    HW233219   1.028   3.845   0.129
10774SOL     OW33220   0.531   3.323   0.759
10774SOL    HW133221   0.501   3.228   0.768
10774SOL    HW233222   0.492   3.378   0.833
10775SOL     OW33223   2.035   3.936   0.325
10775SOL    HW133224   2.010   4.030   0.350
10775SOL    HW233225   1.999   3.873   0.394
10776SOL     OW33226   1.167   3.241   3.545
10776SOL    HW133227   1.194   3.229   3.641
10776SOL    HW233228   1.067   3.235   3.538
10777SOL     OW33229   1.498   0.044   0.991
10777SOL    HW133230   1.509   0.045   1.090
10777SOL    HW233231   1.583   0.013   0.948
10778SOL     OW33232   4.705   0.116   2.970
10778SOL    HW133233   4.638   0.178   2.930
10778SOL    HW233234   4.696   0.026   2.928
10779SOL     OW33235   5.819   2.701   6.066
10779SOL    HW133236   5.762   2.716   5.985
10779SOL    HW233237   5.761   2.698   6.147
10780SOL     OW33238   1.627   4.859   4.917
10780SOL    HW133239   1.554   4.793   4.935
10780SOL    HW233240   1.691   4.861   4.993
10781SOL     OW33241   5.335   1.805   5.831
10781SOL    HW133242   5.374   1.780   5.920
10781SOL    HW233243   5.319   1.722   5.777
10782SOL     OW33244   1.289   2.727   5.359
10782SOL    HW133245   1.224   2.688   5.294
10782SOL    HW233246   1.365   2.768   5.309
10783SOL     OW33247   1.788   3.443   3.270
10783SOL    HW133248   1.782   3.399   3.181
10783SOL    HW233249   1.710   3.415   3.327
10784SOL     OW33250   4.603   5.659   3.903
10784SOL    HW133251   4.701   5.649   3.922
10784SOL    HW233252   4.551   5.597   3.961
10785SOL     OW33253   2.120   5.318   1.895
10785SOL    HW133254   2.175   5.241   1.864
10785SOL    HW233255   2.082   5.297   1.985
10786SOL     OW33256   4.617   1.856   2.445
10786SOL    HW133257   4.610   1.769   2.396
10786SOL    HW233258   4.531   1.875   2.492
10787SOL     OW33259   4.128   2.004   3.852
10787SOL    HW133260   4.117   1.910   3.819
10787SOL    HW233261   4.212   2.043   3.814
10788SOL     OW33262   1.943   3.345   0.293
10788SOL    HW133263   2.036   3.360   0.260
10788SOL    HW233264   1.878   3.378   0.224
10789SOL     OW33265   6.804   1.663   2.187
10789SOL    HW133266   6.857   1.666   2.271
10789SOL    HW233267   6.821   1.745   2.134
10790SOL     OW33268   0.158   2.082   5.284
10790SOL    HW133269   0.086   2.067   5.217
10790SOL    HW233270   0.119   2.121   5.368
10791SOL     OW33271   1.696   2.506   3.472
10791SOL    HW133272   1.618   2.560   3.502
10791SOL    HW233273   1.734   2.545   3.388
10792SOL     OW33274   3.524   1.531   2.286
10792SOL    HW133275   3.522   1.431   2.283
10792SOL    HW233276   3.449   1.567   2.231
10793SOL     OW33277   3.622   2.085   4.741
10793SOL    HW133278   3.527   2.076   4.711
10793SOL    HW233279   3.666   1.996   4.740
10794SOL     OW33280   4.843   2.436   6.771
10794SOL    HW133281   4.857   2.517   6.829
10794SOL    HW233282   4.746   2.411   6.772
10795SOL     OW33283   6.708   3.437   3.021
10795SOL    HW133284   6.780   3.494   3.061
10795SOL    HW233285   6.630   3.495   2.998
10796SOL     OW33286   0.262   1.484   5.844
10796SOL    HW133287   0.243   1.454   5.938
10796SOL    HW233288   0.334   1.426   5.805
10797SOL     OW33289   5.181   4.564   0.235
10797SOL    HW133290   5.084   4.578   0.215
10797SOL    HW233291   5.190   4.512   0.321
10798SOL     OW33292   1.968   6.084   0.447
10798SOL    HW133293   1.876   6.096   0.484
10798SOL    HW233294   1.991   6.162   0.389
10799SOL     OW33295   3.670   0.208   2.345
10799SOL    HW133296   3.589   0.245   2.300
10799SOL    HW233297   3.642   0.140   2.413
10800SOL     OW33298   1.875   6.632   5.616
10800SOL    HW133299   1.923   6.719   5.631
10800SOL    HW233300   1.939   6.563   5.583
10801SOL     OW33301   2.869   6.157   6.586
10801SOL    HW133302   2.882   6.244   6.634
10801SOL    HW233303   2.907   6.082   6.640
10802SOL     OW33304   0.769   4.657   4.337
10802SOL    HW133305   0.836   4.629   4.406
10802SOL    HW233306   0.765   4.757   4.334
10803SOL     OW33307   0.054   4.241   4.648
10803SOL    HW133308   0.141   4.268   4.607
10803SOL    HW233309   0.051   4.141   4.656
10804SOL     OW33310   4.433   4.568   0.961
10804SOL    HW133311   4.522   4.615   0.963
10804SOL    HW233312   4.369   4.616   1.020
10805SOL     OW33313   3.887   6.172   0.829
10805SOL    HW133314   3.814   6.211   0.772
10805SOL    HW233315   3.848   6.135   0.913
10806SOL     OW33316   5.624   3.824   6.276
10806SOL    HW133317   5.596   3.824   6.372
10806SOL    HW233318   5.721   3.802   6.269
10807SOL     OW33319   4.781   2.310   4.344
10807SOL    HW133320   4.855   2.256   4.304
10807SOL    HW233321   4.694   2.283   4.304
10808SOL     OW33322   0.726   2.145   6.897
10808SOL    HW133323   0.721   2.244   6.887
10808SOL    HW233324   0.822   2.117   6.902
10809SOL     OW33325   2.009   1.275   2.342
10809SOL    HW133326   1.909   1.278   2.336
10809SOL    HW233327   2.038   1.304   2.433
10810SOL     OW33328   1.984   1.275   6.453
10810SOL    HW133329   2.010   1.276   6.357
10810SOL    HW233330   1.904   1.216   6.466
10811SOL     OW33331   4.576   5.422   6.584
10811SOL    HW133332   4.664   5.386   6.555
10811SOL    HW233333   4.518   5.347   6.616
10812SOL     OW33334   6.833   2.312   2.338
10812SOL    HW133335   6.886   2.393   2.310
10812SOL    HW233336   6.860   2.234   2.282
10813SOL     OW33337   3.506   5.988   2.446
10813SOL    HW133338   3.530   6.029   2.358
10813SOL    HW233339   3.541   5.894   2.450
10814SOL     OW33340   1.955   6.414   4.197
10814SOL    HW133341   1.903   6.369   4.270
10814SOL    HW233342   2.017   6.482   4.237
10815SOL     OW33343   4.958   1.795   4.765
10815SOL    HW133344   4.938   1.891   4.746
10815SOL    HW233345   4.906   1.737   4.701
10816SOL     OW33346   2.231   2.041   1.465
10816SOL    HW133347   2.186   1.969   1.517
10816SOL    HW233348   2.290   2.095   1.525
10817SOL     OW33349   3.986   1.225   1.774
10817SOL    HW133350   3.984   1.193   1.679
10817SOL    HW233351   4.079   1.252   1.799
10818SOL     OW33352   4.176   3.442   6.670
10818SOL    HW133353   4.123   3.524   6.648
10818SOL    HW233354   4.260   3.469   6.717
10819SOL     OW33355   1.257   3.708   5.384
10819SOL    HW133356   1.344   3.659   5.382
10819SOL    HW233357   1.212   3.694   5.472
10820SOL     OW33358   0.277   6.653   4.620
10820SOL    HW133359   0.290   6.720   4.693
10820SOL    HW233360   0.317   6.688   4.535
10821SOL     OW33361   0.604   0.914   6.845
10821SOL    HW133362   0.622   0.948   6.937
10821SOL    HW233363   0.523   0.855   6.846
10822SOL     OW33364   0.507   4.351   6.729
10822SOL    HW133365   0.425   4.333   6.783
10822SOL    HW233366   0.529   4.449   6.732
10823SOL     OW33367   1.883   2.557   1.240
10823SOL    HW133368   1.799   2.575   1.291
10823SOL    HW233369   1.938   2.641   1.236
10824SOL     OW33370   5.463   1.101   3.682
10824SOL    HW133371   5.544   1.074   3.735
10824SOL    HW233372   5.386   1.114   3.744
10825SOL     OW33373   3.015   1.104   2.775
10825SOL    HW133374   3.002   1.185   2.718
10825SOL    HW233375   3.113   1.086   2.786
10826SOL     OW33376   0.228   3.185   1.468
10826SOL    HW133377   0.296   3.113   1.467
10826SOL    HW233378   0.185   3.190   1.558
10827SOL     OW33379   0.451   3.001   4.142
10827SOL    HW133380   0.477   3.032   4.051
10827SOL    HW233381   0.357   3.031   4.161
10828SOL     OW33382   2.523   5.198   0.258
10828SOL    HW133383   2.491   5.131   0.325
10828SOL    HW233384   2.500   5.168   0.166
10829SOL     OW33385   1.997   4.197   1.708
10829SOL    HW133386   1.996   4.097   1.712
10829SOL    HW233387   2.057   4.232   1.780
10830SOL     OW33388   6.088   0.859   3.662
10830SOL    HW133389   6.015   0.905   3.612
10830SOL    HW233390   6.171   0.854   3.605
10831SOL     OW33391   5.616   2.833   1.988
10831SOL    HW133392   5.579   2.916   2.028
10831SOL    HW233393   5.587   2.754   2.041
10832SOL     OW33394   0.825   3.690   2.775
10832SOL    HW133395   0.862   3.627   2.707
10832SOL    HW233396   0.856   3.783   2.756
10833SOL     OW33397   2.971   6.831   4.046
10833SOL    HW133398   2.892   6.775   4.072
10833SOL    HW233399   2.963   6.856   3.949
10834SOL     OW33400   6.547   0.944   5.937
10834SOL    HW133401   6.539   0.970   6.033
10834SOL    HW233402   6.625   0.991   5.896
10835SOL     OW33403   0.375   2.176   1.121
10835SOL    HW133404   0.419   2.102   1.172
10835SOL    HW233405   0.347   2.143   1.031
10836SOL     OW33406   1.051   2.952   1.171
10836SOL    HW133407   0.984   2.881   1.150
10836SOL    HW233408   1.089   2.988   1.086
10837SOL     OW33409   1.087   5.998   1.406
10837SOL    HW133410   1.179   5.975   1.374
10837SOL    HW233411   1.082   5.987   1.505
10838SOL     OW33412   6.429   6.453   0.568
10838SOL    HW133413   6.506   6.405   0.612
10838SOL    HW233414   6.464   6.531   0.516
10839SOL     OW33415   1.544   1.481   0.008
10839SOL    HW133416   1.463   1.508   0.059
10839SOL    HW233417   1.527   1.491   6.936
10840SOL     OW33418   2.728   0.000   2.888
10840SOL    HW133419   2.752   7.012   2.984
10840SOL    HW233420   2.724   6.939   2.841
10841SOL     OW33421   4.318   3.446   0.571
10841SOL    HW133422   4.308   3.398   0.658
10841SOL    HW233423   4.400   3.502   0.573
10842SOL     OW33424   5.944   2.671   1.804
10842SOL    HW133425   5.999   2.682   1.722
10842SOL    HW233426   5.848   2.662   1.778
10843SOL     OW33427   0.654   1.451   2.010
10843SOL    HW133428   0.556   1.460   1.989
10843SOL    HW233429   0.707   1.463   1.926
10844SOL     OW33430   4.705   0.718   3.429
10844SOL    HW133431   4.765   0.769   3.368
10844SOL    HW233432   4.691   0.769   3.514
10845SOL     OW33433   2.274   3.128   1.040
10845SOL    HW133434   2.303   3.152   0.948
10845SOL    HW233435   2.220   3.043   1.037
10846SOL     OW33436   3.417   2.360   1.439
10846SOL    HW133437   3.454   2.447   1.404
10846SOL    HW233438   3.424   2.359   1.538
10847SOL     OW33439   4.811   2.205   5.189
10847SOL    HW133440   4.786   2.279   5.252
10847SOL    HW233441   4.861   2.135   5.238
10848SOL     OW33442   1.465   0.880   6.565
10848SOL    HW133443   1.534   0.891   6.637
10848SOL    HW233444   1.402   0.958   6.567
10849SOL     OW33445   1.639   5.038   4.069
10849SOL    HW133446   1.592   4.994   4.145
10849SOL    HW233447   1.628   4.983   3.986
10850SOL     OW33448   5.311   0.897   2.055
10850SOL    HW133449   5.226   0.940   2.084
10850SOL    HW233450   5.329   0.922   1.959
10851SOL     OW33451   4.229   2.350   0.355
10851SOL    HW133452   4.171   2.271   0.373
10851SOL    HW233453   4.259   2.348   0.259
10852SOL     OW33454   6.213   0.446   6.199
10852SOL    HW133455   6.303   0.490   6.198
10852SOL    HW233456   6.142   0.513   6.176
10853SOL     OW33457   2.823   0.819   4.591
10853SOL    HW133458   2.898   0.813   4.658
10853SOL    HW233459   2.823   0.738   4.533
10854SOL     OW33460   6.817   0.581   1.337
10854SOL    HW133461   6.828   0.586   1.436
10854SOL    HW233462   6.729   0.540   1.314
10855SOL     OW33463   0.060   5.998   1.345
10855SOL    HW133464   0.038   5.917   1.399
10855SOL    HW233465   0.069   6.077   1.406
10856SOL     OW33466   5.273   6.938   6.387
10856SOL    HW133467   5.360   6.957   6.432
10856SOL    HW233468   5.207   7.009   6.410
10857SOL     OW33469   6.284   0.041   4.802
10857SOL    HW133470   6.268   6.969   4.806
10857SOL    HW233471   6.382   0.059   4.812
10858SOL     OW33472   2.240   2.064   0.108
10858SOL    HW133473   2.301   2.128   0.154
10858SOL    HW233474   2.187   2.014   0.177
10859SOL     OW33475   1.576   5.063   2.469
10859SOL    HW133476   1.645   4.992   2.454
10859SOL    HW233477   1.578   5.092   2.564
10860SOL     OW33478   5.720   2.485   1.425
10860SOL    HW133479   5.782   2.449   1.495
10860SOL    HW233480   5.628   2.451   1.442
10861SOL     OW33481   1.685   4.317   1.868
10861SOL    HW133482   1.646   4.404   1.837
10861SOL    HW233483   1.629   4.241   1.833
10862SOL     OW33484   3.646   4.301   5.397
10862SOL    HW133485   3.723   4.265   5.450
10862SOL    HW233486   3.668   4.296   5.300
10863SOL     OW33487   1.875   6.773   3.314
10863SOL    HW133488   1.899   6.850   3.373
10863SOL    HW233489   1.957   6.740   3.267
10864SOL     OW33490   2.996   3.456   1.894
10864SOL    HW133491   2.987   3.555   1.880
10864SOL    HW233492   3.084   3.437   1.937
10865SOL     OW33493   3.591   1.639   2.942
10865SOL    HW133494   3.644   1.724   2.930
10865SOL    HW233495   3.608   1.578   2.865
10866SOL     OW33496   0.959   3.678   4.317
10866SOL    HW133497   1.034   3.741   4.297
10866SOL    HW233498   0.970   3.594   4.263
10867SOL     OW33499   4.652   3.590   0.067
10867SOL    HW133500   4.703   3.557   0.146
10867SOL    HW233501   4.560   3.551   0.068
10868SOL     OW33502   1.212   6.614   5.128
10868SOL    HW133503   1.167   6.527   5.150
10868SOL    HW233504   1.311   6.604   5.137
10869NA      NA33505   0.069   1.024   6.367
10870NA      NA33506   4.767   4.642   5.292
10871NA      NA33507   0.950   4.760   2.814
10872NA      NA33508   5.940   3.465   3.387
10873NA      NA33509   3.825   2.685   5.472
10874NA      NA33510   2.308   4.347   6.833
10875NA      NA33511   1.747   5.383   0.096
10876NA      NA33512   4.197   4.922   1.883
10877NA      NA33513   5.118   4.301   0.966
10878NA      NA33514   3.677   1.565   0.668
10879NA      NA33515   5.467   6.893   1.349
10880NA      NA33516   2.344   6.770   5.382
10881NA      NA33517   4.359   5.037   3.143
10882NA      NA33518   4.130   4.310   6.441
   7.02642   7.02642   7.02642
