Generated by trjconv : CNT in water t= 428.00000
33518
    1C        C    1   2.844   2.771   4.750
    1C        C    2   2.900   2.720   4.869
    1C        C    3   2.845   2.774   4.986
    1C        C    4   2.853   2.779   4.264
    1C        C    5   2.907   2.734   4.387
    1C        C    6   2.849   2.777   4.509
    1C        C    7   3.017   2.643   4.626
    1C        C    8   2.902   2.725   4.629
    1C        C    9   3.079   2.607   4.747
    1C        C   10   3.013   2.636   4.869
    1C        C   11   3.183   2.494   4.974
    1C        C   12   3.061   2.563   4.979
    1C        C   13   2.852   2.777   3.773
    1C        C   14   2.904   2.730   3.896
    1C        C   15   2.851   2.775   4.019
    1C        C   16   3.021   2.650   4.143
    1C        C   17   2.905   2.731   4.142
    1C        C   18   3.086   2.617   4.264
    1C        C   19   3.022   2.653   4.385
    1C        C   20   3.216   2.564   4.503
    1C        C   21   3.084   2.612   4.506
    1C        C   22   3.282   2.536   4.625
    1C        C   23   3.208   2.547   4.745
    1C        C   24   3.416   2.493   4.864
    1C        C   25   3.273   2.503   4.863
    1C        C   26   3.492   2.484   4.982
    1C        C   27   2.853   2.769   3.282
    1C        C   28   2.906   2.727   3.406
    1C        C   29   2.855   2.773   3.530
    1C        C   30   3.023   2.645   3.652
    1C        C   31   2.909   2.729   3.653
    1C        C   32   3.081   2.611   3.776
    1C        C   33   3.020   2.650   3.898
    1C        C   34   3.209   2.555   4.015
    1C        C   35   3.081   2.615   4.020
    1C        C   36   3.280   2.534   4.135
    1C        C   37   3.217   2.563   4.258
    1C        C   38   3.421   2.510   4.382
    1C        C   39   3.283   2.540   4.380
    1C        C   40   3.493   2.504   4.503
    1C        C   41   3.420   2.507   4.624
    1C        C   42   3.634   2.484   4.745
    1C        C   43   3.492   2.488   4.744
    1C        C   44   3.707   2.490   4.866
    1C        C   45   3.631   2.480   4.982
    1C        C   46   2.838   2.751   2.793
    1C        C   47   2.897   2.711   2.915
    1C        C   48   2.846   2.761   3.037
    1C        C   49   3.024   2.646   3.161
    1C        C   50   2.904   2.721   3.160
    1C        C   51   3.084   2.612   3.285
    1C        C   52   3.021   2.646   3.407
    1C        C   53   3.213   2.557   3.530
    1C        C   54   3.085   2.616   3.529
    1C        C   55   3.279   2.532   3.653
    1C        C   56   3.211   2.557   3.774
    1C        C   57   3.419   2.508   3.895
    1C        C   58   3.279   2.531   3.895
    1C        C   59   3.489   2.496   4.017
    1C        C   60   3.419   2.506   4.139
    1C        C   61   3.632   2.493   4.258
    1C        C   62   3.491   2.493   4.260
    1C        C   63   3.703   2.506   4.380
    1C        C   64   3.634   2.502   4.503
    1C        C   65   3.842   2.536   4.622
    1C        C   66   3.705   2.499   4.625
    1C        C   67   3.909   2.558   4.744
    1C        C   68   3.844   2.525   4.865
    1C        C   69   4.054   2.584   4.979
    1C        C   70   3.927   2.526   4.978
    1C        C   71   2.831   2.738   2.309
    1C        C   72   2.886   2.694   2.432
    1C        C   73   2.830   2.744   2.551
    1C        C   74   3.007   2.621   2.672
    1C        C   75   2.891   2.703   2.672
    1C        C   76   3.073   2.592   2.794
    1C        C   77   3.016   2.635   2.916
    1C        C   78   3.209   2.548   3.040
    1C        C   79   3.079   2.603   3.038
    1C        C   80   3.277   2.533   3.163
    1C        C   81   3.214   2.557   3.287
    1C        C   82   3.418   2.500   3.405
    1C        C   83   3.280   2.531   3.409
    1C        C   84   3.487   2.494   3.528
    1C        C   85   3.418   2.504   3.651
    1C        C   86   3.630   2.501   3.772
    1C        C   87   3.489   2.496   3.773
    1C        C   88   3.699   2.509   3.895
    1C        C   89   3.631   2.496   4.017
    1C        C   90   3.840   2.543   4.134
    1C        C   91   3.704   2.505   4.138
    1C        C   92   3.906   2.566   4.257
    1C        C   93   3.839   2.543   4.380
    1C        C   94   4.031   2.635   4.499
    1C        C   95   3.909   2.565   4.501
    1C        C   96   4.091   2.673   4.621
    1C        C   97   4.036   2.623   4.741
    1C        C   98   4.190   2.766   4.864
    1C        C   99   4.102   2.653   4.864
    1C        C  100   4.214   2.844   4.978
    1C        C  101   2.817   2.726   2.074
    1C        C  102   2.992   2.591   2.188
    1C        C  103   2.875   2.674   2.190
    1C        C  104   3.066   2.582   2.310
    1C        C  105   3.005   2.619   2.432
    1C        C  106   3.204   2.536   2.551
    1C        C  107   3.074   2.590   2.552
    1C        C  108   3.270   2.517   2.674
    1C        C  109   3.202   2.536   2.797
    1C        C  110   3.411   2.494   2.916
    1C        C  111   3.272   2.516   2.918
    1C        C  112   3.483   2.492   3.038
    1C        C  113   3.415   2.503   3.162
    1C        C  114   3.629   2.496   3.281
    1C        C  115   3.488   2.495   3.283
    1C        C  116   3.696   2.506   3.405
    1C        C  117   3.629   2.500   3.529
    1C        C  118   3.838   2.540   3.646
    1C        C  119   3.701   2.507   3.650
    1C        C  120   3.902   2.565   3.770
    1C        C  121   3.837   2.540   3.893
    1C        C  122   4.034   2.627   4.013
    1C        C  123   3.909   2.563   4.013
    1C        C  124   4.090   2.672   4.135
    1C        C  125   4.029   2.635   4.257
    1C        C  126   4.200   2.763   4.380
    1C        C  127   4.093   2.671   4.378
    1C        C  128   4.248   2.819   4.501
    1C        C  129   4.195   2.769   4.622
    1C        C  130   4.327   2.936   4.741
    1C        C  131   4.242   2.821   4.744
    1C        C  132   4.351   3.009   4.860
    1C        C  133   4.281   2.966   4.974
    1C        C  134   3.176   2.460   2.087
    1C        C  135   3.042   2.503   2.088
    1C        C  136   3.264   2.484   2.193
    1C        C  137   3.197   2.527   2.311
    1C        C  138   3.407   2.476   2.429
    1C        C  139   3.269   2.503   2.430
    1C        C  140   3.480   2.481   2.550
    1C        C  141   3.409   2.491   2.671
    1C        C  142   3.622   2.497   2.793
    1C        C  143   3.481   2.488   2.793
    1C        C  144   3.694   2.501   2.915
    1C        C  145   3.624   2.495   3.037
    1C        C  146   3.835   2.531   3.157
    1C        C  147   3.698   2.498   3.158
    1C        C  148   3.903   2.557   3.279
    1C        C  149   3.835   2.534   3.400
    1C        C  150   4.028   2.624   3.523
    1C        C  151   3.902   2.561   3.522
    1C        C  152   4.087   2.663   3.646
    1C        C  153   4.026   2.633   3.770
    1C        C  154   4.196   2.765   3.890
    1C        C  155   4.087   2.674   3.891
    1C        C  156   4.248   2.814   4.012
    1C        C  157   4.197   2.764   4.134
    1C        C  158   4.335   2.925   4.256
    1C        C  159   4.247   2.815   4.256
    1C        C  160   4.376   2.986   4.376
    1C        C  161   4.330   2.934   4.499
    1C        C  162   4.434   3.121   4.616
    1C        C  163   4.366   2.997   4.620
    1C        C  164   4.467   3.186   4.736
    1C        C  165   4.431   3.125   4.858
    1C        C  166   4.512   3.322   4.974
    1C        C  167   4.481   3.186   4.974
    1C        C  168   3.478   2.440   2.070
    1C        C  169   3.403   2.466   2.185
    1C        C  170   3.619   2.468   2.309
    1C        C  171   3.477   2.467   2.306
    1C        C  172   3.694   2.484   2.428
    1C        C  173   3.621   2.487   2.549
    1C        C  174   3.830   2.531   2.667
    1C        C  175   3.692   2.502   2.671
    1C        C  176   3.896   2.557   2.789
    1C        C  177   3.832   2.533   2.913
    1C        C  178   4.027   2.617   3.033
    1C        C  179   3.900   2.555   3.034
    1C        C  180   4.087   2.656   3.154
    1C        C  181   4.028   2.623   3.278
    1C        C  182   4.196   2.752   3.402
    1C        C  183   4.088   2.660   3.401
    1C        C  184   4.245   2.805   3.524
    1C        C  185   4.195   2.754   3.646
    1C        C  186   4.336   2.917   3.765
    1C        C  187   4.247   2.807   3.766
    1C        C  188   4.374   2.978   3.887
    1C        C  189   4.336   2.924   4.012
    1C        C  190   4.447   3.105   4.127
    1C        C  191   4.379   2.981   4.134
    1C        C  192   4.471   3.172   4.249
    1C        C  193   4.443   3.111   4.374
    1C        C  194   4.509   3.317   4.494
    1C        C  195   4.464   3.183   4.493
    1C        C  196   4.528   3.389   4.614
    1C        C  197   4.513   3.321   4.736
    1C        C  198   4.548   3.538   4.853
    1C        C  199   4.530   3.396   4.856
    1C        C  200   4.580   3.620   4.965
    1C        C  201   3.616   2.419   2.074
    1C        C  202   3.829   2.505   2.184
    1C        C  203   3.692   2.461   2.188
    1C        C  204   3.898   2.542   2.302
    1C        C  205   3.829   2.524   2.425
    1C        C  206   4.025   2.614   2.544
    1C        C  207   3.898   2.551   2.545
    1C        C  208   4.085   2.651   2.666
    1C        C  209   4.024   2.616   2.789
    1C        C  210   4.191   2.749   2.910
    1C        C  211   4.085   2.656   2.910
    1C        C  212   4.244   2.797   3.032
    1C        C  213   4.195   2.747   3.155
    1C        C  214   4.331   2.910   3.275
    1C        C  215   4.244   2.799   3.277
    1C        C  216   4.371   2.971   3.396
    1C        C  217   4.333   2.915   3.520
    1C        C  218   4.431   3.104   3.641
    1C        C  219   4.372   2.975   3.642
    1C        C  220   4.460   3.171   3.762
    1C        C  221   4.437   3.104   3.885
    1C        C  222   4.503   3.309   4.004
    1C        C  223   4.472   3.170   4.005
    1C        C  224   4.518   3.378   4.126
    1C        C  225   4.508   3.308   4.249
    1C        C  226   4.518   3.524   4.369
    1C        C  227   4.517   3.382   4.369
    1C        C  228   4.521   3.600   4.488
    1C        C  229   4.540   3.530   4.609
    1C        C  230   4.509   3.744   4.730
    1C        C  231   4.541   3.606   4.728
    1C        C  232   4.503   3.822   4.848
    1C        C  233   4.543   3.755   4.964
    1C        C  234   4.020   2.608   2.065
    1C        C  235   3.898   2.542   2.067
    1C        C  236   4.086   2.648   2.182
    1C        C  237   4.025   2.604   2.302
    1C        C  238   4.205   2.726   2.423
    1C        C  239   4.090   2.642   2.421
    1C        C  240   4.252   2.783   2.543
    1C        C  241   4.193   2.741   2.665
    1C        C  242   4.332   2.903   2.785
    1C        C  243   4.241   2.795   2.786
    1C        C  244   4.376   2.960   2.907
    1C        C  245   4.338   2.902   3.030
    1C        C  246   4.433   3.093   3.152
    1C        C  247   4.375   2.964   3.152
    1C        C  248   4.454   3.163   3.274
    1C        C  249   4.433   3.098   3.397
    1C        C  250   4.501   3.301   3.516
    1C        C  251   4.461   3.166   3.518
    1C        C  252   4.514   3.373   3.637
    1C        C  253   4.501   3.306   3.761
    1C        C  254   4.526   3.518   3.878
    1C        C  255   4.517   3.377   3.882
    1C        C  256   4.522   3.588   4.001
    1C        C  257   4.528   3.519   4.125
    1C        C  258   4.496   3.732   4.244
    1C        C  259   4.518   3.592   4.245
    1C        C  260   4.477   3.803   4.364
    1C        C  261   4.491   3.738   4.489
    1C        C  262   4.426   3.942   4.607
    1C        C  263   4.476   3.809   4.609
    1C        C  264   4.396   4.009   4.727
    1C        C  265   4.437   3.947   4.847
    1C        C  266   4.317   4.130   4.959
    1C        C  267   4.397   4.016   4.963
    1C        C  268   4.261   2.777   2.064
    1C        C  269   4.201   2.730   2.181
    1C        C  270   4.347   2.887   2.301
    1C        C  271   4.256   2.778   2.302
    1C        C  272   4.384   2.953   2.421
    1C        C  273   4.337   2.896   2.542
    1C        C  274   4.447   3.079   2.664
    1C        C  275   4.378   2.956   2.663
    1C        C  276   4.471   3.149   2.784
    1C        C  277   4.442   3.085   2.906
    1C        C  278   4.500   3.289   3.028
    1C        C  279   4.464   3.153   3.028
    1C        C  280   4.512   3.364   3.148
    1C        C  281   4.494   3.298   3.271
    1C        C  282   4.518   3.510   3.390
    1C        C  283   4.507   3.370   3.393
    1C        C  284   4.515   3.583   3.512
    1C        C  285   4.517   3.514   3.635
    1C        C  286   4.492   3.727   3.755
    1C        C  287   4.519   3.588   3.756
    1C        C  288   4.471   3.793   3.878
    1C        C  289   4.495   3.726   4.000
    1C        C  290   4.428   3.931   4.119
    1C        C  291   4.475   3.798   4.121
    1C        C  292   4.400   3.999   4.239
    1C        C  293   4.427   3.936   4.362
    1C        C  294   4.326   4.126   4.481
    1C        C  295   4.395   4.002   4.483
    1C        C  296   4.285   4.190   4.600
    1C        C  297   4.323   4.131   4.723
    1C        C  298   4.201   4.316   4.839
    1C        C  299   4.284   4.199   4.842
    1C        C  300   4.168   4.401   4.949
    1C        C  301   4.349   2.884   2.064
    1C        C  302   4.473   3.065   2.177
    1C        C  303   4.402   2.941   2.181
    1C        C  304   4.481   3.141   2.297
    1C        C  305   4.450   3.077   2.419
    1C        C  306   4.504   3.282   2.537
    1C        C  307   4.475   3.144   2.541
    1C        C  308   4.514   3.354   2.658
    1C        C  309   4.500   3.287   2.782
    1C        C  310   4.522   3.498   2.902
    1C        C  311   4.507   3.357   2.904
    1C        C  312   4.516   3.573   3.022
    1C        C  313   4.511   3.505   3.146
    1C        C  314   4.488   3.717   3.264
    1C        C  315   4.510   3.578   3.267
    1C        C  316   4.476   3.789   3.385
    1C        C  317   4.493   3.723   3.509
    1C        C  318   4.427   3.926   3.629
    1C        C  319   4.473   3.792   3.631
    1C        C  320   4.396   3.988   3.752
    1C        C  321   4.425   3.926   3.876
    1C        C  322   4.318   4.111   3.991
    1C        C  323   4.395   3.993   3.996
    1C        C  324   4.276   4.168   4.114
    1C        C  325   4.325   4.119   4.237
    1C        C  326   4.185   4.282   4.356
    1C        C  327   4.281   4.178   4.358
    1C        C  328   4.132   4.335   4.476
    1C        C  329   4.190   4.293   4.598
    1C        C  330   4.028   4.439   4.716
    1C        C  331   4.141   4.353   4.716
    1C        C  332   3.975   4.499   4.832
    1C        C  333   4.054   4.482   4.947
    1C        C  334   4.553   3.267   2.065
    1C        C  335   4.534   3.129   2.065
    1C        C  336   4.536   3.352   2.176
    1C        C  337   4.518   3.279   2.295
    1C        C  338   4.521   3.494   2.415
    1C        C  339   4.517   3.353   2.415
    1C        C  340   4.518   3.566   2.537
    1C        C  341   4.517   3.495   2.659
    1C        C  342   4.494   3.707   2.775
    1C        C  343   4.516   3.568   2.780
    1C        C  344   4.478   3.780   2.895
    1C        C  345   4.495   3.713   3.018
    1C        C  346   4.423   3.914   3.138
    1C        C  347   4.475   3.782   3.139
    1C        C  348   4.393   3.981   3.259
    1C        C  349   4.429   3.922   3.382
    1C        C  350   4.322   4.104   3.505
    1C        C  351   4.401   3.987   3.504
    1C        C  352   4.275   4.163   3.624
    1C        C  353   4.319   4.107   3.746
    1C        C  354   4.176   4.264   3.868
    1C        C  355   4.280   4.168   3.867
    1C        C  356   4.127   4.317   3.989
    1C        C  357   4.176   4.267   4.112
    1C        C  358   4.012   4.402   4.232
    1C        C  359   4.128   4.322   4.233
    1C        C  360   3.953   4.446   4.353
    1C        C  361   4.016   4.415   4.475
    1C        C  362   3.829   4.518   4.593
    1C        C  363   3.959   4.464   4.595
    1C        C  364   3.765   4.553   4.714
    1C        C  365   3.842   4.546   4.833
    1C        C  366   3.631   4.598   4.951
    1C        C  367   3.769   4.579   4.948
    1C        C  368   4.509   3.562   2.053
    1C        C  369   4.526   3.492   2.173
    1C        C  370   4.504   3.705   2.291
    1C        C  371   4.516   3.565   2.294
    1C        C  372   4.483   3.777   2.411
    1C        C  373   4.502   3.706   2.532
    1C        C  374   4.425   3.907   2.650
    1C        C  375   4.481   3.777   2.652
    1C        C  376   4.391   3.970   2.771
    1C        C  377   4.428   3.912   2.895
    1C        C  378   4.325   4.100   3.011
    1C        C  379   4.399   3.980   3.016
    1C        C  380   4.280   4.157   3.132
    1C        C  381   4.316   4.099   3.256
    1C        C  382   4.180   4.256   3.376
    1C        C  383   4.275   4.152   3.380
    1C        C  384   4.124   4.305   3.497
    1C        C  385   4.174   4.261   3.622
    1C        C  386   4.005   4.387   3.745
    1C        C  387   4.121   4.306   3.745
    1C        C  388   3.943   4.425   3.866
    1C        C  389   4.008   4.393   3.987
    1C        C  390   3.819   4.489   4.111
    1C        C  391   3.948   4.431   4.110
    1C        C  392   3.752   4.515   4.232
    1C        C  393   3.823   4.501   4.353
    1C        C  394   3.616   4.558   4.475
    1C        C  395   3.755   4.533   4.473
    1C        C  396   3.549   4.565   4.600
    1C        C  397   3.625   4.565   4.719
    1C        C  398   3.410   4.562   4.842
    1C        C  399   3.551   4.572   4.839
    1C        C  400   3.344   4.527   4.960
    1C        C  401   4.503   3.701   2.054
    1C        C  402   4.453   3.913   2.168
    1C        C  403   4.497   3.779   2.171
    1C        C  404   4.412   3.977   2.287
    1C        C  405   4.438   3.911   2.409
    1C        C  406   4.328   4.096   2.526
    1C        C  407   4.401   3.975   2.529
    1C        C  408   4.278   4.150   2.647
    1C        C  409   4.318   4.091   2.768
    1C        C  410   4.178   4.253   2.889
    1C        C  411   4.276   4.151   2.889
    1C        C  412   4.123   4.302   3.010
    1C        C  413   4.177   4.254   3.131
    1C        C  414   4.003   4.372   3.255
    1C        C  415   4.123   4.298   3.254
    1C        C  416   3.942   4.411   3.377
    1C        C  417   4.003   4.378   3.500
    1C        C  418   3.816   4.478   3.624
    1C        C  419   3.943   4.418   3.621
    1C        C  420   3.745   4.499   3.744
    1C        C  421   3.813   4.479   3.866
    1C        C  422   3.611   4.536   3.988
    1C        C  423   3.749   4.506   3.989
    1C        C  424   3.542   4.546   4.111
    1C        C  425   3.614   4.546   4.232
    1C        C  426   3.402   4.550   4.357
    1C        C  427   3.543   4.555   4.354
    1C        C  428   3.335   4.553   4.481
    1C        C  429   3.408   4.558   4.601
    1C        C  430   3.196   4.524   4.724
    1C        C  431   3.335   4.553   4.722
    1C        C  432   3.128   4.498   4.846
    1C        C  433   3.208   4.500   4.961
    1C        C  434   4.391   4.122   2.055
    1C        C  435   4.454   3.997   2.055
    1C        C  436   4.305   4.163   2.162
    1C        C  437   4.332   4.095   2.284
    1C        C  438   4.182   4.250   2.402
    1C        C  439   4.282   4.150   2.404
    1C        C  440   4.125   4.296   2.523
    1C        C  441   4.176   4.248   2.646
    1C        C  442   4.004   4.374   2.766
    1C        C  443   4.124   4.298   2.767
    1C        C  444   3.941   4.407   2.888
    1C        C  445   4.001   4.373   3.011
    1C        C  446   3.810   4.463   3.134
    1C        C  447   3.938   4.403   3.134
    1C        C  448   3.746   4.491   3.257
    1C        C  449   3.812   4.466   3.379
    1C        C  450   3.609   4.525   3.498
    1C        C  451   3.748   4.497   3.501
    1C        C  452   3.541   4.538   3.621
    1C        C  453   3.608   4.533   3.745
    1C        C  454   3.399   4.552   3.866
    1C        C  455   3.540   4.553   3.867
    1C        C  456   3.332   4.543   3.990
    1C        C  457   3.401   4.549   4.114
    1C        C  458   3.192   4.512   4.240
    1C        C  459   3.331   4.540   4.236
    1C        C  460   3.127   4.494   4.364
    1C        C  461   3.197   4.521   4.484
    1C        C  462   3.000   4.434   4.606
    1C        C  463   3.128   4.495   4.604
    1C        C  464   2.936   4.400   4.727
    1C        C  465   2.994   4.446   4.848
    1C        C  466   2.803   4.339   4.959
    1C        C  467   2.908   4.432   4.961
    1C        C  468   4.131   4.292   2.041
    1C        C  469   4.193   4.252   2.160
    1C        C  470   4.014   4.379   2.278
    1C        C  471   4.133   4.301   2.279
    1C        C  472   3.946   4.406   2.399
    1C        C  473   4.008   4.375   2.523
    1C        C  474   3.814   4.464   2.643
    1C        C  475   3.944   4.410   2.644
    1C        C  476   3.745   4.487   2.764
    1C        C  477   3.812   4.465   2.887
    1C        C  478   3.606   4.510   3.009
    1C        C  479   3.745   4.483   3.010
    1C        C  480   3.537   4.526   3.132
    1C        C  481   3.608   4.520   3.254
    1C        C  482   3.397   4.538   3.379
    1C        C  483   3.538   4.531   3.376
    1C        C  484   3.326   4.539   3.502
    1C        C  485   3.400   4.546   3.622
    1C        C  486   3.192   4.507   3.747
    1C        C  487   3.329   4.540   3.744
    1C        C  488   3.127   4.484   3.871
    1C        C  489   3.195   4.508   3.992
    1C        C  490   3.008   4.415   4.118
    1C        C  491   3.132   4.483   4.116
    1C        C  492   2.947   4.382   4.241
    1C        C  493   3.003   4.426   4.363
    1C        C  494   2.834   4.298   4.482
    1C        C  495   2.943   4.388   4.485
    1C        C  496   2.775   4.256   4.604
    1C        C  497   2.825   4.310   4.725
    1C        C  498   2.667   4.166   4.846
    1C        C  499   2.763   4.269   4.845
    1C        C  500   2.597   4.117   4.957
    1C        C  501   4.013   4.367   2.043
    1C        C  502   3.817   4.465   2.157
    1C        C  503   3.948   4.413   2.158
    1C        C  504   3.746   4.479   2.278
    1C        C  505   3.812   4.450   2.400
    1C        C  506   3.607   4.510   2.523
    1C        C  507   3.745   4.479   2.521
    1C        C  508   3.535   4.515   2.644
    1C        C  509   3.606   4.511   2.766
    1C        C  510   3.394   4.528   2.887
    1C        C  511   3.535   4.519   2.887
    1C        C  512   3.325   4.525   3.011
    1C        C  513   3.396   4.534   3.132
    1C        C  514   3.190   4.501   3.257
    1C        C  515   3.328   4.531   3.256
    1C        C  516   3.122   4.478   3.379
    1C        C  517   3.188   4.507   3.500
    1C        C  518   3.004   4.412   3.628
    1C        C  519   3.127   4.480   3.624
    1C        C  520   2.943   4.376   3.750
    1C        C  521   3.004   4.416   3.872
    1C        C  522   2.843   4.283   3.997
    1C        C  523   2.951   4.374   3.996
    1C        C  524   2.794   4.234   4.120
    1C        C  525   2.838   4.292   4.241
    1C        C  526   2.702   4.128   4.365
    1C        C  527   2.785   4.242   4.362
    1C        C  528   2.668   4.072   4.490
    1C        C  529   2.693   4.142   4.611
    1C        C  530   2.586   3.958   4.733
    1C        C  531   2.640   4.090   4.731
    1C        C  532   2.536   3.902   4.854
    1C        C  533   2.524   3.997   4.960
    1C        C  534   3.620   4.553   2.042
    1C        C  535   3.752   4.506   2.040
    1C        C  536   3.540   4.541   2.160
    1C        C  537   3.607   4.508   2.281
    1C        C  538   3.394   4.518   2.402
    1C        C  539   3.535   4.518   2.402
    1C        C  540   3.322   4.512   2.523
    1C        C  541   3.393   4.516   2.645
    1C        C  542   3.183   4.489   2.765
    1C        C  543   3.321   4.521   2.766
    1C        C  544   3.120   4.469   2.890
    1C        C  545   3.188   4.493   3.012
    1C        C  546   2.998   4.406   3.138
    1C        C  547   3.123   4.474   3.136
    1C        C  548   2.940   4.370   3.261
    1C        C  549   2.998   4.410   3.383
    1C        C  550   2.835   4.280   3.509
    1C        C  551   2.941   4.374   3.507
    1C        C  552   2.782   4.234   3.632
    1C        C  553   2.835   4.285   3.753
    1C        C  554   2.706   4.120   3.874
    1C        C  555   2.788   4.235   3.876
    1C        C  556   2.667   4.063   3.997
    1C        C  557   2.707   4.123   4.119
    1C        C  558   2.600   3.943   4.246
    1C        C  559   2.665   4.068   4.243
    1C        C  560   2.576   3.879   4.369
    1C        C  561   2.600   3.948   4.490
    1C        C  562   2.536   3.748   4.616
    1C        C  563   2.569   3.886   4.613
    1C        C  564   2.518   3.683   4.740
    1C        C  565   2.522   3.760   4.859
    1C        C  566   2.530   3.545   4.979
    1C        C  567   2.527   3.684   4.977
    1C        C  568   3.330   4.473   2.046
    1C        C  569   3.399   4.521   2.158
    1C        C  570   3.187   4.476   2.282
    1C        C  571   3.324   4.513   2.279
    1C        C  572   3.114   4.462   2.402
    1C        C  573   3.183   4.487   2.522
    1C        C  574   2.988   4.405   2.651
    1C        C  575   3.115   4.466   2.644
    1C        C  576   2.930   4.366   2.774
    1C        C  577   2.996   4.402   2.894
    1C        C  578   2.831   4.272   3.019
    1C        C  579   2.939   4.363   3.017
    1C        C  580   2.783   4.221   3.142
    1C        C  581   2.835   4.276   3.262
    1C        C  582   2.712   4.109   3.386
    1C        C  583   2.792   4.225   3.387
    1C        C  584   2.674   4.051   3.509
    1C        C  585   2.702   4.118   3.630
    1C        C  586   2.605   3.931   3.757
    1C        C  587   2.669   4.057   3.753
    1C        C  588   2.579   3.867   3.880
    1C        C  589   2.605   3.936   4.001
    1C        C  590   2.540   3.737   4.127
    1C        C  591   2.578   3.874   4.125
    1C        C  592   2.521   3.672   4.251
    1C        C  593   2.540   3.742   4.373
    1C        C  594   2.520   3.534   4.500
    1C        C  595   2.522   3.675   4.496
    1C        C  596   2.522   3.465   4.623
    1C        C  597   2.515   3.541   4.742
    1C        C  598   2.528   3.327   4.863
    1C        C  599   2.520   3.467   4.863
    1C        C  600   2.535   3.250   4.980
    1C        C  601   3.196   4.440   2.041
    1C        C  602   2.988   4.394   2.162
    1C        C  603   3.122   4.442   2.160
    1C        C  604   2.928   4.354   2.284
    1C        C  605   2.988   4.397   2.404
    1C        C  606   2.822   4.273   2.530
    1C        C  607   2.930   4.363   2.529
    1C        C  608   2.776   4.221   2.653
    1C        C  609   2.826   4.271   2.776
    1C        C  610   2.688   4.111   2.897
    1C        C  611   2.776   4.222   2.899
    1C        C  612   2.656   4.051   3.021
    1C        C  613   2.698   4.108   3.143
    1C        C  614   2.600   3.924   3.267
    1C        C  615   2.664   4.050   3.267
    1C        C  616   2.577   3.859   3.391
    1C        C  617   2.608   3.926   3.512
    1C        C  618   2.538   3.729   3.638
    1C        C  619   2.579   3.864   3.635
    1C        C  620   2.523   3.661   3.760
    1C        C  621   2.536   3.733   3.881
    1C        C  622   2.512   3.526   4.011
    1C        C  623   2.525   3.667   4.006
    1C        C  624   2.513   3.458   4.134
    1C        C  625   2.513   3.531   4.255
    1C        C  626   2.542   3.323   4.379
    1C        C  627   2.521   3.463   4.378
    1C        C  628   2.558   3.255   4.501
    1C        C  629   2.536   3.324   4.622
    1C        C  630   2.596   3.119   4.746
    1C        C  631   2.547   3.253   4.744
    1C        C  632   2.616   3.050   4.869
    1C        C  633   2.562   3.113   4.985
    1C        C  634   2.785   4.302   2.056
    1C        C  635   2.893   4.391   2.054
    1C        C  636   2.748   4.229   2.170
    1C        C  637   2.811   4.273   2.288
    1C        C  638   2.686   4.105   2.412
    1C        C  639   2.762   4.224   2.412
    1C        C  640   2.649   4.045   2.534
    1C        C  641   2.693   4.107   2.653
    1C        C  642   2.590   3.922   2.780
    1C        C  643   2.651   4.050   2.776
    1C        C  644   2.566   3.855   2.902
    1C        C  645   2.596   3.923   3.023
    1C        C  646   2.528   3.724   3.149
    1C        C  647   2.571   3.858   3.146
    1C        C  648   2.515   3.653   3.270
    1C        C  649   2.534   3.724   3.390
    1C        C  650   2.515   3.518   3.519
    1C        C  651   2.525   3.659   3.515
    1C        C  652   2.516   3.448   3.642
    1C        C  653   2.517   3.520   3.763
    1C        C  654   2.528   3.314   3.890
    1C        C  655   2.516   3.455   3.889
    1C        C  656   2.548   3.246   4.013
    1C        C  657   2.536   3.318   4.133
    1C        C  658   2.600   3.119   4.260
    1C        C  659   2.553   3.252   4.257
    1C        C  660   2.633   3.056   4.382
    1C        C  661   2.600   3.120   4.504
    1C        C  662   2.709   2.937   4.628
    1C        C  663   2.631   3.055   4.625
    1C        C  664   2.754   2.881   4.749
    1C        C  665   2.701   2.935   4.870
    1C        C  666   2.745   2.871   4.986
    1C        C  667   2.686   4.023   2.055
    1C        C  668   2.685   4.103   2.170
    1C        C  669   2.591   3.912   2.293
    1C        C  670   2.645   4.043   2.292
    1C        C  671   2.564   3.845   2.415
    1C        C  672   2.590   3.916   2.534
    1C        C  673   2.529   3.718   2.660
    1C        C  674   2.568   3.854   2.659
    1C        C  675   2.515   3.648   2.782
    1C        C  676   2.534   3.718   2.904
    1C        C  677   2.506   3.511   3.031
    1C        C  678   2.519   3.652   3.028
    1C        C  679   2.505   3.440   3.153
    1C        C  680   2.506   3.512   3.275
    1C        C  681   2.522   3.304   3.402
    1C        C  682   2.508   3.444   3.399
    1C        C  683   2.545   3.237   3.525
    1C        C  684   2.531   3.308   3.647
    1C        C  685   2.606   3.114   3.772
    1C        C  686   2.544   3.241   3.771
    1C        C  687   2.633   3.051   3.896
    1C        C  688   2.595   3.113   4.017
    1C        C  689   2.713   2.937   4.140
    1C        C  690   2.630   3.052   4.139
    1C        C  691   2.759   2.885   4.263
    1C        C  692   2.712   2.939   4.384
    1C        C  693   2.755   2.882   4.506
    1C        C  694   2.628   3.896   2.058
    1C        C  695   2.524   3.706   2.174
    1C        C  696   2.579   3.836   2.175
    1C        C  697   2.510   3.639   2.297
    1C        C  698   2.527   3.709   2.419
    1C        C  699   2.491   3.503   2.545
    1C        C  700   2.505   3.644   2.542
    1C        C  701   2.501   3.433   2.667
    1C        C  702   2.497   3.508   2.787
    1C        C  703   2.526   3.299   2.910
    1C        C  704   2.503   3.439   2.910
    1C        C  705   2.549   3.234   3.033
    1C        C  706   2.533   3.302   3.156
    1C        C  707   2.597   3.104   3.279
    1C        C  708   2.545   3.236   3.281
    1C        C  709   2.632   3.044   3.402
    1C        C  710   2.600   3.107   3.524
    1C        C  711   2.710   2.932   3.649
    1C        C  712   2.634   3.050   3.649
    1C        C  713   2.752   2.877   3.772
    1C        C  714   2.709   2.931   3.895
    1C        C  715   2.755   2.879   4.018
    1C        C  716   2.450   3.501   2.064
    1C        C  717   2.501   3.631   2.057
    1C        C  718   2.470   3.424   2.183
    1C        C  719   2.485   3.499   2.303
    1C        C  720   2.512   3.290   2.424
    1C        C  721   2.485   3.428   2.425
    1C        C  722   2.532   3.222   2.546
    1C        C  723   2.519   3.293   2.667
    1C        C  724   2.591   3.095   2.793
    1C        C  725   2.538   3.226   2.790
    1C        C  726   2.621   3.032   2.916
    1C        C  727   2.597   3.101   3.037
    1C        C  728   2.709   2.920   3.160
    1C        C  729   2.633   3.039   3.159
    1C        C  730   2.754   2.870   3.284
    1C        C  731   2.712   2.928   3.406
    1C        C  732   2.753   2.871   3.529
    1C        C  733   2.495   3.197   2.074
    1C        C  734   2.490   3.282   2.185
    1C        C  735   2.582   3.084   2.306
    1C        C  736   2.522   3.213   2.306
    1C        C  737   2.614   3.022   2.429
    1C        C  738   2.590   3.093   2.549
    1C        C  739   2.698   2.911   2.671
    1C        C  740   2.624   3.031   2.671
    1C        C  741   2.747   2.860   2.794
    1C        C  742   2.702   2.917   2.915
    1C        C  743   2.751   2.865   3.037
    1C        C  744   2.546   3.068   2.074
    1C        C  745   2.690   2.899   2.186
    1C        C  746   2.609   3.014   2.187
    1C        C  747   2.736   2.844   2.308
    1C        C  748   2.691   2.904   2.428
    1C        C  749   2.737   2.850   2.550
    1C        C  750   2.731   2.835   2.068
    1C        C  751   3.661   2.299   2.000
    1C        O  752   3.627   2.187   2.047
    1C        O  753   3.718   2.305   1.872
    1C        C  754   4.622   3.062   1.966
    1C        O  755   4.572   3.035   1.853
    1C        O  756   4.761   3.052   1.976
    1C        C  757   4.438   4.216   1.951
    1C        O  758   4.552   4.269   1.955
    1C        O  759   4.411   4.184   1.818
    1C        C  760   3.579   4.652   1.940
    1C        O  761   3.632   4.766   1.955
    1C        O  762   3.559   4.617   1.806
    1C        C  763   2.872   4.509   1.967
    1C        O  764   2.858   4.500   1.842
    1C        O  765   2.830   4.635   2.010
    1C        C  766   2.319   3.494   1.997
    1C        O  767   2.320   3.442   1.882
    1C        O  768   2.201   3.469   2.068
    1C        C  769   4.703   3.583   5.039
    1C        O  770   4.711   3.601   5.163
    1C        O  771   4.828   3.603   4.979
    1C        C  772   4.275   4.435   5.045
    1C        O  773   4.259   4.422   5.169
    1C        O  774   4.387   4.514   5.014
    1C        C  775   4.145   2.509   5.070
    1C        O  776   4.233   2.436   5.017
    1C        O  777   4.167   2.558   5.199
    1C        C  778   2.896   4.532   5.069
    1C        O  779   2.834   4.642   5.065
    1C        O  780   2.941   4.514   5.201
    1C        C  781   2.454   3.053   5.067
    1C        O  782   2.344   3.029   5.010
    1C        O  783   2.449   3.030   5.204
    1C        C  784   2.415   4.004   5.060
    1C        O  785   2.291   4.009   5.039
    1C        O  786   2.439   3.927   5.175
    1C        C  787   2.954   2.437   1.989
    1C        O  788   2.938   2.493   1.877
    1C        O  789   2.960   2.298   1.980
    1C        C  790   3.177   2.376   5.064
    1C        O  791   3.186   2.260   5.015
    1C        O  792   3.217   2.376   5.198
    1C        H  793   4.266   3.031   5.057
    1C        H  794   4.166   2.819   5.070
    1C        H  795   4.496   3.128   5.062
    1C        H  796   4.501   3.373   5.067
    1C        H  797   4.609   3.814   5.024
    1C        H  798   4.415   3.972   5.059
    1C        H  799   4.319   4.180   5.054
    1C        H  800   4.036   4.545   5.031
    1C        H  801   3.825   4.632   5.022
    1C        H  802   3.592   4.621   5.048
    1C        H  803   3.404   4.484   5.038
    1C        H  804   3.173   4.434   5.038
    1C        H  805   3.899   2.473   5.066
    1C        H  806   3.681   2.479   5.077
    1C        H  807   2.987   2.528   5.047
    1C        H  808   3.442   2.433   5.062
    1C        H  809   2.905   2.773   5.075
    1C        H  810   2.684   2.877   5.075
    1C        H  811   2.557   3.295   5.075
    1C        H  812   2.540   3.497   5.074
    1C        H  813   2.568   3.732   5.064
    1C        H  814   2.642   4.138   5.051
    1C        H  815   2.740   4.340   5.046
    1C        H  816   2.722   2.884   1.973
    1C        H  817   2.825   2.670   1.983
    1C        H  818   3.209   2.404   2.002
    1C        H  819   3.434   2.457   1.973
    1C        H  820   3.852   2.517   1.974
    1C        H  821   4.049   2.646   1.970
    1C        H  822   4.269   2.713   1.978
    1C        H  823   4.362   2.938   1.973
    1C        H  824   4.633   3.301   2.002
    1C        H  825   4.478   3.513   1.963
    1C        H  826   4.564   3.741   1.975
    1C        H  827   3.811   4.515   1.951
    1C        H  828   3.960   4.373   1.951
    1C        H  829   4.142   4.224   1.959
    1C        H  830   4.552   3.999   2.012
    1C        H  831   2.664   3.835   1.978
    1C        H  832   2.781   4.027   2.004
    1C        H  833   2.710   4.315   1.981
    1C        H  834   3.384   4.409   1.979
    1C        H  835   3.159   4.400   1.949
    1C        H  836   2.485   3.002   2.015
    1C        H  837   2.404   3.198   2.017
    1C        H  838   2.527   3.668   1.960
    2V3OU   H29  839   2.804   3.546   5.071
    2V3OU   C27  840   2.781   3.505   5.173
    2V3OU   H27  841   2.725   3.582   5.232
    2V3OU   H28  842   2.728   3.407   5.167
    2V3OU   O11  843   2.906   3.481   5.237
    2V3OU   C15  844   2.920   3.399   5.347
    2V3OU   C13  845   3.053   3.373   5.388
    2V3OU   C14  846   3.075   3.265   5.473
    2V3OU   C16  847   2.971   3.184   5.517
    2V3OU    H6  848   2.991   3.100   5.584
    2V3OU   C12  849   3.215   3.230   5.506
    2V3OU    O2  850   3.240   3.126   5.572
    2V3OU   C10  851   3.327   3.307   5.450
    2V3OU    C8  852   3.457   3.275   5.489
    2V3OU   O10  853   3.488   3.155   5.546
    2V3OU   H26  854   3.405   3.114   5.576
    2V3OU    C6  855   3.566   3.357   5.448
    2V3OU    C5  856   3.536   3.472   5.376
    2V3OU    C4  857   3.702   3.298   5.459
    2V3OU    H4  858   3.726   3.231   5.547
    2V3OU    H5  859   3.713   3.233   5.368
    2V3OU    C2  860   3.816   3.400   5.445
    2V3OU    O6  861   3.812   3.473   5.568
    2V3OU   H21  862   3.761   3.551   5.541
    2V3OU    C3  863   3.781   3.497   5.332
    2V3OU    H2  864   3.866   3.569   5.325
    2V3OU    H3  865   3.781   3.437   5.237
    2V3OU   C25  866   3.946   3.321   5.427
    2V3OU    O7  867   3.997   3.286   5.321
    2V3OU   C26  868   4.028   3.293   5.552
    2V3OU   H22  869   4.062   3.384   5.607
    2V3OU   H23  870   4.113   3.224   5.527
    2V3OU    O8  871   3.961   3.210   5.644
    2V3OU   H24  872   3.929   3.270   5.713
    2V3OU    C1  873   3.647   3.568   5.347
    2V3OU    H1  874   3.630   3.626   5.251
    2V3OU    O3  875   3.667   3.659   5.456
    2V3OU   C19  876   3.623   3.795   5.446
    2V3OU    H9  877   3.522   3.801   5.395
    2V3OU    O4  878   3.712   3.855   5.354
    2V3OU   C20  879   3.845   3.879   5.402
    2V3OU   H10  880   3.900   3.780   5.412
    2V3OU   C24  881   3.611   3.858   5.584
    2V3OU   H16  882   3.540   3.799   5.648
    2V3OU   H17  883   3.565   3.959   5.569
    2V3OU   C23  884   3.752   3.874   5.641
    2V3OU   H15  885   3.795   3.771   5.662
    2V3OU    N1  886   3.736   3.954   5.761
    2V3OU   H19  887   3.808   3.925   5.823
    2V3OU   H20  888   3.647   3.937   5.803
    2V3OU   C21  889   3.846   3.946   5.539
    2V3OU   H11  890   3.950   3.925   5.576
    2V3OU    O5  891   3.834   4.088   5.539
    2V3OU   H18  892   3.781   4.109   5.617
    2V3OU   C22  893   3.914   3.954   5.289
    2V3OU   H12  894   3.860   4.051   5.273
    2V3OU   H13  895   3.908   3.895   5.194
    2V3OU   H14  896   4.024   3.958   5.310
    2V3OU   C11  897   3.160   3.469   5.358
    2V3OU    O1  898   3.138   3.588   5.323
    2V3OU    C9  899   3.300   3.425   5.376
    2V3OU    C7  900   3.403   3.512   5.343
    2V3OU    O9  901   3.388   3.617   5.254
    2V3OU   H25  902   3.293   3.633   5.256
    2V3OU   C17  903   2.817   3.316   5.394
    2V3OU    H7  904   2.714   3.346   5.372
    2V3OU   C18  905   2.839   3.210   5.481
    2V3OU    H8  906   2.756   3.145   5.513
    3SOL     OW  907   3.812   4.054   4.546
    3SOL    HW1  908   3.776   4.114   4.618
    3SOL    HW2  909   3.820   3.961   4.581
    4SOL     OW  910   6.101   0.142   0.154
    4SOL    HW1  911   6.003   0.140   0.135
    4SOL    HW2  912   6.135   0.235   0.143
    5SOL     OW  913   4.433   1.488   1.307
    5SOL    HW1  914   4.390   1.578   1.310
    5SOL    HW2  915   4.373   1.425   1.258
    6SOL     OW  916   5.338   0.470   2.411
    6SOL    HW1  917   5.358   0.546   2.473
    6SOL    HW2  918   5.281   0.403   2.458
    7SOL     OW  919   2.465   4.411   3.221
    7SOL    HW1  920   2.469   4.501   3.178
    7SOL    HW2  921   2.496   4.417   3.316
    8SOL     OW  922   1.860   3.479   5.647
    8SOL    HW1  923   1.883   3.469   5.550
    8SOL    HW2  924   1.779   3.424   5.668
    9SOL     OW  925   5.930   1.199   6.563
    9SOL    HW1  926   5.865   1.156   6.625
    9SOL    HW2  927   5.887   1.213   6.474
   10SOL     OW  928   4.711   5.059   3.430
   10SOL    HW1  929   4.800   5.095   3.400
   10SOL    HW2  930   4.725   4.978   3.486
   11SOL     OW  931   2.299   0.726   0.616
   11SOL    HW1  932   2.220   0.693   0.564
   11SOL    HW2  933   2.342   0.649   0.663
   12SOL     OW  934   3.026   5.234   3.419
   12SOL    HW1  935   3.036   5.181   3.503
   12SOL    HW2  936   3.112   5.232   3.368
   13SOL     OW  937   4.672   6.111   1.601
   13SOL    HW1  938   4.590   6.084   1.550
   13SOL    HW2  939   4.645   6.134   1.695
   14SOL     OW  940   4.475   5.195   4.966
   14SOL    HW1  941   4.437   5.268   5.022
   14SOL    HW2  942   4.567   5.221   4.935
   15SOL     OW  943   6.813   5.538   6.216
   15SOL    HW1  944   6.783   5.632   6.201
   15SOL    HW2  945   6.733   5.478   6.217
   16SOL     OW  946   0.910   3.666   5.543
   16SOL    HW1  947   0.842   3.635   5.476
   16SOL    HW2  948   0.955   3.586   5.583
   17SOL     OW  949   6.276   1.040   5.269
   17SOL    HW1  950   6.193   1.095   5.276
   17SOL    HW2  951   6.356   1.099   5.279
   18SOL     OW  952   3.392   0.897   5.939
   18SOL    HW1  953   3.339   0.817   5.909
   18SOL    HW2  954   3.457   0.922   5.868
   19SOL     OW  955   1.471   1.321   3.383
   19SOL    HW1  956   1.433   1.371   3.461
   19SOL    HW2  957   1.396   1.280   3.331
   20SOL     OW  958   5.667   2.006   5.470
   20SOL    HW1  959   5.585   1.952   5.488
   20SOL    HW2  960   5.643   2.087   5.417
   21SOL     OW  961   2.406   5.050   2.577
   21SOL    HW1  962   2.470   5.108   2.526
   21SOL    HW2  963   2.358   5.105   2.645
   22SOL     OW  964   1.737   6.123   5.846
   22SOL    HW1  965   1.717   6.040   5.793
   22SOL    HW2  966   1.719   6.203   5.789
   23SOL     OW  967   5.053   4.269   2.005
   23SOL    HW1  968   5.058   4.268   1.905
   23SOL    HW2  969   5.116   4.200   2.041
   24SOL     OW  970   4.591   0.946   1.775
   24SOL    HW1  971   4.516   0.983   1.720
   24SOL    HW2  972   4.566   0.855   1.809
   25SOL     OW  973   2.289   0.493   3.973
   25SOL    HW1  974   2.271   0.515   4.069
   25SOL    HW2  975   2.291   0.394   3.962
   26SOL     OW  976   0.928   3.288   6.820
   26SOL    HW1  977   0.936   3.316   6.724
   26SOL    HW2  978   0.988   3.346   6.876
   27SOL     OW  979   6.954   1.084   0.957
   27SOL    HW1  980   7.007   1.140   0.894
   27SOL    HW2  981   6.910   1.142   1.025
   28SOL     OW  982   2.769   0.931   4.793
   28SOL    HW1  983   2.781   0.879   4.708
   28SOL    HW2  984   2.826   0.890   4.865
   29SOL     OW  985   6.998   0.527   0.833
   29SOL    HW1  986   6.906   0.520   0.873
   29SOL    HW2  987   7.011   0.620   0.797
   30SOL     OW  988   4.203   0.409   5.236
   30SOL    HW1  989   4.240   0.440   5.323
   30SOL    HW2  990   4.274   0.361   5.184
   31SOL     OW  991   1.171   3.317   4.915
   31SOL    HW1  992   1.189   3.314   4.816
   31SOL    HW2  993   1.201   3.405   4.951
   32SOL     OW  994   2.210   0.173   1.131
   32SOL    HW1  995   2.126   0.220   1.157
   32SOL    HW2  996   2.218   0.171   1.031
   33SOL     OW  997   0.629   5.228   5.872
   33SOL    HW1  998   0.707   5.199   5.817
   33SOL    HW2  999   0.607   5.323   5.852
   34SOL     OW 1000   2.400   5.421   5.216
   34SOL    HW1 1001   2.408   5.519   5.236
   34SOL    HW2 1002   2.339   5.378   5.282
   35SOL     OW 1003   3.417   3.022   0.505
   35SOL    HW1 1004   3.326   3.036   0.466
   35SOL    HW2 1005   3.434   2.924   0.519
   36SOL     OW 1006   4.873   0.675   4.507
   36SOL    HW1 1007   4.922   0.615   4.445
   36SOL    HW2 1008   4.935   0.708   4.579
   37SOL     OW 1009   2.688   0.866   3.574
   37SOL    HW1 1010   2.707   0.963   3.593
   37SOL    HW2 1011   2.647   0.858   3.483
   38SOL     OW 1012   0.448   4.667   2.361
   38SOL    HW1 1013   0.358   4.666   2.404
   38SOL    HW2 1014   0.519   4.664   2.432
   39SOL     OW 1015   6.663   5.296   5.930
   39SOL    HW1 1016   6.636   5.382   5.885
   39SOL    HW2 1017   6.757   5.273   5.906
   40SOL     OW 1018   3.902   0.648   6.104
   40SOL    HW1 1019   3.967   0.669   6.030
   40SOL    HW2 1020   3.809   0.664   6.071
   41SOL     OW 1021   6.108   4.124   1.675
   41SOL    HW1 1022   6.071   4.206   1.719
   41SOL    HW2 1023   6.033   4.070   1.637
   42SOL     OW 1024   2.258   5.811   6.022
   42SOL    HW1 1025   2.284   5.845   5.932
   42SOL    HW2 1026   2.255   5.888   6.087
   43SOL     OW 1027   4.644   6.620   4.346
   43SOL    HW1 1028   4.690   6.557   4.409
   43SOL    HW2 1029   4.684   6.711   4.355
   44SOL     OW 1030   6.183   1.684   5.937
   44SOL    HW1 1031   6.237   1.766   5.954
   44SOL    HW2 1032   6.095   1.710   5.897
   45SOL     OW 1033   3.476   5.000   0.005
   45SOL    HW1 1034   3.520   5.031   6.946
   45SOL    HW2 1035   3.416   4.923   7.011
   46SOL     OW 1036   0.725   2.871   4.341
   46SOL    HW1 1037   0.628   2.893   4.353
   46SOL    HW2 1038   0.774   2.951   4.307
   47SOL     OW 1039   5.699   3.064   1.544
   47SOL    HW1 1040   5.722   2.968   1.532
   47SOL    HW2 1041   5.655   3.077   1.633
   48SOL     OW 1042   6.287   3.489   0.827
   48SOL    HW1 1043   6.232   3.557   0.777
   48SOL    HW2 1044   6.365   3.462   0.772
   49SOL     OW 1045   4.085   3.178   0.307
   49SOL    HW1 1046   4.018   3.178   0.380
   49SOL    HW2 1047   4.167   3.128   0.336
   50SOL     OW 1048   6.816   3.597   6.504
   50SOL    HW1 1049   6.717   3.605   6.500
   50SOL    HW2 1050   6.842   3.502   6.521
   51SOL     OW 1051   2.578   5.951   2.890
   51SOL    HW1 1052   2.665   5.923   2.850
   51SOL    HW2 1053   2.545   6.033   2.843
   52SOL     OW 1054   5.674   2.788   1.524
   52SOL    HW1 1055   5.715   2.708   1.568
   52SOL    HW2 1056   5.589   2.812   1.570
   53SOL     OW 1057   3.978   0.666   2.288
   53SOL    HW1 1058   3.972   0.741   2.355
   53SOL    HW2 1059   4.025   0.588   2.329
   54SOL     OW 1060   5.702   6.747   0.452
   54SOL    HW1 1061   5.654   6.708   0.531
   54SOL    HW2 1062   5.710   6.678   0.380
   55SOL     OW 1063   1.232   3.418   6.200
   55SOL    HW1 1064   1.260   3.341   6.143
   55SOL    HW2 1065   1.228   3.501   6.144
   56SOL     OW 1066   1.141   2.510   0.002
   56SOL    HW1 1067   1.196   2.491   6.947
   56SOL    HW2 1068   1.181   2.466   0.082
   57SOL     OW 1069   4.559   0.581   6.889
   57SOL    HW1 1070   4.598   0.579   6.797
   57SOL    HW2 1071   4.628   0.615   6.953
   58SOL     OW 1072   0.780   0.578   6.049
   58SOL    HW1 1073   0.809   0.500   6.103
   58SOL    HW2 1074   0.709   0.629   6.099
   59SOL     OW 1075   5.429   3.064   5.903
   59SOL    HW1 1076   5.502   3.132   5.915
   59SOL    HW2 1077   5.399   3.064   5.808
   60SOL     OW 1078   5.491   0.106   2.628
   60SOL    HW1 1079   5.472   0.154   2.543
   60SOL    HW2 1080   5.405   0.066   2.663
   61SOL     OW 1081   6.803   6.948   5.197
   61SOL    HW1 1082   6.875   7.007   5.234
   61SOL    HW2 1083   6.823   6.853   5.222
   62SOL     OW 1084   0.070   2.194   2.243
   62SOL    HW1 1085   0.075   2.289   2.210
   62SOL    HW2 1086   0.043   2.134   2.168
   63SOL     OW 1087   4.483   5.890   4.884
   63SOL    HW1 1088   4.390   5.891   4.920
   63SOL    HW2 1089   4.482   5.868   4.787
   64SOL     OW 1090   0.654   4.419   0.179
   64SOL    HW1 1091   0.724   4.401   0.248
   64SOL    HW2 1092   0.697   4.449   0.094
   65SOL     OW 1093   0.709   0.041   5.487
   65SOL    HW1 1094   0.731   6.970   5.472
   65SOL    HW2 1095   0.685   0.055   5.583
   66SOL     OW 1096   4.294   0.880   2.321
   66SOL    HW1 1097   4.202   0.917   2.335
   66SOL    HW2 1098   4.358   0.928   2.381
   67SOL     OW 1099   0.874   2.250   0.688
   67SOL    HW1 1100   0.829   2.231   0.775
   67SOL    HW2 1101   0.933   2.330   0.698
   68SOL     OW 1102   6.816   2.110   5.638
   68SOL    HW1 1103   6.840   2.048   5.564
   68SOL    HW2 1104   6.898   2.160   5.668
   69SOL     OW 1105   0.594   5.011   6.269
   69SOL    HW1 1106   0.597   4.950   6.348
   69SOL    HW2 1107   0.685   5.049   6.252
   70SOL     OW 1108   5.561   3.286   4.336
   70SOL    HW1 1109   5.498   3.362   4.322
   70SOL    HW2 1110   5.614   3.272   4.252
   71SOL     OW 1111   4.547   1.532   3.956
   71SOL    HW1 1112   4.583   1.625   3.959
   71SOL    HW2 1113   4.614   1.471   3.914
   72SOL     OW 1114   0.512   0.975   3.591
   72SOL    HW1 1115   0.606   0.943   3.602
   72SOL    HW2 1116   0.510   1.055   3.531
   73SOL     OW 1117   2.923   0.685   1.259
   73SOL    HW1 1118   2.969   0.758   1.309
   73SOL    HW2 1119   2.856   0.725   1.197
   74SOL     OW 1120   1.763   2.386   0.396
   74SOL    HW1 1121   1.837   2.350   0.452
   74SOL    HW2 1122   1.781   2.367   0.300
   75SOL     OW 1123   4.136   2.736   0.155
   75SOL    HW1 1124   4.214   2.686   0.191
   75SOL    HW2 1125   4.168   2.806   0.091
   76SOL     OW 1126   3.293   4.699   5.377
   76SOL    HW1 1127   3.212   4.731   5.329
   76SOL    HW2 1128   3.375   4.731   5.329
   77SOL     OW 1129   1.723   4.369   4.376
   77SOL    HW1 1130   1.787   4.426   4.428
   77SOL    HW2 1131   1.631   4.377   4.416
   78SOL     OW 1132   5.037   1.966   1.018
   78SOL    HW1 1133   5.010   1.871   1.037
   78SOL    HW2 1134   5.135   1.977   1.034
   79SOL     OW 1135   1.926   5.069   2.812
   79SOL    HW1 1136   1.895   5.101   2.722
   79SOL    HW2 1137   2.012   5.113   2.836
   80SOL     OW 1138   4.760   2.086   4.462
   80SOL    HW1 1139   4.694   2.066   4.534
   80SOL    HW2 1140   4.771   2.185   4.452
   81SOL     OW 1141   2.861   5.429   1.528
   81SOL    HW1 1142   2.823   5.521   1.513
   81SOL    HW2 1143   2.867   5.381   1.441
   82SOL     OW 1144   1.463   6.001   1.401
   82SOL    HW1 1145   1.417   5.942   1.334
   82SOL    HW2 1146   1.516   6.070   1.353
   83SOL     OW 1147   5.148   1.231   4.711
   83SOL    HW1 1148   5.080   1.187   4.653
   83SOL    HW2 1149   5.194   1.163   4.767
   84SOL     OW 1150   5.546   2.407   2.741
   84SOL    HW1 1151   5.566   2.375   2.648
   84SOL    HW2 1152   5.490   2.339   2.788
   85SOL     OW 1153   2.037   0.724   3.822
   85SOL    HW1 1154   2.075   0.633   3.836
   85SOL    HW2 1155   2.051   0.751   3.727
   86SOL     OW 1156   5.453   0.656   6.680
   86SOL    HW1 1157   5.359   0.628   6.700
   86SOL    HW2 1158   5.455   0.709   6.595
   87SOL     OW 1159   3.153   4.153   0.305
   87SOL    HW1 1160   3.088   4.096   0.355
   87SOL    HW2 1161   3.106   4.202   0.232
   88SOL     OW 1162   3.192   3.611   0.038
   88SOL    HW1 1163   3.201   3.699   0.086
   88SOL    HW2 1164   3.218   3.537   0.100
   89SOL     OW 1165   3.143   3.476   2.995
   89SOL    HW1 1166   3.150   3.501   2.899
   89SOL    HW2 1167   3.078   3.400   3.006
   90SOL     OW 1168   5.096   4.154   3.266
   90SOL    HW1 1169   5.109   4.057   3.243
   90SOL    HW2 1170   5.094   4.164   3.365
   91SOL     OW 1171   4.872   4.901   5.695
   91SOL    HW1 1172   4.773   4.916   5.700
   91SOL    HW2 1173   4.914   4.973   5.639
   92SOL     OW 1174   5.613   4.341   6.472
   92SOL    HW1 1175   5.522   4.365   6.440
   92SOL    HW2 1176   5.607   4.266   6.538
   93SOL     OW 1177   2.865   3.408   2.156
   93SOL    HW1 1178   2.775   3.448   2.142
   93SOL    HW2 1179   2.878   3.331   2.093
   94SOL     OW 1180   3.231   1.648   5.553
   94SOL    HW1 1181   3.263   1.691   5.468
   94SOL    HW2 1182   3.279   1.688   5.631
   95SOL     OW 1183   0.665   0.223   4.753
   95SOL    HW1 1184   0.685   0.320   4.739
   95SOL    HW2 1185   0.750   0.171   4.749
   96SOL     OW 1186   4.987   4.866   0.271
   96SOL    HW1 1187   5.000   4.907   0.361
   96SOL    HW2 1188   5.009   4.769   0.275
   97SOL     OW 1189   2.658   5.072   5.559
   97SOL    HW1 1190   2.739   5.077   5.618
   97SOL    HW2 1191   2.620   4.980   5.563
   98SOL     OW 1192   1.286   2.850   3.151
   98SOL    HW1 1193   1.370   2.903   3.153
   98SOL    HW2 1194   1.254   2.834   3.245
   99SOL     OW 1195   3.838   2.979   4.826
   99SOL    HW1 1196   3.774   2.959   4.752
   99SOL    HW2 1197   3.867   2.893   4.868
  100SOL     OW 1198   0.278   0.173   3.418
  100SOL    HW1 1199   0.331   0.089   3.432
  100SOL    HW2 1200   0.217   0.160   3.339
  101SOL     OW 1201   6.885   3.629   2.522
  101SOL    HW1 1202   6.808   3.566   2.529
  101SOL    HW2 1203   6.866   3.697   2.452
  102SOL     OW 1204   2.851   0.002   0.465
  102SOL    HW1 1205   2.929   6.984   0.509
  102SOL    HW2 1206   2.849   7.004   0.368
  103SOL     OW 1207   2.225   1.036   1.684
  103SOL    HW1 1208   2.203   1.014   1.779
  103SOL    HW2 1209   2.166   1.111   1.653
  104SOL     OW 1210   1.011   4.780   1.384
  104SOL    HW1 1211   0.972   4.848   1.447
  104SOL    HW2 1212   0.965   4.692   1.398
  105SOL     OW 1213   5.346   1.100   5.746
  105SOL    HW1 1214   5.355   1.033   5.672
  105SOL    HW2 1215   5.428   1.158   5.748
  106SOL     OW 1216   5.550   5.444   2.198
  106SOL    HW1 1217   5.560   5.345   2.207
  106SOL    HW2 1218   5.632   5.490   2.232
  107SOL     OW 1219   5.527   0.575   1.140
  107SOL    HW1 1220   5.500   0.525   1.057
  107SOL    HW2 1221   5.550   0.669   1.116
  108SOL     OW 1222   1.950   0.688   5.705
  108SOL    HW1 1223   2.043   0.659   5.725
  108SOL    HW2 1224   1.907   0.722   5.789
  109SOL     OW 1225   2.206   0.948   4.151
  109SOL    HW1 1226   2.180   0.871   4.210
  109SOL    HW2 1227   2.153   0.943   4.066
  110SOL     OW 1228   2.896   4.592   5.669
  110SOL    HW1 1229   2.984   4.621   5.630
  110SOL    HW2 1230   2.840   4.553   5.596
  111SOL     OW 1231   6.922   1.895   1.705
  111SOL    HW1 1232   6.939   1.799   1.685
  111SOL    HW2 1233   6.948   1.914   1.800
  112SOL     OW 1234   4.745   7.026   6.591
  112SOL    HW1 1235   4.785   7.003   6.680
  112SOL    HW2 1236   4.656   6.981   6.582
  113SOL     OW 1237   6.610   6.054   1.649
  113SOL    HW1 1238   6.588   6.150   1.633
  113SOL    HW2 1239   6.550   5.996   1.593
  114SOL     OW 1240   0.294   3.986   3.306
  114SOL    HW1 1241   0.342   3.908   3.266
  114SOL    HW2 1242   0.298   4.063   3.242
  115SOL     OW 1243   6.198   0.687   3.588
  115SOL    HW1 1244   6.216   0.683   3.687
  115SOL    HW2 1245   6.106   0.722   3.572
  116SOL     OW 1246   1.171   4.907   0.751
  116SOL    HW1 1247   1.162   4.990   0.695
  116SOL    HW2 1248   1.268   4.888   0.768
  117SOL     OW 1249   2.292   1.665   0.028
  117SOL    HW1 1250   2.286   1.691   6.958
  117SOL    HW2 1251   2.342   1.736   0.079
  118SOL     OW 1252   1.225   1.732   4.422
  118SOL    HW1 1253   1.204   1.645   4.375
  118SOL    HW2 1254   1.229   1.805   4.354
  119SOL     OW 1255   6.759   6.215   6.620
  119SOL    HW1 1256   6.769   6.278   6.697
  119SOL    HW2 1257   6.821   6.137   6.632
  120SOL     OW 1258   4.768   2.364   4.487
  120SOL    HW1 1259   4.685   2.404   4.526
  120SOL    HW2 1260   4.825   2.327   4.560
  121SOL     OW 1261   1.367   4.102   6.695
  121SOL    HW1 1262   1.429   4.024   6.704
  121SOL    HW2 1263   1.384   4.166   6.770
  122SOL     OW 1264   0.685   4.129   0.040
  122SOL    HW1 1265   0.674   4.032   0.016
  122SOL    HW2 1266   0.764   4.167   7.018
  123SOL     OW 1267   1.267   1.255   1.772
  123SOL    HW1 1268   1.337   1.283   1.706
  123SOL    HW2 1269   1.243   1.332   1.831
  124SOL     OW 1270   2.360   2.828   0.589
  124SOL    HW1 1271   2.377   2.746   0.536
  124SOL    HW2 1272   2.447   2.863   0.624
  125SOL     OW 1273   3.881   3.629   0.232
  125SOL    HW1 1274   3.790   3.671   0.224
  125SOL    HW2 1275   3.912   3.599   0.142
  126SOL     OW 1276   3.656   3.372   4.344
  126SOL    HW1 1277   3.721   3.330   4.408
  126SOL    HW2 1278   3.668   3.471   4.343
  127SOL     OW 1279   0.325   6.015   6.238
  127SOL    HW1 1280   0.304   6.023   6.141
  127SOL    HW2 1281   0.403   5.954   6.251
  128SOL     OW 1282   4.982   3.646   0.602
  128SOL    HW1 1283   4.953   3.647   0.698
  128SOL    HW2 1284   5.040   3.566   0.586
  129SOL     OW 1285   1.638   5.870   1.084
  129SOL    HW1 1286   1.542   5.851   1.107
  129SOL    HW2 1287   1.676   5.793   1.034
  130SOL     OW 1288   5.072   2.391   4.888
  130SOL    HW1 1289   5.167   2.405   4.916
  130SOL    HW2 1290   5.027   2.329   4.953
  131SOL     OW 1291   6.899   2.405   3.833
  131SOL    HW1 1292   6.893   2.306   3.823
  131SOL    HW2 1293   6.994   2.434   3.821
  132SOL     OW 1294   4.115   3.525   2.444
  132SOL    HW1 1295   4.114   3.453   2.374
  132SOL    HW2 1296   4.203   3.573   2.441
  133SOL     OW 1297   5.481   6.447   5.924
  133SOL    HW1 1298   5.385   6.461   5.948
  133SOL    HW2 1299   5.521   6.379   5.986
  134SOL     OW 1300   4.990   1.153   1.779
  134SOL    HW1 1301   4.965   1.118   1.689
  134SOL    HW2 1302   4.931   1.231   1.802
  135SOL     OW 1303   4.907   3.659   4.056
  135SOL    HW1 1304   4.946   3.714   3.983
  135SOL    HW2 1305   4.900   3.713   4.140
  136SOL     OW 1306   3.202   6.728   5.448
  136SOL    HW1 1307   3.270   6.769   5.509
  136SOL    HW2 1308   3.224   6.750   5.353
  137SOL     OW 1309   2.980   2.485   5.609
  137SOL    HW1 1310   2.956   2.394   5.575
  137SOL    HW2 1311   3.042   2.529   5.545
  138SOL     OW 1312   1.108   5.826   6.065
  138SOL    HW1 1313   1.016   5.788   6.052
  138SOL    HW2 1314   1.167   5.798   5.990
  139SOL     OW 1315   2.105   5.811   0.356
  139SOL    HW1 1316   2.185   5.842   0.304
  139SOL    HW2 1317   2.088   5.873   0.432
  140SOL     OW 1318   2.254   0.376   2.331
  140SOL    HW1 1319   2.310   0.340   2.257
  140SOL    HW2 1320   2.157   0.371   2.305
  141SOL     OW 1321   6.562   3.918   0.192
  141SOL    HW1 1322   6.575   3.991   0.260
  141SOL    HW2 1323   6.629   3.929   0.119
  142SOL     OW 1324   1.458   4.200   2.399
  142SOL    HW1 1325   1.448   4.104   2.423
  142SOL    HW2 1326   1.538   4.211   2.341
  143SOL     OW 1327   4.840   6.694   1.869
  143SOL    HW1 1328   4.903   6.715   1.944
  143SOL    HW2 1329   4.862   6.605   1.830
  144SOL     OW 1330   3.478   4.993   3.774
  144SOL    HW1 1331   3.564   4.941   3.775
  144SOL    HW2 1332   3.477   5.057   3.851
  145SOL     OW 1333   0.109   4.890   3.100
  145SOL    HW1 1334   0.055   4.871   3.182
  145SOL    HW2 1335   0.182   4.822   3.091
  146SOL     OW 1336   5.658   1.483   6.462
  146SOL    HW1 1337   5.756   1.489   6.482
  146SOL    HW2 1338   5.619   1.574   6.460
  147SOL     OW 1339   4.809   1.060   4.916
  147SOL    HW1 1340   4.753   1.081   4.995
  147SOL    HW2 1341   4.901   1.098   4.929
  148SOL     OW 1342   1.409   5.447   0.569
  148SOL    HW1 1343   1.499   5.471   0.606
  148SOL    HW2 1344   1.344   5.439   0.644
  149SOL     OW 1345   1.906   3.096   5.680
  149SOL    HW1 1346   1.915   2.996   5.687
  149SOL    HW2 1347   1.933   3.125   5.588
  150SOL     OW 1348   4.301   1.861   4.790
  150SOL    HW1 1349   4.273   1.816   4.875
  150SOL    HW2 1350   4.301   1.794   4.716
  151SOL     OW 1351   4.317   2.705   0.787
  151SOL    HW1 1352   4.221   2.732   0.798
  151SOL    HW2 1353   4.374   2.759   0.849
  152SOL     OW 1354   1.209   1.352   0.290
  152SOL    HW1 1355   1.194   1.344   0.192
  152SOL    HW2 1356   1.281   1.419   0.308
  153SOL     OW 1357   3.049   1.199   3.725
  153SOL    HW1 1358   3.091   1.269   3.783
  153SOL    HW2 1359   3.105   1.116   3.727
  154SOL     OW 1360   6.033   1.457   1.403
  154SOL    HW1 1361   6.123   1.416   1.417
  154SOL    HW2 1362   5.975   1.438   1.482
  155SOL     OW 1363   1.746   0.296   1.997
  155SOL    HW1 1364   1.706   0.258   1.913
  155SOL    HW2 1365   1.739   0.228   2.071
  156SOL     OW 1366   5.116   2.317   0.495
  156SOL    HW1 1367   5.042   2.347   0.555
  156SOL    HW2 1368   5.116   2.372   0.412
  157SOL     OW 1369   4.571   5.293   0.124
  157SOL    HW1 1370   4.537   5.232   0.052
  157SOL    HW2 1371   4.616   5.239   0.195
  158SOL     OW 1372   0.449   2.931   3.191
  158SOL    HW1 1373   0.473   2.934   3.094
  158SOL    HW2 1374   0.417   3.021   3.221
  159SOL     OW 1375   5.642   5.467   0.225
  159SOL    HW1 1376   5.676   5.492   0.316
  159SOL    HW2 1377   5.619   5.370   0.223
  160SOL     OW 1378   6.170   6.833   1.231
  160SOL    HW1 1379   6.190   6.925   1.265
  160SOL    HW2 1380   6.078   6.807   1.259
  161SOL     OW 1381   0.162   6.638   0.440
  161SOL    HW1 1382   0.247   6.647   0.491
  161SOL    HW2 1383   0.142   6.541   0.426
  162SOL     OW 1384   4.082   6.956   6.948
  162SOL    HW1 1385   4.154   6.992   6.889
  162SOL    HW2 1386   3.999   6.941   6.895
  163SOL     OW 1387   6.600   3.731   3.330
  163SOL    HW1 1388   6.690   3.690   3.317
  163SOL    HW2 1389   6.551   3.730   3.243
  164SOL     OW 1390   2.125   2.317   3.526
  164SOL    HW1 1391   2.067   2.369   3.463
  164SOL    HW2 1392   2.210   2.294   3.480
  165SOL     OW 1393   0.765   6.265   3.472
  165SOL    HW1 1394   0.820   6.240   3.393
  165SOL    HW2 1395   0.811   6.338   3.523
  166SOL     OW 1396   6.912   3.585   2.798
  166SOL    HW1 1397   6.912   3.582   2.698
  166SOL    HW2 1398   6.844   3.521   2.833
  167SOL     OW 1399   4.768   2.187   6.735
  167SOL    HW1 1400   4.726   2.175   6.645
  167SOL    HW2 1401   4.846   2.125   6.743
  168SOL     OW 1402   5.012   4.269   2.316
  168SOL    HW1 1403   5.059   4.181   2.313
  168SOL    HW2 1404   5.032   4.321   2.233
  169SOL     OW 1405   6.149   2.238   1.356
  169SOL    HW1 1406   6.119   2.179   1.281
  169SOL    HW2 1407   6.069   2.277   1.402
  170SOL     OW 1408   0.505   5.451   2.790
  170SOL    HW1 1409   0.500   5.544   2.827
  170SOL    HW2 1410   0.601   5.426   2.776
  171SOL     OW 1411   3.048   3.993   0.530
  171SOL    HW1 1412   2.997   4.038   0.603
  171SOL    HW2 1413   3.144   4.022   0.533
  172SOL     OW 1414   6.334   1.872   0.377
  172SOL    HW1 1415   6.368   1.893   0.469
  172SOL    HW2 1416   6.308   1.775   0.372
  173SOL     OW 1417   6.998   2.200   5.204
  173SOL    HW1 1418   7.015   2.285   5.253
  173SOL    HW2 1419   0.033   2.193   5.125
  174SOL     OW 1420   6.347   5.123   5.509
  174SOL    HW1 1421   6.426   5.184   5.512
  174SOL    HW2 1422   6.263   5.177   5.505
  175SOL     OW 1423   0.970   6.996   0.992
  175SOL    HW1 1424   0.944   0.040   1.059
  175SOL    HW2 1425   0.898   6.927   0.985
  176SOL     OW 1426   5.516   4.832   2.351
  176SOL    HW1 1427   5.487   4.770   2.424
  176SOL    HW2 1428   5.552   4.916   2.392
  177SOL     OW 1429   5.967   2.320   4.392
  177SOL    HW1 1430   5.921   2.381   4.457
  177SOL    HW2 1431   6.017   2.250   4.442
  178SOL     OW 1432   1.810   6.411   5.225
  178SOL    HW1 1433   1.895   6.372   5.258
  178SOL    HW2 1434   1.768   6.348   5.158
  179SOL     OW 1435   3.809   4.529   1.245
  179SOL    HW1 1436   3.905   4.557   1.239
  179SOL    HW2 1437   3.763   4.584   1.315
  180SOL     OW 1438   4.317   1.694   0.788
  180SOL    HW1 1439   4.415   1.717   0.790
  180SOL    HW2 1440   4.300   1.629   0.715
  181SOL     OW 1441   3.269   2.255   5.535
  181SOL    HW1 1442   3.285   2.315   5.457
  181SOL    HW2 1443   3.224   2.171   5.504
  182SOL     OW 1444   4.834   2.438   6.557
  182SOL    HW1 1445   4.862   2.397   6.470
  182SOL    HW2 1446   4.790   2.368   6.614
  183SOL     OW 1447   3.387   1.852   3.781
  183SOL    HW1 1448   3.344   1.934   3.744
  183SOL    HW2 1449   3.480   1.874   3.810
  184SOL     OW 1450   6.041   6.201   3.742
  184SOL    HW1 1451   6.116   6.142   3.774
  184SOL    HW2 1452   5.956   6.149   3.744
  185SOL     OW 1453   0.136   1.365   4.390
  185SOL    HW1 1454   0.175   1.302   4.457
  185SOL    HW2 1455   0.186   1.358   4.304
  186SOL     OW 1456   4.660   5.965   3.850
  186SOL    HW1 1457   4.656   6.021   3.933
  186SOL    HW2 1458   4.713   6.013   3.781
  187SOL     OW 1459   4.492   6.363   1.786
  187SOL    HW1 1460   4.554   6.441   1.790
  187SOL    HW2 1461   4.533   6.284   1.831
  188SOL     OW 1462   1.770   2.850   3.171
  188SOL    HW1 1463   1.799   2.887   3.259
  188SOL    HW2 1464   1.832   2.777   3.143
  189SOL     OW 1465   6.113   5.245   6.362
  189SOL    HW1 1466   6.126   5.311   6.437
  189SOL    HW2 1467   6.016   5.231   6.346
  190SOL     OW 1468   6.342   0.323   6.860
  190SOL    HW1 1469   6.295   0.356   6.779
  190SOL    HW2 1470   6.436   0.297   6.837
  191SOL     OW 1471   6.639   1.301   5.486
  191SOL    HW1 1472   6.540   1.304   5.502
  191SOL    HW2 1473   6.684   1.255   5.562
  192SOL     OW 1474   0.891   5.684   0.763
  192SOL    HW1 1475   0.824   5.612   0.743
  192SOL    HW2 1476   0.843   5.772   0.769
  193SOL     OW 1477   2.715   6.087   6.483
  193SOL    HW1 1478   2.632   6.031   6.481
  193SOL    HW2 1479   2.790   6.038   6.439
  194SOL     OW 1480   4.015   6.777   1.921
  194SOL    HW1 1481   3.997   6.759   1.824
  194SOL    HW2 1482   3.993   6.872   1.942
  195SOL     OW 1483   3.147   1.004   1.629
  195SOL    HW1 1484   3.072   1.050   1.679
  195SOL    HW2 1485   3.182   0.929   1.684
  196SOL     OW 1486   2.185   1.147   0.528
  196SOL    HW1 1487   2.139   1.234   0.545
  196SOL    HW2 1488   2.120   1.081   0.491
  197SOL     OW 1489   2.331   6.165   0.564
  197SOL    HW1 1490   2.286   6.252   0.543
  197SOL    HW2 1491   2.412   6.155   0.506
  198SOL     OW 1492   4.356   6.925   6.754
  198SOL    HW1 1493   4.339   7.018   6.785
  198SOL    HW2 1494   4.271   6.887   6.716
  199SOL     OW 1495   6.789   6.148   2.900
  199SOL    HW1 1496   6.884   6.178   2.897
  199SOL    HW2 1497   6.760   6.141   2.996
  200SOL     OW 1498   0.404   3.929   3.581
  200SOL    HW1 1499   0.494   3.973   3.583
  200SOL    HW2 1500   0.358   3.950   3.494
  201SOL     OW 1501   3.229   0.828   0.055
  201SOL    HW1 1502   3.257   0.770   0.132
  201SOL    HW2 1503   3.309   0.853   0.002
  202SOL     OW 1504   3.836   0.014   3.317
  202SOL    HW1 1505   3.813   0.082   3.247
  202SOL    HW2 1506   3.822   0.053   3.408
  203SOL     OW 1507   5.490   3.801   5.981
  203SOL    HW1 1508   5.409   3.860   5.976
  203SOL    HW2 1509   5.557   3.832   5.913
  204SOL     OW 1510   2.368   6.889   0.457
  204SOL    HW1 1511   2.384   6.892   0.555
  204SOL    HW2 1512   2.337   6.797   0.430
  205SOL     OW 1513   5.964   1.641   0.982
  205SOL    HW1 1514   6.016   1.725   0.965
  205SOL    HW2 1515   5.959   1.587   0.898
  206SOL     OW 1516   0.922   4.452   2.164
  206SOL    HW1 1517   0.917   4.550   2.146
  206SOL    HW2 1518   1.017   4.426   2.182
  207SOL     OW 1519   4.357   0.712   5.745
  207SOL    HW1 1520   4.414   0.757   5.676
  207SOL    HW2 1521   4.405   0.632   5.781
  208SOL     OW 1522   4.813   5.640   6.142
  208SOL    HW1 1523   4.831   5.556   6.192
  208SOL    HW2 1524   4.720   5.637   6.104
  209SOL     OW 1525   6.596   5.246   5.453
  209SOL    HW1 1526   6.659   5.234   5.530
  209SOL    HW2 1527   6.647   5.241   5.367
  210SOL     OW 1528   4.183   2.757   1.209
  210SOL    HW1 1529   4.184   2.840   1.154
  210SOL    HW2 1530   4.209   2.679   1.151
  211SOL     OW 1531   1.341   1.160   0.817
  211SOL    HW1 1532   1.321   1.228   0.887
  211SOL    HW2 1533   1.357   1.071   0.860
  212SOL     OW 1534   0.635   4.903   3.984
  212SOL    HW1 1535   0.589   4.816   3.971
  212SOL    HW2 1536   0.732   4.888   4.002
  213SOL     OW 1537   5.453   2.227   6.942
  213SOL    HW1 1538   5.543   2.261   6.970
  213SOL    HW2 1539   5.437   2.137   6.983
  214SOL     OW 1540   0.714   0.247   2.473
  214SOL    HW1 1541   0.785   0.207   2.415
  214SOL    HW2 1542   0.625   0.210   2.448
  215SOL     OW 1543   3.493   3.343   2.770
  215SOL    HW1 1544   3.580   3.321   2.726
  215SOL    HW2 1545   3.425   3.275   2.744
  216SOL     OW 1546   0.834   0.217   6.034
  216SOL    HW1 1547   0.851   0.286   6.104
  216SOL    HW2 1548   0.920   0.194   5.988
  217SOL     OW 1549   0.890   3.261   3.288
  217SOL    HW1 1550   0.923   3.315   3.211
  217SOL    HW2 1551   0.828   3.190   3.254
  218SOL     OW 1552   1.303   3.577   5.488
  218SOL    HW1 1553   1.308   3.676   5.501
  218SOL    HW2 1554   1.396   3.538   5.492
  219SOL     OW 1555   4.706   5.141   0.313
  219SOL    HW1 1556   4.720   5.046   0.341
  219SOL    HW2 1557   4.765   5.201   0.367
  220SOL     OW 1558   2.549   5.418   0.594
  220SOL    HW1 1559   2.600   5.341   0.633
  220SOL    HW2 1560   2.452   5.393   0.588
  221SOL     OW 1561   5.626   2.006   4.264
  221SOL    HW1 1562   5.588   1.920   4.231
  221SOL    HW2 1563   5.725   2.008   4.246
  222SOL     OW 1564   0.456   5.848   5.794
  222SOL    HW1 1565   0.454   5.748   5.795
  222SOL    HW2 1566   0.423   5.881   5.706
  223SOL     OW 1567   7.015   3.853   1.901
  223SOL    HW1 1568   6.960   3.771   1.888
  223SOL    HW2 1569   6.973   3.930   1.853
  224SOL     OW 1570   3.003   2.331   1.682
  224SOL    HW1 1571   2.979   2.360   1.775
  224SOL    HW2 1572   2.976   2.402   1.617
  225SOL     OW 1573   5.822   0.894   6.939
  225SOL    HW1 1574   5.751   0.826   6.921
  225SOL    HW2 1575   5.791   0.959   7.009
  226SOL     OW 1576   0.216   5.806   0.803
  226SOL    HW1 1577   0.241   5.893   0.845
  226SOL    HW2 1578   0.181   5.822   0.710
  227SOL     OW 1579   1.575   3.461   3.632
  227SOL    HW1 1580   1.565   3.395   3.557
  227SOL    HW2 1581   1.597   3.551   3.594
  228SOL     OW 1582   4.822   6.863   3.604
  228SOL    HW1 1583   4.828   6.910   3.516
  228SOL    HW2 1584   4.734   6.815   3.611
  229SOL     OW 1585   6.284   5.819   2.259
  229SOL    HW1 1586   6.360   5.883   2.275
  229SOL    HW2 1587   6.319   5.734   2.221
  230SOL     OW 1588   2.262   4.308   5.050
  230SOL    HW1 1589   2.253   4.358   4.963
  230SOL    HW2 1590   2.280   4.212   5.031
  231SOL     OW 1591   0.737   2.778   6.171
  231SOL    HW1 1592   0.823   2.819   6.143
  231SOL    HW2 1593   0.751   2.726   6.256
  232SOL     OW 1594   1.796   4.364   6.852
  232SOL    HW1 1595   1.754   4.286   6.805
  232SOL    HW2 1596   1.812   4.438   6.786
  233SOL     OW 1597   2.212   1.000   5.860
  233SOL    HW1 1598   2.230   0.907   5.828
  233SOL    HW2 1599   2.299   1.050   5.869
  234SOL     OW 1600   2.997   5.353   6.530
  234SOL    HW1 1601   2.967   5.360   6.625
  234SOL    HW2 1602   2.970   5.265   6.493
  235SOL     OW 1603   2.941   3.646   4.560
  235SOL    HW1 1604   2.896   3.615   4.643
  235SOL    HW2 1605   2.955   3.745   4.564
  236SOL     OW 1606   6.589   2.244   5.549
  236SOL    HW1 1607   6.671   2.195   5.579
  236SOL    HW2 1608   6.535   2.271   5.629
  237SOL     OW 1609   0.286   7.005   1.060
  237SOL    HW1 1610   0.216   6.956   1.009
  237SOL    HW2 1611   0.267   0.078   1.058
  238SOL     OW 1612   5.670   3.053   2.774
  238SOL    HW1 1613   5.754   3.061   2.720
  238SOL    HW2 1614   5.663   3.131   2.836
  239SOL     OW 1615   6.537   5.861   6.712
  239SOL    HW1 1616   6.577   5.893   6.797
  239SOL    HW2 1617   6.610   5.839   6.647
  240SOL     OW 1618   6.991   4.162   6.094
  240SOL    HW1 1619   6.894   4.172   6.071
  240SOL    HW2 1620   7.009   4.067   6.120
  241SOL     OW 1621   0.318   0.730   3.171
  241SOL    HW1 1622   0.232   0.718   3.221
  241SOL    HW2 1623   0.300   0.773   3.083
  242SOL     OW 1624   1.563   3.835   4.442
  242SOL    HW1 1625   1.655   3.798   4.456
  242SOL    HW2 1626   1.500   3.760   4.420
  243SOL     OW 1627   5.793   6.924   5.447
  243SOL    HW1 1628   5.700   6.945   5.418
  243SOL    HW2 1629   5.851   6.907   5.367
  244SOL     OW 1630   5.668   2.321   5.449
  244SOL    HW1 1631   5.700   2.281   5.363
  244SOL    HW2 1632   5.568   2.325   5.448
  245SOL     OW 1633   5.817   2.509   3.982
  245SOL    HW1 1634   5.842   2.413   3.971
  245SOL    HW2 1635   5.787   2.546   3.894
  246SOL     OW 1636   4.947   3.632   3.259
  246SOL    HW1 1637   4.932   3.719   3.305
  246SOL    HW2 1638   4.974   3.563   3.326
  247SOL     OW 1639   2.363   1.443   3.297
  247SOL    HW1 1640   2.266   1.465   3.313
  247SOL    HW2 1641   2.420   1.511   3.342
  248SOL     OW 1642   6.266   1.533   3.313
  248SOL    HW1 1643   6.320   1.449   3.311
  248SOL    HW2 1644   6.278   1.582   3.226
  249SOL     OW 1645   3.420   6.798   3.872
  249SOL    HW1 1646   3.403   6.835   3.781
  249SOL    HW2 1647   3.377   6.856   3.941
  250SOL     OW 1648   5.644   3.268   5.995
  250SOL    HW1 1649   5.600   3.272   6.084
  250SOL    HW2 1650   5.631   3.355   5.947
  251SOL     OW 1651   4.375   2.604   0.238
  251SOL    HW1 1652   4.365   2.554   0.324
  251SOL    HW2 1653   4.466   2.586   0.199
  252SOL     OW 1654   0.277   0.675   6.054
  252SOL    HW1 1655   0.204   0.671   5.986
  252SOL    HW2 1656   0.363   0.643   6.014
  253SOL     OW 1657   3.187   3.430   0.234
  253SOL    HW1 1658   3.174   3.349   0.177
  253SOL    HW2 1659   3.129   3.421   0.316
  254SOL     OW 1660   5.777   2.782   5.023
  254SOL    HW1 1661   5.806   2.855   4.961
  254SOL    HW2 1662   5.822   2.696   4.997
  255SOL     OW 1663   2.664   1.800   3.115
  255SOL    HW1 1664   2.746   1.821   3.061
  255SOL    HW2 1665   2.617   1.886   3.136
  256SOL     OW 1666   5.543   5.215   0.237
  256SOL    HW1 1667   5.567   5.137   0.294
  256SOL    HW2 1668   5.541   5.186   0.141
  257SOL     OW 1669   2.834   6.021   5.968
  257SOL    HW1 1670   2.806   5.941   6.020
  257SOL    HW2 1671   2.800   6.104   6.014
  258SOL     OW 1672   5.568   4.411   4.736
  258SOL    HW1 1673   5.634   4.339   4.755
  258SOL    HW2 1674   5.529   4.444   4.821
  259SOL     OW 1675   1.684   2.049   2.632
  259SOL    HW1 1676   1.656   1.960   2.668
  259SOL    HW2 1677   1.732   2.036   2.544
  260SOL     OW 1678   5.128   0.335   5.674
  260SOL    HW1 1679   5.174   0.256   5.633
  260SOL    HW2 1680   5.196   0.404   5.697
  261SOL     OW 1681   0.760   3.942   2.410
  261SOL    HW1 1682   0.777   3.889   2.493
  261SOL    HW2 1683   0.708   3.887   2.345
  262SOL     OW 1684   0.709   4.287   2.197
  262SOL    HW1 1685   0.766   4.367   2.176
  262SOL    HW2 1686   0.761   4.222   2.251
  263SOL     OW 1687   1.031   2.100   4.264
  263SOL    HW1 1688   0.948   2.072   4.215
  263SOL    HW2 1689   1.005   2.153   4.345
  264SOL     OW 1690   2.434   4.878   6.293
  264SOL    HW1 1691   2.447   4.845   6.199
  264SOL    HW2 1692   2.392   4.968   6.291
  265SOL     OW 1693   5.184   3.896   4.621
  265SOL    HW1 1694   5.097   3.852   4.599
  265SOL    HW2 1695   5.256   3.827   4.624
  266SOL     OW 1696   4.347   1.784   0.526
  266SOL    HW1 1697   4.336   1.698   0.476
  266SOL    HW2 1698   4.335   1.766   0.624
  267SOL     OW 1699   1.597   1.989   6.008
  267SOL    HW1 1700   1.510   1.954   5.972
  267SOL    HW2 1701   1.585   2.018   6.103
  268SOL     OW 1702   4.248   4.830   4.735
  268SOL    HW1 1703   4.314   4.791   4.670
  268SOL    HW2 1704   4.255   4.782   4.823
  269SOL     OW 1705   0.494   2.029   5.713
  269SOL    HW1 1706   0.546   2.113   5.729
  269SOL    HW2 1707   0.553   1.950   5.723
  270SOL     OW 1708   5.477   1.186   3.028
  270SOL    HW1 1709   5.520   1.275   3.015
  270SOL    HW2 1710   5.538   1.127   3.080
  271SOL     OW 1711   1.451   0.640   6.956
  271SOL    HW1 1712   1.423   0.635   0.027
  271SOL    HW2 1713   1.370   0.630   6.898
  272SOL     OW 1714   3.341   6.226   3.495
  272SOL    HW1 1715   3.312   6.280   3.574
  272SOL    HW2 1716   3.389   6.285   3.430
  273SOL     OW 1717   2.322   6.319   5.235
  273SOL    HW1 1718   2.336   6.365   5.148
  273SOL    HW2 1719   2.254   6.247   5.224
  274SOL     OW 1720   6.240   2.280   1.855
  274SOL    HW1 1721   6.234   2.196   1.802
  274SOL    HW2 1722   6.334   2.293   1.887
  275SOL     OW 1723   6.795   5.788   5.247
  275SOL    HW1 1724   6.793   5.859   5.177
  275SOL    HW2 1725   6.704   5.746   5.255
  276SOL     OW 1726   6.770   6.156   3.549
  276SOL    HW1 1727   6.735   6.105   3.628
  276SOL    HW2 1728   6.770   6.253   3.569
  277SOL     OW 1729   4.358   1.169   5.468
  277SOL    HW1 1730   4.332   1.265   5.470
  277SOL    HW2 1731   4.392   1.145   5.377
  278SOL     OW 1732   5.875   3.245   2.410
  278SOL    HW1 1733   5.854   3.158   2.456
  278SOL    HW2 1734   5.797   3.307   2.421
  279SOL     OW 1735   0.354   2.823   4.262
  279SOL    HW1 1736   0.345   2.786   4.355
  279SOL    HW2 1737   0.442   2.794   4.223
  280SOL     OW 1738   3.531   0.589   4.037
  280SOL    HW1 1739   3.438   0.588   4.003
  280SOL    HW2 1740   3.575   0.676   4.014
  281SOL     OW 1741   5.019   6.050   3.904
  281SOL    HW1 1742   4.969   5.969   3.934
  281SOL    HW2 1743   5.117   6.032   3.906
  282SOL     OW 1744   4.538   1.767   0.297
  282SOL    HW1 1745   4.473   1.793   0.367
  282SOL    HW2 1746   4.554   1.844   0.235
  283SOL     OW 1747   6.241   2.137   4.887
  283SOL    HW1 1748   6.148   2.103   4.902
  283SOL    HW2 1749   6.280   2.094   4.806
  284SOL     OW 1750   5.829   5.612   3.882
  284SOL    HW1 1751   5.768   5.690   3.899
  284SOL    HW2 1752   5.922   5.646   3.866
  285SOL     OW 1753   4.009   0.676   6.349
  285SOL    HW1 1754   3.971   0.657   6.258
  285SOL    HW2 1755   3.935   0.684   6.415
  286SOL     OW 1756   3.352   4.920   5.011
  286SOL    HW1 1757   3.264   4.889   4.976
  286SOL    HW2 1758   3.413   4.941   4.935
  287SOL     OW 1759   2.911   6.823   5.784
  287SOL    HW1 1760   2.991   6.763   5.779
  287SOL    HW2 1761   2.941   6.919   5.785
  288SOL     OW 1762   3.600   0.997   0.909
  288SOL    HW1 1763   3.590   0.912   0.858
  288SOL    HW2 1764   3.510   1.026   0.943
  289SOL     OW 1765   6.876   6.066   4.276
  289SOL    HW1 1766   6.879   6.140   4.209
  289SOL    HW2 1767   6.906   6.100   4.365
  290SOL     OW 1768   3.349   0.941   5.175
  290SOL    HW1 1769   3.349   0.914   5.272
  290SOL    HW2 1770   3.274   0.895   5.128
  291SOL     OW 1771   4.092   0.159   4.880
  291SOL    HW1 1772   4.083   0.061   4.864
  291SOL    HW2 1773   4.179   0.178   4.926
  292SOL     OW 1774   4.112   0.391   3.899
  292SOL    HW1 1775   4.048   0.370   3.824
  292SOL    HW2 1776   4.156   0.307   3.930
  293SOL     OW 1777   5.913   6.791   2.459
  293SOL    HW1 1778   5.887   6.887   2.475
  293SOL    HW2 1779   5.863   6.732   2.522
  294SOL     OW 1780   6.319   0.743   5.825
  294SOL    HW1 1781   6.383   0.690   5.770
  294SOL    HW2 1782   6.370   0.806   5.883
  295SOL     OW 1783   0.991   1.828   5.201
  295SOL    HW1 1784   0.911   1.772   5.222
  295SOL    HW2 1785   1.054   1.828   5.278
  296SOL     OW 1786   0.322   2.219   1.860
  296SOL    HW1 1787   0.232   2.236   1.901
  296SOL    HW2 1788   0.334   2.279   1.781
  297SOL     OW 1789   5.812   3.828   3.737
  297SOL    HW1 1790   5.887   3.765   3.759
  297SOL    HW2 1791   5.745   3.782   3.679
  298SOL     OW 1792   3.375   0.878   6.845
  298SOL    HW1 1793   3.472   0.875   6.821
  298SOL    HW2 1794   3.320   0.861   6.764
  299SOL     OW 1795   2.231   1.355   6.340
  299SOL    HW1 1796   2.171   1.379   6.264
  299SOL    HW2 1797   2.316   1.317   6.304
  300SOL     OW 1798   3.830   0.393   2.867
  300SOL    HW1 1799   3.746   0.375   2.817
  300SOL    HW2 1800   3.836   0.491   2.889
  301SOL     OW 1801   6.463   5.316   0.983
  301SOL    HW1 1802   6.533   5.378   1.018
  301SOL    HW2 1803   6.454   5.237   1.044
  302SOL     OW 1804   6.109   5.681   0.792
  302SOL    HW1 1805   6.117   5.647   0.699
  302SOL    HW2 1806   6.197   5.673   0.839
  303SOL     OW 1807   5.772   5.643   2.090
  303SOL    HW1 1808   5.739   5.735   2.067
  303SOL    HW2 1809   5.872   5.644   2.096
  304SOL     OW 1810   1.784   0.077   5.555
  304SOL    HW1 1811   1.798   7.019   5.607
  304SOL    HW2 1812   1.696   0.117   5.580
  305SOL     OW 1813   1.312   2.972   2.544
  305SOL    HW1 1814   1.381   2.907   2.514
  305SOL    HW2 1815   1.294   2.958   2.642
  306SOL     OW 1816   6.525   0.178   2.612
  306SOL    HW1 1817   6.490   0.244   2.679
  306SOL    HW2 1818   6.571   0.228   2.538
  307SOL     OW 1819   3.583   3.105   3.199
  307SOL    HW1 1820   3.650   3.174   3.172
  307SOL    HW2 1821   3.558   3.117   3.295
  308SOL     OW 1822   5.924   1.728   3.842
  308SOL    HW1 1823   5.856   1.713   3.914
  308SOL    HW2 1824   5.878   1.736   3.753
  309SOL     OW 1825   0.921   6.074   6.225
  309SOL    HW1 1826   0.898   6.127   6.307
  309SOL    HW2 1827   0.862   5.994   6.220
  310SOL     OW 1828   5.403   6.513   4.925
  310SOL    HW1 1829   5.501   6.502   4.909
  310SOL    HW2 1830   5.383   6.494   5.021
  311SOL     OW 1831   2.081   5.608   2.603
  311SOL    HW1 1832   2.057   5.522   2.647
  311SOL    HW2 1833   2.054   5.604   2.506
  312SOL     OW 1834   4.600   2.002   3.037
  312SOL    HW1 1835   4.611   1.947   3.120
  312SOL    HW2 1836   4.505   1.997   3.007
  313SOL     OW 1837   4.099   3.761   3.759
  313SOL    HW1 1838   4.170   3.811   3.809
  313SOL    HW2 1839   4.128   3.749   3.664
  314SOL     OW 1840   2.179   6.497   5.560
  314SOL    HW1 1841   2.278   6.510   5.555
  314SOL    HW2 1842   2.139   6.568   5.618
  315SOL     OW 1843   6.643   1.658   3.208
  315SOL    HW1 1844   6.625   1.588   3.139
  315SOL    HW2 1845   6.710   1.723   3.172
  316SOL     OW 1846   3.849   1.201   5.039
  316SOL    HW1 1847   3.941   1.216   5.075
  316SOL    HW2 1848   3.783   1.202   5.115
  317SOL     OW 1849   1.128   1.256   1.536
  317SOL    HW1 1850   1.200   1.222   1.475
  317SOL    HW2 1851   1.161   1.253   1.630
  318SOL     OW 1852   0.030   0.496   5.307
  318SOL    HW1 1853   7.025   0.591   5.302
  318SOL    HW2 1854   7.019   0.445   5.230
  319SOL     OW 1855   1.683   2.589   2.610
  319SOL    HW1 1856   1.631   2.521   2.661
  319SOL    HW2 1857   1.758   2.544   2.562
  320SOL     OW 1858   6.172   3.082   6.821
  320SOL    HW1 1859   6.188   3.057   6.726
  320SOL    HW2 1860   6.104   3.021   6.861
  321SOL     OW 1861   4.430   3.268   1.329
  321SOL    HW1 1862   4.523   3.254   1.365
  321SOL    HW2 1863   4.364   3.264   1.403
  322SOL     OW 1864   3.845   3.637   6.222
  322SOL    HW1 1865   3.766   3.578   6.237
  322SOL    HW2 1866   3.877   3.673   6.310
  323SOL     OW 1867   0.148   3.270   3.662
  323SOL    HW1 1868   0.053   3.293   3.683
  323SOL    HW2 1869   0.209   3.318   3.725
  324SOL     OW 1870   0.919   0.015   3.805
  324SOL    HW1 1871   0.868   0.084   3.755
  324SOL    HW2 1872   1.000   0.057   3.846
  325SOL     OW 1873   0.347   3.623   2.531
  325SOL    HW1 1874   0.376   3.529   2.548
  325SOL    HW2 1875   0.360   3.645   2.434
  326SOL     OW 1876   1.011   6.487   6.734
  326SOL    HW1 1877   1.062   6.401   6.725
  326SOL    HW2 1878   0.980   6.497   6.828
  327SOL     OW 1879   4.096   5.119   3.169
  327SOL    HW1 1880   4.079   5.172   3.252
  327SOL    HW2 1881   4.072   5.023   3.186
  328SOL     OW 1882   2.302   4.267   2.145
  328SOL    HW1 1883   2.248   4.344   2.111
  328SOL    HW2 1884   2.374   4.302   2.205
  329SOL     OW 1885   3.572   3.743   2.034
  329SOL    HW1 1886   3.627   3.827   2.023
  329SOL    HW2 1887   3.508   3.755   2.110
  330SOL     OW 1888   3.495   5.273   0.488
  330SOL    HW1 1889   3.536   5.230   0.407
  330SOL    HW2 1890   3.484   5.205   0.560
  331SOL     OW 1891   5.568   5.622   6.902
  331SOL    HW1 1892   5.544   5.719   6.904
  331SOL    HW2 1893   5.644   5.605   6.965
  332SOL     OW 1894   5.334   2.063   3.036
  332SOL    HW1 1895   5.280   2.117   2.972
  332SOL    HW2 1896   5.349   1.971   2.998
  333SOL     OW 1897   3.752   1.320   6.050
  333SOL    HW1 1898   3.659   1.307   6.016
  333SOL    HW2 1899   3.782   1.237   6.097
  334SOL     OW 1900   3.428   3.747   3.762
  334SOL    HW1 1901   3.456   3.714   3.672
  334SOL    HW2 1902   3.391   3.839   3.755
  335SOL     OW 1903   3.067   0.611   5.826
  335SOL    HW1 1904   3.135   0.570   5.766
  335SOL    HW2 1905   2.978   0.571   5.809
  336SOL     OW 1906   3.243   1.836   3.093
  336SOL    HW1 1907   3.214   1.767   3.159
  336SOL    HW2 1908   3.188   1.828   3.010
  337SOL     OW 1909   2.138   0.534   6.120
  337SOL    HW1 1910   2.072   0.603   6.091
  337SOL    HW2 1911   2.230   0.566   6.100
  338SOL     OW 1912   4.649   1.822   1.858
  338SOL    HW1 1913   4.579   1.754   1.836
  338SOL    HW2 1914   4.606   1.910   1.877
  339SOL     OW 1915   3.926   4.971   4.869
  339SOL    HW1 1916   4.019   4.947   4.844
  339SOL    HW2 1917   3.880   5.015   4.792
  340SOL     OW 1918   4.372   1.866   3.507
  340SOL    HW1 1919   4.272   1.874   3.509
  340SOL    HW2 1920   4.413   1.952   3.538
  341SOL     OW 1921   5.765   6.874   4.052
  341SOL    HW1 1922   5.731   6.853   3.960
  341SOL    HW2 1923   5.755   6.793   4.110
  342SOL     OW 1924   5.233   2.333   1.662
  342SOL    HW1 1925   5.156   2.292   1.614
  342SOL    HW2 1926   5.294   2.261   1.696
  343SOL     OW 1927   1.025   5.819   3.156
  343SOL    HW1 1928   0.989   5.858   3.240
  343SOL    HW2 1929   1.068   5.891   3.101
  344SOL     OW 1930   1.672   1.381   1.737
  344SOL    HW1 1931   1.614   1.446   1.687
  344SOL    HW2 1932   1.750   1.429   1.775
  345SOL     OW 1933   6.152   3.304   4.284
  345SOL    HW1 1934   6.156   3.404   4.285
  345SOL    HW2 1935   6.165   3.271   4.191
  346SOL     OW 1936   1.718   7.026   2.661
  346SOL    HW1 1937   1.720   0.084   2.607
  346SOL    HW2 1938   1.639   0.001   2.722
  347SOL     OW 1939   2.780   4.998   0.529
  347SOL    HW1 1940   2.745   5.034   0.442
  347SOL    HW2 1941   2.759   4.900   0.535
  348SOL     OW 1942   5.077   5.550   2.440
  348SOL    HW1 1943   5.170   5.573   2.468
  348SOL    HW2 1944   5.078   5.514   2.347
  349SOL     OW 1945   6.773   3.859   1.329
  349SOL    HW1 1946   6.676   3.880   1.324
  349SOL    HW2 1947   6.797   3.791   1.259
  350SOL     OW 1948   3.451   3.028   0.055
  350SOL    HW1 1949   3.504   3.103   0.095
  350SOL    HW2 1950   3.484   3.010   6.989
  351SOL     OW 1951   3.370   4.471   1.450
  351SOL    HW1 1952   3.466   4.484   1.474
  351SOL    HW2 1953   3.343   4.376   1.467
  352SOL     OW 1954   4.280   6.572   3.053
  352SOL    HW1 1955   4.273   6.537   3.147
  352SOL    HW2 1956   4.247   6.666   3.050
  353SOL     OW 1957   2.281   6.054   6.640
  353SOL    HW1 1958   2.259   6.115   6.717
  353SOL    HW2 1959   2.281   5.959   6.672
  354SOL     OW 1960   6.700   2.622   0.708
  354SOL    HW1 1961   6.675   2.651   0.800
  354SOL    HW2 1962   6.618   2.598   0.657
  355SOL     OW 1963   2.150   2.444   2.349
  355SOL    HW1 1964   2.118   2.355   2.318
  355SOL    HW2 1965   2.136   2.512   2.277
  356SOL     OW 1966   1.205   0.379   6.143
  356SOL    HW1 1967   1.168   0.332   6.063
  356SOL    HW2 1968   1.159   0.467   6.155
  357SOL     OW 1969   5.763   6.903   4.821
  357SOL    HW1 1970   5.830   6.841   4.863
  357SOL    HW2 1971   5.720   6.857   4.743
  358SOL     OW 1972   5.206   6.012   0.698
  358SOL    HW1 1973   5.304   6.033   0.696
  358SOL    HW2 1974   5.160   6.073   0.763
  359SOL     OW 1975   3.149   2.103   1.988
  359SOL    HW1 1976   3.236   2.121   1.944
  359SOL    HW2 1977   3.087   2.180   1.972
  360SOL     OW 1978   1.249   4.399   3.955
  360SOL    HW1 1979   1.240   4.483   3.901
  360SOL    HW2 1980   1.310   4.417   4.032
  361SOL     OW 1981   6.759   6.066   3.157
  361SOL    HW1 1982   6.824   6.096   3.227
  361SOL    HW2 1983   6.674   6.036   3.200
  362SOL     OW 1984   3.989   4.284   0.912
  362SOL    HW1 1985   3.975   4.319   1.005
  362SOL    HW2 1986   3.955   4.190   0.907
  363SOL     OW 1987   6.120   5.092   2.403
  363SOL    HW1 1988   6.121   5.183   2.445
  363SOL    HW2 1989   6.035   5.045   2.429
  364SOL     OW 1990   0.533   5.336   6.973
  364SOL    HW1 1991   0.616   5.364   6.925
  364SOL    HW2 1992   0.544   5.352   0.045
  365SOL     OW 1993   3.554   1.825   2.462
  365SOL    HW1 1994   3.504   1.766   2.399
  365SOL    HW2 1995   3.490   1.883   2.512
  366SOL     OW 1996   5.699   3.001   0.794
  366SOL    HW1 1997   5.755   2.979   0.714
  366SOL    HW2 1998   5.702   3.100   0.810
  367SOL     OW 1999   4.451   2.050   5.927
  367SOL    HW1 2000   4.421   2.111   6.000
  367SOL    HW2 2001   4.525   2.094   5.875
  368SOL     OW 2002   6.304   1.918   6.006
  368SOL    HW1 2003   6.316   1.979   5.928
  368SOL    HW2 2004   6.245   1.962   6.074
  369SOL     OW 2005   5.604   3.594   2.614
  369SOL    HW1 2006   5.511   3.557   2.602
  369SOL    HW2 2007   5.615   3.676   2.558
  370SOL     OW 2008   2.230   2.842   4.370
  370SOL    HW1 2009   2.232   2.742   4.383
  370SOL    HW2 2010   2.253   2.887   4.456
  371SOL     OW 2011   2.054   4.312   0.179
  371SOL    HW1 2012   2.051   4.278   0.084
  371SOL    HW2 2013   2.132   4.271   0.226
  372SOL     OW 2014   2.825   6.811   5.499
  372SOL    HW1 2015   2.728   6.832   5.505
  372SOL    HW2 2016   2.866   6.816   5.591
  373SOL     OW 2017   6.199   6.488   4.585
  373SOL    HW1 2018   6.225   6.448   4.497
  373SOL    HW2 2019   6.102   6.471   4.602
  374SOL     OW 2020   2.717   1.650   2.428
  374SOL    HW1 2021   2.698   1.725   2.491
  374SOL    HW2 2022   2.655   1.656   2.350
  375SOL     OW 2023   1.177   4.716   5.050
  375SOL    HW1 2024   1.177   4.616   5.050
  375SOL    HW2 2025   1.187   4.749   4.956
  376SOL     OW 2026   2.859   0.977   4.128
  376SOL    HW1 2027   2.848   0.973   4.028
  376SOL    HW2 2028   2.775   0.943   4.171
  377SOL     OW 2029   1.628   2.082   6.707
  377SOL    HW1 2030   1.603   2.172   6.743
  377SOL    HW2 2031   1.558   2.052   6.641
  378SOL     OW 2032   2.664   1.646   0.862
  378SOL    HW1 2033   2.689   1.640   0.765
  378SOL    HW2 2034   2.706   1.569   0.911
  379SOL     OW 2035   6.074   2.634   6.656
  379SOL    HW1 2036   6.050   2.542   6.688
  379SOL    HW2 2037   6.036   2.648   6.564
  380SOL     OW 2038   3.459   1.469   1.526
  380SOL    HW1 2039   3.501   1.455   1.437
  380SOL    HW2 2040   3.515   1.426   1.597
  381SOL     OW 2041   1.638   4.409   3.396
  381SOL    HW1 2042   1.735   4.430   3.393
  381SOL    HW2 2043   1.614   4.373   3.486
  382SOL     OW 2044   6.463   0.752   0.423
  382SOL    HW1 2045   6.410   0.792   0.348
  382SOL    HW2 2046   6.405   0.745   0.505
  383SOL     OW 2047   4.002   2.882   1.537
  383SOL    HW1 2048   4.025   2.952   1.470
  383SOL    HW2 2049   3.973   2.799   1.490
  384SOL     OW 2050   6.578   3.731   4.895
  384SOL    HW1 2051   6.564   3.654   4.832
  384SOL    HW2 2052   6.506   3.799   4.881
  385SOL     OW 2053   4.553   5.003   6.710
  385SOL    HW1 2054   4.554   5.076   6.641
  385SOL    HW2 2055   4.598   4.922   6.673
  386SOL     OW 2056   4.355   0.247   4.564
  386SOL    HW1 2057   4.379   0.260   4.660
  386SOL    HW2 2058   4.278   0.307   4.540
  387SOL     OW 2059   2.358   5.168   3.384
  387SOL    HW1 2060   2.350   5.084   3.331
  387SOL    HW2 2061   2.275   5.223   3.373
  388SOL     OW 2062   1.887   2.782   6.513
  388SOL    HW1 2063   1.870   2.877   6.487
  388SOL    HW2 2064   1.962   2.745   6.457
  389SOL     OW 2065   2.970   3.669   3.055
  389SOL    HW1 2066   3.041   3.608   3.021
  389SOL    HW2 2067   2.988   3.762   3.025
  390SOL     OW 2068   2.549   1.245   4.038
  390SOL    HW1 2069   2.643   1.265   4.064
  390SOL    HW2 2070   2.528   1.290   3.951
  391SOL     OW 2071   1.488   2.589   7.012
  391SOL    HW1 2072   1.553   2.664   7.000
  391SOL    HW2 2073   1.529   2.517   0.042
  392SOL     OW 2074   2.215   5.229   1.665
  392SOL    HW1 2075   2.189   5.146   1.616
  392SOL    HW2 2076   2.154   5.304   1.637
  393SOL     OW 2077   6.076   4.342   4.980
  393SOL    HW1 2078   6.148   4.321   5.047
  393SOL    HW2 2079   6.104   4.307   4.891
  394SOL     OW 2080   6.904   6.497   0.239
  394SOL    HW1 2081   6.872   6.585   0.273
  394SOL    HW2 2082   6.976   6.462   0.299
  395SOL     OW 2083   4.890   3.963   2.557
  395SOL    HW1 2084   4.852   3.971   2.465
  395SOL    HW2 2085   4.875   4.048   2.607
  396SOL     OW 2086   3.381   3.871   3.102
  396SOL    HW1 2087   3.402   3.809   3.177
  396SOL    HW2 2088   3.352   3.960   3.139
  397SOL     OW 2089   4.593   2.137   5.565
  397SOL    HW1 2090   4.612   2.198   5.487
  397SOL    HW2 2091   4.634   2.176   5.647
  398SOL     OW 2092   0.705   5.511   2.426
  398SOL    HW1 2093   0.710   5.423   2.473
  398SOL    HW2 2094   0.631   5.566   2.465
  399SOL     OW 2095   4.563   5.482   1.365
  399SOL    HW1 2096   4.518   5.562   1.405
  399SOL    HW2 2097   4.655   5.473   1.403
  400SOL     OW 2098   0.068   0.005   5.273
  400SOL    HW1 2099   0.097   6.938   5.251
  400SOL    HW2 2100   0.147   0.060   5.300
  401SOL     OW 2101   4.484   1.303   6.117
  401SOL    HW1 2102   4.509   1.285   6.213
  401SOL    HW2 2103   4.422   1.232   6.084
  402SOL     OW 2104   6.365   6.099   2.571
  402SOL    HW1 2105   6.403   6.190   2.590
  402SOL    HW2 2106   6.271   6.108   2.537
  403SOL     OW 2107   4.656   2.408   6.050
  403SOL    HW1 2108   4.635   2.462   6.132
  403SOL    HW2 2109   4.614   2.451   5.970
  404SOL     OW 2110   1.443   6.665   3.506
  404SOL    HW1 2111   1.464   6.689   3.601
  404SOL    HW2 2112   1.520   6.688   3.447
  405SOL     OW 2113   1.697   2.641   1.111
  405SOL    HW1 2114   1.772   2.579   1.135
  405SOL    HW2 2115   1.704   2.724   1.165
  406SOL     OW 2116   1.013   2.639   4.117
  406SOL    HW1 2117   0.917   2.624   4.141
  406SOL    HW2 2118   1.070   2.568   4.159
  407SOL     OW 2119   3.018   0.117   4.675
  407SOL    HW1 2120   3.085   0.142   4.745
  407SOL    HW2 2121   2.972   0.032   4.702
  408SOL     OW 2122   1.274   6.993   3.213
  408SOL    HW1 2123   1.367   6.981   3.178
  408SOL    HW2 2124   1.209   6.965   3.142
  409SOL     OW 2125   6.345   3.251   2.742
  409SOL    HW1 2126   6.368   3.325   2.804
  409SOL    HW2 2127   6.268   3.279   2.684
  410SOL     OW 2128   2.326   0.115   0.332
  410SOL    HW1 2129   2.253   0.131   0.266
  410SOL    HW2 2130   2.322   0.021   0.365
  411SOL     OW 2131   5.655   5.375   6.701
  411SOL    HW1 2132   5.660   5.468   6.736
  411SOL    HW2 2133   5.618   5.376   6.609
  412SOL     OW 2134   3.707   6.435   2.984
  412SOL    HW1 2135   3.617   6.463   2.951
  412SOL    HW2 2136   3.770   6.428   2.907
  413SOL     OW 2137   3.254   5.415   0.413
  413SOL    HW1 2138   3.204   5.362   0.344
  413SOL    HW2 2139   3.325   5.358   0.454
  414SOL     OW 2140   4.356   5.014   1.466
  414SOL    HW1 2141   4.344   5.092   1.404
  414SOL    HW2 2142   4.416   5.041   1.542
  415SOL     OW 2143   1.138   5.996   0.759
  415SOL    HW1 2144   1.190   5.955   0.684
  415SOL    HW2 2145   1.041   6.002   0.732
  416SOL     OW 2146   4.093   5.627   4.745
  416SOL    HW1 2147   4.048   5.607   4.659
  416SOL    HW2 2148   4.053   5.709   4.786
  417SOL     OW 2149   3.218   6.324   1.908
  417SOL    HW1 2150   3.135   6.371   1.877
  417SOL    HW2 2151   3.260   6.277   1.831
  418SOL     OW 2152   4.736   6.299   0.221
  418SOL    HW1 2153   4.640   6.325   0.233
  418SOL    HW2 2154   4.774   6.267   0.308
  419SOL     OW 2155   0.444   0.807   1.081
  419SOL    HW1 2156   0.533   0.791   1.038
  419SOL    HW2 2157   0.372   0.769   1.023
  420SOL     OW 2158   6.086   3.849   1.491
  420SOL    HW1 2159   6.164   3.806   1.536
  420SOL    HW2 2160   6.019   3.780   1.466
  421SOL     OW 2161   1.204   4.807   6.348
  421SOL    HW1 2162   1.213   4.712   6.317
  421SOL    HW2 2163   1.184   4.808   6.446
  422SOL     OW 2164   5.638   4.628   0.370
  422SOL    HW1 2165   5.562   4.605   0.309
  422SOL    HW2 2166   5.714   4.664   0.316
  423SOL     OW 2167   6.119   3.145   0.046
  423SOL    HW1 2168   6.171   3.106   6.995
  423SOL    HW2 2169   6.069   3.073   0.092
  424SOL     OW 2170   2.882   3.625   0.288
  424SOL    HW1 2171   2.912   3.531   0.271
  424SOL    HW2 2172   2.935   3.663   0.363
  425SOL     OW 2173   5.449   1.864   1.646
  425SOL    HW1 2174   5.538   1.907   1.657
  425SOL    HW2 2175   5.438   1.790   1.713
  426SOL     OW 2176   5.080   2.575   5.589
  426SOL    HW1 2177   5.015   2.499   5.594
  426SOL    HW2 2178   5.169   2.546   5.625
  427SOL     OW 2179   5.580   4.347   1.843
  427SOL    HW1 2180   5.592   4.446   1.837
  427SOL    HW2 2181   5.520   4.316   1.768
  428SOL     OW 2182   4.308   0.451   5.500
  428SOL    HW1 2183   4.406   0.436   5.491
  428SOL    HW2 2184   4.291   0.520   5.571
  429SOL     OW 2185   2.048   5.167   0.329
  429SOL    HW1 2186   1.995   5.216   0.260
  429SOL    HW2 2187   2.068   5.227   0.406
  430SOL     OW 2188   1.896   6.788   4.398
  430SOL    HW1 2189   1.801   6.761   4.381
  430SOL    HW2 2190   1.955   6.708   4.390
  431SOL     OW 2191   3.292   1.162   6.840
  431SOL    HW1 2192   3.321   1.188   6.932
  431SOL    HW2 2193   3.303   1.063   6.828
  432SOL     OW 2194   0.106   2.276   0.389
  432SOL    HW1 2195   0.079   2.206   0.323
  432SOL    HW2 2196   0.202   2.301   0.374
  433SOL     OW 2197   2.677   0.297   4.158
  433SOL    HW1 2198   2.768   0.263   4.185
  433SOL    HW2 2199   2.672   0.396   4.177
  434SOL     OW 2200   5.459   4.792   1.032
  434SOL    HW1 2201   5.453   4.884   1.069
  434SOL    HW2 2202   5.374   4.770   0.984
  435SOL     OW 2203   3.702   2.830   5.830
  435SOL    HW1 2204   3.619   2.883   5.847
  435SOL    HW2 2205   3.758   2.877   5.762
  436SOL     OW 2206   1.582   0.145   1.102
  436SOL    HW1 2207   1.612   0.050   1.095
  436SOL    HW2 2208   1.619   0.185   1.186
  437SOL     OW 2209   6.744   6.729   6.628
  437SOL    HW1 2210   6.751   6.770   6.537
  437SOL    HW2 2211   6.823   6.757   6.683
  438SOL     OW 2212   2.102   2.629   2.160
  438SOL    HW1 2213   2.175   2.689   2.128
  438SOL    HW2 2214   2.022   2.684   2.185
  439SOL     OW 2215   6.100   4.777   3.284
  439SOL    HW1 2216   6.184   4.723   3.273
  439SOL    HW2 2217   6.026   4.718   3.315
  440SOL     OW 2218   0.966   2.266   4.489
  440SOL    HW1 2219   0.983   2.358   4.522
  440SOL    HW2 2220   1.002   2.199   4.555
  441SOL     OW 2221   1.206   1.741   3.148
  441SOL    HW1 2222   1.167   1.823   3.105
  441SOL    HW2 2223   1.134   1.672   3.159
  442SOL     OW 2224   0.393   4.221   0.053
  442SOL    HW1 2225   0.373   4.287   0.126
  442SOL    HW2 2226   0.492   4.212   0.043
  443SOL     OW 2227   1.220   4.709   4.765
  443SOL    HW1 2228   1.283   4.773   4.810
  443SOL    HW2 2229   1.265   4.669   4.685
  444SOL     OW 2230   4.653   2.974   6.079
  444SOL    HW1 2231   4.728   2.933   6.133
  444SOL    HW2 2232   4.610   3.047   6.132
  445SOL     OW 2233   1.996   5.558   3.190
  445SOL    HW1 2234   2.034   5.593   3.275
  445SOL    HW2 2235   1.981   5.633   3.126
  446SOL     OW 2236   3.878   4.833   3.606
  446SOL    HW1 2237   3.931   4.781   3.538
  446SOL    HW2 2238   3.879   4.930   3.582
  447SOL     OW 2239   0.333   4.409   6.580
  447SOL    HW1 2240   0.361   4.324   6.536
  447SOL    HW2 2241   0.383   4.422   6.665
  448SOL     OW 2242   3.675   0.507   5.017
  448SOL    HW1 2243   3.662   0.423   4.966
  448SOL    HW2 2244   3.736   0.491   5.094
  449SOL     OW 2245   5.178   0.945   5.086
  449SOL    HW1 2246   5.157   0.971   4.992
  449SOL    HW2 2247   5.236   0.863   5.086
  450SOL     OW 2248   0.387   5.919   3.539
  450SOL    HW1 2249   0.425   5.830   3.511
  450SOL    HW2 2250   0.459   5.988   3.536
  451SOL     OW 2251   0.898   2.419   2.200
  451SOL    HW1 2252   0.848   2.505   2.201
  451SOL    HW2 2253   0.994   2.436   2.223
  452SOL     OW 2254   6.690   5.853   6.984
  452SOL    HW1 2255   6.687   5.947   7.017
  452SOL    HW2 2256   6.781   5.815   6.999
  453SOL     OW 2257   3.027   0.843   6.505
  453SOL    HW1 2258   2.938   0.816   6.541
  453SOL    HW2 2259   3.020   0.931   6.459
  454SOL     OW 2260   6.701   6.049   6.018
  454SOL    HW1 2261   6.686   6.113   5.943
  454SOL    HW2 2262   6.614   6.033   6.066
  455SOL     OW 2263   6.726   0.408   4.341
  455SOL    HW1 2264   6.758   0.389   4.434
  455SOL    HW2 2265   6.783   0.480   4.300
  456SOL     OW 2266   4.737   5.663   5.348
  456SOL    HW1 2267   4.775   5.746   5.306
  456SOL    HW2 2268   4.647   5.644   5.308
  457SOL     OW 2269   2.136   3.923   3.313
  457SOL    HW1 2270   2.155   4.010   3.358
  457SOL    HW2 2271   2.198   3.910   3.236
  458SOL     OW 2272   5.515   5.596   5.345
  458SOL    HW1 2273   5.583   5.605   5.418
  458SOL    HW2 2274   5.557   5.620   5.257
  459SOL     OW 2275   1.565   0.033   3.781
  459SOL    HW1 2276   1.604   0.095   3.712
  459SOL    HW2 2277   1.529   0.087   3.858
  460SOL     OW 2278   0.213   1.459   2.179
  460SOL    HW1 2279   0.201   1.557   2.192
  460SOL    HW2 2280   0.133   1.411   2.217
  461SOL     OW 2281   5.092   0.115   4.706
  461SOL    HW1 2282   5.180   0.137   4.665
  461SOL    HW2 2283   5.099   0.030   4.758
  462SOL     OW 2284   4.152   2.187   5.876
  462SOL    HW1 2285   4.198   2.268   5.912
  462SOL    HW2 2286   4.076   2.214   5.817
  463SOL     OW 2287   6.406   5.516   2.975
  463SOL    HW1 2288   6.365   5.587   3.033
  463SOL    HW2 2289   6.474   5.557   2.915
  464SOL     OW 2290   2.782   1.908   6.455
  464SOL    HW1 2291   2.838   1.923   6.537
  464SOL    HW2 2292   2.699   1.859   6.481
  465SOL     OW 2293   0.915   1.807   4.523
  465SOL    HW1 2294   1.000   1.813   4.574
  465SOL    HW2 2295   0.870   1.896   4.521
  466SOL     OW 2296   0.203   6.143   3.718
  466SOL    HW1 2297   0.203   6.064   3.656
  466SOL    HW2 2298   0.293   6.153   3.760
  467SOL     OW 2299   0.838   0.406   6.247
  467SOL    HW1 2300   0.792   0.341   6.308
  467SOL    HW2 2301   0.921   0.440   6.292
  468SOL     OW 2302   3.225   6.245   0.834
  468SOL    HW1 2303   3.130   6.268   0.855
  468SOL    HW2 2304   3.275   6.329   0.813
  469SOL     OW 2305   3.056   4.512   0.305
  469SOL    HW1 2306   3.047   4.478   0.212
  469SOL    HW2 2307   3.093   4.605   0.303
  470SOL     OW 2308   3.287   0.379   2.622
  470SOL    HW1 2309   3.307   0.440   2.699
  470SOL    HW2 2310   3.372   0.343   2.585
  471SOL     OW 2311   1.708   2.230   4.604
  471SOL    HW1 2312   1.719   2.131   4.597
  471SOL    HW2 2313   1.798   2.274   4.611
  472SOL     OW 2314   4.754   3.610   6.848
  472SOL    HW1 2315   4.764   3.704   6.879
  472SOL    HW2 2316   4.670   3.571   6.885
  473SOL     OW 2317   0.425   2.786   1.089
  473SOL    HW1 2318   0.423   2.716   1.160
  473SOL    HW2 2319   0.357   2.765   1.019
  474SOL     OW 2320   4.690   5.052   3.945
  474SOL    HW1 2321   4.595   5.043   3.975
  474SOL    HW2 2322   4.705   5.144   3.908
  475SOL     OW 2323   6.365   0.717   6.656
  475SOL    HW1 2324   6.274   0.743   6.687
  475SOL    HW2 2325   6.430   0.729   6.731
  476SOL     OW 2326   6.791   4.062   2.253
  476SOL    HW1 2327   6.877   4.026   2.214
  476SOL    HW2 2328   6.734   3.985   2.282
  477SOL     OW 2329   2.373   4.891   4.938
  477SOL    HW1 2330   2.459   4.875   4.986
  477SOL    HW2 2331   2.297   4.852   4.991
  478SOL     OW 2332   3.097   6.150   2.222
  478SOL    HW1 2333   3.097   6.139   2.322
  478SOL    HW2 2334   3.030   6.218   2.196
  479SOL     OW 2335   4.619   1.976   0.087
  479SOL    HW1 2336   4.524   1.992   0.113
  479SOL    HW2 2337   4.621   1.920   0.004
  480SOL     OW 2338   1.903   0.156   6.952
  480SOL    HW1 2339   1.910   0.204   0.014
  480SOL    HW2 2340   1.993   0.122   6.926
  481SOL     OW 2341   2.072   6.957   0.711
  481SOL    HW1 2342   2.164   6.973   0.747
  481SOL    HW2 2343   2.067   6.865   0.673
  482SOL     OW 2344   4.648   4.514   2.479
  482SOL    HW1 2345   4.704   4.433   2.462
  482SOL    HW2 2346   4.678   4.589   2.420
  483SOL     OW 2347   5.437   2.566   1.600
  483SOL    HW1 2348   5.389   2.549   1.686
  483SOL    HW2 2349   5.388   2.522   1.525
  484SOL     OW 2350   1.202   2.636   5.008
  484SOL    HW1 2351   1.151   2.614   5.091
  484SOL    HW2 2352   1.300   2.626   5.024
  485SOL     OW 2353   4.105   5.679   2.055
  485SOL    HW1 2354   4.102   5.581   2.073
  485SOL    HW2 2355   4.172   5.722   2.115
  486SOL     OW 2356   0.458   1.457   0.834
  486SOL    HW1 2357   0.391   1.496   0.897
  486SOL    HW2 2358   0.413   1.398   0.768
  487SOL     OW 2359   0.745   1.453   6.817
  487SOL    HW1 2360   0.694   1.513   6.755
  487SOL    HW2 2361   0.803   1.392   6.764
  488SOL     OW 2362   0.856   0.712   1.416
  488SOL    HW1 2363   0.799   0.785   1.377
  488SOL    HW2 2364   0.839   0.627   1.367
  489SOL     OW 2365   3.488   5.947   0.282
  489SOL    HW1 2366   3.412   5.959   0.219
  489SOL    HW2 2367   3.459   5.892   0.360
  490SOL     OW 2368   6.935   5.816   4.189
  490SOL    HW1 2369   6.915   5.911   4.212
  490SOL    HW2 2370   6.852   5.761   4.199
  491SOL     OW 2371   6.841   2.494   3.456
  491SOL    HW1 2372   6.929   2.523   3.494
  491SOL    HW2 2373   6.845   2.396   3.434
  492SOL     OW 2374   3.178   0.166   4.872
  492SOL    HW1 2375   3.155   0.252   4.919
  492SOL    HW2 2376   3.251   0.120   4.922
  493SOL     OW 2377   5.615   5.679   5.899
  493SOL    HW1 2378   5.580   5.593   5.860
  493SOL    HW2 2379   5.603   5.752   5.832
  494SOL     OW 2380   0.374   6.592   0.019
  494SOL    HW1 2381   0.383   6.598   6.946
  494SOL    HW2 2382   0.315   6.515   0.042
  495SOL     OW 2383   5.509   6.016   3.314
  495SOL    HW1 2384   5.423   5.980   3.278
  495SOL    HW2 2385   5.570   5.940   3.335
  496SOL     OW 2386   5.197   3.031   2.739
  496SOL    HW1 2387   5.165   2.968   2.810
  496SOL    HW2 2388   5.127   3.099   2.721
  497SOL     OW 2389   3.467   1.492   5.520
  497SOL    HW1 2390   3.485   1.409   5.467
  497SOL    HW2 2391   3.386   1.537   5.484
  498SOL     OW 2392   1.419   4.537   1.730
  498SOL    HW1 2393   1.347   4.477   1.696
  498SOL    HW2 2394   1.504   4.486   1.739
  499SOL     OW 2395   2.980   0.625   4.156
  499SOL    HW1 2396   3.023   0.535   4.158
  499SOL    HW2 2397   3.016   0.678   4.079
  500SOL     OW 2398   0.970   3.709   3.162
  500SOL    HW1 2399   0.914   3.789   3.182
  500SOL    HW2 2400   1.054   3.738   3.115
  501SOL     OW 2401   3.433   0.550   0.820
  501SOL    HW1 2402   3.451   0.494   0.901
  501SOL    HW2 2403   3.442   0.493   0.738
  502SOL     OW 2404   6.123   4.569   6.443
  502SOL    HW1 2405   6.055   4.593   6.513
  502SOL    HW2 2406   6.115   4.472   6.421
  503SOL     OW 2407   5.795   5.207   5.977
  503SOL    HW1 2408   5.830   5.150   6.051
  503SOL    HW2 2409   5.859   5.206   5.900
  504SOL     OW 2410   2.844   6.444   3.671
  504SOL    HW1 2411   2.924   6.448   3.612
  504SOL    HW2 2412   2.771   6.394   3.624
  505SOL     OW 2413   3.347   0.692   5.748
  505SOL    HW1 2414   3.425   0.733   5.700
  505SOL    HW2 2415   3.306   0.622   5.691
  506SOL     OW 2416   1.946   5.371   4.835
  506SOL    HW1 2417   1.970   5.294   4.775
  506SOL    HW2 2418   2.025   5.432   4.843
  507SOL     OW 2419   3.549   0.303   4.345
  507SOL    HW1 2420   3.459   0.340   4.321
  507SOL    HW2 2421   3.610   0.379   4.370
  508SOL     OW 2422   6.275   3.726   2.870
  508SOL    HW1 2423   6.363   3.731   2.822
  508SOL    HW2 2424   6.202   3.708   2.805
  509SOL     OW 2425   3.262   1.445   1.796
  509SOL    HW1 2426   3.333   1.457   1.727
  509SOL    HW2 2427   3.299   1.392   1.873
  510SOL     OW 2428   6.514   4.884   6.050
  510SOL    HW1 2429   6.527   4.888   5.951
  510SOL    HW2 2430   6.416   4.894   6.072
  511SOL     OW 2431   0.210   6.373   0.036
  511SOL    HW1 2432   0.240   6.318   6.984
  511SOL    HW2 2433   0.124   6.419   0.013
  512SOL     OW 2434   0.233   3.310   0.405
  512SOL    HW1 2435   0.270   3.324   0.313
  512SOL    HW2 2436   0.134   3.324   0.403
  513SOL     OW 2437   6.089   6.520   3.247
  513SOL    HW1 2438   6.021   6.536   3.175
  513SOL    HW2 2439   6.176   6.562   3.221
  514SOL     OW 2440   6.582   2.181   4.016
  514SOL    HW1 2441   6.546   2.235   3.940
  514SOL    HW2 2442   6.672   2.144   3.991
  515SOL     OW 2443   1.997   0.036   5.920
  515SOL    HW1 2444   2.015   0.107   5.851
  515SOL    HW2 2445   1.902   0.007   5.913
  516SOL     OW 2446   2.668   4.380   1.724
  516SOL    HW1 2447   2.740   4.430   1.772
  516SOL    HW2 2448   2.581   4.395   1.770
  517SOL     OW 2449   5.332   5.889   2.534
  517SOL    HW1 2450   5.233   5.885   2.541
  517SOL    HW2 2451   5.359   5.975   2.491
  518SOL     OW 2452   3.020   1.931   1.809
  518SOL    HW1 2453   3.062   2.005   1.861
  518SOL    HW2 2454   2.933   1.961   1.770
  519SOL     OW 2455   7.019   0.619   4.964
  519SOL    HW1 2456   0.056   0.671   5.022
  519SOL    HW2 2457   7.023   0.522   4.990
  520SOL     OW 2458   5.476   4.661   6.520
  520SOL    HW1 2459   5.424   4.578   6.504
  520SOL    HW2 2460   5.570   4.638   6.546
  521SOL     OW 2461   6.351   2.612   6.591
  521SOL    HW1 2462   6.253   2.625   6.606
  521SOL    HW2 2463   6.396   2.595   6.679
  522SOL     OW 2464   3.902   2.954   5.669
  522SOL    HW1 2465   3.970   2.907   5.725
  522SOL    HW2 2466   3.929   3.049   5.656
  523SOL     OW 2467   0.276   4.898   3.595
  523SOL    HW1 2468   0.300   4.811   3.551
  523SOL    HW2 2469   0.190   4.887   3.644
  524SOL     OW 2470   2.630   1.105   6.656
  524SOL    HW1 2471   2.535   1.076   6.670
  524SOL    HW2 2472   2.633   1.201   6.631
  525SOL     OW 2473   2.725   3.363   6.369
  525SOL    HW1 2474   2.735   3.278   6.317
  525SOL    HW2 2475   2.815   3.391   6.404
  526SOL     OW 2476   2.859   0.003   4.985
  526SOL    HW1 2477   2.875   6.984   4.897
  526SOL    HW2 2478   2.940   7.017   5.043
  527SOL     OW 2479   6.058   3.349   6.359
  527SOL    HW1 2480   5.990   3.421   6.373
  527SOL    HW2 2481   6.148   3.382   6.391
  528SOL     OW 2482   1.000   1.131   3.834
  528SOL    HW1 2483   1.059   1.051   3.821
  528SOL    HW2 2484   1.033   1.206   3.777
  529SOL     OW 2485   0.221   5.582   4.715
  529SOL    HW1 2486   0.197   5.486   4.702
  529SOL    HW2 2487   0.291   5.608   4.649
  530SOL     OW 2488   2.536   2.766   5.270
  530SOL    HW1 2489   2.536   2.744   5.368
  530SOL    HW2 2490   2.522   2.864   5.259
  531SOL     OW 2491   0.189   0.937   1.804
  531SOL    HW1 2492   0.134   0.965   1.882
  531SOL    HW2 2493   0.286   0.944   1.826
  532SOL     OW 2494   0.505   2.951   6.161
  532SOL    HW1 2495   0.585   2.891   6.164
  532SOL    HW2 2496   0.450   2.929   6.080
  533SOL     OW 2497   4.900   5.650   4.226
  533SOL    HW1 2498   4.946   5.565   4.253
  533SOL    HW2 2499   4.872   5.700   4.309
  534SOL     OW 2500   5.642   5.488   3.270
  534SOL    HW1 2501   5.665   5.484   3.367
  534SOL    HW2 2502   5.722   5.519   3.218
  535SOL     OW 2503   0.945   4.387   4.248
  535SOL    HW1 2504   1.012   4.460   4.248
  535SOL    HW2 2505   0.915   4.369   4.341
  536SOL     OW 2506   0.077   5.125   2.267
  536SOL    HW1 2507   0.043   5.049   2.323
  536SOL    HW2 2508   0.175   5.114   2.251
  537SOL     OW 2509   2.214   6.487   3.829
  537SOL    HW1 2510   2.235   6.430   3.908
  537SOL    HW2 2511   2.219   6.431   3.746
  538SOL     OW 2512   1.804   5.904   3.450
  538SOL    HW1 2513   1.898   5.924   3.422
  538SOL    HW2 2514   1.780   5.960   3.529
  539SOL     OW 2515   0.116   5.933   0.559
  539SOL    HW1 2516   0.028   5.963   0.521
  539SOL    HW2 2517   0.167   5.882   0.489
  540SOL     OW 2518   0.561   1.617   2.045
  540SOL    HW1 2519   0.498   1.673   2.099
  540SOL    HW2 2520   0.512   1.538   2.009
  541SOL     OW 2521   2.943   6.450   4.508
  541SOL    HW1 2522   3.028   6.466   4.458
  541SOL    HW2 2523   2.912   6.356   4.491
  542SOL     OW 2524   6.627   6.668   7.026
  542SOL    HW1 2525   6.564   6.607   0.049
  542SOL    HW2 2526   6.629   6.643   6.929
  543SOL     OW 2527   0.509   4.952   5.744
  543SOL    HW1 2528   0.436   5.018   5.760
  543SOL    HW2 2529   0.535   4.954   5.647
  544SOL     OW 2530   1.336   4.284   1.230
  544SOL    HW1 2531   1.359   4.358   1.167
  544SOL    HW2 2532   1.244   4.250   1.210
  545SOL     OW 2533   3.719   1.782   3.242
  545SOL    HW1 2534   3.734   1.684   3.245
  545SOL    HW2 2535   3.666   1.806   3.161
  546SOL     OW 2536   1.949   3.289   1.670
  546SOL    HW1 2537   2.032   3.240   1.698
  546SOL    HW2 2538   1.946   3.294   1.570
  547SOL     OW 2539   2.295   1.383   6.847
  547SOL    HW1 2540   2.357   1.416   6.918
  547SOL    HW2 2541   2.270   1.459   6.787
  548SOL     OW 2542   3.647   2.884   3.042
  548SOL    HW1 2543   3.615   2.906   2.950
  548SOL    HW2 2544   3.625   2.958   3.104
  549SOL     OW 2545   4.139   3.601   1.788
  549SOL    HW1 2546   4.211   3.631   1.726
  549SOL    HW2 2547   4.102   3.681   1.837
  550SOL     OW 2548   6.805   3.115   3.211
  550SOL    HW1 2549   6.803   3.211   3.182
  550SOL    HW2 2550   6.843   3.108   3.303
  551SOL     OW 2551   0.177   1.949   0.646
  551SOL    HW1 2552   0.142   1.918   0.734
  551SOL    HW2 2553   0.114   2.016   0.607
  552SOL     OW 2554   3.621   5.926   0.703
  552SOL    HW1 2555   3.569   5.866   0.764
  552SOL    HW2 2556   3.670   5.871   0.636
  553SOL     OW 2557   1.616   6.527   2.514
  553SOL    HW1 2558   1.649   6.596   2.450
  553SOL    HW2 2559   1.694   6.489   2.565
  554SOL     OW 2560   5.189   0.177   6.419
  554SOL    HW1 2561   5.270   0.136   6.378
  554SOL    HW2 2562   5.183   0.150   6.516
  555SOL     OW 2563   2.327   5.184   4.053
  555SOL    HW1 2564   2.302   5.184   4.150
  555SOL    HW2 2565   2.401   5.250   4.037
  556SOL     OW 2566   6.084   2.405   4.126
  556SOL    HW1 2567   6.178   2.438   4.117
  556SOL    HW2 2568   6.070   2.369   4.218
  557SOL     OW 2569   0.124   6.370   6.599
  557SOL    HW1 2570   0.184   6.356   6.520
  557SOL    HW2 2571   0.061   6.293   6.607
  558SOL     OW 2572   4.306   3.476   5.355
  558SOL    HW1 2573   4.263   3.426   5.280
  558SOL    HW2 2574   4.405   3.457   5.354
  559SOL     OW 2575   6.570   6.373   6.517
  559SOL    HW1 2576   6.644   6.312   6.547
  559SOL    HW2 2577   6.607   6.439   6.451
  560SOL     OW 2578   3.470   6.491   0.737
  560SOL    HW1 2579   3.457   6.417   0.671
  560SOL    HW2 2580   3.382   6.529   0.762
  561SOL     OW 2581   5.958   0.035   6.562
  561SOL    HW1 2582   5.926   0.130   6.562
  561SOL    HW2 2583   5.978   0.006   6.469
  562SOL     OW 2584   4.723   0.902   6.364
  562SOL    HW1 2585   4.640   0.958   6.367
  562SOL    HW2 2586   4.794   0.950   6.312
  563SOL     OW 2587   2.887   6.662   3.429
  563SOL    HW1 2588   2.975   6.624   3.456
  563SOL    HW2 2589   2.825   6.588   3.401
  564SOL     OW 2590   2.521   2.287   6.188
  564SOL    HW1 2591   2.505   2.213   6.254
  564SOL    HW2 2592   2.492   2.374   6.228
  565SOL     OW 2593   4.670   3.148   5.347
  565SOL    HW1 2594   4.635   3.060   5.313
  565SOL    HW2 2595   4.768   3.155   5.326
  566SOL     OW 2596   4.312   4.643   3.758
  566SOL    HW1 2597   4.340   4.727   3.805
  566SOL    HW2 2598   4.314   4.657   3.660
  567SOL     OW 2599   3.160   3.269   4.073
  567SOL    HW1 2600   3.190   3.216   3.993
  567SOL    HW2 2601   3.216   3.351   4.082
  568SOL     OW 2602   3.884   2.540   0.980
  568SOL    HW1 2603   3.907   2.450   1.017
  568SOL    HW2 2604   3.966   2.582   0.943
  569SOL     OW 2605   1.436   3.115   0.415
  569SOL    HW1 2606   1.452   3.026   0.458
  569SOL    HW2 2607   1.349   3.113   0.365
  570SOL     OW 2608   1.471   6.367   0.212
  570SOL    HW1 2609   1.528   6.449   0.223
  570SOL    HW2 2610   1.375   6.394   0.204
  571SOL     OW 2611   3.020   5.867   2.460
  571SOL    HW1 2612   3.057   5.851   2.552
  571SOL    HW2 2613   3.014   5.780   2.411
  572SOL     OW 2614   2.258   4.564   5.741
  572SOL    HW1 2615   2.273   4.534   5.646
  572SOL    HW2 2616   2.194   4.501   5.785
  573SOL     OW 2617   3.513   1.404   5.122
  573SOL    HW1 2618   3.589   1.463   5.098
  573SOL    HW2 2619   3.435   1.424   5.062
  574SOL     OW 2620   2.376   1.968   4.534
  574SOL    HW1 2621   2.399   2.061   4.506
  574SOL    HW2 2622   2.459   1.922   4.567
  575SOL     OW 2623   6.179   3.679   0.583
  575SOL    HW1 2624   6.098   3.633   0.546
  575SOL    HW2 2625   6.150   3.756   0.639
  576SOL     OW 2626   1.080   2.351   1.910
  576SOL    HW1 2627   1.099   2.298   1.993
  576SOL    HW2 2628   0.981   2.360   1.897
  577SOL     OW 2629   2.487   1.353   3.815
  577SOL    HW1 2630   2.387   1.354   3.813
  577SOL    HW2 2631   2.521   1.447   3.817
  578SOL     OW 2632   6.995   3.371   3.429
  578SOL    HW1 2633   0.004   3.281   3.456
  578SOL    HW2 2634   0.039   3.440   3.445
  579SOL     OW 2635   4.204   2.049   1.387
  579SOL    HW1 2636   4.241   2.099   1.465
  579SOL    HW2 2637   4.105   2.062   1.382
  580SOL     OW 2638   0.781   4.730   6.131
  580SOL    HW1 2639   0.743   4.785   6.057
  580SOL    HW2 2640   0.785   4.634   6.103
  581SOL     OW 2641   3.914   3.000   3.491
  581SOL    HW1 2642   4.004   3.000   3.447
  581SOL    HW2 2643   3.845   2.973   3.424
  582SOL     OW 2644   5.740   4.085   2.178
  582SOL    HW1 2645   5.788   4.153   2.234
  582SOL    HW2 2646   5.742   3.997   2.224
  583SOL     OW 2647   2.804   4.788   0.285
  583SOL    HW1 2648   2.785   4.755   0.377
  583SOL    HW2 2649   2.735   4.856   0.259
  584SOL     OW 2650   6.944   4.864   5.448
  584SOL    HW1 2651   6.965   4.961   5.439
  584SOL    HW2 2652   6.918   4.827   5.358
  585SOL     OW 2653   6.929   2.716   6.000
  585SOL    HW1 2654   6.869   2.708   5.920
  585SOL    HW2 2655   6.942   2.812   6.023
  586SOL     OW 2656   3.088   6.678   0.533
  586SOL    HW1 2657   3.027   6.719   0.466
  586SOL    HW2 2658   3.183   6.685   0.501
  587SOL     OW 2659   2.077   1.794   5.292
  587SOL    HW1 2660   2.009   1.801   5.219
  587SOL    HW2 2661   2.087   1.699   5.321
  588SOL     OW 2662   3.696   6.937   1.291
  588SOL    HW1 2663   3.761   6.907   1.221
  588SOL    HW2 2664   3.668   6.858   1.346
  589SOL     OW 2665   3.640   5.059   1.697
  589SOL    HW1 2666   3.561   5.107   1.735
  589SOL    HW2 2667   3.679   5.114   1.622
  590SOL     OW 2668   0.094   2.742   2.149
  590SOL    HW1 2669   0.168   2.804   2.175
  590SOL    HW2 2670   0.007   2.779   2.182
  591SOL     OW 2671   4.187   0.023   3.493
  591SOL    HW1 2672   4.197   0.018   3.394
  591SOL    HW2 2673   4.142   6.966   3.526
  592SOL     OW 2674   4.869   1.193   0.209
  592SOL    HW1 2675   4.860   1.239   0.297
  592SOL    HW2 2676   4.789   1.213   0.153
  593SOL     OW 2677   4.378   2.209   4.036
  593SOL    HW1 2678   4.427   2.126   4.007
  593SOL    HW2 2679   4.367   2.208   4.135
  594SOL     OW 2680   4.246   3.340   0.056
  594SOL    HW1 2681   4.193   3.293   7.011
  594SOL    HW2 2682   4.194   3.342   0.141
  595SOL     OW 2683   3.975   6.908   4.447
  595SOL    HW1 2684   3.884   6.875   4.472
  595SOL    HW2 2685   3.970   6.956   4.360
  596SOL     OW 2686   0.916   4.130   2.302
  596SOL    HW1 2687   1.010   4.143   2.333
  596SOL    HW2 2688   0.873   4.057   2.355
  597SOL     OW 2689   3.496   6.698   6.701
  597SOL    HW1 2690   3.575   6.756   6.682
  597SOL    HW2 2691   3.479   6.695   6.800
  598SOL     OW 2692   4.163   4.929   0.387
  598SOL    HW1 2693   4.167   4.920   0.487
  598SOL    HW2 2694   4.220   5.005   0.358
  599SOL     OW 2695   0.164   0.269   2.589
  599SOL    HW1 2696   0.214   0.229   2.511
  599SOL    HW2 2697   0.227   0.325   2.643
  600SOL     OW 2698   0.888   6.583   0.710
  600SOL    HW1 2699   0.986   6.592   0.724
  600SOL    HW2 2700   0.855   6.660   0.655
  601SOL     OW 2701   2.670   5.947   3.412
  601SOL    HW1 2702   2.672   5.915   3.317
  601SOL    HW2 2703   2.664   5.868   3.474
  602SOL     OW 2704   1.051   0.265   0.755
  602SOL    HW1 2705   1.102   0.179   0.759
  602SOL    HW2 2706   1.102   0.333   0.702
  603SOL     OW 2707   3.801   1.879   3.698
  603SOL    HW1 2708   3.828   1.941   3.624
  603SOL    HW2 2709   3.862   1.800   3.698
  604SOL     OW 2710   1.376   3.376   0.066
  604SOL    HW1 2711   1.402   3.471   0.083
  604SOL    HW2 2712   1.427   3.342   7.012
  605SOL     OW 2713   0.134   5.964   3.412
  605SOL    HW1 2714   0.123   5.898   3.339
  605SOL    HW2 2715   0.229   5.962   3.445
  606SOL     OW 2716   4.408   0.550   4.836
  606SOL    HW1 2717   4.309   0.535   4.840
  606SOL    HW2 2718   4.452   0.470   4.795
  607SOL     OW 2719   5.834   1.389   3.741
  607SOL    HW1 2720   5.871   1.383   3.649
  607SOL    HW2 2721   5.740   1.355   3.742
  608SOL     OW 2722   2.986   0.371   0.828
  608SOL    HW1 2723   2.985   0.315   0.744
  608SOL    HW2 2724   3.035   0.456   0.811
  609SOL     OW 2725   3.375   2.884   4.547
  609SOL    HW1 2726   3.312   2.806   4.550
  609SOL    HW2 2727   3.409   2.896   4.454
  610SOL     OW 2728   5.140   2.465   3.723
  610SOL    HW1 2729   5.104   2.415   3.645
  610SOL    HW2 2730   5.218   2.415   3.761
  611SOL     OW 2731   0.033   0.586   0.022
  611SOL    HW1 2732   0.099   0.586   0.097
  611SOL    HW2 2733   0.023   0.494   7.012
  612SOL     OW 2734   3.729   5.013   5.778
  612SOL    HW1 2735   3.659   5.049   5.716
  612SOL    HW2 2736   3.783   5.089   5.815
  613SOL     OW 2737   4.186   1.466   5.768
  613SOL    HW1 2738   4.139   1.554   5.763
  613SOL    HW2 2739   4.228   1.446   5.680
  614SOL     OW 2740   6.062   4.607   0.571
  614SOL    HW1 2741   6.049   4.692   0.520
  614SOL    HW2 2742   5.972   4.569   0.595
  615SOL     OW 2743   0.517   0.167   6.990
  615SOL    HW1 2744   0.489   0.113   0.044
  615SOL    HW2 2745   0.439   0.220   6.956
  616SOL     OW 2746   5.786   2.176   4.584
  616SOL    HW1 2747   5.733   2.094   4.561
  616SOL    HW2 2748   5.883   2.153   4.587
  617SOL     OW 2749   0.288   4.605   5.905
  617SOL    HW1 2750   0.365   4.542   5.920
  617SOL    HW2 2751   0.313   4.696   5.938
  618SOL     OW 2752   6.318   3.328   1.672
  618SOL    HW1 2753   6.223   3.319   1.701
  618SOL    HW2 2754   6.334   3.418   1.633
  619SOL     OW 2755   3.316   0.688   0.490
  619SOL    HW1 2756   3.229   0.646   0.462
  619SOL    HW2 2757   3.298   0.765   0.551
  620SOL     OW 2758   5.590   3.508   2.047
  620SOL    HW1 2759   5.561   3.603   2.046
  620SOL    HW2 2760   5.684   3.502   2.081
  621SOL     OW 2761   2.862   7.024   6.127
  621SOL    HW1 2762   2.913   6.971   6.060
  621SOL    HW2 2763   2.814   6.962   6.189
  622SOL     OW 2764   0.879   2.329   5.085
  622SOL    HW1 2765   0.920   2.327   4.994
  622SOL    HW2 2766   0.913   2.252   5.139
  623SOL     OW 2767   6.509   6.368   4.391
  623SOL    HW1 2768   6.426   6.314   4.404
  623SOL    HW2 2769   6.494   6.433   4.316
  624SOL     OW 2770   6.343   1.719   6.422
  624SOL    HW1 2771   6.263   1.671   6.386
  624SOL    HW2 2772   6.369   1.679   6.510
  625SOL     OW 2773   2.305   1.281   0.147
  625SOL    HW1 2774   2.370   1.356   0.136
  625SOL    HW2 2775   2.351   1.194   0.128
  626SOL     OW 2776   1.348   5.748   3.706
  626SOL    HW1 2777   1.436   5.700   3.704
  626SOL    HW2 2778   1.330   5.781   3.799
  627SOL     OW 2779   6.241   6.701   0.002
  627SOL    HW1 2780   6.245   6.693   6.928
  627SOL    HW2 2781   6.282   6.788   0.030
  628SOL     OW 2782   5.445   4.084   5.407
  628SOL    HW1 2783   5.411   4.061   5.316
  628SOL    HW2 2784   5.371   4.122   5.462
  629SOL     OW 2785   6.653   0.940   0.072
  629SOL    HW1 2786   6.628   1.001   0.147
  629SOL    HW2 2787   6.717   0.985   0.011
  630SOL     OW 2788   6.836   1.258   1.132
  630SOL    HW1 2789   6.782   1.251   1.216
  630SOL    HW2 2790   6.928   1.289   1.154
  631SOL     OW 2791   2.430   2.528   4.884
  631SOL    HW1 2792   2.330   2.529   4.891
  631SOL    HW2 2793   2.471   2.538   4.974
  632SOL     OW 2794   4.996   3.096   0.582
  632SOL    HW1 2795   4.980   2.999   0.598
  632SOL    HW2 2796   5.031   3.109   0.489
  633SOL     OW 2797   1.628   5.072   1.077
  633SOL    HW1 2798   1.568   5.137   1.030
  633SOL    HW2 2799   1.607   4.979   1.047
  634SOL     OW 2800   2.920   3.341   3.860
  634SOL    HW1 2801   2.971   3.322   3.776
  634SOL    HW2 2802   2.901   3.439   3.865
  635SOL     OW 2803   5.434   0.959   6.846
  635SOL    HW1 2804   5.472   1.031   6.904
  635SOL    HW2 2805   5.371   0.999   6.780
  636SOL     OW 2806   2.824   0.298   6.015
  636SOL    HW1 2807   2.785   0.365   6.078
  636SOL    HW2 2808   2.922   0.289   6.032
  637SOL     OW 2809   6.412   1.170   2.277
  637SOL    HW1 2810   6.381   1.260   2.308
  637SOL    HW2 2811   6.334   1.110   2.265
  638SOL     OW 2812   5.763   3.473   3.919
  638SOL    HW1 2813   5.816   3.550   3.884
  638SOL    HW2 2814   5.782   3.461   4.016
  639SOL     OW 2815   5.514   4.919   2.887
  639SOL    HW1 2816   5.521   4.932   2.986
  639SOL    HW2 2817   5.561   4.993   2.840
  640SOL     OW 2818   7.023   2.717   2.691
  640SOL    HW1 2819   0.032   2.700   2.598
  640SOL    HW2 2820   6.966   2.640   2.720
  641SOL     OW 2821   1.998   4.679   5.379
  641SOL    HW1 2822   1.959   4.751   5.437
  641SOL    HW2 2823   1.948   4.594   5.393
  642SOL     OW 2824   0.969   4.035   4.517
  642SOL    HW1 2825   1.002   3.952   4.562
  642SOL    HW2 2826   0.999   4.036   4.421
  643SOL     OW 2827   5.255   6.473   6.953
  643SOL    HW1 2828   5.272   6.449   0.023
  643SOL    HW2 2829   5.171   6.528   6.947
  644SOL     OW 2830   0.538   0.217   4.517
  644SOL    HW1 2831   0.509   0.122   4.503
  644SOL    HW2 2832   0.593   0.223   4.600
  645SOL     OW 2833   3.664   4.975   2.827
  645SOL    HW1 2834   3.637   4.979   2.731
  645SOL    HW2 2835   3.612   4.903   2.873
  646SOL     OW 2836   3.710   0.775   5.259
  646SOL    HW1 2837   3.808   0.754   5.255
  646SOL    HW2 2838   3.691   0.856   5.203
  647SOL     OW 2839   5.033   1.984   4.478
  647SOL    HW1 2840   5.110   2.048   4.485
  647SOL    HW2 2841   4.948   2.036   4.471
  648SOL     OW 2842   6.021   1.558   2.886
  648SOL    HW1 2843   6.066   1.481   2.840
  648SOL    HW2 2844   5.938   1.583   2.835
  649SOL     OW 2845   2.197   4.948   0.409
  649SOL    HW1 2846   2.145   5.018   0.361
  649SOL    HW2 2847   2.209   4.868   0.350
  650SOL     OW 2848   6.431   5.540   0.609
  650SOL    HW1 2849   6.459   5.617   0.666
  650SOL    HW2 2850   6.476   5.546   0.520
  651SOL     OW 2851   1.343   0.247   5.826
  651SOL    HW1 2852   1.411   0.314   5.856
  651SOL    HW2 2853   1.340   0.244   5.727
  652SOL     OW 2854   4.299   0.768   2.063
  652SOL    HW1 2855   4.298   0.814   2.152
  652SOL    HW2 2856   4.243   0.686   2.068
  653SOL     OW 2857   6.598   6.388   0.802
  653SOL    HW1 2858   6.513   6.421   0.760
  653SOL    HW2 2859   6.672   6.450   0.778
  654SOL     OW 2860   6.680   6.459   5.545
  654SOL    HW1 2861   6.666   6.381   5.484
  654SOL    HW2 2862   6.627   6.537   5.512
  655SOL     OW 2863   0.312   5.069   2.188
  655SOL    HW1 2864   0.282   5.014   2.110
  655SOL    HW2 2865   0.392   5.027   2.231
  656SOL     OW 2866   3.209   6.564   0.763
  656SOL    HW1 2867   3.176   6.581   0.670
  656SOL    HW2 2868   3.191   6.645   0.820
  657SOL     OW 2869   3.698   3.230   2.060
  657SOL    HW1 2870   3.622   3.175   2.026
  657SOL    HW2 2871   3.779   3.214   2.003
  658SOL     OW 2872   2.133   4.119   4.114
  658SOL    HW1 2873   2.125   4.196   4.178
  658SOL    HW2 2874   2.106   4.034   4.159
  659SOL     OW 2875   3.790   6.181   5.771
  659SOL    HW1 2876   3.795   6.111   5.842
  659SOL    HW2 2877   3.705   6.171   5.719
  660SOL     OW 2878   5.157   4.603   2.622
  660SOL    HW1 2879   5.116   4.636   2.708
  660SOL    HW2 2880   5.084   4.570   2.562
  661SOL     OW 2881   5.028   4.046   4.244
  661SOL    HW1 2882   5.079   4.082   4.166
  661SOL    HW2 2883   4.941   4.094   4.252
  662SOL     OW 2884   4.730   2.792   6.863
  662SOL    HW1 2885   4.713   2.740   6.779
  662SOL    HW2 2886   4.652   2.781   6.925
  663SOL     OW 2887   6.854   4.145   6.949
  663SOL    HW1 2888   6.894   4.199   7.024
  663SOL    HW2 2889   6.852   4.049   6.975
  664SOL     OW 2890   1.500   5.948   6.330
  664SOL    HW1 2891   1.479   5.999   6.246
  664SOL    HW2 2892   1.536   6.010   6.399
  665SOL     OW 2893   3.616   5.373   1.434
  665SOL    HW1 2894   3.704   5.352   1.478
  665SOL    HW2 2895   3.633   5.426   1.351
  666SOL     OW 2896   3.895   1.726   6.939
  666SOL    HW1 2897   3.948   1.802   6.978
  666SOL    HW2 2898   3.911   1.643   6.994
  667SOL     OW 2899   0.547   2.799   3.715
  667SOL    HW1 2900   0.612   2.865   3.753
  667SOL    HW2 2901   0.481   2.847   3.656
  668SOL     OW 2902   4.425   6.677   6.890
  668SOL    HW1 2903   4.395   6.769   6.867
  668SOL    HW2 2904   4.521   6.680   6.921
  669SOL     OW 2905   0.886   0.075   3.493
  669SOL    HW1 2906   0.821   0.099   3.565
  669SOL    HW2 2907   0.854   7.019   3.445
  670SOL     OW 2908   3.387   3.789   2.845
  670SOL    HW1 2909   3.294   3.761   2.823
  670SOL    HW2 2910   3.390   3.826   2.937
  671SOL     OW 2911   1.667   6.143   6.100
  671SOL    HW1 2912   1.706   6.142   6.008
  671SOL    HW2 2913   1.569   6.162   6.094
  672SOL     OW 2914   1.099   3.030   4.285
  672SOL    HW1 2915   1.011   3.071   4.310
  672SOL    HW2 2916   1.170   3.060   4.349
  673SOL     OW 2917   4.930   0.702   6.833
  673SOL    HW1 2918   4.926   0.604   6.849
  673SOL    HW2 2919   5.014   0.724   6.783
  674SOL     OW 2920   0.710   2.601   3.592
  674SOL    HW1 2921   0.647   2.671   3.626
  674SOL    HW2 2922   0.804   2.632   3.604
  675SOL     OW 2923   0.528   2.492   4.426
  675SOL    HW1 2924   0.560   2.568   4.483
  675SOL    HW2 2925   0.606   2.433   4.404
  676SOL     OW 2926   2.913   4.793   4.279
  676SOL    HW1 2927   2.909   4.803   4.179
  676SOL    HW2 2928   2.845   4.727   4.309
  677SOL     OW 2929   6.288   0.329   0.619
  677SOL    HW1 2930   6.276   0.249   0.560
  677SOL    HW2 2931   6.257   0.308   0.711
  678SOL     OW 2932   2.699   1.011   5.787
  678SOL    HW1 2933   2.771   0.966   5.734
  678SOL    HW2 2934   2.664   1.089   5.735
  679SOL     OW 2935   3.634   0.977   3.235
  679SOL    HW1 2936   3.657   0.921   3.314
  679SOL    HW2 2937   3.687   1.061   3.237
  680SOL     OW 2938   5.638   3.722   5.741
  680SOL    HW1 2939   5.573   3.777   5.689
  680SOL    HW2 2940   5.599   3.631   5.757
  681SOL     OW 2941   6.509   6.373   1.082
  681SOL    HW1 2942   6.417   6.342   1.106
  681SOL    HW2 2943   6.516   6.384   0.983
  682SOL     OW 2944   2.016   6.845   0.175
  682SOL    HW1 2945   2.014   6.753   0.136
  682SOL    HW2 2946   2.042   6.911   0.105
  683SOL     OW 2947   4.011   1.489   6.039
  683SOL    HW1 2948   4.084   1.476   5.971
  683SOL    HW2 2949   3.925   1.454   6.002
  684SOL     OW 2950   0.044   6.826   6.342
  684SOL    HW1 2951   0.121   6.764   6.324
  684SOL    HW2 2952   0.073   6.896   6.408
  685SOL     OW 2953   4.794   0.053   6.333
  685SOL    HW1 2954   4.770   0.052   6.430
  685SOL    HW2 2955   4.808   0.148   6.304
  686SOL     OW 2956   5.287   2.835   3.541
  686SOL    HW1 2957   5.305   2.854   3.637
  686SOL    HW2 2958   5.221   2.761   3.533
  687SOL     OW 2959   6.926   3.336   6.530
  687SOL    HW1 2960   6.987   3.333   6.609
  687SOL    HW2 2961   6.874   3.251   6.524
  688SOL     OW 2962   2.042   3.594   7.021
  688SOL    HW1 2963   2.061   3.512   0.049
  688SOL    HW2 2964   2.124   3.620   6.969
  689SOL     OW 2965   0.668   4.325   6.520
  689SOL    HW1 2966   0.683   4.263   6.443
  689SOL    HW2 2967   0.596   4.390   6.497
  690SOL     OW 2968   1.373   2.183   3.995
  690SOL    HW1 2969   1.415   2.155   4.081
  690SOL    HW2 2970   1.440   2.176   3.921
  691SOL     OW 2971   1.584   2.515   6.359
  691SOL    HW1 2972   1.552   2.593   6.305
  691SOL    HW2 2973   1.530   2.434   6.335
  692SOL     OW 2974   2.646   6.731   3.223
  692SOL    HW1 2975   2.683   6.641   3.242
  692SOL    HW2 2976   2.664   6.756   3.128
  693SOL     OW 2977   6.504   1.986   2.398
  693SOL    HW1 2978   6.475   1.905   2.346
  693SOL    HW2 2979   6.489   2.068   2.343
  694SOL     OW 2980   3.337   5.524   1.126
  694SOL    HW1 2981   3.299   5.589   1.192
  694SOL    HW2 2982   3.431   5.549   1.104
  695SOL     OW 2983   5.205   5.434   5.044
  695SOL    HW1 2984   5.198   5.377   5.126
  695SOL    HW2 2985   5.279   5.501   5.056
  696SOL     OW 2986   3.169   5.246   2.204
  696SOL    HW1 2987   3.105   5.268   2.277
  696SOL    HW2 2988   3.225   5.327   2.184
  697SOL     OW 2989   1.184   3.485   5.183
  697SOL    HW1 2990   1.268   3.468   5.234
  697SOL    HW2 2991   1.180   3.582   5.156
  698SOL     OW 2992   4.690   0.426   3.269
  698SOL    HW1 2993   4.699   0.327   3.257
  698SOL    HW2 2994   4.770   0.461   3.319
  699SOL     OW 2995   1.891   4.624   1.136
  699SOL    HW1 2996   1.935   4.604   1.048
  699SOL    HW2 2997   1.832   4.547   1.161
  700SOL     OW 2998   2.639   2.416   3.970
  700SOL    HW1 2999   2.607   2.475   3.896
  700SOL    HW2 3000   2.581   2.335   3.976
  701SOL     OW 3001   0.939   4.674   6.978
  701SOL    HW1 3002   0.893   4.605   6.923
  701SOL    HW2 3003   1.034   4.647   6.992
  702SOL     OW 3004   5.070   6.891   4.853
  702SOL    HW1 3005   5.158   6.849   4.872
  702SOL    HW2 3006   4.997   6.824   4.870
  703SOL     OW 3007   4.540   3.477   6.595
  703SOL    HW1 3008   4.513   3.512   6.505
  703SOL    HW2 3009   4.522   3.548   6.664
  704SOL     OW 3010   1.275   1.200   6.315
  704SOL    HW1 3011   1.283   1.187   6.216
  704SOL    HW2 3012   1.366   1.200   6.356
  705SOL     OW 3013   4.929   0.771   3.602
  705SOL    HW1 3014   4.979   0.779   3.688
  705SOL    HW2 3015   4.859   0.700   3.611
  706SOL     OW 3016   3.539   2.003   4.251
  706SOL    HW1 3017   3.576   1.932   4.311
  706SOL    HW2 3018   3.564   1.984   4.156
  707SOL     OW 3019   4.724   0.672   1.701
  707SOL    HW1 3020   4.628   0.692   1.721
  707SOL    HW2 3021   4.747   0.707   1.610
  708SOL     OW 3022   4.755   0.342   1.297
  708SOL    HW1 3023   4.678   0.401   1.275
  708SOL    HW2 3024   4.830   0.396   1.333
  709SOL     OW 3025   1.084   4.886   1.080
  709SOL    HW1 3026   1.165   4.853   1.031
  709SOL    HW2 3027   1.110   4.911   1.174
  710SOL     OW 3028   3.409   3.833   2.274
  710SOL    HW1 3029   3.400   3.821   2.373
  710SOL    HW2 3030   3.319   3.838   2.232
  711SOL     OW 3031   6.553   2.764   5.153
  711SOL    HW1 3032   6.649   2.773   5.177
  711SOL    HW2 3033   6.508   2.702   5.217
  712SOL     OW 3034   1.009   3.573   1.004
  712SOL    HW1 3035   1.061   3.657   1.018
  712SOL    HW2 3036   0.921   3.594   0.962
  713SOL     OW 3037   4.113   3.184   2.508
  713SOL    HW1 3038   4.128   3.210   2.413
  713SOL    HW2 3039   4.190   3.217   2.564
  714SOL     OW 3040   5.615   4.432   5.374
  714SOL    HW1 3041   5.672   4.372   5.318
  714SOL    HW2 3042   5.537   4.464   5.319
  715SOL     OW 3043   4.386   5.997   6.797
  715SOL    HW1 3044   4.302   5.955   6.762
  715SOL    HW2 3045   4.464   5.937   6.776
  716SOL     OW 3046   0.441   4.929   1.592
  716SOL    HW1 3047   0.405   4.934   1.498
  716SOL    HW2 3048   0.537   4.957   1.592
  717SOL     OW 3049   5.974   4.108   6.890
  717SOL    HW1 3050   5.922   4.133   6.973
  717SOL    HW2 3051   6.066   4.080   6.916
  718SOL     OW 3052   3.655   2.574   5.703
  718SOL    HW1 3053   3.688   2.653   5.755
  718SOL    HW2 3054   3.593   2.605   5.631
  719SOL     OW 3055   6.839   2.937   1.338
  719SOL    HW1 3056   6.836   2.980   1.248
  719SOL    HW2 3057   6.754   2.955   1.387
  720SOL     OW 3058   2.245   1.524   5.374
  720SOL    HW1 3059   2.344   1.518   5.374
  720SOL    HW2 3060   2.206   1.448   5.322
  721SOL     OW 3061   1.442   0.468   5.535
  721SOL    HW1 3062   1.529   0.442   5.493
  721SOL    HW2 3063   1.367   0.426   5.485
  722SOL     OW 3064   4.360   6.338   5.201
  722SOL    HW1 3065   4.434   6.404   5.214
  722SOL    HW2 3066   4.351   6.315   5.104
  723SOL     OW 3067   2.397   2.785   1.820
  723SOL    HW1 3068   2.372   2.689   1.831
  723SOL    HW2 3069   2.459   2.794   1.742
  724SOL     OW 3070   0.438   1.689   5.139
  724SOL    HW1 3071   0.481   1.708   5.051
  724SOL    HW2 3072   0.475   1.750   5.209
  725SOL     OW 3073   2.766   5.231   1.848
  725SOL    HW1 3074   2.771   5.148   1.793
  725SOL    HW2 3075   2.755   5.207   1.944
  726SOL     OW 3076   3.216   4.977   6.521
  726SOL    HW1 3077   3.128   4.929   6.514
  726SOL    HW2 3078   3.257   4.957   6.610
  727SOL     OW 3079   3.807   5.641   4.158
  727SOL    HW1 3080   3.906   5.651   4.154
  727SOL    HW2 3081   3.764   5.708   4.097
  728SOL     OW 3082   0.151   3.878   5.393
  728SOL    HW1 3083   0.241   3.874   5.436
  728SOL    HW2 3084   0.083   3.907   5.459
  729SOL     OW 3085   1.727   1.040   0.395
  729SOL    HW1 3086   1.701   0.953   0.353
  729SOL    HW2 3087   1.657   1.108   0.373
  730SOL     OW 3088   5.945   0.107   3.581
  730SOL    HW1 3089   6.013   0.178   3.597
  730SOL    HW2 3090   5.910   0.114   3.488
  731SOL     OW 3091   5.383   2.969   5.137
  731SOL    HW1 3092   5.464   2.952   5.194
  731SOL    HW2 3093   5.400   2.934   5.044
  732SOL     OW 3094   0.731   2.439   1.226
  732SOL    HW1 3095   0.736   2.538   1.239
  732SOL    HW2 3096   0.819   2.405   1.192
  733SOL     OW 3097   5.071   4.388   3.879
  733SOL    HW1 3098   5.034   4.481   3.871
  733SOL    HW2 3099   5.143   4.376   3.810
  734SOL     OW 3100   0.491   4.466   1.674
  734SOL    HW1 3101   0.399   4.428   1.676
  734SOL    HW2 3102   0.501   4.534   1.747
  735SOL     OW 3103   1.995   3.406   0.809
  735SOL    HW1 3104   2.068   3.386   0.744
  735SOL    HW2 3105   1.907   3.409   0.761
  736SOL     OW 3106   6.094   6.625   2.732
  736SOL    HW1 3107   5.994   6.622   2.733
  736SOL    HW2 3108   6.131   6.537   2.761
  737SOL     OW 3109   4.811   3.721   1.293
  737SOL    HW1 3110   4.870   3.791   1.251
  737SOL    HW2 3111   4.728   3.765   1.326
  738SOL     OW 3112   0.435   4.706   4.082
  738SOL    HW1 3113   0.406   4.611   4.066
  738SOL    HW2 3114   0.475   4.714   4.173
  739SOL     OW 3115   4.695   6.651   5.921
  739SOL    HW1 3116   4.631   6.724   5.899
  739SOL    HW2 3117   4.722   6.658   6.017
  740SOL     OW 3118   5.416   0.446   0.913
  740SOL    HW1 3119   5.424   0.493   0.825
  740SOL    HW2 3120   5.328   0.467   0.955
  741SOL     OW 3121   1.137   6.198   3.291
  741SOL    HW1 3122   1.206   6.206   3.363
  741SOL    HW2 3123   1.177   6.225   3.204
  742SOL     OW 3124   1.898   6.620   3.042
  742SOL    HW1 3125   1.801   6.592   3.043
  742SOL    HW2 3126   1.910   6.697   2.980
  743SOL     OW 3127   1.007   3.892   3.889
  743SOL    HW1 3128   1.036   3.801   3.918
  743SOL    HW2 3129   1.056   3.917   3.805
  744SOL     OW 3130   6.979   5.910   6.896
  744SOL    HW1 3131   7.020   5.819   6.896
  744SOL    HW2 3132   6.997   5.955   6.983
  745SOL     OW 3133   1.078   5.275   4.284
  745SOL    HW1 3134   1.095   5.284   4.186
  745SOL    HW2 3135   1.084   5.179   4.311
  746SOL     OW 3136   0.290   6.068   5.495
  746SOL    HW1 3137   0.365   6.098   5.436
  746SOL    HW2 3138   0.301   6.108   5.586
  747SOL     OW 3139   4.690   4.754   3.987
  747SOL    HW1 3140   4.678   4.848   3.956
  747SOL    HW2 3141   4.685   4.751   4.087
  748SOL     OW 3142   4.594   4.506   0.792
  748SOL    HW1 3143   4.600   4.604   0.807
  748SOL    HW2 3144   4.511   4.470   0.834
  749SOL     OW 3145   0.237   3.087   5.098
  749SOL    HW1 3146   0.254   3.147   5.177
  749SOL    HW2 3147   0.303   3.108   5.026
  750SOL     OW 3148   3.180   2.905   0.796
  750SOL    HW1 3149   3.113   2.963   0.842
  750SOL    HW2 3150   3.272   2.939   0.815
  751SOL     OW 3151   4.298   2.023   0.669
  751SOL    HW1 3152   4.326   1.939   0.623
  751SOL    HW2 3153   4.368   2.050   0.735
  752SOL     OW 3154   4.804   2.155   1.877
  752SOL    HW1 3155   4.873   2.226   1.891
  752SOL    HW2 3156   4.769   2.162   1.784
  753SOL     OW 3157   1.693   3.562   4.873
  753SOL    HW1 3158   1.719   3.659   4.878
  753SOL    HW2 3159   1.714   3.517   4.959
  754SOL     OW 3160   5.128   3.780   6.627
  754SOL    HW1 3161   5.169   3.763   6.537
  754SOL    HW2 3162   5.179   3.852   6.674
  755SOL     OW 3163   0.876   5.816   0.023
  755SOL    HW1 3164   0.872   5.752   6.973
  755SOL    HW2 3165   0.812   5.891   0.007
  756SOL     OW 3166   4.935   0.636   2.271
  756SOL    HW1 3167   4.862   0.662   2.334
  756SOL    HW2 3168   4.895   0.613   2.182
  757SOL     OW 3169   0.755   6.545   3.871
  757SOL    HW1 3170   0.700   6.558   3.953
  757SOL    HW2 3171   0.799   6.631   3.846
  758SOL     OW 3172   3.466   1.948   1.346
  758SOL    HW1 3173   3.433   1.879   1.411
  758SOL    HW2 3174   3.483   2.034   1.395
  759SOL     OW 3175   0.358   1.167   0.353
  759SOL    HW1 3176   0.408   1.155   0.268
  759SOL    HW2 3177   0.346   1.265   0.372
  760SOL     OW 3178   4.735   1.838   6.599
  760SOL    HW1 3179   4.733   1.746   6.639
  760SOL    HW2 3180   4.717   1.832   6.501
  761SOL     OW 3181   5.902   3.640   0.559
  761SOL    HW1 3182   5.908   3.702   0.637
  761SOL    HW2 3183   5.837   3.567   0.578
  762SOL     OW 3184   2.036   6.030   3.372
  762SOL    HW1 3185   2.104   6.017   3.300
  762SOL    HW2 3186   1.996   6.121   3.365
  763SOL     OW 3187   3.853   5.767   0.145
  763SOL    HW1 3188   3.799   5.712   0.082
  763SOL    HW2 3189   3.948   5.736   0.144
  764SOL     OW 3190   3.064   1.208   3.219
  764SOL    HW1 3191   3.023   1.286   3.171
  764SOL    HW2 3192   3.007   1.185   3.298
  765SOL     OW 3193   0.939   6.375   1.032
  765SOL    HW1 3194   0.925   6.292   1.086
  765SOL    HW2 3195   1.004   6.357   0.958
  766SOL     OW 3196   6.799   0.943   6.581
  766SOL    HW1 3197   6.839   0.989   6.660
  766SOL    HW2 3198   6.858   0.957   6.501
  767SOL     OW 3199   0.698   6.638   1.712
  767SOL    HW1 3200   0.726   6.721   1.663
  767SOL    HW2 3201   0.779   6.584   1.734
  768SOL     OW 3202   2.076   0.258   2.919
  768SOL    HW1 3203   1.984   0.287   2.892
  768SOL    HW2 3204   2.070   0.201   3.001
  769SOL     OW 3205   3.320   0.464   4.406
  769SOL    HW1 3206   3.385   0.518   4.459
  769SOL    HW2 3207   3.289   0.387   4.461
  770SOL     OW 3208   2.920   5.608   3.287
  770SOL    HW1 3209   2.904   5.689   3.232
  770SOL    HW2 3210   2.838   5.587   3.340
  771SOL     OW 3211   1.997   5.368   2.742
  771SOL    HW1 3212   1.994   5.329   2.834
  771SOL    HW2 3213   1.905   5.396   2.715
  772SOL     OW 3214   6.928   4.465   0.475
  772SOL    HW1 3215   7.023   4.435   0.488
  772SOL    HW2 3216   6.889   4.490   0.563
  773SOL     OW 3217   6.990   2.836   3.918
  773SOL    HW1 3218   6.962   2.930   3.940
  773SOL    HW2 3219   0.036   2.808   3.981
  774SOL     OW 3220   1.817   2.162   2.029
  774SOL    HW1 3221   1.795   2.238   1.967
  774SOL    HW2 3222   1.767   2.173   2.115
  775SOL     OW 3223   1.229   1.902   4.226
  775SOL    HW1 3224   1.135   1.934   4.235
  775SOL    HW2 3225   1.264   1.925   4.135
  776SOL     OW 3226   0.690   6.650   5.798
  776SOL    HW1 3227   0.790   6.646   5.798
  776SOL    HW2 3228   0.654   6.567   5.840
  777SOL     OW 3229   3.579   0.802   1.239
  777SOL    HW1 3230   3.521   0.723   1.219
  777SOL    HW2 3231   3.666   0.792   1.191
  778SOL     OW 3232   4.276   0.614   3.812
  778SOL    HW1 3233   4.335   0.607   3.732
  778SOL    HW2 3234   4.220   0.532   3.820
  779SOL     OW 3235   0.171   1.913   1.990
  779SOL    HW1 3236   0.211   1.958   1.910
  779SOL    HW2 3237   0.242   1.897   2.059
  780SOL     OW 3238   5.961   2.689   4.267
  780SOL    HW1 3239   5.864   2.693   4.287
  780SOL    HW2 3240   5.987   2.594   4.248
  781SOL     OW 3241   5.864   1.408   6.118
  781SOL    HW1 3242   5.844   1.345   6.193
  781SOL    HW2 3243   5.835   1.366   6.032
  782SOL     OW 3244   0.772   3.709   0.898
  782SOL    HW1 3245   0.736   3.733   0.808
  782SOL    HW2 3246   0.717   3.636   0.938
  783SOL     OW 3247   3.055   5.622   0.249
  783SOL    HW1 3248   3.136   5.564   0.243
  783SOL    HW2 3249   2.989   5.594   0.180
  784SOL     OW 3250   4.531   0.435   5.104
  784SOL    HW1 3251   4.543   0.462   5.008
  784SOL    HW2 3252   4.619   0.409   5.143
  785SOL     OW 3253   6.243   1.789   2.709
  785SOL    HW1 3254   6.334   1.779   2.750
  785SOL    HW2 3255   6.214   1.701   2.671
  786SOL     OW 3256   6.785   0.570   0.026
  786SOL    HW1 3257   6.884   0.585   0.036
  786SOL    HW2 3258   6.739   0.657   0.011
  787SOL     OW 3259   3.021   1.260   6.036
  787SOL    HW1 3260   3.034   1.162   6.027
  787SOL    HW2 3261   2.928   1.285   6.008
  788SOL     OW 3262   2.076   3.340   4.350
  788SOL    HW1 3263   2.098   3.298   4.437
  788SOL    HW2 3264   2.113   3.285   4.275
  789SOL     OW 3265   6.267   4.194   2.198
  789SOL    HW1 3266   6.347   4.160   2.248
  789SOL    HW2 3267   6.286   4.288   2.167
  790SOL     OW 3268   2.473   1.456   4.205
  790SOL    HW1 3269   2.476   1.383   4.136
  790SOL    HW2 3270   2.546   1.522   4.187
  791SOL     OW 3271   4.117   0.319   4.254
  791SOL    HW1 3272   4.046   0.319   4.325
  791SOL    HW2 3273   4.119   0.408   4.209
  792SOL     OW 3274   6.218   0.274   1.949
  792SOL    HW1 3275   6.167   0.193   1.978
  792SOL    HW2 3276   6.162   0.356   1.962
  793SOL     OW 3277   4.605   6.140   1.891
  793SOL    HW1 3278   4.637   6.047   1.873
  793SOL    HW2 3279   4.580   6.148   1.988
  794SOL     OW 3280   2.667   4.784   5.605
  794SOL    HW1 3281   2.667   4.687   5.631
  794SOL    HW2 3282   2.729   4.797   5.528
  795SOL     OW 3283   3.250   5.223   5.664
  795SOL    HW1 3284   3.235   5.282   5.586
  795SOL    HW2 3285   3.241   5.127   5.636
  796SOL     OW 3286   0.195   2.024   6.003
  796SOL    HW1 3287   0.294   2.015   6.014
  796SOL    HW2 3288   0.174   2.104   5.948
  797SOL     OW 3289   4.810   2.383   2.137
  797SOL    HW1 3290   4.893   2.370   2.083
  797SOL    HW2 3291   4.766   2.295   2.154
  798SOL     OW 3292   4.404   0.436   1.031
  798SOL    HW1 3293   4.422   0.490   0.949
  798SOL    HW2 3294   4.425   0.490   1.113
  799SOL     OW 3295   6.561   2.169   3.100
  799SOL    HW1 3296   6.654   2.136   3.087
  799SOL    HW2 3297   6.563   2.268   3.114
  800SOL     OW 3298   5.547   0.746   2.303
  800SOL    HW1 3299   5.555   0.646   2.295
  800SOL    HW2 3300   5.494   0.781   2.227
  801SOL     OW 3301   1.241   2.712   3.411
  801SOL    HW1 3302   1.278   2.624   3.441
  801SOL    HW2 3303   1.292   2.787   3.453
  802SOL     OW 3304   4.603   1.389   0.514
  802SOL    HW1 3305   4.594   1.329   0.435
  802SOL    HW2 3306   4.700   1.412   0.527
  803SOL     OW 3307   5.987   6.106   4.564
  803SOL    HW1 3308   5.934   6.044   4.621
  803SOL    HW2 3309   6.041   6.053   4.498
  804SOL     OW 3310   6.662   6.568   0.562
  804SOL    HW1 3311   6.611   6.482   0.565
  804SOL    HW2 3312   6.638   6.624   0.642
  805SOL     OW 3313   4.320   2.805   5.828
  805SOL    HW1 3314   4.369   2.867   5.767
  805SOL    HW2 3315   4.383   2.735   5.861
  806SOL     OW 3316   3.998   1.399   5.286
  806SOL    HW1 3317   4.011   1.308   5.324
  806SOL    HW2 3318   3.900   1.416   5.273
  807SOL     OW 3319   1.213   0.937   3.901
  807SOL    HW1 3320   1.207   0.859   3.839
  807SOL    HW2 3321   1.219   0.904   3.995
  808SOL     OW 3322   4.897   3.301   6.035
  808SOL    HW1 3323   4.974   3.277   6.094
  808SOL    HW2 3324   4.842   3.373   6.079
  809SOL     OW 3325   1.257   4.709   0.985
  809SOL    HW1 3326   1.308   4.768   0.922
  809SOL    HW2 3327   1.316   4.635   1.016
  810SOL     OW 3328   4.620   3.609   0.970
  810SOL    HW1 3329   4.545   3.583   0.910
  810SOL    HW2 3330   4.615   3.555   1.054
  811SOL     OW 3331   4.800   5.727   3.699
  811SOL    HW1 3332   4.856   5.810   3.705
  811SOL    HW2 3333   4.751   5.726   3.612
  812SOL     OW 3334   7.008   0.539   1.216
  812SOL    HW1 3335   6.938   0.604   1.186
  812SOL    HW2 3336   6.985   0.448   1.183
  813SOL     OW 3337   4.523   6.417   2.947
  813SOL    HW1 3338   4.521   6.403   3.046
  813SOL    HW2 3339   4.431   6.403   2.909
  814SOL     OW 3340   5.370   6.339   2.573
  814SOL    HW1 3341   5.324   6.320   2.660
  814SOL    HW2 3342   5.367   6.438   2.555
  815SOL     OW 3343   6.243   2.618   1.745
  815SOL    HW1 3344   6.145   2.640   1.745
  815SOL    HW2 3345   6.257   2.530   1.701
  816SOL     OW 3346   6.754   6.294   0.389
  816SOL    HW1 3347   6.660   6.268   0.366
  816SOL    HW2 3348   6.798   6.335   0.309
  817SOL     OW 3349   1.677   4.278   2.281
  817SOL    HW1 3350   1.759   4.224   2.259
  817SOL    HW2 3351   1.703   4.358   2.334
  818SOL     OW 3352   6.133   2.891   0.247
  818SOL    HW1 3353   6.146   2.897   0.346
  818SOL    HW2 3354   6.047   2.937   0.223
  819SOL     OW 3355   6.140   2.625   4.592
  819SOL    HW1 3356   6.180   2.665   4.509
  819SOL    HW2 3357   6.045   2.655   4.601
  820SOL     OW 3358   1.473   2.967   4.805
  820SOL    HW1 3359   1.387   2.917   4.807
  820SOL    HW2 3360   1.510   2.966   4.712
  821SOL     OW 3361   1.880   5.013   0.583
  821SOL    HW1 3362   1.872   5.020   0.682
  821SOL    HW2 3363   1.966   5.054   0.553
  822SOL     OW 3364   0.964   4.751   4.791
  822SOL    HW1 3365   1.061   4.736   4.772
  822SOL    HW2 3366   0.927   4.674   4.842
  823SOL     OW 3367   4.884   4.226   6.321
  823SOL    HW1 3368   4.843   4.317   6.322
  823SOL    HW2 3369   4.834   4.167   6.385
  824SOL     OW 3370   4.769   1.351   4.840
  824SOL    HW1 3371   4.824   1.414   4.895
  824SOL    HW2 3372   4.799   1.257   4.856
  825SOL     OW 3373   2.133   3.166   2.386
  825SOL    HW1 3374   2.181   3.254   2.384
  825SOL    HW2 3375   2.134   3.126   2.294
  826SOL     OW 3376   5.700   3.905   0.886
  826SOL    HW1 3377   5.632   3.967   0.848
  826SOL    HW2 3378   5.664   3.863   0.969
  827SOL     OW 3379   3.652   5.642   5.821
  827SOL    HW1 3380   3.718   5.717   5.817
  827SOL    HW2 3381   3.626   5.625   5.916
  828SOL     OW 3382   6.158   0.649   5.006
  828SOL    HW1 3383   6.131   0.571   5.063
  828SOL    HW2 3384   6.107   0.645   4.920
  829SOL     OW 3385   3.207   3.070   3.883
  829SOL    HW1 3386   3.262   3.001   3.836
  829SOL    HW2 3387   3.120   3.029   3.912
  830SOL     OW 3388   5.123   4.774   5.486
  830SOL    HW1 3389   5.070   4.726   5.555
  830SOL    HW2 3390   5.212   4.729   5.476
  831SOL     OW 3391   6.857   6.710   4.650
  831SOL    HW1 3392   6.815   6.735   4.563
  831SOL    HW2 3393   6.858   6.610   4.660
  832SOL     OW 3394   2.492   1.466   0.122
  832SOL    HW1 3395   2.457   1.559   0.120
  832SOL    HW2 3396   2.545   1.452   0.205
  833SOL     OW 3397   6.374   6.546   6.276
  833SOL    HW1 3398   6.286   6.522   6.317
  833SOL    HW2 3399   6.445   6.546   6.347
  834SOL     OW 3400   3.583   3.456   3.217
  834SOL    HW1 3401   3.504   3.516   3.210
  834SOL    HW2 3402   3.661   3.498   3.170
  835SOL     OW 3403   4.011   6.840   3.522
  835SOL    HW1 3404   4.019   6.744   3.493
  835SOL    HW2 3405   3.958   6.845   3.606
  836SOL     OW 3406   3.553   6.413   7.014
  836SOL    HW1 3407   3.651   6.415   6.994
  836SOL    HW2 3408   3.536   6.361   0.072
  837SOL     OW 3409   5.269   0.453   0.286
  837SOL    HW1 3410   5.324   0.496   0.214
  837SOL    HW2 3411   5.246   0.521   0.355
  838SOL     OW 3412   0.876   6.631   5.278
  838SOL    HW1 3413   0.927   6.554   5.316
  838SOL    HW2 3414   0.790   6.597   5.238
  839SOL     OW 3415   2.816   1.630   3.258
  839SOL    HW1 3416   2.750   1.687   3.209
  839SOL    HW2 3417   2.800   1.638   3.356
  840SOL     OW 3418   0.505   1.149   6.690
  840SOL    HW1 3419   0.600   1.130   6.713
  840SOL    HW2 3420   0.452   1.163   6.774
  841SOL     OW 3421   6.258   3.983   6.959
  841SOL    HW1 3422   6.302   3.897   6.987
  841SOL    HW2 3423   6.251   4.044   0.012
  842SOL     OW 3424   3.850   5.368   3.225
  842SOL    HW1 3425   3.791   5.295   3.260
  842SOL    HW2 3426   3.944   5.336   3.219
  843SOL     OW 3427   6.035   2.565   0.330
  843SOL    HW1 3428   5.981   2.648   0.331
  843SOL    HW2 3429   5.976   2.486   0.347
  844SOL     OW 3430   5.179   6.331   0.981
  844SOL    HW1 3431   5.256   6.355   1.040
  844SOL    HW2 3432   5.133   6.250   1.018
  845SOL     OW 3433   6.212   3.367   5.221
  845SOL    HW1 3434   6.232   3.301   5.149
  845SOL    HW2 3435   6.252   3.335   5.307
  846SOL     OW 3436   5.984   1.718   0.448
  846SOL    HW1 3437   5.930   1.782   0.393
  846SOL    HW2 3438   6.019   1.764   0.529
  847SOL     OW 3439   6.154   3.413   1.376
  847SOL    HW1 3440   6.245   3.448   1.353
  847SOL    HW2 3441   6.149   3.315   1.358
  848SOL     OW 3442   6.383   0.422   6.183
  848SOL    HW1 3443   6.424   0.398   6.271
  848SOL    HW2 3444   6.411   0.356   6.114
  849SOL     OW 3445   0.104   6.051   5.273
  849SOL    HW1 3446   0.146   6.011   5.191
  849SOL    HW2 3447   0.165   6.037   5.351
  850SOL     OW 3448   4.495   0.661   3.606
  850SOL    HW1 3449   4.589   0.626   3.612
  850SOL    HW2 3450   4.494   0.759   3.626
  851SOL     OW 3451   0.187   1.430   6.816
  851SOL    HW1 3452   0.231   1.465   6.899
  851SOL    HW2 3453   0.229   1.472   6.736
  852SOL     OW 3454   2.450   2.434   6.825
  852SOL    HW1 3455   2.482   2.431   6.730
  852SOL    HW2 3456   2.521   2.399   6.886
  853SOL     OW 3457   1.168   2.998   2.923
  853SOL    HW1 3458   1.221   2.946   2.990
  853SOL    HW2 3459   1.071   2.975   2.933
  854SOL     OW 3460   5.846   6.581   3.080
  854SOL    HW1 3461   5.777   6.546   3.143
  854SOL    HW2 3462   5.809   6.582   2.987
  855SOL     OW 3463   5.416   0.436   1.810
  855SOL    HW1 3464   5.436   0.534   1.814
  855SOL    HW2 3465   5.461   0.395   1.731
  856SOL     OW 3466   1.646   0.688   5.536
  856SOL    HW1 3467   1.560   0.638   5.530
  856SOL    HW2 3468   1.722   0.623   5.543
  857SOL     OW 3469   5.769   4.160   1.228
  857SOL    HW1 3470   5.812   4.180   1.315
  857SOL    HW2 3471   5.794   4.068   1.198
  858SOL     OW 3472   2.606   4.759   1.576
  858SOL    HW1 3473   2.596   4.670   1.530
  858SOL    HW2 3474   2.599   4.746   1.675
  859SOL     OW 3475   5.921   4.928   6.730
  859SOL    HW1 3476   5.867   4.874   6.665
  859SOL    HW2 3477   6.018   4.912   6.713
  860SOL     OW 3478   3.462   4.560   6.938
  860SOL    HW1 3479   3.498   4.485   6.994
  860SOL    HW2 3480   3.534   4.627   6.922
  861SOL     OW 3481   3.049   6.688   4.875
  861SOL    HW1 3482   2.994   6.680   4.958
  861SOL    HW2 3483   3.099   6.603   4.860
  862SOL     OW 3484   6.371   4.239   4.827
  862SOL    HW1 3485   6.445   4.302   4.848
  862SOL    HW2 3486   6.294   4.290   4.789
  863SOL     OW 3487   0.642   0.441   0.787
  863SOL    HW1 3488   0.616   0.403   0.698
  863SOL    HW2 3489   0.562   0.485   0.829
  864SOL     OW 3490   4.990   4.130   3.518
  864SOL    HW1 3491   4.902   4.176   3.522
  864SOL    HW2 3492   5.044   4.153   3.600
  865SOL     OW 3493   0.913   6.837   4.322
  865SOL    HW1 3494   0.898   6.902   4.248
  865SOL    HW2 3495   0.952   6.885   4.401
  866SOL     OW 3496   2.576   1.422   2.044
  866SOL    HW1 3497   2.564   1.502   1.985
  866SOL    HW2 3498   2.673   1.396   2.047
  867SOL     OW 3499   3.106   3.095   0.502
  867SOL    HW1 3500   3.044   3.118   0.577
  867SOL    HW2 3501   3.073   3.013   0.455
  868SOL     OW 3502   5.869   0.347   2.782
  868SOL    HW1 3503   5.804   0.272   2.791
  868SOL    HW2 3504   5.962   0.313   2.795
  869SOL     OW 3505   6.505   5.975   2.374
  869SOL    HW1 3506   6.451   6.012   2.449
  869SOL    HW2 3507   6.602   5.987   2.393
  870SOL     OW 3508   0.381   3.108   1.506
  870SOL    HW1 3509   0.359   3.014   1.483
  870SOL    HW2 3510   0.379   3.119   1.606
  871SOL     OW 3511   6.938   2.577   1.947
  871SOL    HW1 3512   6.884   2.509   1.996
  871SOL    HW2 3513   6.929   2.666   1.993
  872SOL     OW 3514   6.319   2.824   4.725
  872SOL    HW1 3515   6.269   2.749   4.680
  872SOL    HW2 3516   6.378   2.868   4.658
  873SOL     OW 3517   3.935   6.838   2.859
  873SOL    HW1 3518   3.937   6.933   2.828
  873SOL    HW2 3519   3.840   6.810   2.873
  874SOL     OW 3520   1.942   4.398   5.390
  874SOL    HW1 3521   1.873   4.326   5.391
  874SOL    HW2 3522   2.029   4.361   5.359
  875SOL     OW 3523   5.328   4.369   0.548
  875SOL    HW1 3524   5.302   4.462   0.575
  875SOL    HW2 3525   5.306   4.305   0.622
  876SOL     OW 3526   6.416   3.574   2.537
  876SOL    HW1 3527   6.411   3.506   2.464
  876SOL    HW2 3528   6.332   3.629   2.538
  877SOL     OW 3529   5.255   5.156   6.922
  877SOL    HW1 3530   5.225   5.064   6.895
  877SOL    HW2 3531   5.195   5.224   6.880
  878SOL     OW 3532   3.126   5.317   0.163
  878SOL    HW1 3533   3.027   5.331   0.160
  878SOL    HW2 3534   3.148   5.224   0.134
  879SOL     OW 3535   4.631   1.946   2.741
  879SOL    HW1 3536   4.665   1.852   2.748
  879SOL    HW2 3537   4.635   1.990   2.831
  880SOL     OW 3538   3.800   4.737   0.383
  880SOL    HW1 3539   3.851   4.671   0.439
  880SOL    HW2 3540   3.702   4.720   0.393
  881SOL     OW 3541   4.383   4.671   4.565
  881SOL    HW1 3542   4.407   4.630   4.652
  881SOL    HW2 3543   4.405   4.608   4.491
  882SOL     OW 3544   1.192   0.592   4.675
  882SOL    HW1 3545   1.175   0.678   4.628
  882SOL    HW2 3546   1.106   0.541   4.682
  883SOL     OW 3547   3.363   5.014   5.988
  883SOL    HW1 3548   3.371   4.938   6.053
  883SOL    HW2 3549   3.305   5.085   6.027
  884SOL     OW 3550   6.398   3.654   1.976
  884SOL    HW1 3551   6.401   3.554   1.969
  884SOL    HW2 3552   6.337   3.680   2.052
  885SOL     OW 3553   5.951   6.580   0.304
  885SOL    HW1 3554   5.882   6.599   0.234
  885SOL    HW2 3555   6.015   6.656   0.309
  886SOL     OW 3556   3.800   0.949   6.924
  886SOL    HW1 3557   3.883   0.970   6.871
  886SOL    HW2 3558   3.734   0.903   6.865
  887SOL     OW 3559   4.078   0.365   6.662
  887SOL    HW1 3560   4.175   0.389   6.654
  887SOL    HW2 3561   4.041   0.346   6.571
  888SOL     OW 3562   6.950   6.531   3.712
  888SOL    HW1 3563   6.972   6.513   3.616
  888SOL    HW2 3564   6.995   6.615   3.741
  889SOL     OW 3565   0.092   6.333   5.268
  889SOL    HW1 3566   0.002   6.361   5.303
  889SOL    HW2 3567   0.091   6.235   5.248
  890SOL     OW 3568   2.701   4.717   2.225
  890SOL    HW1 3569   2.664   4.798   2.179
  890SOL    HW2 3570   2.743   4.656   2.158
  891SOL     OW 3571   5.628   2.775   1.227
  891SOL    HW1 3572   5.587   2.818   1.307
  891SOL    HW2 3573   5.612   2.676   1.231
  892SOL     OW 3574   2.600   3.416   1.026
  892SOL    HW1 3575   2.655   3.332   1.032
  892SOL    HW2 3576   2.623   3.464   0.941
  893SOL     OW 3577   1.333   0.673   0.165
  893SOL    HW1 3578   1.316   0.613   0.244
  893SOL    HW2 3579   1.328   0.768   0.195
  894SOL     OW 3580   1.047   5.891   4.483
  894SOL    HW1 3581   1.048   5.955   4.560
  894SOL    HW2 3582   0.953   5.879   4.451
  895SOL     OW 3583   2.090   0.235   4.201
  895SOL    HW1 3584   2.123   0.285   4.281
  895SOL    HW2 3585   2.094   0.137   4.219
  896SOL     OW 3586   5.974   6.469   3.646
  896SOL    HW1 3587   5.899   6.525   3.682
  896SOL    HW2 3588   5.940   6.377   3.624
  897SOL     OW 3589   5.205   2.723   6.520
  897SOL    HW1 3590   5.154   2.652   6.568
  897SOL    HW2 3591   5.222   2.800   6.582
  898SOL     OW 3592   5.027   6.337   3.951
  898SOL    HW1 3593   5.017   6.238   3.947
  898SOL    HW2 3594   4.953   6.376   4.005
  899SOL     OW 3595   0.250   5.076   6.828
  899SOL    HW1 3596   0.233   5.135   6.906
  899SOL    HW2 3597   0.198   5.108   6.749
  900SOL     OW 3598   0.383   6.576   3.427
  900SOL    HW1 3599   0.340   6.486   3.442
  900SOL    HW2 3600   0.424   6.608   3.512
  901SOL     OW 3601   6.479   1.164   3.915
  901SOL    HW1 3602   6.422   1.096   3.868
  901SOL    HW2 3603   6.569   1.124   3.934
  902SOL     OW 3604   6.847   0.388   6.322
  902SOL    HW1 3605   6.856   0.432   6.232
  902SOL    HW2 3606   6.799   0.450   6.384
  903SOL     OW 3607   0.079   4.428   1.060
  903SOL    HW1 3608   0.150   4.450   0.993
  903SOL    HW2 3609   0.120   4.422   1.151
  904SOL     OW 3610   1.735   1.589   3.582
  904SOL    HW1 3611   1.757   1.547   3.494
  904SOL    HW2 3612   1.807   1.654   3.607
  905SOL     OW 3613   5.285   2.478   5.884
  905SOL    HW1 3614   5.322   2.460   5.975
  905SOL    HW2 3615   5.185   2.469   5.887
  906SOL     OW 3616   0.122   4.419   6.111
  906SOL    HW1 3617   0.101   4.329   6.074
  906SOL    HW2 3618   0.082   4.490   6.053
  907SOL     OW 3619   5.973   2.674   2.804
  907SOL    HW1 3620   6.069   2.655   2.782
  907SOL    HW2 3621   5.924   2.588   2.815
  908SOL     OW 3622   1.809   6.966   3.869
  908SOL    HW1 3623   1.822   6.938   3.964
  908SOL    HW2 3624   1.714   6.995   3.855
  909SOL     OW 3625   3.139   0.692   1.069
  909SOL    HW1 3626   3.124   0.687   0.970
  909SOL    HW2 3627   3.054   0.666   1.116
  910SOL     OW 3628   1.814   1.240   0.749
  910SOL    HW1 3629   1.744   1.310   0.759
  910SOL    HW2 3630   1.773   1.150   0.761
  911SOL     OW 3631   0.709   4.259   1.655
  911SOL    HW1 3632   0.616   4.294   1.664
  911SOL    HW2 3633   0.762   4.284   1.736
  912SOL     OW 3634   6.891   0.959   6.170
  912SOL    HW1 3635   6.814   1.003   6.218
  912SOL    HW2 3636   6.955   0.921   6.237
  913SOL     OW 3637   2.520   0.766   2.884
  913SOL    HW1 3638   2.449   0.764   2.814
  913SOL    HW2 3639   2.540   0.861   2.909
  914SOL     OW 3640   2.693   6.130   3.819
  914SOL    HW1 3641   2.769   6.090   3.768
  914SOL    HW2 3642   2.725   6.211   3.869
  915SOL     OW 3643   0.570   2.864   0.052
  915SOL    HW1 3644   0.578   2.778   0.103
  915SOL    HW2 3645   0.591   2.940   0.113
  916SOL     OW 3646   2.570   2.334   3.115
  916SOL    HW1 3647   2.590   2.308   3.020
  916SOL    HW2 3648   2.529   2.425   3.117
  917SOL     OW 3649   3.875   1.364   1.527
  917SOL    HW1 3650   3.802   1.306   1.492
  917SOL    HW2 3651   3.850   1.400   1.617
  918SOL     OW 3652   2.478   5.959   6.450
  918SOL    HW1 3653   2.403   5.995   6.506
  918SOL    HW2 3654   2.446   5.879   6.400
  919SOL     OW 3655   1.174   5.847   1.848
  919SOL    HW1 3656   1.123   5.782   1.904
  919SOL    HW2 3657   1.271   5.820   1.846
  920SOL     OW 3658   2.527   0.266   2.980
  920SOL    HW1 3659   2.562   0.341   2.924
  920SOL    HW2 3660   2.453   0.299   3.038
  921SOL     OW 3661   5.709   4.996   4.618
  921SOL    HW1 3662   5.754   4.953   4.697
  921SOL    HW2 3663   5.648   4.929   4.575
  922SOL     OW 3664   2.939   3.611   6.939
  922SOL    HW1 3665   2.926   3.705   6.907
  922SOL    HW2 3666   3.021   3.605   6.996
  923SOL     OW 3667   3.091   6.539   6.499
  923SOL    HW1 3668   3.089   6.516   6.596
  923SOL    HW2 3669   3.167   6.603   6.481
  924SOL     OW 3670   5.955   3.692   2.294
  924SOL    HW1 3671   5.888   3.759   2.326
  924SOL    HW2 3672   5.913   3.631   2.227
  925SOL     OW 3673   0.203   1.993   5.303
  925SOL    HW1 3674   0.231   1.993   5.399
  925SOL    HW2 3675   0.109   2.026   5.296
  926SOL     OW 3676   5.101   6.103   0.427
  926SOL    HW1 3677   5.094   6.114   0.527
  926SOL    HW2 3678   5.189   6.140   0.396
  927SOL     OW 3679   4.521   4.518   4.388
  927SOL    HW1 3680   4.561   4.444   4.442
  927SOL    HW2 3681   4.513   4.488   4.292
  928SOL     OW 3682   2.003   0.375   1.129
  928SOL    HW1 3683   2.074   0.391   1.060
  928SOL    HW2 3684   1.924   0.434   1.110
  929SOL     OW 3685   0.210   2.795   2.880
  929SOL    HW1 3686   0.148   2.829   2.951
  929SOL    HW2 3687   0.159   2.740   2.815
  930SOL     OW 3688   5.437   4.985   4.257
  930SOL    HW1 3689   5.454   4.970   4.160
  930SOL    HW2 3690   5.500   4.929   4.311
  931SOL     OW 3691   1.497   2.300   2.954
  931SOL    HW1 3692   1.550   2.278   3.036
  931SOL    HW2 3693   1.551   2.280   2.873
  932SOL     OW 3694   4.482   5.832   0.989
  932SOL    HW1 3695   4.568   5.783   1.001
  932SOL    HW2 3696   4.495   5.906   0.922
  933SOL     OW 3697   1.493   4.931   2.670
  933SOL    HW1 3698   1.397   4.912   2.689
  933SOL    HW2 3699   1.512   5.027   2.690
  934SOL     OW 3700   3.499   1.302   5.358
  934SOL    HW1 3701   3.512   1.344   5.268
  934SOL    HW2 3702   3.418   1.244   5.356
  935SOL     OW 3703   4.032   3.402   6.072
  935SOL    HW1 3704   4.114   3.437   6.027
  935SOL    HW2 3705   3.952   3.426   6.018
  936SOL     OW 3706   0.687   0.339   1.070
  936SOL    HW1 3707   0.712   0.249   1.105
  936SOL    HW2 3708   0.671   0.333   0.971
  937SOL     OW 3709   4.372   1.738   4.549
  937SOL    HW1 3710   4.442   1.767   4.484
  937SOL    HW2 3711   4.285   1.726   4.501
  938SOL     OW 3712   0.400   3.232   6.144
  938SOL    HW1 3713   0.308   3.198   6.128
  938SOL    HW2 3714   0.463   3.155   6.157
  939SOL     OW 3715   5.053   1.268   6.011
  939SOL    HW1 3716   4.956   1.267   5.984
  939SOL    HW2 3717   5.106   1.316   5.941
  940SOL     OW 3718   6.819   0.675   3.298
  940SOL    HW1 3719   6.761   0.614   3.244
  940SOL    HW2 3720   6.768   0.705   3.379
  941SOL     OW 3721   5.834   1.727   3.555
  941SOL    HW1 3722   5.760   1.738   3.489
  941SOL    HW2 3723   5.920   1.712   3.506
  942SOL     OW 3724   5.112   6.670   5.372
  942SOL    HW1 3725   5.036   6.680   5.436
  942SOL    HW2 3726   5.166   6.590   5.397
  943SOL     OW 3727   6.162   2.684   2.106
  943SOL    HW1 3728   6.120   2.763   2.063
  943SOL    HW2 3729   6.126   2.600   2.065
  944SOL     OW 3730   5.877   3.435   4.843
  944SOL    HW1 3731   5.845   3.529   4.853
  944SOL    HW2 3732   5.962   3.434   4.790
  945SOL     OW 3733   5.241   4.576   4.023
  945SOL    HW1 3734   5.186   4.660   4.023
  945SOL    HW2 3735   5.209   4.515   3.949
  946SOL     OW 3736   6.091   3.158   5.987
  946SOL    HW1 3737   6.082   3.132   6.083
  946SOL    HW2 3738   6.000   3.168   5.947
  947SOL     OW 3739   3.558   2.381   6.418
  947SOL    HW1 3740   3.595   2.460   6.368
  947SOL    HW2 3741   3.532   2.409   6.510
  948SOL     OW 3742   3.878   1.860   0.774
  948SOL    HW1 3743   3.856   1.837   0.869
  948SOL    HW2 3744   3.923   1.783   0.730
  949SOL     OW 3745   6.211   5.216   6.714
  949SOL    HW1 3746   6.203   5.294   6.652
  949SOL    HW2 3747   6.197   5.131   6.663
  950SOL     OW 3748   4.040   5.495   0.922
  950SOL    HW1 3749   3.993   5.429   0.864
  950SOL    HW2 3750   4.131   5.514   0.886
  951SOL     OW 3751   0.787   0.351   1.553
  951SOL    HW1 3752   0.803   0.362   1.651
  951SOL    HW2 3753   0.871   0.319   1.509
  952SOL     OW 3754   5.420   0.835   2.991
  952SOL    HW1 3755   5.467   0.911   3.036
  952SOL    HW2 3756   5.338   0.870   2.945
  953SOL     OW 3757   4.449   5.851   6.101
  953SOL    HW1 3758   4.465   5.940   6.058
  953SOL    HW2 3759   4.451   5.862   6.201
  954SOL     OW 3760   5.665   0.061   1.439
  954SOL    HW1 3761   5.711   0.118   1.371
  954SOL    HW2 3762   5.613   7.015   1.393
  955SOL     OW 3763   0.635   5.852   3.271
  955SOL    HW1 3764   0.693   5.927   3.240
  955SOL    HW2 3765   0.640   5.777   3.206
  956SOL     OW 3766   1.722   1.844   1.001
  956SOL    HW1 3767   1.783   1.785   0.948
  956SOL    HW2 3768   1.630   1.838   0.964
  957SOL     OW 3769   2.127   4.787   5.042
  957SOL    HW1 3770   2.028   4.792   5.047
  957SOL    HW2 3771   2.160   4.710   5.096
  958SOL     OW 3772   5.705   1.982   1.714
  958SOL    HW1 3773   5.693   2.079   1.692
  958SOL    HW2 3774   5.786   1.947   1.668
  959SOL     OW 3775   3.126   4.845   2.894
  959SOL    HW1 3776   3.045   4.848   2.953
  959SOL    HW2 3777   3.101   4.877   2.803
  960SOL     OW 3778   2.211   5.841   4.675
  960SOL    HW1 3779   2.209   5.846   4.775
  960SOL    HW2 3780   2.147   5.908   4.637
  961SOL     OW 3781   3.948   6.714   1.605
  961SOL    HW1 3782   3.960   6.656   1.524
  961SOL    HW2 3783   3.868   6.683   1.656
  962SOL     OW 3784   1.751   0.792   3.500
  962SOL    HW1 3785   1.762   0.856   3.425
  962SOL    HW2 3786   1.765   0.840   3.587
  963SOL     OW 3787   6.615   0.519   1.287
  963SOL    HW1 3788   6.666   0.604   1.277
  963SOL    HW2 3789   6.653   0.450   1.226
  964SOL     OW 3790   5.379   3.783   1.684
  964SOL    HW1 3791   5.355   3.750   1.593
  964SOL    HW2 3792   5.319   3.859   1.709
  965SOL     OW 3793   0.430   1.679   0.300
  965SOL    HW1 3794   0.408   1.707   0.207
  965SOL    HW2 3795   0.377   1.734   0.364
  966SOL     OW 3796   6.209   1.376   2.763
  966SOL    HW1 3797   6.167   1.345   2.678
  966SOL    HW2 3798   6.309   1.371   2.755
  967SOL     OW 3799   0.852   5.308   0.317
  967SOL    HW1 3800   0.866   5.255   0.401
  967SOL    HW2 3801   0.871   5.251   0.238
  968SOL     OW 3802   4.630   2.649   1.932
  968SOL    HW1 3803   4.697   2.722   1.938
  968SOL    HW2 3804   4.596   2.627   2.023
  969SOL     OW 3805   4.247   6.564   5.959
  969SOL    HW1 3806   4.321   6.517   6.008
  969SOL    HW2 3807   4.169   6.502   5.949
  970SOL     OW 3808   4.393   1.837   5.275
  970SOL    HW1 3809   4.416   1.739   5.278
  970SOL    HW2 3810   4.429   1.882   5.357
  971SOL     OW 3811   6.675   1.519   1.968
  971SOL    HW1 3812   6.587   1.514   1.920
  971SOL    HW2 3813   6.662   1.498   2.065
  972SOL     OW 3814   6.536   5.045   1.115
  972SOL    HW1 3815   6.567   5.045   1.210
  972SOL    HW2 3816   6.593   4.982   1.061
  973SOL     OW 3817   6.463   4.582   6.651
  973SOL    HW1 3818   6.427   4.496   6.614
  973SOL    HW2 3819   6.538   4.562   6.714
  974SOL     OW 3820   3.093   0.083   3.138
  974SOL    HW1 3821   3.153   0.121   3.209
  974SOL    HW2 3822   3.044   0.158   3.093
  975SOL     OW 3823   2.838   5.824   5.739
  975SOL    HW1 3824   2.912   5.765   5.773
  975SOL    HW2 3825   2.858   5.919   5.762
  976SOL     OW 3826   6.762   2.882   3.064
  976SOL    HW1 3827   6.765   2.971   3.110
  976SOL    HW2 3828   6.667   2.851   3.059
  977SOL     OW 3829   1.548   1.158   3.866
  977SOL    HW1 3830   1.539   1.064   3.834
  977SOL    HW2 3831   1.625   1.166   3.929
  978SOL     OW 3832   5.705   4.275   4.447
  978SOL    HW1 3833   5.615   4.260   4.488
  978SOL    HW2 3834   5.705   4.361   4.396
  979SOL     OW 3835   6.146   0.337   3.368
  979SOL    HW1 3836   6.073   0.373   3.309
  979SOL    HW2 3837   6.160   0.240   3.348
  980SOL     OW 3838   5.465   2.203   4.065
  980SOL    HW1 3839   5.419   2.143   4.000
  980SOL    HW2 3840   5.564   2.188   4.059
  981SOL     OW 3841   1.177   1.473   4.246
  981SOL    HW1 3842   1.274   1.452   4.259
  981SOL    HW2 3843   1.135   1.402   4.189
  982SOL     OW 3844   1.036   2.505   1.045
  982SOL    HW1 3845   1.016   2.426   0.987
  982SOL    HW2 3846   1.047   2.475   1.140
  983SOL     OW 3847   6.036   2.084   3.108
  983SOL    HW1 3848   6.085   2.061   3.193
  983SOL    HW2 3849   6.056   2.178   3.082
  984SOL     OW 3850   4.690   1.202   5.173
  984SOL    HW1 3851   4.701   1.151   5.258
  984SOL    HW2 3852   4.594   1.203   5.146
  985SOL     OW 3853   3.212   5.363   0.849
  985SOL    HW1 3854   3.286   5.315   0.896
  985SOL    HW2 3855   3.250   5.419   0.776
  986SOL     OW 3856   5.191   5.334   6.253
  986SOL    HW1 3857   5.242   5.414   6.283
  986SOL    HW2 3858   5.094   5.354   6.255
  987SOL     OW 3859   2.968   6.350   1.425
  987SOL    HW1 3860   2.900   6.285   1.392
  987SOL    HW2 3861   3.059   6.321   1.396
  988SOL     OW 3862   4.035   2.731   0.849
  988SOL    HW1 3863   3.992   2.694   0.767
  988SOL    HW2 3864   4.050   2.829   0.837
  989SOL     OW 3865   1.066   0.630   6.120
  989SOL    HW1 3866   0.974   0.630   6.080
  989SOL    HW2 3867   1.122   0.699   6.074
  990SOL     OW 3868   4.938   0.393   3.999
  990SOL    HW1 3869   5.026   0.423   3.964
  990SOL    HW2 3870   4.864   0.435   3.945
  991SOL     OW 3871   1.298   2.527   4.670
  991SOL    HW1 3872   1.272   2.435   4.702
  991SOL    HW2 3873   1.240   2.595   4.715
  992SOL     OW 3874   0.409   3.528   6.095
  992SOL    HW1 3875   0.381   3.435   6.075
  992SOL    HW2 3876   0.456   3.531   6.183
  993SOL     OW 3877   3.079   4.970   2.641
  993SOL    HW1 3878   2.992   5.015   2.623
  993SOL    HW2 3879   3.115   4.933   2.555
  994SOL     OW 3880   3.912   3.846   2.552
  994SOL    HW1 3881   3.911   3.931   2.499
  994SOL    HW2 3882   3.912   3.867   2.650
  995SOL     OW 3883   2.053   3.226   6.056
  995SOL    HW1 3884   2.063   3.289   6.133
  995SOL    HW2 3885   1.999   3.147   6.084
  996SOL     OW 3886   1.795   3.309   2.920
  996SOL    HW1 3887   1.785   3.406   2.942
  996SOL    HW2 3888   1.806   3.298   2.821
  997SOL     OW 3889   0.418   1.045   1.205
  997SOL    HW1 3890   0.498   1.089   1.246
  997SOL    HW2 3891   0.447   0.964   1.154
  998SOL     OW 3892   3.866   6.424   2.053
  998SOL    HW1 3893   3.786   6.484   2.046
  998SOL    HW2 3894   3.949   6.476   2.035
  999SOL     OW 3895   5.865   5.695   0.895
  999SOL    HW1 3896   5.807   5.708   0.814
  999SOL    HW2 3897   5.961   5.690   0.867
 1000SOL     OW 3898   2.273   2.159   3.157
 1000SOL    HW1 3899   2.231   2.090   3.217
 1000SOL    HW2 3900   2.318   2.228   3.213
 1001SOL     OW 3901   4.706   0.022   6.992
 1001SOL    HW1 3902   4.716   7.003   0.054
 1001SOL    HW2 3903   4.667   0.114   7.005
 1002SOL     OW 3904   5.560   1.731   6.515
 1002SOL    HW1 3905   5.640   1.747   6.457
 1002SOL    HW2 3906   5.572   1.780   6.602
 1003SOL     OW 3907   2.744   6.160   2.661
 1003SOL    HW1 3908   2.742   6.179   2.759
 1003SOL    HW2 3909   2.653   6.134   2.630
 1004SOL     OW 3910   6.958   0.197   6.747
 1004SOL    HW1 3911   7.023   0.251   6.693
 1004SOL    HW2 3912   6.872   0.247   6.756
 1005SOL     OW 3913   0.460   0.143   2.415
 1005SOL    HW1 3914   0.376   0.117   2.367
 1005SOL    HW2 3915   0.498   0.063   2.461
 1006SOL     OW 3916   2.406   5.178   1.844
 1006SOL    HW1 3917   2.451   5.092   1.820
 1006SOL    HW2 3918   2.337   5.200   1.775
 1007SOL     OW 3919   6.678   1.249   3.646
 1007SOL    HW1 3920   6.709   1.329   3.595
 1007SOL    HW2 3921   6.579   1.255   3.661
 1008SOL     OW 3922   0.944   2.391   3.769
 1008SOL    HW1 3923   1.014   2.417   3.836
 1008SOL    HW2 3924   0.957   2.444   3.686
 1009SOL     OW 3925   6.973   5.739   4.470
 1009SOL    HW1 3926   6.952   5.745   4.373
 1009SOL    HW2 3927   7.017   5.651   4.489
 1010SOL     OW 3928   4.379   2.128   0.389
 1010SOL    HW1 3929   4.296   2.099   0.436
 1010SOL    HW2 3930   4.381   2.089   0.297
 1011SOL     OW 3931   2.690   5.591   4.026
 1011SOL    HW1 3932   2.787   5.577   4.009
 1011SOL    HW2 3933   2.675   5.611   4.122
 1012SOL     OW 3934   6.541   5.083   0.574
 1012SOL    HW1 3935   6.566   5.155   0.637
 1012SOL    HW2 3936   6.464   5.113   0.516
 1013SOL     OW 3937   1.154   1.011   6.842
 1013SOL    HW1 3938   1.064   1.054   6.853
 1013SOL    HW2 3939   1.159   0.967   6.753
 1014SOL     OW 3940   4.562   5.580   6.041
 1014SOL    HW1 3941   4.537   5.589   5.944
 1014SOL    HW2 3942   4.506   5.642   6.096
 1015SOL     OW 3943   4.035   6.626   4.840
 1015SOL    HW1 3944   3.994   6.637   4.930
 1015SOL    HW2 3945   4.050   6.716   4.799
 1016SOL     OW 3946   3.582   2.298   1.260
 1016SOL    HW1 3947   3.578   2.236   1.338
 1016SOL    HW2 3948   3.529   2.380   1.280
 1017SOL     OW 3949   5.033   2.830   0.847
 1017SOL    HW1 3950   5.059   2.742   0.887
 1017SOL    HW2 3951   4.968   2.877   0.908
 1018SOL     OW 3952   1.622   3.127   3.658
 1018SOL    HW1 3953   1.600   3.181   3.576
 1018SOL    HW2 3954   1.651   3.188   3.731
 1019SOL     OW 3955   0.156   1.315   0.157
 1019SOL    HW1 3956   0.109   1.360   0.233
 1019SOL    HW2 3957   0.239   1.366   0.135
 1020SOL     OW 3958   2.138   0.461   0.892
 1020SOL    HW1 3959   2.091   0.487   0.808
 1020SOL    HW2 3960   2.211   0.526   0.911
 1021SOL     OW 3961   6.474   0.870   1.945
 1021SOL    HW1 3962   6.527   0.801   1.896
 1021SOL    HW2 3963   6.495   0.960   1.908
 1022SOL     OW 3964   4.293   3.912   6.248
 1022SOL    HW1 3965   4.327   3.897   6.341
 1022SOL    HW2 3966   4.255   3.827   6.212
 1023SOL     OW 3967   5.757   0.275   2.336
 1023SOL    HW1 3968   5.663   0.242   2.341
 1023SOL    HW2 3969   5.775   0.311   2.244
 1024SOL     OW 3970   6.389   1.958   3.967
 1024SOL    HW1 3971   6.440   2.029   4.016
 1024SOL    HW2 3972   6.401   1.871   4.013
 1025SOL     OW 3973   3.294   4.525   0.689
 1025SOL    HW1 3974   3.354   4.573   0.625
 1025SOL    HW2 3975   3.226   4.472   0.637
 1026SOL     OW 3976   2.022   1.626   0.530
 1026SOL    HW1 3977   2.057   1.576   0.609
 1026SOL    HW2 3978   2.073   1.598   0.448
 1027SOL     OW 3979   3.116   5.253   1.446
 1027SOL    HW1 3980   3.070   5.318   1.506
 1027SOL    HW2 3981   3.048   5.190   1.408
 1028SOL     OW 3982   2.173   6.094   6.903
 1028SOL    HW1 3983   2.144   6.015   6.958
 1028SOL    HW2 3984   2.213   6.163   6.964
 1029SOL     OW 3985   1.738   0.163   0.230
 1029SOL    HW1 3986   1.643   0.189   0.213
 1029SOL    HW2 3987   1.744   0.063   0.240
 1030SOL     OW 3988   3.813   3.102   5.077
 1030SOL    HW1 3989   3.884   3.062   5.135
 1030SOL    HW2 3990   3.828   3.075   4.982
 1031SOL     OW 3991   3.247   5.032   1.525
 1031SOL    HW1 3992   3.203   4.952   1.485
 1031SOL    HW2 3993   3.193   5.114   1.503
 1032SOL     OW 3994   1.950   1.474   5.449
 1032SOL    HW1 3995   1.905   1.402   5.501
 1032SOL    HW2 3996   1.887   1.512   5.382
 1033SOL     OW 3997   1.653   5.529   1.659
 1033SOL    HW1 3998   1.745   5.494   1.643
 1033SOL    HW2 3999   1.601   5.528   1.573
 1034SOL     OW 4000   2.266   6.076   4.137
 1034SOL    HW1 4001   2.228   6.044   4.050
 1034SOL    HW2 4002   2.327   6.006   4.174
 1035SOL     OW 4003   2.832   1.632   4.640
 1035SOL    HW1 4004   2.867   1.646   4.548
 1035SOL    HW2 4005   2.802   1.537   4.651
 1036SOL     OW 4006   3.877   1.568   1.348
 1036SOL    HW1 4007   3.890   1.486   1.405
 1036SOL    HW2 4008   3.842   1.643   1.404
 1037SOL     OW 4009   0.782   0.725   0.765
 1037SOL    HW1 4010   0.875   0.721   0.728
 1037SOL    HW2 4011   0.742   0.634   0.766
 1038SOL     OW 4012   0.783   1.068   5.588
 1038SOL    HW1 4013   0.868   1.081   5.537
 1038SOL    HW2 4014   0.712   1.035   5.527
 1039SOL     OW 4015   3.699   1.443   4.499
 1039SOL    HW1 4016   3.767   1.396   4.441
 1039SOL    HW2 4017   3.738   1.528   4.532
 1040SOL     OW 4018   5.749   3.525   3.288
 1040SOL    HW1 4019   5.830   3.472   3.262
 1040SOL    HW2 4020   5.740   3.603   3.226
 1041SOL     OW 4021   6.595   0.366   3.861
 1041SOL    HW1 4022   6.691   0.338   3.852
 1041SOL    HW2 4023   6.591   0.453   3.909
 1042SOL     OW 4024   4.614   5.191   1.170
 1042SOL    HW1 4025   4.631   5.278   1.124
 1042SOL    HW2 4026   4.547   5.204   1.243
 1043SOL     OW 4027   3.911   1.441   6.504
 1043SOL    HW1 4028   3.873   1.366   6.449
 1043SOL    HW2 4029   3.838   1.502   6.533
 1044SOL     OW 4030   3.933   2.110   1.350
 1044SOL    HW1 4031   3.931   2.123   1.449
 1044SOL    HW2 4032   3.857   2.052   1.322
 1045SOL     OW 4033   3.168   1.140   2.145
 1045SOL    HW1 4034   3.141   1.192   2.226
 1045SOL    HW2 4035   3.124   1.051   2.146
 1046SOL     OW 4036   2.695   0.094   0.021
 1046SOL    HW1 4037   2.746   0.072   6.964
 1046SOL    HW2 4038   2.732   0.043   0.098
 1047SOL     OW 4039   1.435   5.146   3.074
 1047SOL    HW1 4040   1.533   5.166   3.072
 1047SOL    HW2 4041   1.389   5.211   3.135
 1048SOL     OW 4042   5.439   5.251   5.284
 1048SOL    HW1 4043   5.344   5.253   5.251
 1048SOL    HW2 4044   5.444   5.198   5.368
 1049SOL     OW 4045   6.987   3.985   5.102
 1049SOL    HW1 4046   6.920   4.059   5.095
 1049SOL    HW2 4047   0.001   3.985   5.194
 1050SOL     OW 4048   3.713   6.850   6.619
 1050SOL    HW1 4049   3.671   6.930   6.576
 1050SOL    HW2 4050   3.784   6.814   6.559
 1051SOL     OW 4051   3.927   4.930   0.246
 1051SOL    HW1 4052   4.018   4.927   0.287
 1051SOL    HW2 4053   3.870   4.858   0.286
 1052SOL     OW 4054   3.973   0.356   4.714
 1052SOL    HW1 4055   3.878   0.378   4.734
 1052SOL    HW2 4056   4.006   0.288   4.779
 1053SOL     OW 4057   5.116   5.670   3.541
 1053SOL    HW1 4058   5.081   5.677   3.634
 1053SOL    HW2 4059   5.163   5.582   3.529
 1054SOL     OW 4060   2.993   4.915   5.501
 1054SOL    HW1 4061   3.091   4.933   5.507
 1054SOL    HW2 4062   2.952   4.919   5.592
 1055SOL     OW 4063   5.313   5.299   4.787
 1055SOL    HW1 4064   5.281   5.332   4.698
 1055SOL    HW2 4065   5.287   5.364   4.858
 1056SOL     OW 4066   1.818   5.956   5.105
 1056SOL    HW1 4067   1.768   5.901   5.038
 1056SOL    HW2 4068   1.799   6.053   5.090
 1057SOL     OW 4069   3.017   3.238   3.104
 1057SOL    HW1 4070   2.963   3.293   3.167
 1057SOL    HW2 4071   3.071   3.172   3.156
 1058SOL     OW 4072   3.870   1.612   2.475
 1058SOL    HW1 4073   3.832   1.607   2.567
 1058SOL    HW2 4074   3.895   1.707   2.455
 1059SOL     OW 4075   4.209   1.300   1.983
 1059SOL    HW1 4076   4.262   1.381   2.007
 1059SOL    HW2 4077   4.255   1.218   2.017
 1060SOL     OW 4078   0.770   3.909   5.410
 1060SOL    HW1 4079   0.790   3.833   5.472
 1060SOL    HW2 4080   0.697   3.882   5.348
 1061SOL     OW 4081   2.982   4.674   1.408
 1061SOL    HW1 4082   2.987   4.710   1.501
 1061SOL    HW2 4083   2.897   4.703   1.365
 1062SOL     OW 4084   6.957   5.544   5.290
 1062SOL    HW1 4085   6.891   5.619   5.284
 1062SOL    HW2 4086   0.024   5.581   5.279
 1063SOL     OW 4087   1.175   3.519   1.412
 1063SOL    HW1 4088   1.270   3.544   1.427
 1063SOL    HW2 4089   1.124   3.528   1.498
 1064SOL     OW 4090   1.252   3.232   2.197
 1064SOL    HW1 4091   1.339   3.186   2.175
 1064SOL    HW2 4092   1.245   3.316   2.144
 1065SOL     OW 4093   5.393   0.218   4.093
 1065SOL    HW1 4094   5.405   0.317   4.081
 1065SOL    HW2 4095   5.482   0.175   4.108
 1066SOL     OW 4096   5.034   0.483   4.404
 1066SOL    HW1 4097   4.998   0.428   4.329
 1066SOL    HW2 4098   4.998   0.448   4.490
 1067SOL     OW 4099   1.744   2.395   1.575
 1067SOL    HW1 4100   1.664   2.455   1.582
 1067SOL    HW2 4101   1.728   2.326   1.504
 1068SOL     OW 4102   0.540   3.547   2.151
 1068SOL    HW1 4103   0.445   3.568   2.172
 1068SOL    HW2 4104   0.563   3.457   2.189
 1069SOL     OW 4105   4.017   4.345   0.614
 1069SOL    HW1 4106   4.106   4.362   0.573
 1069SOL    HW2 4107   4.029   4.312   0.708
 1070SOL     OW 4108   2.191   0.516   0.304
 1070SOL    HW1 4109   2.177   0.421   0.334
 1070SOL    HW2 4110   2.150   0.529   0.214
 1071SOL     OW 4111   4.446   6.528   2.598
 1071SOL    HW1 4112   4.405   6.614   2.629
 1071SOL    HW2 4113   4.389   6.451   2.628
 1072SOL     OW 4114   3.117   6.485   2.322
 1072SOL    HW1 4115   3.180   6.430   2.377
 1072SOL    HW2 4116   3.023   6.456   2.339
 1073SOL     OW 4117   3.093   4.824   2.373
 1073SOL    HW1 4118   3.181   4.869   2.392
 1073SOL    HW2 4119   3.090   4.799   2.276
 1074SOL     OW 4120   1.478   5.162   1.927
 1074SOL    HW1 4121   1.563   5.215   1.930
 1074SOL    HW2 4122   1.490   5.076   1.976
 1075SOL     OW 4123   5.838   4.756   3.134
 1075SOL    HW1 4124   5.863   4.739   3.230
 1075SOL    HW2 4125   5.850   4.852   3.113
 1076SOL     OW 4126   0.641   4.507   4.888
 1076SOL    HW1 4127   0.715   4.440   4.888
 1076SOL    HW2 4128   0.617   4.531   4.794
 1077SOL     OW 4129   5.582   0.214   0.911
 1077SOL    HW1 4130   5.519   0.291   0.924
 1077SOL    HW2 4131   5.561   0.169   0.824
 1078SOL     OW 4132   1.272   1.521   1.236
 1078SOL    HW1 4133   1.318   1.520   1.147
 1078SOL    HW2 4134   1.297   1.439   1.288
 1079SOL     OW 4135   2.414   6.042   3.543
 1079SOL    HW1 4136   2.454   6.057   3.452
 1079SOL    HW2 4137   2.436   6.119   3.602
 1080SOL     OW 4138   2.486   5.750   3.566
 1080SOL    HW1 4139   2.448   5.842   3.557
 1080SOL    HW2 4140   2.495   5.726   3.663
 1081SOL     OW 4141   1.569   1.010   6.088
 1081SOL    HW1 4142   1.485   0.984   6.040
 1081SOL    HW2 4143   1.557   1.101   6.128
 1082SOL     OW 4144   1.235   0.183   5.566
 1082SOL    HW1 4145   1.140   0.188   5.597
 1082SOL    HW2 4146   1.245   0.105   5.504
 1083SOL     OW 4147   3.256   3.198   2.027
 1083SOL    HW1 4148   3.288   3.286   2.063
 1083SOL    HW2 4149   3.209   3.148   2.099
 1084SOL     OW 4150   5.920   5.138   0.977
 1084SOL    HW1 4151   5.944   5.050   0.936
 1084SOL    HW2 4152   5.991   5.165   1.043
 1085SOL     OW 4153   1.784   5.071   4.046
 1085SOL    HW1 4154   1.884   5.067   4.043
 1085SOL    HW2 4155   1.748   4.986   4.084
 1086SOL     OW 4156   5.506   6.014   3.627
 1086SOL    HW1 4157   5.538   6.029   3.534
 1086SOL    HW2 4158   5.420   6.062   3.642
 1087SOL     OW 4159   4.858   2.818   5.483
 1087SOL    HW1 4160   4.904   2.741   5.529
 1087SOL    HW2 4161   4.919   2.897   5.482
 1088SOL     OW 4162   5.639   4.954   3.358
 1088SOL    HW1 4163   5.633   4.993   3.266
 1088SOL    HW2 4164   5.553   4.907   3.380
 1089SOL     OW 4165   0.432   0.411   4.959
 1089SOL    HW1 4166   0.437   0.324   5.008
 1089SOL    HW2 4167   0.344   0.417   4.910
 1090SOL     OW 4168   1.829   1.474   5.915
 1090SOL    HW1 4169   1.844   1.403   5.984
 1090SOL    HW2 4170   1.915   1.520   5.895
 1091SOL     OW 4171   1.718   1.857   4.295
 1091SOL    HW1 4172   1.719   1.785   4.364
 1091SOL    HW2 4173   1.801   1.851   4.239
 1092SOL     OW 4174   2.112   4.218   1.360
 1092SOL    HW1 4175   2.167   4.143   1.321
 1092SOL    HW2 4176   2.074   4.273   1.286
 1093SOL     OW 4177   1.220   2.687   2.459
 1093SOL    HW1 4178   1.219   2.648   2.551
 1093SOL    HW2 4179   1.314   2.710   2.434
 1094SOL     OW 4180   0.220   6.592   1.651
 1094SOL    HW1 4181   0.220   6.653   1.730
 1094SOL    HW2 4182   0.314   6.576   1.622
 1095SOL     OW 4183   5.820   3.232   6.597
 1095SOL    HW1 4184   5.890   3.191   6.538
 1095SOL    HW2 4185   5.743   3.169   6.606
 1096SOL     OW 4186   3.200   4.815   1.358
 1096SOL    HW1 4187   3.130   4.744   1.373
 1096SOL    HW2 4188   3.189   4.853   1.266
 1097SOL     OW 4189   1.733   4.858   5.146
 1097SOL    HW1 4190   1.792   4.916   5.090
 1097SOL    HW2 4191   1.775   4.768   5.156
 1098SOL     OW 4192   4.929   2.436   1.407
 1098SOL    HW1 4193   4.974   2.360   1.454
 1098SOL    HW2 4194   4.877   2.401   1.329
 1099SOL     OW 4195   4.237   1.947   4.249
 1099SOL    HW1 4196   4.263   2.030   4.299
 1099SOL    HW2 4197   4.307   1.927   4.180
 1100SOL     OW 4198   1.518   1.165   6.453
 1100SOL    HW1 4199   1.505   1.168   6.552
 1100SOL    HW2 4200   1.600   1.216   6.429
 1101SOL     OW 4201   5.323   3.309   1.146
 1101SOL    HW1 4202   5.223   3.305   1.137
 1101SOL    HW2 4203   5.361   3.219   1.126
 1102SOL     OW 4204   0.454   4.124   4.204
 1102SOL    HW1 4205   0.357   4.141   4.223
 1102SOL    HW2 4206   0.467   4.110   4.105
 1103SOL     OW 4207   1.593   1.827   1.764
 1103SOL    HW1 4208   1.519   1.780   1.716
 1103SOL    HW2 4209   1.614   1.913   1.718
 1104SOL     OW 4210   2.709   4.928   6.337
 1104SOL    HW1 4211   2.612   4.914   6.359
 1104SOL    HW2 4212   2.719   4.944   6.239
 1105SOL     OW 4213   5.060   4.465   6.708
 1105SOL    HW1 4214   5.035   4.419   6.623
 1105SOL    HW2 4215   5.108   4.401   6.768
 1106SOL     OW 4216   6.553   2.555   6.104
 1106SOL    HW1 4217   6.509   2.571   6.192
 1106SOL    HW2 4218   6.589   2.641   6.068
 1107SOL     OW 4219   0.752   0.482   0.464
 1107SOL    HW1 4220   0.668   0.431   0.448
 1107SOL    HW2 4221   0.730   0.574   0.496
 1108SOL     OW 4222   2.178   0.918   6.130
 1108SOL    HW1 4223   2.216   0.966   6.051
 1108SOL    HW2 4224   2.242   0.924   6.206
 1109SOL     OW 4225   3.837   5.940   4.260
 1109SOL    HW1 4226   3.909   5.876   4.289
 1109SOL    HW2 4227   3.800   5.911   4.171
 1110SOL     OW 4228   2.784   2.862   1.680
 1110SOL    HW1 4229   2.876   2.882   1.712
 1110SOL    HW2 4230   2.762   2.766   1.701
 1111SOL     OW 4231   5.605   0.733   6.906
 1111SOL    HW1 4232   5.576   0.701   6.816
 1111SOL    HW2 4233   5.538   0.800   6.940
 1112SOL     OW 4234   6.491   0.701   2.632
 1112SOL    HW1 4235   6.576   0.655   2.658
 1112SOL    HW2 4236   6.427   0.699   2.709
 1113SOL     OW 4237   6.683   3.452   2.548
 1113SOL    HW1 4238   6.724   3.374   2.596
 1113SOL    HW2 4239   6.584   3.452   2.564
 1114SOL     OW 4240   4.492   0.473   6.209
 1114SOL    HW1 4241   4.584   0.513   6.212
 1114SOL    HW2 4242   4.426   0.540   6.243
 1115SOL     OW 4243   3.567   3.270   0.790
 1115SOL    HW1 4244   3.506   3.285   0.712
 1115SOL    HW2 4245   3.620   3.187   0.775
 1116SOL     OW 4246   4.910   5.808   3.971
 1116SOL    HW1 4247   4.839   5.763   3.917
 1116SOL    HW2 4248   4.959   5.740   4.025
 1117SOL     OW 4249   2.437   2.466   1.378
 1117SOL    HW1 4250   2.343   2.433   1.367
 1117SOL    HW2 4251   2.500   2.392   1.358
 1118SOL     OW 4252   2.336   5.245   3.056
 1118SOL    HW1 4253   2.374   5.322   3.005
 1118SOL    HW2 4254   2.323   5.272   3.152
 1119SOL     OW 4255   4.250   4.013   1.701
 1119SOL    HW1 4256   4.209   4.079   1.638
 1119SOL    HW2 4257   4.329   4.055   1.747
 1120SOL     OW 4258   5.418   7.018   6.284
 1120SOL    HW1 4259   5.398   6.926   6.252
 1120SOL    HW2 4260   5.505   0.022   6.246
 1121SOL     OW 4261   5.034   2.711   1.997
 1121SOL    HW1 4262   4.939   2.739   2.014
 1121SOL    HW2 4263   5.038   2.653   1.915
 1122SOL     OW 4264   5.690   3.291   6.951
 1122SOL    HW1 4265   5.613   3.354   6.945
 1122SOL    HW2 4266   5.657   3.198   6.936
 1123SOL     OW 4267   4.845   1.278   2.182
 1123SOL    HW1 4268   4.933   1.254   2.141
 1123SOL    HW2 4269   4.860   1.315   2.274
 1124SOL     OW 4270   6.502   3.413   5.151
 1124SOL    HW1 4271   6.578   3.473   5.129
 1124SOL    HW2 4272   6.416   3.463   5.137
 1125SOL     OW 4273   2.828   2.869   5.341
 1125SOL    HW1 4274   2.764   2.803   5.301
 1125SOL    HW2 4275   2.807   2.881   5.438
 1126SOL     OW 4276   4.659   0.321   0.695
 1126SOL    HW1 4277   4.698   0.366   0.775
 1126SOL    HW2 4278   4.732   0.290   0.635
 1127SOL     OW 4279   2.748   4.711   0.530
 1127SOL    HW1 4280   2.676   4.644   0.509
 1127SOL    HW2 4281   2.797   4.683   0.612
 1128SOL     OW 4282   3.544   2.144   3.663
 1128SOL    HW1 4283   3.514   2.103   3.577
 1128SOL    HW2 4284   3.626   2.199   3.647
 1129SOL     OW 4285   4.119   0.697   6.975
 1129SOL    HW1 4286   4.170   0.732   6.897
 1129SOL    HW2 4287   4.144   0.601   6.991
 1130SOL     OW 4288   1.685   3.786   0.832
 1130SOL    HW1 4289   1.604   3.838   0.859
 1130SOL    HW2 4290   1.666   3.688   0.839
 1131SOL     OW 4291   0.427   6.157   5.699
 1131SOL    HW1 4292   0.502   6.133   5.761
 1131SOL    HW2 4293   0.385   6.243   5.729
 1132SOL     OW 4294   4.737   0.016   5.765
 1132SOL    HW1 4295   4.737   0.116   5.758
 1132SOL    HW2 4296   4.826   7.011   5.799
 1133SOL     OW 4297   1.065   2.768   1.001
 1133SOL    HW1 4298   1.069   2.675   1.037
 1133SOL    HW2 4299   1.007   2.770   0.919
 1134SOL     OW 4300   5.871   2.721   0.001
 1134SOL    HW1 4301   5.920   2.658   0.062
 1134SOL    HW2 4302   5.773   2.701   0.004
 1135SOL     OW 4303   3.045   2.209   3.528
 1135SOL    HW1 4304   2.992   2.291   3.549
 1135SOL    HW2 4305   3.018   2.175   3.438
 1136SOL     OW 4306   2.680   5.615   3.428
 1136SOL    HW1 4307   2.625   5.669   3.492
 1136SOL    HW2 4308   2.650   5.520   3.431
 1137SOL     OW 4309   1.449   1.938   6.559
 1137SOL    HW1 4310   1.479   1.843   6.556
 1137SOL    HW2 4311   1.414   1.965   6.469
 1138SOL     OW 4312   2.476   3.331   6.256
 1138SOL    HW1 4313   2.414   3.404   6.228
 1138SOL    HW2 4314   2.561   3.370   6.289
 1139SOL     OW 4315   1.267   6.531   2.786
 1139SOL    HW1 4316   1.292   6.609   2.728
 1139SOL    HW2 4317   1.176   6.499   2.762
 1140SOL     OW 4318   3.301   1.454   3.458
 1140SOL    HW1 4319   3.239   1.510   3.403
 1140SOL    HW2 4320   3.329   1.373   3.406
 1141SOL     OW 4321   5.717   5.637   5.156
 1141SOL    HW1 4322   5.801   5.658   5.206
 1141SOL    HW2 4323   5.690   5.716   5.101
 1142SOL     OW 4324   5.304   0.671   4.275
 1142SOL    HW1 4325   5.220   0.616   4.279
 1142SOL    HW2 4326   5.281   0.764   4.248
 1143SOL     OW 4327   4.125   2.213   2.864
 1143SOL    HW1 4328   4.044   2.206   2.806
 1143SOL    HW2 4329   4.110   2.165   2.950
 1144SOL     OW 4330   0.662   4.179   3.975
 1144SOL    HW1 4331   0.747   4.127   3.974
 1144SOL    HW2 4332   0.594   4.133   3.918
 1145SOL     OW 4333   6.728   5.434   4.397
 1145SOL    HW1 4334   6.753   5.442   4.493
 1145SOL    HW2 4335   6.767   5.350   4.359
 1146SOL     OW 4336   6.000   2.317   1.032
 1146SOL    HW1 4337   5.914   2.302   1.082
 1146SOL    HW2 4338   6.054   2.233   1.031
 1147SOL     OW 4339   0.182   3.917   2.412
 1147SOL    HW1 4340   0.102   3.952   2.362
 1147SOL    HW2 4341   0.174   3.940   2.509
 1148SOL     OW 4342   3.674   6.240   6.390
 1148SOL    HW1 4343   3.600   6.253   6.456
 1148SOL    HW2 4344   3.708   6.329   6.360
 1149SOL     OW 4345   6.426   3.419   2.936
 1149SOL    HW1 4346   6.504   3.469   2.899
 1149SOL    HW2 4347   6.409   3.448   3.030
 1150SOL     OW 4348   2.152   5.011   0.858
 1150SOL    HW1 4349   2.181   5.054   0.943
 1150SOL    HW2 4350   2.233   4.988   0.804
 1151SOL     OW 4351   5.822   5.407   6.416
 1151SOL    HW1 4352   5.750   5.439   6.355
 1151SOL    HW2 4353   5.801   5.314   6.446
 1152SOL     OW 4354   1.097   6.883   5.212
 1152SOL    HW1 4355   1.026   6.951   5.225
 1152SOL    HW2 4356   1.153   6.876   5.295
 1153SOL     OW 4357   2.095   5.744   2.851
 1153SOL    HW1 4358   2.192   5.765   2.866
 1153SOL    HW2 4359   2.083   5.706   2.759
 1154SOL     OW 4360   0.648   3.781   2.233
 1154SOL    HW1 4361   0.569   3.841   2.223
 1154SOL    HW2 4362   0.630   3.694   2.186
 1155SOL     OW 4363   3.087   5.874   0.942
 1155SOL    HW1 4364   3.081   5.797   1.005
 1155SOL    HW2 4365   3.159   5.936   0.972
 1156SOL     OW 4366   2.517   0.742   4.035
 1156SOL    HW1 4367   2.526   0.754   3.937
 1156SOL    HW2 4368   2.429   0.698   4.055
 1157SOL     OW 4369   0.203   2.153   4.564
 1157SOL    HW1 4370   0.213   2.068   4.512
 1157SOL    HW2 4371   0.126   2.144   4.627
 1158SOL     OW 4372   5.396   4.778   6.159
 1158SOL    HW1 4373   5.449   4.697   6.135
 1158SOL    HW2 4374   5.365   4.823   6.075
 1159SOL     OW 4375   3.398   5.581   2.500
 1159SOL    HW1 4376   3.409   5.481   2.496
 1159SOL    HW2 4377   3.432   5.614   2.588
 1160SOL     OW 4378   3.994   3.682   2.775
 1160SOL    HW1 4379   3.994   3.767   2.827
 1160SOL    HW2 4380   4.051   3.614   2.821
 1161SOL     OW 4381   5.532   0.337   3.663
 1161SOL    HW1 4382   5.569   0.307   3.575
 1161SOL    HW2 4383   5.553   0.268   3.733
 1162SOL     OW 4384   3.069   3.287   1.769
 1162SOL    HW1 4385   3.129   3.235   1.830
 1162SOL    HW2 4386   3.084   3.385   1.782
 1163SOL     OW 4387   5.227   2.051   1.933
 1163SOL    HW1 4388   5.138   2.030   1.891
 1163SOL    HW2 4389   5.286   2.094   1.865
 1164SOL     OW 4390   5.433   2.882   2.730
 1164SOL    HW1 4391   5.521   2.930   2.726
 1164SOL    HW2 4392   5.359   2.949   2.738
 1165SOL     OW 4393   0.956   3.450   3.526
 1165SOL    HW1 4394   0.973   3.400   3.611
 1165SOL    HW2 4395   0.938   3.385   3.453
 1166SOL     OW 4396   3.986   2.397   6.337
 1166SOL    HW1 4397   4.003   2.432   6.245
 1166SOL    HW2 4398   3.908   2.335   6.335
 1167SOL     OW 4399   4.388   0.662   5.156
 1167SOL    HW1 4400   4.305   0.678   5.102
 1167SOL    HW2 4401   4.421   0.569   5.139
 1168SOL     OW 4402   0.067   6.546   3.479
 1168SOL    HW1 4403   0.103   6.639   3.483
 1168SOL    HW2 4404   0.141   6.482   3.458
 1169SOL     OW 4405   0.782   3.408   1.425
 1169SOL    HW1 4406   0.762   3.318   1.463
 1169SOL    HW2 4407   0.832   3.398   1.339
 1170SOL     OW 4408   3.696   1.310   2.831
 1170SOL    HW1 4409   3.640   1.228   2.842
 1170SOL    HW2 4410   3.681   1.349   2.740
 1171SOL     OW 4411   3.109   5.705   1.185
 1171SOL    HW1 4412   3.023   5.665   1.155
 1171SOL    HW2 4413   3.092   5.768   1.261
 1172SOL     OW 4414   3.229   3.730   3.923
 1172SOL    HW1 4415   3.250   3.814   3.973
 1172SOL    HW2 4416   3.309   3.702   3.869
 1173SOL     OW 4417   3.068   0.869   5.767
 1173SOL    HW1 4418   3.069   0.770   5.776
 1173SOL    HW2 4419   3.065   0.910   5.858
 1174SOL     OW 4420   2.664   5.959   0.534
 1174SOL    HW1 4421   2.649   6.021   0.611
 1174SOL    HW2 4422   2.616   5.873   0.552
 1175SOL     OW 4423   6.018   4.897   6.382
 1175SOL    HW1 4424   6.101   4.931   6.337
 1175SOL    HW2 4425   5.988   4.813   6.336
 1176SOL     OW 4426   5.690   4.773   0.789
 1176SOL    HW1 4427   5.742   4.712   0.728
 1176SOL    HW2 4428   5.690   4.735   0.882
 1177SOL     OW 4429   6.619   3.046   5.651
 1177SOL    HW1 4430   6.716   3.037   5.627
 1177SOL    HW2 4431   6.584   2.959   5.685
 1178SOL     OW 4432   5.305   3.334   2.327
 1178SOL    HW1 4433   5.343   3.308   2.239
 1178SOL    HW2 4434   5.249   3.259   2.362
 1179SOL     OW 4435   2.127   3.876   0.628
 1179SOL    HW1 4436   2.099   3.846   0.719
 1179SOL    HW2 4437   2.133   3.797   0.567
 1180SOL     OW 4438   2.209   1.341   3.875
 1180SOL    HW1 4439   2.149   1.314   3.800
 1180SOL    HW2 4440   2.187   1.286   3.956
 1181SOL     OW 4441   1.220   4.592   3.689
 1181SOL    HW1 4442   1.208   4.493   3.690
 1181SOL    HW2 4443   1.307   4.615   3.645
 1182SOL     OW 4444   1.924   4.502   3.818
 1182SOL    HW1 4445   1.969   4.565   3.881
 1182SOL    HW2 4446   1.916   4.545   3.728
 1183SOL     OW 4447   4.137   6.044   1.561
 1183SOL    HW1 4448   4.038   6.034   1.576
 1183SOL    HW2 4449   4.167   5.975   1.495
 1184SOL     OW 4450   3.114   2.799   5.254
 1184SOL    HW1 4451   3.034   2.841   5.295
 1184SOL    HW2 4452   3.112   2.813   5.155
 1185SOL     OW 4453   2.187   7.013   0.029
 1185SOL    HW1 4454   2.267   6.970   7.013
 1185SOL    HW2 4455   2.200   0.086   0.032
 1186SOL     OW 4456   6.273   1.022   4.590
 1186SOL    HW1 4457   6.318   1.024   4.680
 1186SOL    HW2 4458   6.338   0.990   4.521
 1187SOL     OW 4459   5.913   6.525   4.846
 1187SOL    HW1 4460   5.936   6.483   4.759
 1187SOL    HW2 4461   5.932   6.623   4.842
 1188SOL     OW 4462   2.084   6.683   5.787
 1188SOL    HW1 4463   2.165   6.742   5.789
 1188SOL    HW2 4464   2.061   6.655   5.880
 1189SOL     OW 4465   5.865   1.170   1.297
 1189SOL    HW1 4466   5.825   1.254   1.260
 1189SOL    HW2 4467   5.952   1.191   1.342
 1190SOL     OW 4468   4.001   5.190   2.931
 1190SOL    HW1 4469   4.048   5.155   3.013
 1190SOL    HW2 4470   4.031   5.139   2.851
 1191SOL     OW 4471   3.306   5.718   5.853
 1191SOL    HW1 4472   3.297   5.814   5.881
 1191SOL    HW2 4473   3.215   5.678   5.844
 1192SOL     OW 4474   6.313   4.898   2.755
 1192SOL    HW1 4475   6.296   4.901   2.854
 1192SOL    HW2 4476   6.251   4.833   2.712
 1193SOL     OW 4477   5.213   0.179   4.330
 1193SOL    HW1 4478   5.277   0.225   4.267
 1193SOL    HW2 4479   5.119   0.199   4.303
 1194SOL     OW 4480   6.506   0.731   1.076
 1194SOL    HW1 4481   6.518   0.636   1.048
 1194SOL    HW2 4482   6.498   0.789   0.995
 1195SOL     OW 4483   5.526   0.740   6.049
 1195SOL    HW1 4484   5.574   0.817   6.007
 1195SOL    HW2 4485   5.590   0.688   6.107
 1196SOL     OW 4486   0.159   5.233   2.560
 1196SOL    HW1 4487   0.255   5.202   2.560
 1196SOL    HW2 4488   0.100   5.156   2.537
 1197SOL     OW 4489   4.246   5.760   5.647
 1197SOL    HW1 4490   4.274   5.855   5.634
 1197SOL    HW2 4491   4.325   5.700   5.638
 1198SOL     OW 4492   3.427   2.029   3.154
 1198SOL    HW1 4493   3.424   2.032   3.254
 1198SOL    HW2 4494   3.363   1.959   3.121
 1199SOL     OW 4495   3.167   3.570   2.109
 1199SOL    HW1 4496   3.171   3.669   2.100
 1199SOL    HW2 4497   3.072   3.540   2.098
 1200SOL     OW 4498   4.048   4.054   6.267
 1200SOL    HW1 4499   4.076   4.143   6.303
 1200SOL    HW2 4500   4.129   4.000   6.243
 1201SOL     OW 4501   1.111   1.816   4.709
 1201SOL    HW1 4502   1.193   1.765   4.681
 1201SOL    HW2 4503   1.093   1.801   4.806
 1202SOL     OW 4504   5.380   0.435   5.181
 1202SOL    HW1 4505   5.479   0.445   5.181
 1202SOL    HW2 4506   5.351   0.387   5.264
 1203SOL     OW 4507   5.160   0.467   1.005
 1203SOL    HW1 4508   5.083   0.488   1.065
 1203SOL    HW2 4509   5.158   0.529   0.926
 1204SOL     OW 4510   3.646   1.449   0.249
 1204SOL    HW1 4511   3.626   1.442   0.151
 1204SOL    HW2 4512   3.664   1.544   0.273
 1205SOL     OW 4513   6.210   2.302   6.116
 1205SOL    HW1 4514   6.161   2.383   6.083
 1205SOL    HW2 4515   6.308   2.314   6.099
 1206SOL     OW 4516   1.471   1.755   4.804
 1206SOL    HW1 4517   1.490   1.753   4.706
 1206SOL    HW2 4518   1.402   1.687   4.826
 1207SOL     OW 4519   5.463   0.290   0.450
 1207SOL    HW1 4520   5.545   0.347   0.456
 1207SOL    HW2 4521   5.399   0.332   0.385
 1208SOL     OW 4522   3.405   3.854   2.572
 1208SOL    HW1 4523   3.433   3.760   2.553
 1208SOL    HW2 4524   3.404   3.870   2.670
 1209SOL     OW 4525   6.174   6.003   5.543
 1209SOL    HW1 4526   6.105   6.069   5.515
 1209SOL    HW2 4527   6.218   5.964   5.462
 1210SOL     OW 4528   3.887   0.098   2.733
 1210SOL    HW1 4529   3.984   0.106   2.756
 1210SOL    HW2 4530   3.835   0.170   2.779
 1211SOL     OW 4531   1.311   3.678   4.018
 1211SOL    HW1 4532   1.361   3.765   4.012
 1211SOL    HW2 4533   1.362   3.607   3.970
 1212SOL     OW 4534   1.353   4.409   4.782
 1212SOL    HW1 4535   1.289   4.336   4.803
 1212SOL    HW2 4536   1.304   4.496   4.775
 1213SOL     OW 4537   6.947   2.800   4.971
 1213SOL    HW1 4538   6.859   2.775   4.930
 1213SOL    HW2 4539   6.940   2.893   5.009
 1214SOL     OW 4540   1.859   3.792   4.342
 1214SOL    HW1 4541   1.868   3.735   4.259
 1214SOL    HW2 4542   1.920   3.871   4.334
 1215SOL     OW 4543   2.193   4.905   2.989
 1215SOL    HW1 4544   2.149   4.871   2.906
 1215SOL    HW2 4545   2.291   4.886   2.985
 1216SOL     OW 4546   1.377   6.632   1.537
 1216SOL    HW1 4547   1.413   6.694   1.467
 1216SOL    HW2 4548   1.415   6.541   1.525
 1217SOL     OW 4549   1.117   6.614   0.414
 1217SOL    HW1 4550   1.162   6.698   0.444
 1217SOL    HW2 4551   1.038   6.637   0.357
 1218SOL     OW 4552   0.706   3.694   4.723
 1218SOL    HW1 4553   0.720   3.790   4.700
 1218SOL    HW2 4554   0.784   3.661   4.776
 1219SOL     OW 4555   4.217   5.748   0.593
 1219SOL    HW1 4556   4.163   5.812   0.648
 1219SOL    HW2 4557   4.280   5.697   0.653
 1220SOL     OW 4558   5.364   2.604   2.819
 1220SOL    HW1 4559   5.388   2.696   2.786
 1220SOL    HW2 4560   5.423   2.537   2.775
 1221SOL     OW 4561   5.697   3.535   0.935
 1221SOL    HW1 4562   5.639   3.608   0.972
 1221SOL    HW2 4563   5.784   3.573   0.904
 1222SOL     OW 4564   6.933   6.709   0.529
 1222SOL    HW1 4565   6.864   6.637   0.540
 1222SOL    HW2 4566   7.022   6.668   0.511
 1223SOL     OW 4567   6.281   0.104   6.595
 1223SOL    HW1 4568   6.378   0.085   6.575
 1223SOL    HW2 4569   6.229   0.019   6.588
 1224SOL     OW 4570   4.468   6.136   0.533
 1224SOL    HW1 4571   4.423   6.136   0.444
 1224SOL    HW2 4572   4.469   6.229   0.570
 1225SOL     OW 4573   4.621   1.872   0.843
 1225SOL    HW1 4574   4.700   1.932   0.841
 1225SOL    HW2 4575   4.644   1.784   0.800
 1226SOL     OW 4576   5.879   6.086   1.331
 1226SOL    HW1 4577   5.902   6.050   1.422
 1226SOL    HW2 4578   5.883   6.186   1.333
 1227SOL     OW 4579   5.735   4.049   5.411
 1227SOL    HW1 4580   5.637   4.050   5.431
 1227SOL    HW2 4581   5.752   4.099   5.326
 1228SOL     OW 4582   3.826   3.204   2.295
 1228SOL    HW1 4583   3.822   3.114   2.340
 1228SOL    HW2 4584   3.773   3.200   2.210
 1229SOL     OW 4585   1.602   5.809   2.351
 1229SOL    HW1 4586   1.539   5.766   2.415
 1229SOL    HW2 4587   1.591   5.768   2.261
 1230SOL     OW 4588   4.495   5.028   2.172
 1230SOL    HW1 4589   4.453   5.011   2.261
 1230SOL    HW2 4590   4.479   5.123   2.146
 1231SOL     OW 4591   1.847   2.332   6.365
 1231SOL    HW1 4592   1.906   2.337   6.285
 1231SOL    HW2 4593   1.789   2.413   6.368
 1232SOL     OW 4594   3.443   0.356   5.433
 1232SOL    HW1 4595   3.397   0.379   5.519
 1232SOL    HW2 4596   3.481   0.440   5.393
 1233SOL     OW 4597   0.292   5.078   3.841
 1233SOL    HW1 4598   0.261   4.996   3.890
 1233SOL    HW2 4599   0.288   5.062   3.743
 1234SOL     OW 4600   0.028   3.499   6.317
 1234SOL    HW1 4601   0.013   3.595   6.338
 1234SOL    HW2 4602   0.000   3.443   6.395
 1235SOL     OW 4603   5.732   4.273   6.897
 1235SOL    HW1 4604   5.682   4.353   6.930
 1235SOL    HW2 4605   5.756   4.215   6.975
 1236SOL     OW 4606   2.390   1.045   0.668
 1236SOL    HW1 4607   2.399   0.949   0.645
 1236SOL    HW2 4608   2.309   1.083   0.624
 1237SOL     OW 4609   1.499   0.275   4.619
 1237SOL    HW1 4610   1.582   0.261   4.674
 1237SOL    HW2 4611   1.512   0.352   4.558
 1238SOL     OW 4612   0.240   7.020   3.910
 1238SOL    HW1 4613   0.334   0.015   3.884
 1238SOL    HW2 4614   0.226   0.019   4.006
 1239SOL     OW 4615   6.046   5.683   4.277
 1239SOL    HW1 4616   6.070   5.706   4.372
 1239SOL    HW2 4617   5.974   5.615   4.276
 1240SOL     OW 4618   5.884   4.899   2.587
 1240SOL    HW1 4619   5.864   4.921   2.491
 1240SOL    HW2 4620   5.807   4.927   2.644
 1241SOL     OW 4621   5.902   5.022   4.225
 1241SOL    HW1 4622   5.954   5.019   4.140
 1241SOL    HW2 4623   5.951   5.078   4.292
 1242SOL     OW 4624   1.397   3.660   0.091
 1242SOL    HW1 4625   1.370   3.682   0.185
 1242SOL    HW2 4626   1.387   3.741   0.034
 1243SOL     OW 4627   1.302   4.169   5.010
 1243SOL    HW1 4628   1.244   4.120   5.074
 1243SOL    HW2 4629   1.396   4.134   5.016
 1244SOL     OW 4630   5.868   0.042   5.008
 1244SOL    HW1 4631   5.910   0.117   4.958
 1244SOL    HW2 4632   5.830   7.001   4.944
 1245SOL     OW 4633   5.343   6.216   1.558
 1245SOL    HW1 4634   5.361   6.138   1.618
 1245SOL    HW2 4635   5.296   6.185   1.475
 1246SOL     OW 4636   4.601   1.621   0.745
 1246SOL    HW1 4637   4.649   1.638   0.658
 1246SOL    HW2 4638   4.563   1.529   0.745
 1247SOL     OW 4639   6.687   6.462   3.668
 1247SOL    HW1 4640   6.649   6.530   3.604
 1247SOL    HW2 4641   6.779   6.489   3.695
 1248SOL     OW 4642   0.182   0.161   5.097
 1248SOL    HW1 4643   0.235   0.125   5.019
 1248SOL    HW2 4644   0.137   0.085   5.144
 1249SOL     OW 4645   0.587   4.394   1.381
 1249SOL    HW1 4646   0.687   4.396   1.385
 1249SOL    HW2 4647   0.550   4.418   1.471
 1250SOL     OW 4648   5.715   3.248   5.335
 1250SOL    HW1 4649   5.813   3.257   5.317
 1250SOL    HW2 4650   5.686   3.154   5.317
 1251SOL     OW 4651   2.941   0.513   2.411
 1251SOL    HW1 4652   2.886   0.446   2.361
 1251SOL    HW2 4653   2.882   0.585   2.446
 1252SOL     OW 4654   2.231   5.511   7.015
 1252SOL    HW1 4655   2.317   5.535   6.971
 1252SOL    HW2 4656   2.248   5.486   0.084
 1253SOL     OW 4657   3.629   0.764   0.767
 1253SOL    HW1 4658   3.575   0.684   0.791
 1253SOL    HW2 4659   3.601   0.797   0.677
 1254SOL     OW 4660   6.366   1.568   2.569
 1254SOL    HW1 4661   6.403   1.657   2.543
 1254SOL    HW2 4662   6.406   1.538   2.655
 1255SOL     OW 4663   5.236   1.973   5.110
 1255SOL    HW1 4664   5.168   1.917   5.062
 1255SOL    HW2 4665   5.321   1.976   5.057
 1256SOL     OW 4666   0.270   5.857   3.864
 1256SOL    HW1 4667   0.349   5.803   3.836
 1256SOL    HW2 4668   0.297   5.952   3.877
 1257SOL     OW 4669   0.436   4.631   3.505
 1257SOL    HW1 4670   0.528   4.627   3.465
 1257SOL    HW2 4671   0.443   4.623   3.605
 1258SOL     OW 4672   3.150   6.511   4.351
 1258SOL    HW1 4673   3.142   6.562   4.265
 1258SOL    HW2 4674   3.240   6.527   4.391
 1259SOL     OW 4675   4.786   0.349   5.116
 1259SOL    HW1 4676   4.798   0.443   5.086
 1259SOL    HW2 4677   4.875   0.313   5.147
 1260SOL     OW 4678   1.957   0.399   2.353
 1260SOL    HW1 4679   1.903   0.478   2.383
 1260SOL    HW2 4680   1.983   0.411   2.258
 1261SOL     OW 4681   6.855   4.479   6.435
 1261SOL    HW1 4682   6.810   4.499   6.348
 1261SOL    HW2 4683   6.921   4.405   6.422
 1262SOL     OW 4684   4.918   5.115   0.835
 1262SOL    HW1 4685   4.929   5.111   0.935
 1262SOL    HW2 4686   4.820   5.110   0.813
 1263SOL     OW 4687   0.394   2.337   0.968
 1263SOL    HW1 4688   0.468   2.317   0.904
 1263SOL    HW2 4689   0.346   2.252   0.991
 1264SOL     OW 4690   0.666   3.484   3.264
 1264SOL    HW1 4691   0.680   3.420   3.340
 1264SOL    HW2 4692   0.688   3.576   3.294
 1265SOL     OW 4693   0.155   4.246   4.700
 1265SOL    HW1 4694   0.103   4.329   4.686
 1265SOL    HW2 4695   0.112   4.170   4.651
 1266SOL     OW 4696   3.280   1.764   5.320
 1266SOL    HW1 4697   3.364   1.810   5.290
 1266SOL    HW2 4698   3.239   1.716   5.242
 1267SOL     OW 4699   0.497   5.112   3.250
 1267SOL    HW1 4700   0.531   5.205   3.239
 1267SOL    HW2 4701   0.573   5.052   3.274
 1268SOL     OW 4702   5.455   2.839   6.272
 1268SOL    HW1 4703   5.417   2.921   6.316
 1268SOL    HW2 4704   5.387   2.803   6.207
 1269SOL     OW 4705   6.973   6.176   4.891
 1269SOL    HW1 4706   6.956   6.260   4.943
 1269SOL    HW2 4707   6.974   6.197   4.794
 1270SOL     OW 4708   2.136   3.812   4.691
 1270SOL    HW1 4709   2.161   3.851   4.602
 1270SOL    HW2 4710   2.055   3.859   4.726
 1271SOL     OW 4711   3.037   1.761   2.742
 1271SOL    HW1 4712   3.033   1.661   2.746
 1271SOL    HW2 4713   3.002   1.799   2.828
 1272SOL     OW 4714   6.710   5.456   1.143
 1272SOL    HW1 4715   6.770   5.399   1.087
 1272SOL    HW2 4716   6.710   5.550   1.107
 1273SOL     OW 4717   2.449   4.678   6.907
 1273SOL    HW1 4718   2.508   4.621   6.964
 1273SOL    HW2 4719   2.371   4.624   6.875
 1274SOL     OW 4720   0.049   2.654   1.607
 1274SOL    HW1 4721   7.004   2.713   1.646
 1274SOL    HW2 4722   0.007   2.582   1.553
 1275SOL     OW 4723   4.691   0.899   4.398
 1275SOL    HW1 4724   4.746   0.833   4.448
 1275SOL    HW2 4725   4.663   0.973   4.459
 1276SOL     OW 4726   0.205   0.647   1.779
 1276SOL    HW1 4727   0.201   0.747   1.777
 1276SOL    HW2 4728   0.300   0.617   1.789
 1277SOL     OW 4729   0.179   0.755   4.602
 1277SOL    HW1 4730   0.143   0.815   4.673
 1277SOL    HW2 4731   0.277   0.739   4.618
 1278SOL     OW 4732   2.042   1.989   5.453
 1278SOL    HW1 4733   2.012   2.072   5.405
 1278SOL    HW2 4734   2.084   1.926   5.388
 1279SOL     OW 4735   2.860   6.564   0.846
 1279SOL    HW1 4736   2.924   6.563   0.922
 1279SOL    HW2 4737   2.904   6.526   0.764
 1280SOL     OW 4738   2.191   7.003   2.824
 1280SOL    HW1 4739   2.148   0.034   2.895
 1280SOL    HW2 4740   2.120   6.958   2.770
 1281SOL     OW 4741   1.894   6.241   3.260
 1281SOL    HW1 4742   1.805   6.202   3.283
 1281SOL    HW2 4743   1.914   6.223   3.164
 1282SOL     OW 4744   0.694   1.309   0.946
 1282SOL    HW1 4745   0.623   1.328   0.878
 1282SOL    HW2 4746   0.746   1.228   0.918
 1283SOL     OW 4747   5.523   4.458   5.621
 1283SOL    HW1 4748   5.552   4.460   5.525
 1283SOL    HW2 4749   5.596   4.420   5.677
 1284SOL     OW 4750   2.701   2.613   1.762
 1284SOL    HW1 4751   2.611   2.570   1.751
 1284SOL    HW2 4752   2.768   2.544   1.787
 1285SOL     OW 4753   4.870   2.870   6.188
 1285SOL    HW1 4754   4.965   2.896   6.205
 1285SOL    HW2 4755   4.838   2.810   6.261
 1286SOL     OW 4756   5.246   4.078   2.043
 1286SOL    HW1 4757   5.345   4.090   2.029
 1286SOL    HW2 4758   5.225   4.084   2.140
 1287SOL     OW 4759   5.966   5.447   6.802
 1287SOL    HW1 4760   5.875   5.422   6.834
 1287SOL    HW2 4761   6.011   5.504   6.871
 1288SOL     OW 4762   0.635   2.651   0.242
 1288SOL    HW1 4763   0.735   2.655   0.250
 1288SOL    HW2 4764   0.602   2.568   0.286
 1289SOL     OW 4765   0.082   6.424   2.434
 1289SOL    HW1 4766   0.089   6.409   2.335
 1289SOL    HW2 4767   0.171   6.455   2.469
 1290SOL     OW 4768   0.257   0.166   6.755
 1290SOL    HW1 4769   0.167   0.208   6.755
 1290SOL    HW2 4770   0.249   0.069   6.777
 1291SOL     OW 4771   1.396   4.962   6.217
 1291SOL    HW1 4772   1.342   4.889   6.259
 1291SOL    HW2 4773   1.392   5.043   6.274
 1292SOL     OW 4774   6.911   4.520   1.327
 1292SOL    HW1 4775   6.882   4.428   1.355
 1292SOL    HW2 4776   6.837   4.585   1.345
 1293SOL     OW 4777   2.261   1.817   6.803
 1293SOL    HW1 4778   2.332   1.885   6.782
 1293SOL    HW2 4779   2.205   1.801   6.721
 1294SOL     OW 4780   0.494   3.292   2.311
 1294SOL    HW1 4781   0.575   3.244   2.344
 1294SOL    HW2 4782   0.458   3.244   2.231
 1295SOL     OW 4783   5.574   3.118   2.509
 1295SOL    HW1 4784   5.588   3.024   2.477
 1295SOL    HW2 4785   5.559   3.117   2.607
 1296SOL     OW 4786   3.644   1.779   6.364
 1296SOL    HW1 4787   3.697   1.720   6.304
 1296SOL    HW2 4788   3.666   1.875   6.346
 1297SOL     OW 4789   6.161   1.664   5.479
 1297SOL    HW1 4790   6.095   1.736   5.501
 1297SOL    HW2 4791   6.220   1.694   5.404
 1298SOL     OW 4792   5.577   3.297   3.209
 1298SOL    HW1 4793   5.483   3.327   3.192
 1298SOL    HW2 4794   5.625   3.366   3.263
 1299SOL     OW 4795   1.858   4.101   3.333
 1299SOL    HW1 4796   1.818   4.081   3.422
 1299SOL    HW2 4797   1.855   4.019   3.276
 1300SOL     OW 4798   3.186   3.327   1.366
 1300SOL    HW1 4799   3.218   3.249   1.420
 1300SOL    HW2 4800   3.088   3.339   1.380
 1301SOL     OW 4801   0.902   6.747   3.786
 1301SOL    HW1 4802   0.938   6.717   3.698
 1301SOL    HW2 4803   0.933   6.840   3.805
 1302SOL     OW 4804   2.056   6.332   5.362
 1302SOL    HW1 4805   2.104   6.394   5.425
 1302SOL    HW2 4806   2.097   6.241   5.367
 1303SOL     OW 4807   3.827   1.404   1.117
 1303SOL    HW1 4808   3.893   1.378   1.045
 1303SOL    HW2 4809   3.877   1.439   1.196
 1304SOL     OW 4810   1.456   0.419   6.201
 1304SOL    HW1 4811   1.363   0.393   6.175
 1304SOL    HW2 4812   1.521   0.377   6.137
 1305SOL     OW 4813   4.773   6.503   4.561
 1305SOL    HW1 4814   4.759   6.482   4.657
 1305SOL    HW2 4815   4.871   6.508   4.542
 1306SOL     OW 4816   1.202   4.162   4.642
 1306SOL    HW1 4817   1.215   4.072   4.684
 1306SOL    HW2 4818   1.104   4.183   4.637
 1307SOL     OW 4819   1.454   3.260   4.777
 1307SOL    HW1 4820   1.371   3.295   4.733
 1307SOL    HW2 4821   1.445   3.161   4.790
 1308SOL     OW 4822   4.501   5.799   4.064
 1308SOL    HW1 4823   4.538   5.827   3.975
 1308SOL    HW2 4824   4.561   5.731   4.105
 1309SOL     OW 4825   5.579   2.932   5.295
 1309SOL    HW1 4826   5.610   2.966   5.385
 1309SOL    HW2 4827   5.570   2.833   5.298
 1310SOL     OW 4828   6.100   3.993   4.349
 1310SOL    HW1 4829   6.126   3.973   4.255
 1310SOL    HW2 4830   6.001   4.006   4.354
 1311SOL     OW 4831   6.186   0.095   4.296
 1311SOL    HW1 4832   6.146   0.040   4.222
 1311SOL    HW2 4833   6.172   0.192   4.277
 1312SOL     OW 4834   0.716   0.786   0.086
 1312SOL    HW1 4835   0.771   0.703   0.086
 1312SOL    HW2 4836   0.623   0.765   0.058
 1313SOL     OW 4837   3.431   5.562   4.823
 1313SOL    HW1 4838   3.370   5.488   4.797
 1313SOL    HW2 4839   3.391   5.614   4.898
 1314SOL     OW 4840   1.233   1.633   5.652
 1314SOL    HW1 4841   1.144   1.594   5.631
 1314SOL    HW2 4842   1.289   1.566   5.701
 1315SOL     OW 4843   1.641   0.857   1.029
 1315SOL    HW1 4844   1.697   0.939   1.044
 1315SOL    HW2 4845   1.684   0.800   0.959
 1316SOL     OW 4846   2.090   0.142   3.780
 1316SOL    HW1 4847   2.008   0.093   3.811
 1316SOL    HW2 4848   2.152   0.155   3.858
 1317SOL     OW 4849   0.695   4.519   4.609
 1317SOL    HW1 4850   0.782   4.473   4.590
 1317SOL    HW2 4851   0.698   4.612   4.572
 1318SOL     OW 4852   0.066   1.120   0.460
 1318SOL    HW1 4853   0.144   1.133   0.399
 1318SOL    HW2 4854   0.092   1.060   0.535
 1319SOL     OW 4855   6.572   0.903   0.867
 1319SOL    HW1 4856   6.598   0.938   0.777
 1319SOL    HW2 4857   6.653   0.878   0.918
 1320SOL     OW 4858   5.702   4.549   6.637
 1320SOL    HW1 4859   5.678   4.467   6.584
 1320SOL    HW2 4860   5.758   4.522   6.715
 1321SOL     OW 4861   4.504   3.211   7.019
 1321SOL    HW1 4862   4.404   3.221   7.021
 1321SOL    HW2 4863   4.535   3.201   6.924
 1322SOL     OW 4864   5.979   0.632   3.362
 1322SOL    HW1 4865   6.035   0.592   3.290
 1322SOL    HW2 4866   5.967   0.565   3.436
 1323SOL     OW 4867   5.862   1.575   5.497
 1323SOL    HW1 4868   5.885   1.670   5.478
 1323SOL    HW2 4869   5.796   1.570   5.573
 1324SOL     OW 4870   1.480   2.460   1.553
 1324SOL    HW1 4871   1.412   2.395   1.589
 1324SOL    HW2 4872   1.463   2.474   1.455
 1325SOL     OW 4873   1.633   6.469   3.072
 1325SOL    HW1 4874   1.570   6.541   3.044
 1325SOL    HW2 4875   1.612   6.441   3.166
 1326SOL     OW 4876   5.171   2.204   4.502
 1326SOL    HW1 4877   5.101   2.251   4.555
 1326SOL    HW2 4878   5.261   2.231   4.535
 1327SOL     OW 4879   2.716   5.288   2.775
 1327SOL    HW1 4880   2.650   5.354   2.740
 1327SOL    HW2 4881   2.763   5.327   2.854
 1328SOL     OW 4882   1.621   2.789   6.266
 1328SOL    HW1 4883   1.600   2.871   6.320
 1328SOL    HW2 4884   1.717   2.793   6.236
 1329SOL     OW 4885   0.434   1.437   0.381
 1329SOL    HW1 4886   0.432   1.531   0.348
 1329SOL    HW2 4887   0.522   1.395   0.359
 1330SOL     OW 4888   6.549   0.474   0.953
 1330SOL    HW1 4889   6.575   0.403   1.018
 1330SOL    HW2 4890   6.572   0.445   0.860
 1331SOL     OW 4891   5.927   0.872   2.615
 1331SOL    HW1 4892   5.925   0.878   2.715
 1331SOL    HW2 4893   5.967   0.955   2.578
 1332SOL     OW 4894   4.047   1.809   1.636
 1332SOL    HW1 4895   4.044   1.756   1.721
 1332SOL    HW2 4896   4.140   1.808   1.600
 1333SOL     OW 4897   3.585   4.244   5.308
 1333SOL    HW1 4898   3.602   4.174   5.377
 1333SOL    HW2 4899   3.543   4.324   5.351
 1334SOL     OW 4900   1.487   3.937   5.011
 1334SOL    HW1 4901   1.518   3.865   5.073
 1334SOL    HW2 4902   1.468   3.898   4.921
 1335SOL     OW 4903   2.140   6.070   2.641
 1335SOL    HW1 4904   2.120   6.144   2.705
 1335SOL    HW2 4905   2.081   5.992   2.661
 1336SOL     OW 4906   1.125   1.765   6.694
 1336SOL    HW1 4907   1.069   1.778   6.776
 1336SOL    HW2 4908   1.219   1.794   6.712
 1337SOL     OW 4909   2.056   2.635   6.331
 1337SOL    HW1 4910   2.118   2.600   6.262
 1337SOL    HW2 4911   2.107   2.654   6.415
 1338SOL     OW 4912   4.176   4.524   6.610
 1338SOL    HW1 4913   4.255   4.504   6.553
 1338SOL    HW2 4914   4.198   4.504   6.706
 1339SOL     OW 4915   6.898   4.924   6.309
 1339SOL    HW1 4916   6.817   4.981   6.326
 1339SOL    HW2 4917   6.915   4.865   6.388
 1340SOL     OW 4918   1.382   2.175   0.600
 1340SOL    HW1 4919   1.422   2.201   0.511
 1340SOL    HW2 4920   1.330   2.090   0.589
 1341SOL     OW 4921   3.937   0.990   4.580
 1341SOL    HW1 4922   3.897   0.998   4.489
 1341SOL    HW2 4923   3.927   1.076   4.630
 1342SOL     OW 4924   1.161   6.286   6.378
 1342SOL    HW1 4925   1.164   6.207   6.317
 1342SOL    HW2 4926   1.250   6.333   6.378
 1343SOL     OW 4927   3.522   6.239   2.553
 1343SOL    HW1 4928   3.583   6.184   2.496
 1343SOL    HW2 4929   3.574   6.279   2.628
 1344SOL     OW 4930   6.368   2.093   2.894
 1344SOL    HW1 4931   6.297   2.146   2.848
 1344SOL    HW2 4932   6.432   2.155   2.939
 1345SOL     OW 4933   0.906   0.985   2.982
 1345SOL    HW1 4934   0.981   0.997   2.918
 1345SOL    HW2 4935   0.842   1.062   2.974
 1346SOL     OW 4936   0.479   6.687   3.661
 1346SOL    HW1 4937   0.532   6.765   3.693
 1346SOL    HW2 4938   0.420   6.655   3.735
 1347SOL     OW 4939   6.525   6.540   3.217
 1347SOL    HW1 4940   6.498   6.535   3.120
 1347SOL    HW2 4941   6.612   6.588   3.225
 1348SOL     OW 4942   5.699   4.761   4.097
 1348SOL    HW1 4943   5.775   4.733   4.156
 1348SOL    HW2 4944   5.613   4.726   4.134
 1349SOL     OW 4945   4.563   2.804   0.470
 1349SOL    HW1 4946   4.465   2.818   0.484
 1349SOL    HW2 4947   4.578   2.771   0.377
 1350SOL     OW 4948   3.166   5.635   6.664
 1350SOL    HW1 4949   3.171   5.590   6.575
 1350SOL    HW2 4950   3.176   5.567   6.737
 1351SOL     OW 4951   0.405   0.314   3.639
 1351SOL    HW1 4952   0.416   0.413   3.632
 1351SOL    HW2 4953   0.336   0.283   3.574
 1352SOL     OW 4954   6.691   0.372   3.539
 1352SOL    HW1 4955   6.595   0.360   3.513
 1352SOL    HW2 4956   6.708   0.468   3.559
 1353SOL     OW 4957   0.148   4.153   4.943
 1353SOL    HW1 4958   0.078   4.083   4.958
 1353SOL    HW2 4959   0.138   4.191   4.851
 1354SOL     OW 4960   0.158   0.735   1.125
 1354SOL    HW1 4961   0.230   0.740   1.194
 1354SOL    HW2 4962   0.083   0.679   1.159
 1355SOL     OW 4963   5.517   4.032   0.226
 1355SOL    HW1 4964   5.526   4.085   0.310
 1355SOL    HW2 4965   5.427   3.988   0.223
 1356SOL     OW 4966   3.348   4.100   2.442
 1356SOL    HW1 4967   3.421   4.165   2.461
 1356SOL    HW2 4968   3.354   4.023   2.506
 1357SOL     OW 4969   2.661   2.874   6.650
 1357SOL    HW1 4970   2.726   2.835   6.715
 1357SOL    HW2 4971   2.710   2.930   6.583
 1358SOL     OW 4972   2.217   2.847   6.581
 1358SOL    HW1 4973   2.287   2.893   6.636
 1358SOL    HW2 4974   2.237   2.749   6.578
 1359SOL     OW 4975   5.994   3.597   1.503
 1359SOL    HW1 4976   6.068   3.551   1.455
 1359SOL    HW2 4977   6.020   3.612   1.599
 1360SOL     OW 4978   3.765   3.939   3.047
 1360SOL    HW1 4979   3.691   3.989   3.002
 1360SOL    HW2 4980   3.784   3.981   3.135
 1361SOL     OW 4981   0.758   6.578   6.240
 1361SOL    HW1 4982   0.844   6.592   6.192
 1361SOL    HW2 4983   0.775   6.579   6.339
 1362SOL     OW 4984   3.110   3.528   5.726
 1362SOL    HW1 4985   3.025   3.479   5.747
 1362SOL    HW2 4986   3.091   3.604   5.665
 1363SOL     OW 4987   6.841   5.805   3.198
 1363SOL    HW1 4988   6.815   5.894   3.161
 1363SOL    HW2 4989   6.840   5.809   3.298
 1364SOL     OW 4990   0.009   3.313   0.777
 1364SOL    HW1 4991   0.022   3.222   0.814
 1364SOL    HW2 4992   0.047   3.318   0.684
 1365SOL     OW 4993   1.058   3.255   5.984
 1365SOL    HW1 4994   1.155   3.232   5.991
 1365SOL    HW2 4995   1.049   3.346   5.944
 1366SOL     OW 4996   6.731   2.704   0.975
 1366SOL    HW1 4997   6.654   2.697   1.039
 1366SOL    HW2 4998   6.793   2.777   1.006
 1367SOL     OW 4999   1.162   4.173   3.504
 1367SOL    HW1 5000   1.230   4.243   3.528
 1367SOL    HW2 5001   1.145   4.176   3.405
 1368SOL     OW 5002   6.674   6.835   4.074
 1368SOL    HW1 5003   6.612   6.887   4.133
 1368SOL    HW2 5004   6.768   6.851   4.103
 1369SOL     OW 5005   1.534   6.077   2.205
 1369SOL    HW1 5006   1.575   6.165   2.228
 1369SOL    HW2 5007   1.555   6.011   2.276
 1370SOL     OW 5008   0.040   2.420   4.090
 1370SOL    HW1 5009   7.020   2.453   4.008
 1370SOL    HW2 5010   0.138   2.412   4.073
 1371SOL     OW 5011   6.032   1.347   4.593
 1371SOL    HW1 5012   6.034   1.263   4.647
 1371SOL    HW2 5013   6.124   1.368   4.561
 1372SOL     OW 5014   6.493   3.027   0.398
 1372SOL    HW1 5015   6.496   3.016   0.497
 1372SOL    HW2 5016   6.413   2.980   0.362
 1373SOL     OW 5017   4.492   2.429   1.310
 1373SOL    HW1 5018   4.436   2.503   1.348
 1373SOL    HW2 5019   4.513   2.362   1.381
 1374SOL     OW 5020   5.248   3.535   0.936
 1374SOL    HW1 5021   5.227   3.626   0.974
 1374SOL    HW2 5022   5.287   3.477   1.007
 1375SOL     OW 5023   6.847   5.980   5.662
 1375SOL    HW1 5024   6.770   5.989   5.725
 1375SOL    HW2 5025   6.888   5.890   5.672
 1376SOL     OW 5026   2.958   4.867   6.498
 1376SOL    HW1 5027   2.885   4.897   6.437
 1376SOL    HW2 5028   2.927   4.874   6.593
 1377SOL     OW 5029   0.987   2.651   3.594
 1377SOL    HW1 5030   1.050   2.648   3.517
 1377SOL    HW2 5031   1.029   2.700   3.671
 1378SOL     OW 5032   4.273   2.342   4.681
 1378SOL    HW1 5033   4.234   2.351   4.773
 1378SOL    HW2 5034   4.249   2.422   4.627
 1379SOL     OW 5035   4.828   4.974   2.029
 1379SOL    HW1 5036   4.866   5.037   2.097
 1379SOL    HW2 5037   4.760   5.021   1.974
 1380SOL     OW 5038   6.143   6.377   1.579
 1380SOL    HW1 5039   6.186   6.452   1.629
 1380SOL    HW2 5040   6.063   6.345   1.630
 1381SOL     OW 5041   5.879   2.344   5.882
 1381SOL    HW1 5042   5.869   2.442   5.866
 1381SOL    HW2 5043   5.822   2.294   5.817
 1382SOL     OW 5044   4.538   2.744   1.461
 1382SOL    HW1 5045   4.510   2.783   1.549
 1382SOL    HW2 5046   4.620   2.688   1.475
 1383SOL     OW 5047   1.494   6.481   1.793
 1383SOL    HW1 5048   1.565   6.545   1.764
 1383SOL    HW2 5049   1.469   6.421   1.717
 1384SOL     OW 5050   4.810   0.714   0.272
 1384SOL    HW1 5051   4.769   0.633   0.231
 1384SOL    HW2 5052   4.746   0.757   0.335
 1385SOL     OW 5053   1.908   4.373   3.418
 1385SOL    HW1 5054   1.991   4.428   3.424
 1385SOL    HW2 5055   1.928   4.288   3.370
 1386SOL     OW 5056   3.147   6.132   3.882
 1386SOL    HW1 5057   3.120   6.058   3.819
 1386SOL    HW2 5058   3.117   6.109   3.974
 1387SOL     OW 5059   3.856   5.525   1.331
 1387SOL    HW1 5060   3.786   5.597   1.330
 1387SOL    HW2 5061   3.923   5.543   1.259
 1388SOL     OW 5062   5.909   0.277   1.728
 1388SOL    HW1 5063   5.835   0.341   1.711
 1388SOL    HW2 5064   5.996   0.325   1.726
 1389SOL     OW 5065   6.267   0.801   3.138
 1389SOL    HW1 5066   6.216   0.717   3.120
 1389SOL    HW2 5067   6.253   0.829   3.233
 1390SOL     OW 5068   1.213   3.417   6.485
 1390SOL    HW1 5069   1.215   3.406   6.386
 1390SOL    HW2 5070   1.229   3.514   6.508
 1391SOL     OW 5071   6.801   1.179   3.899
 1391SOL    HW1 5072   6.894   1.142   3.902
 1391SOL    HW2 5073   6.775   1.196   3.804
 1392SOL     OW 5074   5.556   5.364   6.007
 1392SOL    HW1 5075   5.629   5.302   5.978
 1392SOL    HW2 5076   5.486   5.313   6.057
 1393SOL     OW 5077   6.366   5.624   5.381
 1393SOL    HW1 5078   6.448   5.616   5.324
 1393SOL    HW2 5079   6.392   5.608   5.477
 1394SOL     OW 5080   3.034   5.953   5.163
 1394SOL    HW1 5081   3.032   5.943   5.263
 1394SOL    HW2 5082   2.989   5.874   5.121
 1395SOL     OW 5083   2.800   4.851   6.033
 1395SOL    HW1 5084   2.704   4.881   6.029
 1395SOL    HW2 5085   2.812   4.769   5.978
 1396SOL     OW 5086   1.502   0.688   4.025
 1396SOL    HW1 5087   1.454   0.631   4.092
 1396SOL    HW2 5088   1.580   0.638   3.989
 1397SOL     OW 5089   0.156   0.508   4.484
 1397SOL    HW1 5090   0.228   0.524   4.416
 1397SOL    HW2 5091   0.141   0.592   4.537
 1398SOL     OW 5092   1.847   0.936   5.867
 1398SOL    HW1 5093   1.817   0.984   5.950
 1398SOL    HW2 5094   1.789   0.962   5.790
 1399SOL     OW 5095   3.727   6.608   1.123
 1399SOL    HW1 5096   3.740   6.509   1.120
 1399SOL    HW2 5097   3.687   6.634   1.211
 1400SOL     OW 5098   0.148   1.921   2.703
 1400SOL    HW1 5099   0.199   1.868   2.770
 1400SOL    HW2 5100   0.206   1.940   2.624
 1401SOL     OW 5101   0.184   1.471   5.396
 1401SOL    HW1 5102   0.138   1.386   5.423
 1401SOL    HW2 5103   0.146   1.547   5.448
 1402SOL     OW 5104   0.248   4.189   6.834
 1402SOL    HW1 5105   0.273   4.217   6.927
 1402SOL    HW2 5106   0.153   4.216   6.816
 1403SOL     OW 5107   2.737   1.586   1.574
 1403SOL    HW1 5108   2.832   1.603   1.551
 1403SOL    HW2 5109   2.685   1.570   1.490
 1404SOL     OW 5110   5.414   0.596   0.670
 1404SOL    HW1 5111   5.355   0.614   0.591
 1404SOL    HW2 5112   5.509   0.615   0.646
 1405SOL     OW 5113   2.283   4.060   1.153
 1405SOL    HW1 5114   2.376   4.096   1.156
 1405SOL    HW2 5115   2.225   4.123   1.101
 1406SOL     OW 5116   1.408   5.390   1.761
 1406SOL    HW1 5117   1.391   5.311   1.820
 1406SOL    HW2 5118   1.503   5.419   1.771
 1407SOL     OW 5119   0.457   1.981   1.905
 1407SOL    HW1 5120   0.549   1.999   1.939
 1407SOL    HW2 5121   0.406   2.067   1.897
 1408SOL     OW 5122   5.132   0.865   5.693
 1408SOL    HW1 5123   5.183   0.932   5.639
 1408SOL    HW2 5124   5.195   0.816   5.754
 1409SOL     OW 5125   0.545   6.860   5.670
 1409SOL    HW1 5126   0.528   6.836   5.575
 1409SOL    HW2 5127   0.595   6.786   5.716
 1410SOL     OW 5128   2.225   3.589   6.613
 1410SOL    HW1 5129   2.297   3.657   6.622
 1410SOL    HW2 5130   2.265   3.498   6.609
 1411SOL     OW 5131   2.793   6.190   3.276
 1411SOL    HW1 5132   2.724   6.146   3.218
 1411SOL    HW2 5133   2.756   6.202   3.368
 1412SOL     OW 5134   0.379   2.078   0.084
 1412SOL    HW1 5135   0.441   2.008   0.120
 1412SOL    HW2 5136   0.420   2.121   0.003
 1413SOL     OW 5137   1.758   0.918   5.178
 1413SOL    HW1 5138   1.853   0.917   5.147
 1413SOL    HW2 5139   1.698   0.939   5.101
 1414SOL     OW 5140   2.471   1.260   1.711
 1414SOL    HW1 5141   2.507   1.340   1.759
 1414SOL    HW2 5142   2.381   1.282   1.673
 1415SOL     OW 5143   2.708   0.578   4.179
 1415SOL    HW1 5144   2.798   0.619   4.174
 1415SOL    HW2 5145   2.638   0.646   4.156
 1416SOL     OW 5146   4.759   4.423   3.977
 1416SOL    HW1 5147   4.845   4.393   4.018
 1416SOL    HW2 5148   4.768   4.517   3.945
 1417SOL     OW 5149   2.006   2.103   0.309
 1417SOL    HW1 5150   2.040   2.025   0.362
 1417SOL    HW2 5151   2.041   2.188   0.349
 1418SOL     OW 5152   2.874   3.545   3.535
 1418SOL    HW1 5153   2.927   3.613   3.585
 1418SOL    HW2 5154   2.790   3.525   3.584
 1419SOL     OW 5155   3.207   6.469   4.841
 1419SOL    HW1 5156   3.271   6.483   4.766
 1419SOL    HW2 5157   3.252   6.487   4.928
 1420SOL     OW 5158   1.913   6.141   1.893
 1420SOL    HW1 5159   1.821   6.175   1.876
 1420SOL    HW2 5160   1.966   6.142   1.808
 1421SOL     OW 5161   2.059   2.867   3.185
 1421SOL    HW1 5162   2.024   2.905   3.270
 1421SOL    HW2 5163   2.109   2.938   3.135
 1422SOL     OW 5164   2.395   4.345   1.789
 1422SOL    HW1 5165   2.362   4.358   1.696
 1422SOL    HW2 5166   2.355   4.262   1.828
 1423SOL     OW 5167   4.987   6.311   2.082
 1423SOL    HW1 5168   5.039   6.378   2.135
 1423SOL    HW2 5169   4.978   6.227   2.136
 1424SOL     OW 5170   6.457   3.983   4.763
 1424SOL    HW1 5171   6.428   4.052   4.830
 1424SOL    HW2 5172   6.556   3.985   4.753
 1425SOL     OW 5173   1.756   6.252   4.489
 1425SOL    HW1 5174   1.665   6.212   4.489
 1425SOL    HW2 5175   1.790   6.259   4.395
 1426SOL     OW 5176   1.164   2.477   5.695
 1426SOL    HW1 5177   1.182   2.559   5.641
 1426SOL    HW2 5178   1.232   2.470   5.768
 1427SOL     OW 5179   0.149   6.844   3.079
 1427SOL    HW1 5180   0.104   6.846   2.990
 1427SOL    HW2 5181   0.162   6.750   3.108
 1428SOL     OW 5182   5.647   2.569   0.880
 1428SOL    HW1 5183   5.630   2.526   0.791
 1428SOL    HW2 5184   5.581   2.643   0.893
 1429SOL     OW 5185   5.954   2.155   6.993
 1429SOL    HW1 5186   5.997   2.187   6.909
 1429SOL    HW2 5187   6.021   2.106   0.023
 1430SOL     OW 5188   2.095   4.686   3.893
 1430SOL    HW1 5189   2.162   4.731   3.834
 1430SOL    HW2 5190   2.108   4.715   3.988
 1431SOL     OW 5191   2.233   1.824   0.744
 1431SOL    HW1 5192   2.284   1.795   0.663
 1431SOL    HW2 5193   2.180   1.747   0.779
 1432SOL     OW 5194   2.855   1.444   2.868
 1432SOL    HW1 5195   2.849   1.499   2.784
 1432SOL    HW2 5196   2.765   1.406   2.888
 1433SOL     OW 5197   4.733   1.356   3.901
 1433SOL    HW1 5198   4.678   1.297   3.843
 1433SOL    HW2 5199   4.803   1.301   3.948
 1434SOL     OW 5200   6.764   1.146   5.705
 1434SOL    HW1 5201   6.791   1.164   5.800
 1434SOL    HW2 5202   6.778   1.049   5.685
 1435SOL     OW 5203   5.736   0.915   2.424
 1435SOL    HW1 5204   5.790   0.872   2.497
 1435SOL    HW2 5205   5.676   0.846   2.384
 1436SOL     OW 5206   5.276   4.021   0.471
 1436SOL    HW1 5207   5.363   4.071   0.475
 1436SOL    HW2 5208   5.217   4.051   0.546
 1437SOL     OW 5209   2.575   2.539   3.658
 1437SOL    HW1 5210   2.534   2.591   3.733
 1437SOL    HW2 5211   2.520   2.551   3.575
 1438SOL     OW 5212   3.285   6.500   1.517
 1438SOL    HW1 5213   3.372   6.499   1.566
 1438SOL    HW2 5214   3.209   6.500   1.583
 1439SOL     OW 5215   0.100   5.832   1.436
 1439SOL    HW1 5216   0.180   5.864   1.486
 1439SOL    HW2 5217   0.025   5.815   1.500
 1440SOL     OW 5218   3.067   3.748   1.365
 1440SOL    HW1 5219   3.128   3.684   1.410
 1440SOL    HW2 5220   3.078   3.839   1.405
 1441SOL     OW 5221   5.895   0.437   2.532
 1441SOL    HW1 5222   5.908   0.389   2.619
 1441SOL    HW2 5223   5.833   0.384   2.474
 1442SOL     OW 5224   6.326   5.603   0.295
 1442SOL    HW1 5225   6.336   5.701   0.280
 1442SOL    HW2 5226   6.410   5.556   0.271
 1443SOL     OW 5227   0.577   2.379   2.476
 1443SOL    HW1 5228   0.652   2.314   2.464
 1443SOL    HW2 5229   0.599   2.465   2.431
 1444SOL     OW 5230   5.143   0.300   0.651
 1444SOL    HW1 5231   5.164   0.270   0.744
 1444SOL    HW2 5232   5.193   0.385   0.631
 1445SOL     OW 5233   0.970   3.201   2.451
 1445SOL    HW1 5234   0.993   3.128   2.516
 1445SOL    HW2 5235   1.049   3.220   2.394
 1446SOL     OW 5236   6.849   1.097   6.837
 1446SOL    HW1 5237   6.907   1.171   6.801
 1446SOL    HW2 5238   6.774   1.136   6.890
 1447SOL     OW 5239   5.962   5.261   3.972
 1447SOL    HW1 5240   6.002   5.327   3.909
 1447SOL    HW2 5241   5.987   5.285   4.066
 1448SOL     OW 5242   6.676   2.601   4.679
 1448SOL    HW1 5243   6.751   2.560   4.626
 1448SOL    HW2 5244   6.615   2.651   4.617
 1449SOL     OW 5245   0.788   4.303   5.024
 1449SOL    HW1 5246   0.739   4.225   5.061
 1449SOL    HW2 5247   0.846   4.344   5.095
 1450SOL     OW 5248   1.216   2.512   6.421
 1450SOL    HW1 5249   1.292   2.549   6.475
 1450SOL    HW2 5250   1.148   2.473   6.483
 1451SOL     OW 5251   1.189   6.020   2.684
 1451SOL    HW1 5252   1.092   6.038   2.668
 1451SOL    HW2 5253   1.237   6.015   2.596
 1452SOL     OW 5254   4.363   2.725   5.307
 1452SOL    HW1 5255   4.294   2.667   5.262
 1452SOL    HW2 5256   4.368   2.702   5.404
 1453SOL     OW 5257   0.625   4.443   5.395
 1453SOL    HW1 5258   0.645   4.354   5.436
 1453SOL    HW2 5259   0.710   4.488   5.369
 1454SOL     OW 5260   1.802   1.991   2.887
 1454SOL    HW1 5261   1.725   1.931   2.908
 1454SOL    HW2 5262   1.781   2.044   2.804
 1455SOL     OW 5263   1.412   6.092   2.492
 1455SOL    HW1 5264   1.374   6.121   2.404
 1455SOL    HW2 5265   1.507   6.064   2.479
 1456SOL     OW 5266   6.337   6.316   5.946
 1456SOL    HW1 5267   6.364   6.258   5.870
 1456SOL    HW2 5268   6.265   6.272   5.999
 1457SOL     OW 5269   1.124   4.459   0.269
 1457SOL    HW1 5270   1.041   4.403   0.264
 1457SOL    HW2 5271   1.193   4.411   0.322
 1458SOL     OW 5272   5.417   5.108   5.508
 1458SOL    HW1 5273   5.317   5.112   5.503
 1458SOL    HW2 5274   5.447   5.013   5.504
 1459SOL     OW 5275   4.217   6.797   6.091
 1459SOL    HW1 5276   4.264   6.778   6.177
 1459SOL    HW2 5277   4.208   6.712   6.039
 1460SOL     OW 5278   1.704   6.980   4.821
 1460SOL    HW1 5279   1.792   6.996   4.777
 1460SOL    HW2 5280   1.674   0.038   4.867
 1461SOL     OW 5281   0.188   3.866   3.009
 1461SOL    HW1 5282   0.272   3.816   2.988
 1461SOL    HW2 5283   0.137   3.817   3.080
 1462SOL     OW 5284   1.150   0.548   6.982
 1462SOL    HW1 5285   1.096   0.467   6.957
 1462SOL    HW2 5286   1.219   0.522   0.024
 1463SOL     OW 5287   0.928   4.382   5.778
 1463SOL    HW1 5288   0.901   4.476   5.757
 1463SOL    HW2 5289   1.003   4.383   5.846
 1464SOL     OW 5290   6.696   4.756   2.992
 1464SOL    HW1 5291   6.661   4.742   2.900
 1464SOL    HW2 5292   6.621   4.743   3.058
 1465SOL     OW 5293   2.013   2.152   4.129
 1465SOL    HW1 5294   1.976   2.059   4.127
 1465SOL    HW2 5295   1.959   2.208   4.192
 1466SOL     OW 5296   4.147   1.989   2.288
 1466SOL    HW1 5297   4.161   2.061   2.357
 1466SOL    HW2 5298   4.115   2.030   2.203
 1467SOL     OW 5299   2.122   1.392   4.180
 1467SOL    HW1 5300   2.173   1.476   4.199
 1467SOL    HW2 5301   2.187   1.319   4.158
 1468SOL     OW 5302   1.875   5.287   1.777
 1468SOL    HW1 5303   1.958   5.282   1.832
 1468SOL    HW2 5304   1.800   5.323   1.834
 1469SOL     OW 5305   0.045   6.171   2.913
 1469SOL    HW1 5306   0.076   6.076   2.922
 1469SOL    HW2 5307   0.115   6.225   2.867
 1470SOL     OW 5308   0.004   2.371   1.599
 1470SOL    HW1 5309   6.952   2.316   1.570
 1470SOL    HW2 5310   7.023   2.390   1.697
 1471SOL     OW 5311   1.005   0.163   0.108
 1471SOL    HW1 5312   0.993   0.172   0.206
 1471SOL    HW2 5313   0.920   0.132   0.066
 1472SOL     OW 5314   3.343   5.814   0.478
 1472SOL    HW1 5315   3.288   5.740   0.515
 1472SOL    HW2 5316   3.299   5.902   0.497
 1473SOL     OW 5317   2.684   5.462   4.669
 1473SOL    HW1 5318   2.738   5.538   4.704
 1473SOL    HW2 5319   2.605   5.447   4.729
 1474SOL     OW 5320   3.865   4.255   1.532
 1474SOL    HW1 5321   3.918   4.177   1.496
 1474SOL    HW2 5322   3.862   4.249   1.632
 1475SOL     OW 5323   4.840   1.500   6.787
 1475SOL    HW1 5324   4.881   1.583   6.823
 1475SOL    HW2 5325   4.897   1.421   6.809
 1476SOL     OW 5326   2.691   1.186   1.565
 1476SOL    HW1 5327   2.694   1.091   1.595
 1476SOL    HW2 5328   2.625   1.237   1.620
 1477SOL     OW 5329   4.008   0.149   0.078
 1477SOL    HW1 5330   4.024   0.081   0.006
 1477SOL    HW2 5331   3.967   0.231   0.038
 1478SOL     OW 5332   5.467   6.615   5.377
 1478SOL    HW1 5333   5.527   6.552   5.424
 1478SOL    HW2 5334   5.442   6.690   5.439
 1479SOL     OW 5335   3.442   3.289   1.743
 1479SOL    HW1 5336   3.399   3.365   1.790
 1479SOL    HW2 5337   3.466   3.218   1.808
 1480SOL     OW 5338   2.443   6.924   6.588
 1480SOL    HW1 5339   2.489   6.835   6.587
 1480SOL    HW2 5340   2.493   6.987   6.648
 1481SOL     OW 5341   6.179   2.949   5.808
 1481SOL    HW1 5342   6.149   3.024   5.866
 1481SOL    HW2 5343   6.107   2.924   5.744
 1482SOL     OW 5344   4.439   0.676   0.618
 1482SOL    HW1 5345   4.349   0.708   0.589
 1482SOL    HW2 5346   4.441   0.576   0.618
 1483SOL     OW 5347   5.625   2.668   5.323
 1483SOL    HW1 5348   5.646   2.664   5.421
 1483SOL    HW2 5349   5.706   2.645   5.270
 1484SOL     OW 5350   4.702   5.387   3.477
 1484SOL    HW1 5351   4.680   5.292   3.500
 1484SOL    HW2 5352   4.657   5.448   3.542
 1485SOL     OW 5353   5.229   0.790   3.955
 1485SOL    HW1 5354   5.179   0.797   4.041
 1485SOL    HW2 5355   5.182   0.727   3.894
 1486SOL     OW 5356   5.236   7.024   3.557
 1486SOL    HW1 5357   5.314   0.043   3.601
 1486SOL    HW2 5358   5.197   6.956   3.620
 1487SOL     OW 5359   0.112   0.851   6.723
 1487SOL    HW1 5360   0.138   0.867   6.818
 1487SOL    HW2 5361   0.131   0.933   6.669
 1488SOL     OW 5362   5.730   0.441   3.134
 1488SOL    HW1 5363   5.638   0.408   3.113
 1488SOL    HW2 5364   5.773   0.475   3.051
 1489SOL     OW 5365   4.118   4.456   6.010
 1489SOL    HW1 5366   4.129   4.533   6.073
 1489SOL    HW2 5367   4.021   4.447   5.986
 1490SOL     OW 5368   0.319   3.215   0.914
 1490SOL    HW1 5369   0.329   3.147   0.841
 1490SOL    HW2 5370   0.358   3.179   0.999
 1491SOL     OW 5371   6.525   3.751   2.735
 1491SOL    HW1 5372   6.611   3.793   2.704
 1491SOL    HW2 5373   6.491   3.690   2.664
 1492SOL     OW 5374   6.476   0.160   2.034
 1492SOL    HW1 5375   6.404   0.215   1.991
 1492SOL    HW2 5376   6.561   0.172   1.983
 1493SOL     OW 5377   3.636   0.902   6.727
 1493SOL    HW1 5378   3.652   0.992   6.686
 1493SOL    HW2 5379   3.646   0.831   6.657
 1494SOL     OW 5380   5.572   2.931   6.719
 1494SOL    HW1 5381   5.621   2.852   6.685
 1494SOL    HW2 5382   5.605   2.954   6.811
 1495SOL     OW 5383   6.617   4.086   3.947
 1495SOL    HW1 5384   6.638   4.182   3.965
 1495SOL    HW2 5385   6.701   4.037   3.925
 1496SOL     OW 5386   0.170   0.310   0.264
 1496SOL    HW1 5387   0.098   0.249   0.230
 1496SOL    HW2 5388   0.205   0.366   0.189
 1497SOL     OW 5389   4.858   3.129   2.496
 1497SOL    HW1 5390   4.864   3.030   2.505
 1497SOL    HW2 5391   4.887   3.171   2.582
 1498SOL     OW 5392   2.839   4.662   0.794
 1498SOL    HW1 5393   2.871   4.569   0.775
 1498SOL    HW2 5394   2.916   4.717   0.827
 1499SOL     OW 5395   0.758   3.893   6.255
 1499SOL    HW1 5396   0.808   3.817   6.298
 1499SOL    HW2 5397   0.765   3.885   6.155
 1500SOL     OW 5398   1.073   5.953   6.502
 1500SOL    HW1 5399   1.155   5.999   6.537
 1500SOL    HW2 5400   1.070   5.962   6.402
 1501SOL     OW 5401   6.051   1.969   6.540
 1501SOL    HW1 5402   6.148   1.989   6.522
 1501SOL    HW2 5403   6.044   1.881   6.588
 1502SOL     OW 5404   5.540   1.820   6.193
 1502SOL    HW1 5405   5.460   1.827   6.252
 1502SOL    HW2 5406   5.621   1.800   6.248
 1503SOL     OW 5407   0.904   2.978   2.922
 1503SOL    HW1 5408   0.843   2.900   2.933
 1503SOL    HW2 5409   0.852   3.063   2.935
 1504SOL     OW 5410   0.738   0.212   3.678
 1504SOL    HW1 5411   0.750   0.310   3.660
 1504SOL    HW2 5412   0.640   0.190   3.683
 1505SOL     OW 5413   5.210   6.848   5.639
 1505SOL    HW1 5414   5.158   6.798   5.708
 1505SOL    HW2 5415   5.196   6.946   5.651
 1506SOL     OW 5416   1.293   0.528   0.394
 1506SOL    HW1 5417   1.343   0.566   0.472
 1506SOL    HW2 5418   1.199   0.509   0.421
 1507SOL     OW 5419   6.954   1.753   4.470
 1507SOL    HW1 5420   6.902   1.733   4.387
 1507SOL    HW2 5421   6.931   1.845   4.502
 1508SOL     OW 5422   0.284   1.579   1.010
 1508SOL    HW1 5423   0.187   1.566   0.992
 1508SOL    HW2 5424   0.296   1.638   1.090
 1509SOL     OW 5425   4.709   1.365   4.567
 1509SOL    HW1 5426   4.763   1.431   4.516
 1509SOL    HW2 5427   4.749   1.350   4.657
 1510SOL     OW 5428   4.896   0.021   4.494
 1510SOL    HW1 5429   4.844   0.088   4.440
 1510SOL    HW2 5430   4.946   0.069   4.566
 1511SOL     OW 5431   3.452   3.976   4.063
 1511SOL    HW1 5432   3.520   3.904   4.048
 1511SOL    HW2 5433   3.492   4.048   4.119
 1512SOL     OW 5434   5.837   5.564   1.533
 1512SOL    HW1 5435   5.778   5.493   1.494
 1512SOL    HW2 5436   5.787   5.612   1.605
 1513SOL     OW 5437   3.297   0.207   4.541
 1513SOL    HW1 5438   3.344   0.147   4.477
 1513SOL    HW2 5439   3.205   0.173   4.557
 1514SOL     OW 5440   3.569   2.346   5.840
 1514SOL    HW1 5441   3.590   2.432   5.794
 1514SOL    HW2 5442   3.534   2.280   5.773
 1515SOL     OW 5443   6.577   1.472   2.224
 1515SOL    HW1 5444   6.503   1.417   2.185
 1515SOL    HW2 5445   6.537   1.553   2.267
 1516SOL     OW 5446   6.048   5.233   5.064
 1516SOL    HW1 5447   6.101   5.305   5.109
 1516SOL    HW2 5448   6.063   5.146   5.111
 1517SOL     OW 5449   4.411   6.738   2.833
 1517SOL    HW1 5450   4.411   6.658   2.893
 1517SOL    HW2 5451   4.319   6.751   2.794
 1518SOL     OW 5452   6.354   3.389   0.468
 1518SOL    HW1 5453   6.405   3.352   0.546
 1518SOL    HW2 5454   6.273   3.333   0.451
 1519SOL     OW 5455   6.362   4.286   0.962
 1519SOL    HW1 5456   6.290   4.352   0.983
 1519SOL    HW2 5457   6.364   4.216   1.034
 1520SOL     OW 5458   0.790   4.774   1.734
 1520SOL    HW1 5459   0.719   4.768   1.804
 1520SOL    HW2 5460   0.845   4.857   1.749
 1521SOL     OW 5461   1.895   4.769   0.149
 1521SOL    HW1 5462   1.877   4.677   0.181
 1521SOL    HW2 5463   1.811   4.810   0.115
 1522SOL     OW 5464   5.734   5.262   4.233
 1522SOL    HW1 5465   5.765   5.167   4.243
 1522SOL    HW2 5466   5.674   5.269   4.153
 1523SOL     OW 5467   3.366   6.670   6.464
 1523SOL    HW1 5468   3.403   6.663   6.557
 1523SOL    HW2 5469   3.368   6.580   6.421
 1524SOL     OW 5470   2.800   1.950   2.232
 1524SOL    HW1 5471   2.876   1.894   2.265
 1524SOL    HW2 5472   2.732   1.960   2.304
 1525SOL     OW 5473   5.823   2.919   1.102
 1525SOL    HW1 5474   5.830   3.018   1.112
 1525SOL    HW2 5475   5.753   2.884   1.163
 1526SOL     OW 5476   0.280   0.939   6.370
 1526SOL    HW1 5477   0.273   0.947   6.270
 1526SOL    HW2 5478   0.376   0.946   6.397
 1527SOL     OW 5479   3.961   0.802   4.776
 1527SOL    HW1 5480   3.894   0.828   4.846
 1527SOL    HW2 5481   3.960   0.871   4.703
 1528SOL     OW 5482   3.702   4.915   1.333
 1528SOL    HW1 5483   3.684   4.901   1.236
 1528SOL    HW2 5484   3.623   4.886   1.386
 1529SOL     OW 5485   4.910   1.230   6.784
 1529SOL    HW1 5486   4.844   1.206   6.713
 1529SOL    HW2 5487   5.002   1.204   6.755
 1530SOL     OW 5488   3.031   0.892   1.390
 1530SOL    HW1 5489   3.098   0.899   1.316
 1530SOL    HW2 5490   3.070   0.930   1.474
 1531SOL     OW 5491   5.045   0.727   4.706
 1531SOL    HW1 5492   5.086   0.640   4.732
 1531SOL    HW2 5493   4.972   0.751   4.771
 1532SOL     OW 5494   3.408   4.439   5.667
 1532SOL    HW1 5495   3.334   4.505   5.656
 1532SOL    HW2 5496   3.447   4.417   5.577
 1533SOL     OW 5497   5.479   5.949   0.271
 1533SOL    HW1 5498   5.455   5.863   0.316
 1533SOL    HW2 5499   5.448   5.946   0.176
 1534SOL     OW 5500   3.618   5.276   6.813
 1534SOL    HW1 5501   3.654   5.289   6.905
 1534SOL    HW2 5502   3.669   5.333   6.749
 1535SOL     OW 5503   5.452   5.937   4.980
 1535SOL    HW1 5504   5.377   5.953   4.915
 1535SOL    HW2 5505   5.430   5.980   5.067
 1536SOL     OW 5506   4.128   4.908   6.860
 1536SOL    HW1 5507   4.165   4.974   6.795
 1536SOL    HW2 5508   4.075   4.838   6.810
 1537SOL     OW 5509   4.302   5.195   3.485
 1537SOL    HW1 5510   4.354   5.206   3.400
 1537SOL    HW2 5511   4.359   5.224   3.562
 1538SOL     OW 5512   2.996   0.964   7.012
 1538SOL    HW1 5513   2.962   0.969   6.918
 1538SOL    HW2 5514   3.085   0.917   7.012
 1539SOL     OW 5515   4.858   3.181   2.198
 1539SOL    HW1 5516   4.802   3.125   2.137
 1539SOL    HW2 5517   4.830   3.167   2.293
 1540SOL     OW 5518   0.378   6.351   5.365
 1540SOL    HW1 5519   0.288   6.368   5.327
 1540SOL    HW2 5520   0.381   6.384   5.460
 1541SOL     OW 5521   2.912   3.380   4.167
 1541SOL    HW1 5522   2.836   3.352   4.109
 1541SOL    HW2 5523   2.997   3.341   4.131
 1542SOL     OW 5524   6.341   6.959   1.946
 1542SOL    HW1 5525   6.250   6.973   1.985
 1542SOL    HW2 5526   6.399   0.011   1.971
 1543SOL     OW 5527   3.739   5.314   5.722
 1543SOL    HW1 5528   3.725   5.407   5.757
 1543SOL    HW2 5529   3.814   5.271   5.772
 1544SOL     OW 5530   3.072   3.676   3.308
 1544SOL    HW1 5531   3.047   3.767   3.341
 1544SOL    HW2 5532   3.024   3.658   3.222
 1545SOL     OW 5533   5.932   0.881   2.903
 1545SOL    HW1 5534   6.031   0.871   2.890
 1545SOL    HW2 5535   5.913   0.962   2.958
 1546SOL     OW 5536   5.528   6.058   6.014
 1546SOL    HW1 5537   5.522   6.144   6.064
 1546SOL    HW2 5538   5.618   6.017   6.030
 1547SOL     OW 5539   1.433   3.627   1.443
 1547SOL    HW1 5540   1.492   3.559   1.399
 1547SOL    HW2 5541   1.489   3.689   1.498
 1548SOL     OW 5542   5.118   3.730   0.380
 1548SOL    HW1 5543   5.057   3.719   0.458
 1548SOL    HW2 5544   5.118   3.647   0.325
 1549SOL     OW 5545   4.491   1.108   3.221
 1549SOL    HW1 5546   4.566   1.168   3.194
 1549SOL    HW2 5547   4.463   1.129   3.314
 1550SOL     OW 5548   3.425   3.449   1.282
 1550SOL    HW1 5549   3.339   3.407   1.308
 1550SOL    HW2 5550   3.476   3.475   1.364
 1551SOL     OW 5551   1.206   5.116   6.631
 1551SOL    HW1 5552   1.217   5.057   6.712
 1551SOL    HW2 5553   1.174   5.206   6.660
 1552SOL     OW 5554   1.605   5.543   0.753
 1552SOL    HW1 5555   1.680   5.543   0.820
 1552SOL    HW2 5556   1.623   5.612   0.683
 1553SOL     OW 5557   6.724   1.664   6.129
 1553SOL    HW1 5558   6.632   1.691   6.100
 1553SOL    HW2 5559   6.741   1.697   6.221
 1554SOL     OW 5560   3.041   1.811   3.448
 1554SOL    HW1 5561   2.942   1.793   3.445
 1554SOL    HW2 5562   3.059   1.900   3.407
 1555SOL     OW 5563   5.941   3.351   6.894
 1555SOL    HW1 5564   5.939   3.312   6.802
 1555SOL    HW2 5565   5.856   3.327   6.942
 1556SOL     OW 5566   1.825   1.597   6.291
 1556SOL    HW1 5567   1.812   1.670   6.224
 1556SOL    HW2 5568   1.908   1.545   6.267
 1557SOL     OW 5569   2.097   4.130   6.014
 1557SOL    HW1 5570   2.036   4.191   6.065
 1557SOL    HW2 5571   2.177   4.181   5.982
 1558SOL     OW 5572   6.588   0.702   4.171
 1558SOL    HW1 5573   6.593   0.650   4.256
 1558SOL    HW2 5574   6.643   0.785   4.180
 1559SOL     OW 5575   1.565   3.460   6.268
 1559SOL    HW1 5576   1.617   3.460   6.354
 1559SOL    HW2 5577   1.496   3.532   6.271
 1560SOL     OW 5578   0.328   0.665   6.324
 1560SOL    HW1 5579   0.300   0.683   6.230
 1560SOL    HW2 5580   0.329   0.751   6.375
 1561SOL     OW 5581   4.561   6.755   3.596
 1561SOL    HW1 5582   4.477   6.701   3.595
 1561SOL    HW2 5583   4.538   6.852   3.610
 1562SOL     OW 5584   4.773   5.798   2.651
 1562SOL    HW1 5585   4.844   5.852   2.697
 1562SOL    HW2 5586   4.683   5.838   2.671
 1563SOL     OW 5587   2.585   0.536   5.590
 1563SOL    HW1 5588   2.493   0.511   5.561
 1563SOL    HW2 5589   2.586   0.554   5.688
 1564SOL     OW 5590   1.170   0.526   3.223
 1564SOL    HW1 5591   1.178   0.492   3.316
 1564SOL    HW2 5592   1.073   0.543   3.202
 1565SOL     OW 5593   4.617   4.395   2.727
 1565SOL    HW1 5594   4.622   4.445   2.641
 1565SOL    HW2 5595   4.544   4.433   2.784
 1566SOL     OW 5596   5.698   3.790   3.168
 1566SOL    HW1 5597   5.680   3.880   3.127
 1566SOL    HW2 5598   5.615   3.735   3.166
 1567SOL     OW 5599   5.916   6.064   0.170
 1567SOL    HW1 5600   5.841   6.098   0.227
 1567SOL    HW2 5601   5.937   6.131   0.099
 1568SOL     OW 5602   1.222   0.018   0.265
 1568SOL    HW1 5603   1.289   7.019   0.335
 1568SOL    HW2 5604   1.182   0.107   0.288
 1569SOL     OW 5605   4.527   6.356   3.213
 1569SOL    HW1 5606   4.500   6.262   3.191
 1569SOL    HW2 5607   4.553   6.361   3.310
 1570SOL     OW 5608   2.468   0.524   0.738
 1570SOL    HW1 5609   2.559   0.496   0.768
 1570SOL    HW2 5610   2.428   0.451   0.682
 1571SOL     OW 5611   5.691   3.174   1.198
 1571SOL    HW1 5612   5.737   3.246   1.251
 1571SOL    HW2 5613   5.654   3.213   1.114
 1572SOL     OW 5614   0.667   0.488   2.669
 1572SOL    HW1 5615   0.599   0.415   2.672
 1572SOL    HW2 5616   0.655   0.548   2.748
 1573SOL     OW 5617   5.264   1.213   1.872
 1573SOL    HW1 5618   5.195   1.154   1.831
 1573SOL    HW2 5619   5.274   1.295   1.816
 1574SOL     OW 5620   0.447   1.848   1.650
 1574SOL    HW1 5621   0.460   1.888   1.741
 1574SOL    HW2 5622   0.536   1.839   1.604
 1575SOL     OW 5623   2.473   1.725   0.263
 1575SOL    HW1 5624   2.569   1.750   0.247
 1575SOL    HW2 5625   2.465   1.681   0.353
 1576SOL     OW 5626   6.192   6.542   4.147
 1576SOL    HW1 5627   6.258   6.592   4.091
 1576SOL    HW2 5628   6.156   6.464   4.097
 1577SOL     OW 5629   2.537   1.647   4.782
 1577SOL    HW1 5630   2.593   1.567   4.760
 1577SOL    HW2 5631   2.440   1.624   4.769
 1578SOL     OW 5632   6.225   3.342   5.486
 1578SOL    HW1 5633   6.157   3.397   5.438
 1578SOL    HW2 5634   6.233   3.373   5.581
 1579SOL     OW 5635   0.179   1.665   3.320
 1579SOL    HW1 5636   0.133   1.576   3.310
 1579SOL    HW2 5637   0.260   1.654   3.378
 1580SOL     OW 5638   2.708   3.869   5.230
 1580SOL    HW1 5639   2.725   3.964   5.254
 1580SOL    HW2 5640   2.611   3.858   5.207
 1581SOL     OW 5641   6.889   4.371   4.300
 1581SOL    HW1 5642   6.947   4.446   4.268
 1581SOL    HW2 5643   6.935   4.284   4.284
 1582SOL     OW 5644   1.239   5.632   4.654
 1582SOL    HW1 5645   1.227   5.728   4.631
 1582SOL    HW2 5646   1.193   5.575   4.586
 1583SOL     OW 5647   1.959   2.364   3.974
 1583SOL    HW1 5648   1.984   2.448   4.022
 1583SOL    HW2 5649   1.960   2.287   4.038
 1584SOL     OW 5650   2.184   6.770   5.000
 1584SOL    HW1 5651   2.116   6.718   4.947
 1584SOL    HW2 5652   2.275   6.730   4.986
 1585SOL     OW 5653   5.665   1.505   3.433
 1585SOL    HW1 5654   5.613   1.502   3.518
 1585SOL    HW2 5655   5.661   1.598   3.395
 1586SOL     OW 5656   3.949   3.933   2.167
 1586SOL    HW1 5657   4.046   3.910   2.174
 1586SOL    HW2 5658   3.909   3.940   2.259
 1587SOL     OW 5659   3.129   5.459   6.143
 1587SOL    HW1 5660   3.161   5.365   6.130
 1587SOL    HW2 5661   3.202   5.513   6.187
 1588SOL     OW 5662   4.877   1.564   3.469
 1588SOL    HW1 5663   4.950   1.621   3.431
 1588SOL    HW2 5664   4.917   1.492   3.526
 1589SOL     OW 5665   5.813   4.133   3.543
 1589SOL    HW1 5666   5.758   4.050   3.554
 1589SOL    HW2 5667   5.892   4.130   3.603
 1590SOL     OW 5668   1.768   6.459   0.006
 1590SOL    HW1 5669   1.762   6.362   7.010
 1590SOL    HW2 5670   1.704   6.480   0.080
 1591SOL     OW 5671   0.754   4.742   2.813
 1591SOL    HW1 5672   0.712   4.652   2.803
 1591SOL    HW2 5673   0.835   4.735   2.871
 1592SOL     OW 5674   2.790   3.817   1.409
 1592SOL    HW1 5675   2.784   3.814   1.508
 1592SOL    HW2 5676   2.881   3.785   1.381
 1593SOL     OW 5677   1.451   6.278   4.472
 1593SOL    HW1 5678   1.462   6.271   4.372
 1593SOL    HW2 5679   1.415   6.368   4.495
 1594SOL     OW 5680   0.535   5.296   3.566
 1594SOL    HW1 5681   0.564   5.293   3.661
 1594SOL    HW2 5682   0.450   5.244   3.555
 1595SOL     OW 5683   6.944   4.749   6.512
 1595SOL    HW1 5684   0.018   4.756   6.515
 1595SOL    HW2 5685   6.918   4.658   6.480
 1596SOL     OW 5686   1.680   4.235   5.188
 1596SOL    HW1 5687   1.763   4.242   5.134
 1596SOL    HW2 5688   1.611   4.298   5.152
 1597SOL     OW 5689   2.630   5.730   0.897
 1597SOL    HW1 5690   2.715   5.781   0.909
 1597SOL    HW2 5691   2.553   5.793   0.895
 1598SOL     OW 5692   0.514   3.927   0.226
 1598SOL    HW1 5693   0.514   4.026   0.210
 1598SOL    HW2 5694   0.441   3.904   0.290
 1599SOL     OW 5695   4.634   3.287   5.951
 1599SOL    HW1 5696   4.729   3.258   5.960
 1599SOL    HW2 5697   4.582   3.218   5.899
 1600SOL     OW 5698   5.381   1.566   4.684
 1600SOL    HW1 5699   5.371   1.665   4.683
 1600SOL    HW2 5700   5.297   1.525   4.720
 1601SOL     OW 5701   1.612   4.755   4.681
 1601SOL    HW1 5702   1.592   4.766   4.584
 1601SOL    HW2 5703   1.664   4.834   4.714
 1602SOL     OW 5704   1.522   5.538   3.727
 1602SOL    HW1 5705   1.553   5.505   3.638
 1602SOL    HW2 5706   1.601   5.551   3.788
 1603SOL     OW 5707   1.229   6.568   1.792
 1603SOL    HW1 5708   1.206   6.586   1.697
 1603SOL    HW2 5709   1.322   6.530   1.797
 1604SOL     OW 5710   6.003   5.421   0.080
 1604SOL    HW1 5711   6.085   5.369   0.103
 1604SOL    HW2 5712   6.025   5.518   0.077
 1605SOL     OW 5713   6.421   0.294   2.273
 1605SOL    HW1 5714   6.440   0.226   2.203
 1605SOL    HW2 5715   6.504   0.310   2.327
 1606SOL     OW 5716   4.346   0.842   5.392
 1606SOL    HW1 5717   4.424   0.835   5.454
 1606SOL    HW2 5718   4.365   0.793   5.308
 1607SOL     OW 5719   5.123   2.636   1.064
 1607SOL    HW1 5720   5.036   2.648   1.112
 1607SOL    HW2 5721   5.195   2.682   1.115
 1608SOL     OW 5722   1.159   0.464   6.507
 1608SOL    HW1 5723   1.212   0.465   6.593
 1608SOL    HW2 5724   1.198   0.396   6.445
 1609SOL     OW 5725   5.886   2.047   6.156
 1609SOL    HW1 5726   5.981   2.015   6.156
 1609SOL    HW2 5727   5.863   2.083   6.246
 1610SOL     OW 5728   5.647   3.968   4.977
 1610SOL    HW1 5729   5.618   3.969   4.881
 1610SOL    HW2 5730   5.736   3.923   4.984
 1611SOL     OW 5731   3.926   2.972   2.458
 1611SOL    HW1 5732   3.975   2.891   2.488
 1611SOL    HW2 5733   3.986   3.052   2.463
 1612SOL     OW 5734   2.507   1.495   5.448
 1612SOL    HW1 5735   2.551   1.559   5.512
 1612SOL    HW2 5736   2.568   1.418   5.431
 1613SOL     OW 5737   2.396   5.919   0.919
 1613SOL    HW1 5738   2.325   5.983   0.891
 1613SOL    HW2 5739   2.407   5.923   1.019
 1614SOL     OW 5740   6.829   3.593   0.533
 1614SOL    HW1 5741   6.766   3.650   0.586
 1614SOL    HW2 5742   6.791   3.577   0.442
 1615SOL     OW 5743   6.811   4.983   1.243
 1615SOL    HW1 5744   6.777   4.900   1.198
 1615SOL    HW2 5745   6.897   4.962   1.290
 1616SOL     OW 5746   4.231   2.215   6.359
 1616SOL    HW1 5747   4.151   2.272   6.341
 1616SOL    HW2 5748   4.252   2.218   6.457
 1617SOL     OW 5749   5.843   0.453   2.119
 1617SOL    HW1 5750   5.897   0.425   2.039
 1617SOL    HW2 5751   5.901   0.505   2.182
 1618SOL     OW 5752   0.148   3.844   1.603
 1618SOL    HW1 5753   0.138   3.940   1.631
 1618SOL    HW2 5754   0.203   3.839   1.520
 1619SOL     OW 5755   1.305   3.163   3.864
 1619SOL    HW1 5756   1.380   3.101   3.838
 1619SOL    HW2 5757   1.341   3.234   3.924
 1620SOL     OW 5758   2.049   5.591   0.760
 1620SOL    HW1 5759   2.142   5.557   0.751
 1620SOL    HW2 5760   1.999   5.577   0.674
 1621SOL     OW 5761   0.251   0.556   6.788
 1621SOL    HW1 5762   0.207   0.631   6.837
 1621SOL    HW2 5763   0.188   0.519   6.720
 1622SOL     OW 5764   1.569   2.177   4.914
 1622SOL    HW1 5765   1.644   2.130   4.867
 1622SOL    HW2 5766   1.527   2.113   4.979
 1623SOL     OW 5767   2.645   2.720   6.398
 1623SOL    HW1 5768   2.606   2.755   6.483
 1623SOL    HW2 5769   2.740   2.750   6.390
 1624SOL     OW 5770   2.289   0.792   6.762
 1624SOL    HW1 5771   2.232   0.867   6.794
 1624SOL    HW2 5772   2.242   0.745   6.687
 1625SOL     OW 5773   1.277   5.472   2.211
 1625SOL    HW1 5774   1.269   5.383   2.168
 1625SOL    HW2 5775   1.257   5.544   2.143
 1626SOL     OW 5776   2.269   2.204   6.843
 1626SOL    HW1 5777   2.323   2.288   6.832
 1626SOL    HW2 5778   2.329   2.125   6.833
 1627SOL     OW 5779   6.295   1.709   4.439
 1627SOL    HW1 5780   6.359   1.734   4.512
 1627SOL    HW2 5781   6.343   1.711   4.351
 1628SOL     OW 5782   3.537   5.071   0.271
 1628SOL    HW1 5783   3.537   5.054   0.172
 1628SOL    HW2 5784   3.621   5.035   0.311
 1629SOL     OW 5785   2.811   2.351   4.718
 1629SOL    HW1 5786   2.829   2.425   4.783
 1629SOL    HW2 5787   2.880   2.279   4.730
 1630SOL     OW 5788   0.587   5.622   5.240
 1630SOL    HW1 5789   0.641   5.602   5.322
 1630SOL    HW2 5790   0.510   5.681   5.265
 1631SOL     OW 5791   6.852   0.808   5.940
 1631SOL    HW1 5792   6.797   0.847   5.867
 1631SOL    HW2 5793   6.854   0.872   6.017
 1632SOL     OW 5794   6.990   1.295   6.746
 1632SOL    HW1 5795   0.032   1.358   6.784
 1632SOL    HW2 5796   6.913   1.347   6.709
 1633SOL     OW 5797   5.939   3.079   2.642
 1633SOL    HW1 5798   5.979   3.047   2.727
 1633SOL    HW2 5799   5.983   3.035   2.565
 1634SOL     OW 5800   4.265   5.718   5.941
 1634SOL    HW1 5801   4.304   5.693   5.852
 1634SOL    HW2 5802   4.331   5.773   5.992
 1635SOL     OW 5803   6.666   5.815   4.918
 1635SOL    HW1 5804   6.692   5.817   4.822
 1635SOL    HW2 5805   6.729   5.872   4.971
 1636SOL     OW 5806   2.374   4.887   1.540
 1636SOL    HW1 5807   2.452   4.831   1.566
 1636SOL    HW2 5808   2.340   4.936   1.620
 1637SOL     OW 5809   6.703   2.301   2.602
 1637SOL    HW1 5810   6.605   2.280   2.593
 1637SOL    HW2 5811   6.754   2.256   2.529
 1638SOL     OW 5812   0.026   3.504   3.905
 1638SOL    HW1 5813   7.015   3.457   3.825
 1638SOL    HW2 5814   0.045   3.600   3.882
 1639SOL     OW 5815   5.702   6.199   3.235
 1639SOL    HW1 5816   5.622   6.139   3.244
 1639SOL    HW2 5817   5.718   6.246   3.321
 1640SOL     OW 5818   5.896   2.331   0.343
 1640SOL    HW1 5819   5.832   2.309   0.270
 1640SOL    HW2 5820   5.947   2.249   0.369
 1641SOL     OW 5821   5.473   3.197   3.556
 1641SOL    HW1 5822   5.420   3.233   3.632
 1641SOL    HW2 5823   5.432   3.112   3.522
 1642SOL     OW 5824   6.923   3.581   0.138
 1642SOL    HW1 5825   7.005   3.639   0.136
 1642SOL    HW2 5826   6.848   3.629   0.092
 1643SOL     OW 5827   3.661   6.535   4.925
 1643SOL    HW1 5828   3.705   6.527   4.836
 1643SOL    HW2 5829   3.657   6.445   4.968
 1644SOL     OW 5830   2.639   2.658   1.432
 1644SOL    HW1 5831   2.595   2.569   1.421
 1644SOL    HW2 5832   2.581   2.717   1.487
 1645SOL     OW 5833   2.930   6.089   5.718
 1645SOL    HW1 5834   2.913   6.177   5.672
 1645SOL    HW2 5835   2.877   6.085   5.802
 1646SOL     OW 5836   2.735   4.837   1.341
 1646SOL    HW1 5837   2.662   4.835   1.409
 1646SOL    HW2 5838   2.695   4.849   1.250
 1647SOL     OW 5839   5.861   2.642   3.268
 1647SOL    HW1 5840   5.880   2.661   3.364
 1647SOL    HW2 5841   5.910   2.707   3.210
 1648SOL     OW 5842   5.215   6.524   2.008
 1648SOL    HW1 5843   5.155   6.446   1.990
 1648SOL    HW2 5844   5.310   6.496   2.000
 1649SOL     OW 5845   3.348   0.135   2.947
 1649SOL    HW1 5846   3.408   0.145   3.026
 1649SOL    HW2 5847   3.259   0.175   2.967
 1650SOL     OW 5848   3.041   6.986   4.308
 1650SOL    HW1 5849   2.950   6.960   4.341
 1650SOL    HW2 5850   3.039   0.052   4.269
 1651SOL     OW 5851   0.442   0.261   0.278
 1651SOL    HW1 5852   0.343   0.274   0.288
 1651SOL    HW2 5853   0.460   0.185   0.215
 1652SOL     OW 5854   2.404   1.994   0.901
 1652SOL    HW1 5855   2.336   1.937   0.855
 1652SOL    HW2 5856   2.476   1.937   0.941
 1653SOL     OW 5857   0.247   5.045   1.374
 1653SOL    HW1 5858   0.161   4.994   1.366
 1653SOL    HW2 5859   0.279   5.068   1.282
 1654SOL     OW 5860   6.839   2.873   2.370
 1654SOL    HW1 5861   6.790   2.960   2.373
 1654SOL    HW2 5862   6.832   2.834   2.278
 1655SOL     OW 5863   5.312   4.308   6.221
 1655SOL    HW1 5864   5.233   4.363   6.194
 1655SOL    HW2 5865   5.361   4.279   6.139
 1656SOL     OW 5866   1.744   4.087   3.574
 1656SOL    HW1 5867   1.725   4.041   3.661
 1656SOL    HW2 5868   1.662   4.087   3.518
 1657SOL     OW 5869   1.167   0.894   5.515
 1657SOL    HW1 5870   1.176   0.810   5.461
 1657SOL    HW2 5871   1.127   0.873   5.604
 1658SOL     OW 5872   6.574   6.334   2.854
 1658SOL    HW1 5873   6.546   6.344   2.758
 1658SOL    HW2 5874   6.661   6.284   2.857
 1659SOL     OW 5875   3.622   2.069   6.455
 1659SOL    HW1 5876   3.533   2.028   6.475
 1659SOL    HW2 5877   3.622   2.165   6.484
 1660SOL     OW 5878   0.901   5.104   4.040
 1660SOL    HW1 5879   0.897   5.200   4.012
 1660SOL    HW2 5880   0.862   5.095   4.132
 1661SOL     OW 5881   3.116   1.909   2.521
 1661SOL    HW1 5882   3.109   1.851   2.602
 1661SOL    HW2 5883   3.081   2.001   2.543
 1662SOL     OW 5884   6.428   1.832   2.975
 1662SOL    HW1 5885   6.521   1.831   2.938
 1662SOL    HW2 5886   6.386   1.922   2.960
 1663SOL     OW 5887   3.279   0.328   3.186
 1663SOL    HW1 5888   3.280   0.426   3.166
 1663SOL    HW2 5889   3.371   0.290   3.172
 1664SOL     OW 5890   1.570   6.975   4.160
 1664SOL    HW1 5891   1.499   7.017   4.103
 1664SOL    HW2 5892   1.573   7.023   4.248
 1665SOL     OW 5893   0.071   1.655   2.865
 1665SOL    HW1 5894   6.997   1.662   2.859
 1665SOL    HW2 5895   0.096   1.565   2.901
 1666SOL     OW 5896   6.188   3.342   6.796
 1666SOL    HW1 5897   6.111   3.357   6.858
 1666SOL    HW2 5898   6.214   3.246   6.799
 1667SOL     OW 5899   5.872   6.946   0.431
 1667SOL    HW1 5900   5.804   6.873   0.431
 1667SOL    HW2 5901   5.957   6.912   0.391
 1668SOL     OW 5902   4.973   0.350   4.626
 1668SOL    HW1 5903   5.023   0.267   4.651
 1668SOL    HW2 5904   5.000   0.424   4.686
 1669SOL     OW 5905   5.848   6.307   0.040
 1669SOL    HW1 5906   5.802   6.320   0.128
 1669SOL    HW2 5907   5.788   6.338   6.992
 1670SOL     OW 5908   6.223   5.600   6.157
 1670SOL    HW1 5909   6.287   5.629   6.085
 1670SOL    HW2 5910   6.212   5.501   6.154
 1671SOL     OW 5911   4.496   2.728   1.167
 1671SOL    HW1 5912   4.504   2.744   1.265
 1671SOL    HW2 5913   4.433   2.652   1.151
 1672SOL     OW 5914   2.043   4.308   2.604
 1672SOL    HW1 5915   2.136   4.294   2.640
 1672SOL    HW2 5916   2.047   4.368   2.524
 1673SOL     OW 5917   6.738   2.848   4.809
 1673SOL    HW1 5918   6.789   2.908   4.746
 1673SOL    HW2 5919   6.715   2.763   4.763
 1674SOL     OW 5920   1.701   4.188   0.932
 1674SOL    HW1 5921   1.763   4.128   0.882
 1674SOL    HW2 5922   1.694   4.158   1.027
 1675SOL     OW 5923   4.700   0.544   6.651
 1675SOL    HW1 5924   4.627   0.528   6.585
 1675SOL    HW2 5925   4.734   0.456   6.684
 1676SOL     OW 5926   2.176   1.072   2.435
 1676SOL    HW1 5927   2.275   1.063   2.440
 1676SOL    HW2 5928   2.135   0.983   2.413
 1677SOL     OW 5929   5.177   1.855   5.394
 1677SOL    HW1 5930   5.108   1.907   5.444
 1677SOL    HW2 5931   5.198   1.901   5.308
 1678SOL     OW 5932   5.381   5.212   3.738
 1678SOL    HW1 5933   5.477   5.192   3.755
 1678SOL    HW2 5934   5.342   5.259   3.816
 1679SOL     OW 5935   1.782   3.781   5.363
 1679SOL    HW1 5936   1.862   3.822   5.317
 1679SOL    HW2 5937   1.755   3.839   5.440
 1680SOL     OW 5938   0.834   1.667   4.075
 1680SOL    HW1 5939   0.811   1.577   4.040
 1680SOL    HW2 5940   0.859   1.660   4.171
 1681SOL     OW 5941   5.966   5.443   1.035
 1681SOL    HW1 5942   6.046   5.501   1.021
 1681SOL    HW2 5943   5.921   5.427   0.947
 1682SOL     OW 5944   0.261   3.191   4.632
 1682SOL    HW1 5945   0.225   3.117   4.690
 1682SOL    HW2 5946   0.360   3.181   4.624
 1683SOL     OW 5947   3.916   4.843   0.963
 1683SOL    HW1 5948   3.931   4.747   0.989
 1683SOL    HW2 5949   3.934   4.901   1.042
 1684SOL     OW 5950   0.626   6.357   4.865
 1684SOL    HW1 5951   0.691   6.295   4.821
 1684SOL    HW2 5952   0.675   6.420   4.925
 1685SOL     OW 5953   1.984   1.011   6.465
 1685SOL    HW1 5954   1.987   0.911   6.469
 1685SOL    HW2 5955   1.912   1.044   6.525
 1686SOL     OW 5956   1.676   5.651   5.660
 1686SOL    HW1 5957   1.738   5.628   5.736
 1686SOL    HW2 5958   1.586   5.610   5.677
 1687SOL     OW 5959   1.962   3.558   2.045
 1687SOL    HW1 5960   1.938   3.531   1.951
 1687SOL    HW2 5961   2.048   3.515   2.071
 1688SOL     OW 5962   1.572   1.807   2.968
 1688SOL    HW1 5963   1.621   1.783   3.052
 1688SOL    HW2 5964   1.480   1.839   2.991
 1689SOL     OW 5965   3.238   1.879   2.116
 1689SOL    HW1 5966   3.283   1.799   2.076
 1689SOL    HW2 5967   3.226   1.949   2.046
 1690SOL     OW 5968   1.587   2.063   3.211
 1690SOL    HW1 5969   1.672   2.015   3.233
 1690SOL    HW2 5970   1.521   2.048   3.285
 1691SOL     OW 5971   5.387   4.156   3.153
 1691SOL    HW1 5972   5.337   4.140   3.238
 1691SOL    HW2 5973   5.420   4.069   3.116
 1692SOL     OW 5974   6.706   6.992   1.233
 1692SOL    HW1 5975   6.782   7.001   1.169
 1692SOL    HW2 5976   6.710   0.039   1.301
 1693SOL     OW 5977   2.044   2.219   3.777
 1693SOL    HW1 5978   2.015   2.272   3.857
 1693SOL    HW2 5979   2.074   2.281   3.705
 1694SOL     OW 5980   4.390   6.296   4.927
 1694SOL    HW1 5981   4.296   6.289   4.893
 1694SOL    HW2 5982   4.451   6.241   4.869
 1695SOL     OW 5983   2.318   1.936   5.216
 1695SOL    HW1 5984   2.239   1.876   5.232
 1695SOL    HW2 5985   2.288   2.016   5.165
 1696SOL     OW 5986   4.716   5.575   0.316
 1696SOL    HW1 5987   4.713   5.657   0.259
 1696SOL    HW2 5988   4.767   5.595   0.400
 1697SOL     OW 5989   0.730   6.861   0.923
 1697SOL    HW1 5990   0.756   6.782   0.979
 1697SOL    HW2 5991   0.690   6.829   0.837
 1698SOL     OW 5992   4.854   1.721   1.365
 1698SOL    HW1 5993   4.773   1.720   1.307
 1698SOL    HW2 5994   4.882   1.627   1.384
 1699SOL     OW 5995   2.642   2.291   1.283
 1699SOL    HW1 5996   2.565   2.237   1.246
 1699SOL    HW2 5997   2.691   2.334   1.208
 1700SOL     OW 5998   6.577   2.487   3.641
 1700SOL    HW1 5999   6.640   2.423   3.597
 1700SOL    HW2 6000   6.609   2.581   3.627
 1701SOL     OW 6001   5.678   2.598   4.766
 1701SOL    HW1 6002   5.585   2.563   4.759
 1701SOL    HW2 6003   5.718   2.568   4.853
 1702SOL     OW 6004   6.542   4.010   1.153
 1702SOL    HW1 6005   6.633   4.008   1.112
 1702SOL    HW2 6006   6.523   4.101   1.188
 1703SOL     OW 6007   3.092   4.029   1.907
 1703SOL    HW1 6008   3.176   4.049   1.857
 1703SOL    HW2 6009   3.013   4.045   1.848
 1704SOL     OW 6010   0.540   1.090   0.560
 1704SOL    HW1 6011   0.618   1.150   0.578
 1704SOL    HW2 6012   0.497   1.116   0.474
 1705SOL     OW 6013   3.492   2.210   1.496
 1705SOL    HW1 6014   3.403   2.235   1.533
 1705SOL    HW2 6015   3.547   2.166   1.568
 1706SOL     OW 6016   4.541   0.457   1.537
 1706SOL    HW1 6017   4.639   0.473   1.549
 1706SOL    HW2 6018   4.505   0.410   1.617
 1707SOL     OW 6019   4.364   1.526   2.063
 1707SOL    HW1 6020   4.445   1.499   2.114
 1707SOL    HW2 6021   4.314   1.596   2.113
 1708SOL     OW 6022   6.742   6.162   2.595
 1708SOL    HW1 6023   6.699   6.250   2.574
 1708SOL    HW2 6024   6.725   6.139   2.691
 1709SOL     OW 6025   2.366   6.684   2.290
 1709SOL    HW1 6026   2.455   6.686   2.245
 1709SOL    HW2 6027   2.350   6.593   2.328
 1710SOL     OW 6028   0.130   3.599   3.456
 1710SOL    HW1 6029   0.156   3.637   3.544
 1710SOL    HW2 6030   0.212   3.577   3.403
 1711SOL     OW 6031   1.486   4.454   5.091
 1711SOL    HW1 6032   1.387   4.451   5.080
 1711SOL    HW2 6033   1.525   4.519   5.026
 1712SOL     OW 6034   0.854   4.037   6.519
 1712SOL    HW1 6035   0.863   4.123   6.469
 1712SOL    HW2 6036   0.804   3.970   6.464
 1713SOL     OW 6037   2.013   2.298   1.471
 1713SOL    HW1 6038   1.923   2.289   1.514
 1713SOL    HW2 6039   2.036   2.213   1.423
 1714SOL     OW 6040   3.733   1.690   6.597
 1714SOL    HW1 6041   3.695   1.754   6.664
 1714SOL    HW2 6042   3.689   1.703   6.509
 1715SOL     OW 6043   6.529   3.070   3.447
 1715SOL    HW1 6044   6.476   3.038   3.368
 1715SOL    HW2 6045   6.576   2.992   3.488
 1716SOL     OW 6046   5.612   6.843   1.307
 1716SOL    HW1 6047   5.599   6.788   1.225
 1716SOL    HW2 6048   5.705   6.828   1.342
 1717SOL     OW 6049   2.314   5.798   6.728
 1717SOL    HW1 6050   2.293   5.755   6.640
 1717SOL    HW2 6051   2.414   5.807   6.737
 1718SOL     OW 6052   2.067   2.809   0.263
 1718SOL    HW1 6053   2.137   2.811   0.334
 1718SOL    HW2 6054   1.984   2.766   0.299
 1719SOL     OW 6055   2.180   3.334   1.411
 1719SOL    HW1 6056   2.204   3.262   1.477
 1719SOL    HW2 6057   2.245   3.409   1.419
 1720SOL     OW 6058   6.693   2.011   0.953
 1720SOL    HW1 6059   6.596   2.027   0.933
 1720SOL    HW2 6060   6.730   1.945   0.888
 1721SOL     OW 6061   1.466   6.105   2.774
 1721SOL    HW1 6062   1.445   6.121   2.678
 1721SOL    HW2 6063   1.409   6.165   2.831
 1722SOL     OW 6064   5.690   0.116   2.796
 1722SOL    HW1 6065   5.682   0.056   2.876
 1722SOL    HW2 6066   5.602   0.123   2.750
 1723SOL     OW 6067   6.492   2.420   3.200
 1723SOL    HW1 6068   6.552   2.487   3.243
 1723SOL    HW2 6069   6.462   2.354   3.269
 1724SOL     OW 6070   5.929   0.995   0.386
 1724SOL    HW1 6071   5.988   0.971   0.463
 1724SOL    HW2 6072   5.947   0.934   0.309
 1725SOL     OW 6073   3.559   4.356   0.072
 1725SOL    HW1 6074   3.647   4.348   0.120
 1725SOL    HW2 6075   3.557   4.291   7.022
 1726SOL     OW 6076   6.735   4.386   4.758
 1726SOL    HW1 6077   6.676   4.380   4.838
 1726SOL    HW2 6078   6.752   4.295   4.721
 1727SOL     OW 6079   3.758   3.506   4.730
 1727SOL    HW1 6080   3.811   3.579   4.686
 1727SOL    HW2 6081   3.715   3.542   4.813
 1728SOL     OW 6082   5.107   4.414   4.212
 1728SOL    HW1 6083   5.170   4.460   4.150
 1728SOL    HW2 6084   5.094   4.319   4.181
 1729SOL     OW 6085   1.928   4.225   3.113
 1729SOL    HW1 6086   1.922   4.167   3.032
 1729SOL    HW2 6087   1.917   4.169   3.195
 1730SOL     OW 6088   6.454   1.413   5.138
 1730SOL    HW1 6089   6.490   1.333   5.187
 1730SOL    HW2 6090   6.509   1.429   5.056
 1731SOL     OW 6091   1.630   4.562   1.978
 1731SOL    HW1 6092   1.556   4.536   2.040
 1731SOL    HW2 6093   1.631   4.500   1.899
 1732SOL     OW 6094   2.223   4.547   6.856
 1732SOL    HW1 6095   2.150   4.613   6.875
 1732SOL    HW2 6096   2.182   4.458   6.834
 1733SOL     OW 6097   1.583   3.691   2.251
 1733SOL    HW1 6098   1.676   3.726   2.266
 1733SOL    HW2 6099   1.562   3.621   2.319
 1734SOL     OW 6100   4.565   3.034   1.535
 1734SOL    HW1 6101   4.628   2.999   1.604
 1734SOL    HW2 6102   4.513   3.110   1.574
 1735SOL     OW 6103   5.833   6.044   1.618
 1735SOL    HW1 6104   5.824   5.945   1.632
 1735SOL    HW2 6105   5.743   6.084   1.603
 1736SOL     OW 6106   4.817   2.460   0.015
 1736SOL    HW1 6107   4.754   2.387   7.015
 1736SOL    HW2 6108   4.887   2.471   6.971
 1737SOL     OW 6109   2.428   0.170   3.663
 1737SOL    HW1 6110   2.501   0.233   3.635
 1737SOL    HW2 6111   2.466   0.102   3.726
 1738SOL     OW 6112   2.045   2.653   3.496
 1738SOL    HW1 6113   2.101   2.703   3.561
 1738SOL    HW2 6114   2.095   2.643   3.410
 1739SOL     OW 6115   4.559   2.160   4.850
 1739SOL    HW1 6116   4.618   2.112   4.785
 1739SOL    HW2 6117   4.502   2.094   4.899
 1740SOL     OW 6118   6.624   1.473   6.413
 1740SOL    HW1 6119   6.703   1.415   6.395
 1740SOL    HW2 6120   6.550   1.450   6.350
 1741SOL     OW 6121   1.830   0.928   2.804
 1741SOL    HW1 6122   1.805   0.972   2.717
 1741SOL    HW2 6123   1.860   0.998   2.869
 1742SOL     OW 6124   4.431   6.472   6.180
 1742SOL    HW1 6125   4.517   6.515   6.154
 1742SOL    HW2 6126   4.432   6.376   6.152
 1743SOL     OW 6127   1.404   0.873   2.135
 1743SOL    HW1 6128   1.349   0.806   2.085
 1743SOL    HW2 6129   1.418   0.954   2.077
 1744SOL     OW 6130   2.022   0.327   2.089
 1744SOL    HW1 6131   2.076   0.398   2.043
 1744SOL    HW2 6132   1.925   0.339   2.066
 1745SOL     OW 6133   6.539   1.662   4.268
 1745SOL    HW1 6134   6.636   1.681   4.278
 1745SOL    HW2 6135   6.511   1.679   4.173
 1746SOL     OW 6136   2.700   5.838   6.115
 1746SOL    HW1 6137   2.629   5.827   6.046
 1746SOL    HW2 6138   2.664   5.893   6.191
 1747SOL     OW 6139   4.811   6.889   1.693
 1747SOL    HW1 6140   4.903   6.925   1.682
 1747SOL    HW2 6141   4.810   6.819   1.764
 1748SOL     OW 6142   6.506   1.574   3.782
 1748SOL    HW1 6143   6.572   1.504   3.811
 1748SOL    HW2 6144   6.473   1.551   3.690
 1749SOL     OW 6145   4.028   6.387   5.918
 1749SOL    HW1 6146   4.010   6.323   5.843
 1749SOL    HW2 6147   3.967   6.466   5.909
 1750SOL     OW 6148   5.198   1.187   2.997
 1750SOL    HW1 6149   5.181   1.110   2.935
 1750SOL    HW2 6150   5.296   1.191   3.017
 1751SOL     OW 6151   3.158   4.888   4.357
 1751SOL    HW1 6152   3.182   4.827   4.433
 1751SOL    HW2 6153   3.060   4.882   4.339
 1752SOL     OW 6154   6.500   2.631   1.135
 1752SOL    HW1 6155   6.403   2.619   1.116
 1752SOL    HW2 6156   6.538   2.545   1.169
 1753SOL     OW 6157   0.476   0.527   0.090
 1753SOL    HW1 6158   0.414   0.455   0.060
 1753SOL    HW2 6159   0.557   0.485   0.133
 1754SOL     OW 6160   3.780   3.691   0.877
 1754SOL    HW1 6161   3.856   3.678   0.813
 1754SOL    HW2 6162   3.767   3.609   0.932
 1755SOL     OW 6163   4.866   4.695   1.687
 1755SOL    HW1 6164   4.825   4.689   1.779
 1755SOL    HW2 6165   4.957   4.652   1.689
 1756SOL     OW 6166   5.778   4.656   5.149
 1756SOL    HW1 6167   5.767   4.744   5.195
 1756SOL    HW2 6168   5.876   4.633   5.143
 1757SOL     OW 6169   1.717   6.753   4.974
 1757SOL    HW1 6170   1.689   6.828   4.915
 1757SOL    HW2 6171   1.809   6.723   4.950
 1758SOL     OW 6172   2.933   1.051   3.461
 1758SOL    HW1 6173   2.998   0.977   3.478
 1758SOL    HW2 6174   2.950   1.126   3.525
 1759SOL     OW 6175   0.507   5.198   6.455
 1759SOL    HW1 6176   0.603   5.225   6.442
 1759SOL    HW2 6177   0.500   5.098   6.447
 1760SOL     OW 6178   6.723   1.968   1.224
 1760SOL    HW1 6179   6.714   2.008   1.133
 1760SOL    HW2 6180   6.725   2.040   1.292
 1761SOL     OW 6181   6.523   6.965   0.695
 1761SOL    HW1 6182   6.591   7.022   0.649
 1761SOL    HW2 6183   6.466   7.022   0.754
 1762SOL     OW 6184   6.214   2.000   5.392
 1762SOL    HW1 6185   6.154   1.958   5.324
 1762SOL    HW2 6186   6.159   2.057   5.454
 1763SOL     OW 6187   2.086   3.978   4.453
 1763SOL    HW1 6188   2.010   4.018   4.403
 1763SOL    HW2 6189   2.156   3.946   4.388
 1764SOL     OW 6190   1.781   4.136   2.554
 1764SOL    HW1 6191   1.699   4.193   2.538
 1764SOL    HW2 6192   1.862   4.194   2.551
 1765SOL     OW 6193   3.289   1.414   6.731
 1765SOL    HW1 6194   3.332   1.482   6.791
 1765SOL    HW2 6195   3.283   1.326   6.780
 1766SOL     OW 6196   5.240   2.535   4.422
 1766SOL    HW1 6197   5.272   2.482   4.343
 1766SOL    HW2 6198   5.143   2.554   4.411
 1767SOL     OW 6199   5.388   4.014   2.820
 1767SOL    HW1 6200   5.306   4.071   2.827
 1767SOL    HW2 6201   5.400   3.962   2.904
 1768SOL     OW 6202   4.547   0.350   4.763
 1768SOL    HW1 6203   4.586   0.283   4.827
 1768SOL    HW2 6204   4.605   0.356   4.682
 1769SOL     OW 6205   4.356   2.210   4.319
 1769SOL    HW1 6206   4.385   2.304   4.299
 1769SOL    HW2 6207   4.390   2.184   4.410
 1770SOL     OW 6208   1.760   5.496   4.709
 1770SOL    HW1 6209   1.841   5.463   4.757
 1770SOL    HW2 6210   1.731   5.583   4.748
 1771SOL     OW 6211   3.063   6.024   6.833
 1771SOL    HW1 6212   3.117   5.958   6.781
 1771SOL    HW2 6213   2.973   6.035   6.791
 1772SOL     OW 6214   3.405   6.973   4.098
 1772SOL    HW1 6215   3.423   0.023   4.037
 1772SOL    HW2 6216   3.306   6.961   4.109
 1773SOL     OW 6217   2.773   5.252   5.393
 1773SOL    HW1 6218   2.848   5.200   5.352
 1773SOL    HW2 6219   2.717   5.191   5.450
 1774SOL     OW 6220   4.238   6.215   1.797
 1774SOL    HW1 6221   4.305   6.278   1.759
 1774SOL    HW2 6222   4.200   6.158   1.723
 1775SOL     OW 6223   1.504   4.050   3.432
 1775SOL    HW1 6224   1.497   3.974   3.368
 1775SOL    HW2 6225   1.469   4.133   3.390
 1776SOL     OW 6226   3.420   6.512   4.395
 1776SOL    HW1 6227   3.465   6.423   4.391
 1776SOL    HW2 6228   3.433   6.560   4.308
 1777SOL     OW 6229   3.716   5.373   6.488
 1777SOL    HW1 6230   3.788   5.432   6.526
 1777SOL    HW2 6231   3.718   5.379   6.388
 1778SOL     OW 6232   4.251   3.506   5.923
 1778SOL    HW1 6233   4.188   3.551   5.860
 1778SOL    HW2 6234   4.300   3.434   5.875
 1779SOL     OW 6235   4.520   0.778   4.732
 1779SOL    HW1 6236   4.498   0.759   4.636
 1779SOL    HW2 6237   4.479   0.707   4.790
 1780SOL     OW 6238   3.854   2.679   6.787
 1780SOL    HW1 6239   3.855   2.749   6.716
 1780SOL    HW2 6240   3.857   2.589   6.745
 1781SOL     OW 6241   4.270   6.078   2.991
 1781SOL    HW1 6242   4.236   6.119   2.906
 1781SOL    HW2 6243   4.282   5.980   2.978
 1782SOL     OW 6244   2.860   1.497   2.595
 1782SOL    HW1 6245   2.830   1.588   2.566
 1782SOL    HW2 6246   2.960   1.492   2.589
 1783SOL     OW 6247   1.873   5.825   6.008
 1783SOL    HW1 6248   1.946   5.878   5.964
 1783SOL    HW2 6249   1.811   5.887   6.055
 1784SOL     OW 6250   4.297   1.460   6.201
 1784SOL    HW1 6251   4.206   1.435   6.168
 1784SOL    HW2 6252   4.366   1.406   6.152
 1785SOL     OW 6253   6.178   3.986   2.948
 1785SOL    HW1 6254   6.171   3.986   3.047
 1785SOL    HW2 6255   6.201   3.893   2.916
 1786SOL     OW 6256   2.104   2.933   7.022
 1786SOL    HW1 6257   2.120   2.878   0.078
 1786SOL    HW2 6258   2.099   2.874   6.941
 1787SOL     OW 6259   2.681   1.248   5.423
 1787SOL    HW1 6260   2.631   1.235   5.509
 1787SOL    HW2 6261   2.659   1.173   5.361
 1788SOL     OW 6262   2.736   3.415   6.977
 1788SOL    HW1 6263   2.790   3.360   0.014
 1788SOL    HW2 6264   2.793   3.486   6.936
 1789SOL     OW 6265   5.877   1.950   2.651
 1789SOL    HW1 6266   5.912   1.945   2.745
 1789SOL    HW2 6267   5.952   1.933   2.587
 1790SOL     OW 6268   4.173   6.291   3.608
 1790SOL    HW1 6269   4.208   6.257   3.695
 1790SOL    HW2 6270   4.230   6.257   3.534
 1791SOL     OW 6271   6.168   0.276   3.685
 1791SOL    HW1 6272   6.202   0.352   3.741
 1791SOL    HW2 6273   6.164   0.304   3.589
 1792SOL     OW 6274   6.457   3.123   5.196
 1792SOL    HW1 6275   6.448   3.084   5.105
 1792SOL    HW2 6276   6.463   3.223   5.189
 1793SOL     OW 6277   6.191   6.987   3.561
 1793SOL    HW1 6278   6.104   0.008   3.577
 1793SOL    HW2 6279   6.175   6.889   3.549
 1794SOL     OW 6280   5.279   6.443   5.558
 1794SOL    HW1 6281   5.379   6.440   5.558
 1794SOL    HW2 6282   5.244   6.407   5.644
 1795SOL     OW 6283   1.252   1.935   1.141
 1795SOL    HW1 6284   1.313   1.868   1.182
 1795SOL    HW2 6285   1.251   2.018   1.196
 1796SOL     OW 6286   2.672   0.881   5.363
 1796SOL    HW1 6287   2.627   0.866   5.451
 1796SOL    HW2 6288   2.615   0.939   5.306
 1797SOL     OW 6289   1.465   7.002   0.771
 1797SOL    HW1 6290   1.397   6.987   0.842
 1797SOL    HW2 6291   1.513   0.063   0.788
 1798SOL     OW 6292   4.616   2.411   3.875
 1798SOL    HW1 6293   4.656   2.337   3.930
 1798SOL    HW2 6294   4.523   2.385   3.848
 1799SOL     OW 6295   6.806   2.732   5.316
 1799SOL    HW1 6296   6.765   2.641   5.321
 1799SOL    HW2 6297   6.904   2.726   5.333
 1800SOL     OW 6298   4.132   4.553   1.749
 1800SOL    HW1 6299   4.097   4.554   1.656
 1800SOL    HW2 6300   4.151   4.647   1.778
 1801SOL     OW 6301   0.059   0.119   1.572
 1801SOL    HW1 6302   0.138   0.178   1.588
 1801SOL    HW2 6303   0.051   0.100   1.474
 1802SOL     OW 6304   5.033   5.396   4.257
 1802SOL    HW1 6305   5.129   5.423   4.247
 1802SOL    HW2 6306   5.029   5.299   4.281
 1803SOL     OW 6307   0.484   5.745   6.740
 1803SOL    HW1 6308   0.469   5.648   6.756
 1803SOL    HW2 6309   0.397   5.794   6.740
 1804SOL     OW 6310   2.457   3.721   5.353
 1804SOL    HW1 6311   2.516   3.756   5.425
 1804SOL    HW2 6312   2.446   3.791   5.282
 1805SOL     OW 6313   5.647   4.259   5.786
 1805SOL    HW1 6314   5.676   4.165   5.802
 1805SOL    HW2 6315   5.720   4.322   5.812
 1806SOL     OW 6316   0.416   0.015   0.163
 1806SOL    HW1 6317   0.430   6.943   0.144
 1806SOL    HW2 6318   0.367   0.025   0.250
 1807SOL     OW 6319   5.038   2.681   5.072
 1807SOL    HW1 6320   5.066   2.679   4.976
 1807SOL    HW2 6321   4.993   2.769   5.090
 1808SOL     OW 6322   0.258   4.414   5.596
 1808SOL    HW1 6323   0.344   4.460   5.618
 1808SOL    HW2 6324   0.211   4.390   5.681
 1809SOL     OW 6325   1.936   2.359   5.113
 1809SOL    HW1 6326   2.005   2.432   5.112
 1809SOL    HW2 6327   1.856   2.388   5.061
 1810SOL     OW 6328   2.725   6.901   3.788
 1810SOL    HW1 6329   2.825   6.905   3.796
 1810SOL    HW2 6330   2.700   6.895   3.691
 1811SOL     OW 6331   5.804   5.634   3.559
 1811SOL    HW1 6332   5.787   5.544   3.597
 1811SOL    HW2 6333   5.739   5.700   3.598
 1812SOL     OW 6334   4.315   5.720   4.608
 1812SOL    HW1 6335   4.293   5.817   4.604
 1812SOL    HW2 6336   4.239   5.670   4.651
 1813SOL     OW 6337   5.901   4.195   0.835
 1813SOL    HW1 6338   5.910   4.272   0.897
 1813SOL    HW2 6339   5.956   4.118   0.868
 1814SOL     OW 6340   5.250   0.158   2.248
 1814SOL    HW1 6341   5.267   0.130   2.153
 1814SOL    HW2 6342   5.167   0.214   2.252
 1815SOL     OW 6343   0.546   2.151   2.635
 1815SOL    HW1 6344   0.609   2.159   2.712
 1815SOL    HW2 6345   0.538   2.239   2.589
 1816SOL     OW 6346   2.887   3.502   1.230
 1816SOL    HW1 6347   2.946   3.582   1.233
 1816SOL    HW2 6348   2.903   3.445   1.310
 1817SOL     OW 6349   2.438   6.824   2.563
 1817SOL    HW1 6350   2.394   6.771   2.490
 1817SOL    HW2 6351   2.420   6.921   2.549
 1818SOL     OW 6352   1.044   6.800   2.920
 1818SOL    HW1 6353   0.974   6.796   2.848
 1818SOL    HW2 6354   1.032   6.883   2.974
 1819SOL     OW 6355   1.300   3.675   1.765
 1819SOL    HW1 6356   1.216   3.726   1.782
 1819SOL    HW2 6357   1.322   3.619   1.845
 1820SOL     OW 6358   3.930   1.207   2.954
 1820SOL    HW1 6359   4.009   1.191   2.895
 1820SOL    HW2 6360   3.856   1.248   2.902
 1821SOL     OW 6361   0.676   1.250   2.079
 1821SOL    HW1 6362   0.588   1.261   2.126
 1821SOL    HW2 6363   0.713   1.160   2.101
 1822SOL     OW 6364   3.026   2.136   1.141
 1822SOL    HW1 6365   2.945   2.192   1.124
 1822SOL    HW2 6366   3.027   2.107   1.236
 1823SOL     OW 6367   3.499   5.936   3.215
 1823SOL    HW1 6368   3.477   5.957   3.120
 1823SOL    HW2 6369   3.551   6.012   3.254
 1824SOL     OW 6370   3.784   2.114   1.027
 1824SOL    HW1 6371   3.803   2.184   1.096
 1824SOL    HW2 6372   3.813   2.025   1.061
 1825SOL     OW 6373   1.450   0.248   2.207
 1825SOL    HW1 6374   1.534   0.212   2.248
 1825SOL    HW2 6375   1.450   0.348   2.213
 1826SOL     OW 6376   3.408   1.151   1.525
 1826SOL    HW1 6377   3.324   1.206   1.520
 1826SOL    HW2 6378   3.426   1.109   1.437
 1827SOL     OW 6379   0.399   5.197   2.434
 1827SOL    HW1 6380   0.376   5.187   2.337
 1827SOL    HW2 6381   0.498   5.204   2.445
 1828SOL     OW 6382   0.339   2.304   0.247
 1828SOL    HW1 6383   0.358   2.235   0.178
 1828SOL    HW2 6384   0.413   2.372   0.248
 1829SOL     OW 6385   4.778   0.180   3.219
 1829SOL    HW1 6386   4.834   0.107   3.258
 1829SOL    HW2 6387   4.711   0.140   3.155
 1830SOL     OW 6388   5.484   5.561   4.110
 1830SOL    HW1 6389   5.384   5.560   4.115
 1830SOL    HW2 6390   5.513   5.507   4.030
 1831SOL     OW 6391   5.763   6.876   3.010
 1831SOL    HW1 6392   5.791   6.797   3.063
 1831SOL    HW2 6393   5.736   6.950   3.072
 1832SOL     OW 6394   5.486   2.135   1.127
 1832SOL    HW1 6395   5.469   2.222   1.080
 1832SOL    HW2 6396   5.534   2.153   1.213
 1833SOL     OW 6397   5.661   0.952   4.940
 1833SOL    HW1 6398   5.610   1.027   4.980
 1833SOL    HW2 6399   5.747   0.986   4.901
 1834SOL     OW 6400   3.404   3.913   0.072
 1834SOL    HW1 6401   3.462   3.884   7.021
 1834SOL    HW2 6402   3.444   3.993   0.115
 1835SOL     OW 6403   1.357   4.783   1.841
 1835SOL    HW1 6404   1.416   4.702   1.833
 1835SOL    HW2 6405   1.312   4.799   1.753
 1836SOL     OW 6406   0.210   2.131   1.033
 1836SOL    HW1 6407   0.123   2.119   0.985
 1836SOL    HW2 6408   0.194   2.135   1.132
 1837SOL     OW 6409   0.580   2.134   3.602
 1837SOL    HW1 6410   0.544   2.227   3.592
 1837SOL    HW2 6411   0.572   2.104   3.697
 1838SOL     OW 6412   0.182   1.880   3.668
 1838SOL    HW1 6413   0.126   1.849   3.591
 1838SOL    HW2 6414   0.167   1.978   3.683
 1839SOL     OW 6415   4.701   2.815   5.037
 1839SOL    HW1 6416   4.624   2.753   5.021
 1839SOL    HW2 6417   4.729   2.856   4.950
 1840SOL     OW 6418   3.372   6.057   1.480
 1840SOL    HW1 6419   3.382   6.017   1.389
 1840SOL    HW2 6420   3.448   6.029   1.538
 1841SOL     OW 6421   2.064   3.445   4.679
 1841SOL    HW1 6422   2.007   3.522   4.650
 1841SOL    HW2 6423   2.076   3.448   4.778
 1842SOL     OW 6424   0.630   5.654   0.459
 1842SOL    HW1 6425   0.640   5.604   0.545
 1842SOL    HW2 6426   0.713   5.644   0.405
 1843SOL     OW 6427   1.695   2.574   4.314
 1843SOL    HW1 6428   1.777   2.630   4.328
 1843SOL    HW2 6429   1.635   2.584   4.393
 1844SOL     OW 6430   3.851   1.379   5.706
 1844SOL    HW1 6431   3.915   1.302   5.709
 1844SOL    HW2 6432   3.843   1.412   5.612
 1845SOL     OW 6433   2.273   0.525   6.357
 1845SOL    HW1 6434   2.358   0.571   6.330
 1845SOL    HW2 6435   2.208   0.529   6.281
 1846SOL     OW 6436   4.053   2.036   6.714
 1846SOL    HW1 6437   4.019   2.062   6.624
 1846SOL    HW2 6438   4.035   1.939   6.730
 1847SOL     OW 6439   1.651   0.759   6.636
 1847SOL    HW1 6440   1.620   0.685   6.695
 1847SOL    HW2 6441   1.585   0.774   6.563
 1848SOL     OW 6442   1.912   5.906   2.710
 1848SOL    HW1 6443   1.977   5.857   2.767
 1848SOL    HW2 6444   1.822   5.905   2.754
 1849SOL     OW 6445   4.284   1.557   0.312
 1849SOL    HW1 6446   4.193   1.558   0.272
 1849SOL    HW2 6447   4.351   1.534   0.242
 1850SOL     OW 6448   6.432   2.245   2.582
 1850SOL    HW1 6449   6.363   2.267   2.651
 1850SOL    HW2 6450   6.405   2.162   2.533
 1851SOL     OW 6451   0.124   1.273   0.833
 1851SOL    HW1 6452   0.171   1.297   0.748
 1851SOL    HW2 6453   0.191   1.259   0.905
 1852SOL     OW 6454   4.702   4.138   1.033
 1852SOL    HW1 6455   4.629   4.199   1.061
 1852SOL    HW2 6456   4.670   4.044   1.033
 1853SOL     OW 6457   0.751   3.216   2.066
 1853SOL    HW1 6458   0.818   3.282   2.100
 1853SOL    HW2 6459   0.683   3.263   2.011
 1854SOL     OW 6460   2.905   6.223   4.069
 1854SOL    HW1 6461   2.853   6.149   4.113
 1854SOL    HW2 6462   2.842   6.292   4.035
 1855SOL     OW 6463   4.570   4.479   6.925
 1855SOL    HW1 6464   4.626   4.561   6.917
 1855SOL    HW2 6465   4.623   4.408   6.972
 1856SOL     OW 6466   6.331   3.046   5.475
 1856SOL    HW1 6467   6.261   3.116   5.459
 1856SOL    HW2 6468   6.310   2.964   5.423
 1857SOL     OW 6469   3.764   1.027   5.553
 1857SOL    HW1 6470   3.687   1.035   5.616
 1857SOL    HW2 6471   3.824   0.954   5.583
 1858SOL     OW 6472   5.863   3.184   3.572
 1858SOL    HW1 6473   5.942   3.227   3.530
 1858SOL    HW2 6474   5.829   3.111   3.513
 1859SOL     OW 6475   3.908   1.314   3.767
 1859SOL    HW1 6476   3.829   1.303   3.706
 1859SOL    HW2 6477   3.901   1.250   3.843
 1860SOL     OW 6478   6.777   0.995   3.267
 1860SOL    HW1 6479   6.801   0.967   3.360
 1860SOL    HW2 6480   6.777   0.915   3.207
 1861SOL     OW 6481   4.911   6.437   1.856
 1861SOL    HW1 6482   4.948   6.394   1.774
 1861SOL    HW2 6483   4.935   6.383   1.936
 1862SOL     OW 6484   2.244   6.669   6.942
 1862SOL    HW1 6485   2.317   6.612   6.905
 1862SOL    HW2 6486   2.273   6.765   6.939
 1863SOL     OW 6487   2.432   2.579   0.437
 1863SOL    HW1 6488   2.444   2.541   0.529
 1863SOL    HW2 6489   2.452   2.508   0.369
 1864SOL     OW 6490   0.959   0.160   5.557
 1864SOL    HW1 6491   0.887   0.106   5.513
 1864SOL    HW2 6492   0.944   0.257   5.538
 1865SOL     OW 6493   3.577   0.757   5.515
 1865SOL    HW1 6494   3.641   0.787   5.444
 1865SOL    HW2 6495   3.608   0.669   5.551
 1866SOL     OW 6496   4.797   4.713   2.362
 1866SOL    HW1 6497   4.713   4.732   2.311
 1866SOL    HW2 6498   4.859   4.791   2.353
 1867SOL     OW 6499   0.805   4.182   0.554
 1867SOL    HW1 6500   0.790   4.144   0.463
 1867SOL    HW2 6501   0.885   4.138   0.595
 1868SOL     OW 6502   5.013   4.605   0.320
 1868SOL    HW1 6503   4.967   4.582   0.406
 1868SOL    HW2 6504   4.951   4.590   0.243
 1869SOL     OW 6505   6.752   2.233   4.501
 1869SOL    HW1 6506   6.675   2.254   4.562
 1869SOL    HW2 6507   6.717   2.197   4.415
 1870SOL     OW 6508   2.076   4.246   5.713
 1870SOL    HW1 6509   2.132   4.178   5.760
 1870SOL    HW2 6510   2.045   4.315   5.779
 1871SOL     OW 6511   1.242   6.633   0.069
 1871SOL    HW1 6512   1.273   6.706   0.129
 1871SOL    HW2 6513   1.187   6.672   7.020
 1872SOL     OW 6514   3.580   4.156   6.842
 1872SOL    HW1 6515   3.643   4.085   6.808
 1872SOL    HW2 6516   3.625   4.245   6.835
 1873SOL     OW 6517   4.429   1.217   5.106
 1873SOL    HW1 6518   4.406   1.306   5.068
 1873SOL    HW2 6519   4.389   1.145   5.049
 1874SOL     OW 6520   2.392   1.323   0.986
 1874SOL    HW1 6521   2.403   1.414   1.026
 1874SOL    HW2 6522   2.465   1.306   0.920
 1875SOL     OW 6523   1.126   0.940   6.550
 1875SOL    HW1 6524   1.086   0.881   6.480
 1875SOL    HW2 6525   1.209   0.983   6.515
 1876SOL     OW 6526   3.208   0.519   5.596
 1876SOL    HW1 6527   3.180   0.582   5.524
 1876SOL    HW2 6528   3.145   0.442   5.600
 1877SOL     OW 6529   0.926   0.307   3.318
 1877SOL    HW1 6530   0.921   0.243   3.395
 1877SOL    HW2 6531   0.989   0.272   3.249
 1878SOL     OW 6532   6.934   1.882   3.893
 1878SOL    HW1 6533   6.893   1.840   3.812
 1878SOL    HW2 6534   7.018   1.833   3.918
 1879SOL     OW 6535   0.830   3.870   4.156
 1879SOL    HW1 6536   0.925   3.842   4.150
 1879SOL    HW2 6537   0.785   3.856   4.068
 1880SOL     OW 6538   6.894   1.111   4.809
 1880SOL    HW1 6539   6.940   1.025   4.786
 1880SOL    HW2 6540   6.912   1.134   4.904
 1881SOL     OW 6541   5.650   2.311   2.515
 1881SOL    HW1 6542   5.573   2.254   2.488
 1881SOL    HW2 6543   5.726   2.297   2.451
 1882SOL     OW 6544   1.162   4.319   6.730
 1882SOL    HW1 6545   1.246   4.309   6.676
 1882SOL    HW2 6546   1.127   4.412   6.720
 1883SOL     OW 6547   6.240   2.641   2.760
 1883SOL    HW1 6548   6.286   2.674   2.678
 1883SOL    HW2 6549   6.295   2.569   2.803
 1884SOL     OW 6550   1.048   1.735   0.666
 1884SOL    HW1 6551   0.973   1.796   0.690
 1884SOL    HW2 6552   1.015   1.640   0.665
 1885SOL     OW 6553   1.948   1.951   6.183
 1885SOL    HW1 6554   1.955   1.920   6.088
 1885SOL    HW2 6555   1.853   1.943   6.213
 1886SOL     OW 6556   1.836   0.113   1.661
 1886SOL    HW1 6557   1.931   0.082   1.658
 1886SOL    HW2 6558   1.787   0.077   1.581
 1887SOL     OW 6559   0.630   5.498   5.953
 1887SOL    HW1 6560   0.728   5.508   5.967
 1887SOL    HW2 6561   0.582   5.513   6.040
 1888SOL     OW 6562   3.139   2.234   6.888
 1888SOL    HW1 6563   3.214   2.177   6.853
 1888SOL    HW2 6564   3.156   2.256   6.984
 1889SOL     OW 6565   0.134   3.687   4.299
 1889SOL    HW1 6566   0.215   3.659   4.351
 1889SOL    HW2 6567   0.159   3.759   4.234
 1890SOL     OW 6568   1.365   5.793   3.964
 1890SOL    HW1 6569   1.455   5.764   3.995
 1890SOL    HW2 6570   1.338   5.877   4.012
 1891SOL     OW 6571   4.520   2.807   1.740
 1891SOL    HW1 6572   4.567   2.740   1.797
 1891SOL    HW2 6573   4.505   2.891   1.793
 1892SOL     OW 6574   0.256   7.024   1.950
 1892SOL    HW1 6575   0.322   0.040   2.013
 1892SOL    HW2 6576   0.183   0.063   1.931
 1893SOL     OW 6577   3.404   2.830   1.893
 1893SOL    HW1 6578   3.439   2.806   1.984
 1893SOL    HW2 6579   3.454   2.778   1.824
 1894SOL     OW 6580   3.632   3.782   4.163
 1894SOL    HW1 6581   3.631   3.688   4.127
 1894SOL    HW2 6582   3.722   3.823   4.148
 1895SOL     OW 6583   4.454   6.847   0.682
 1895SOL    HW1 6584   4.533   6.839   0.622
 1895SOL    HW2 6585   4.463   6.929   0.740
 1896SOL     OW 6586   5.997   1.520   0.717
 1896SOL    HW1 6587   6.052   1.545   0.638
 1896SOL    HW2 6588   6.012   1.423   0.738
 1897SOL     OW 6589   1.671   5.151   2.212
 1897SOL    HW1 6590   1.683   5.057   2.178
 1897SOL    HW2 6591   1.665   5.149   2.312
 1898SOL     OW 6592   2.274   4.581   2.827
 1898SOL    HW1 6593   2.177   4.596   2.845
 1898SOL    HW2 6594   2.303   4.637   2.749
 1899SOL     OW 6595   0.338   1.495   0.028
 1899SOL    HW1 6596   0.311   1.591   0.042
 1899SOL    HW2 6597   0.432   1.482   0.059
 1900SOL     OW 6598   2.312   0.750   0.069
 1900SOL    HW1 6599   2.397   0.792   0.037
 1900SOL    HW2 6600   2.303   0.763   0.167
 1901SOL     OW 6601   2.408   2.258   0.790
 1901SOL    HW1 6602   2.406   2.158   0.801
 1901SOL    HW2 6603   2.325   2.297   0.830
 1902SOL     OW 6604   2.691   0.494   4.630
 1902SOL    HW1 6605   2.657   0.402   4.612
 1902SOL    HW2 6606   2.767   0.490   4.695
 1903SOL     OW 6607   0.956   3.356   2.733
 1903SOL    HW1 6608   1.035   3.401   2.773
 1903SOL    HW2 6609   0.982   3.310   2.648
 1904SOL     OW 6610   5.617   5.124   3.120
 1904SOL    HW1 6611   5.531   5.154   3.160
 1904SOL    HW2 6612   5.694   5.160   3.173
 1905SOL     OW 6613   0.771   0.687   3.450
 1905SOL    HW1 6614   0.728   0.638   3.526
 1905SOL    HW2 6615   0.701   0.739   3.401
 1906SOL     OW 6616   3.112   0.983   6.017
 1906SOL    HW1 6617   3.208   1.011   6.030
 1906SOL    HW2 6618   3.102   0.886   6.038
 1907SOL     OW 6619   4.886   2.687   1.233
 1907SOL    HW1 6620   4.890   2.597   1.276
 1907SOL    HW2 6621   4.833   2.749   1.292
 1908SOL     OW 6622   3.781   6.471   6.263
 1908SOL    HW1 6623   3.873   6.510   6.258
 1908SOL    HW2 6624   3.714   6.544   6.276
 1909SOL     OW 6625   0.575   3.269   3.474
 1909SOL    HW1 6626   0.595   3.184   3.425
 1909SOL    HW2 6627   0.637   3.278   3.553
 1910SOL     OW 6628   6.855   6.462   5.231
 1910SOL    HW1 6629   6.862   6.559   5.255
 1910SOL    HW2 6630   6.775   6.422   5.276
 1911SOL     OW 6631   0.089   3.869   4.911
 1911SOL    HW1 6632   0.120   3.776   4.932
 1911SOL    HW2 6633   0.051   3.910   4.994
 1912SOL     OW 6634   2.864   5.567   2.381
 1912SOL    HW1 6635   2.866   5.584   2.283
 1912SOL    HW2 6636   2.777   5.600   2.418
 1913SOL     OW 6637   2.407   0.195   4.509
 1913SOL    HW1 6638   2.422   0.214   4.606
 1913SOL    HW2 6639   2.486   0.146   4.472
 1914SOL     OW 6640   4.255   3.608   0.299
 1914SOL    HW1 6641   4.203   3.661   0.366
 1914SOL    HW2 6642   4.200   3.594   0.217
 1915SOL     OW 6643   4.934   2.929   5.808
 1915SOL    HW1 6644   4.995   2.959   5.882
 1915SOL    HW2 6645   4.890   3.009   5.767
 1916SOL     OW 6646   4.462   6.206   0.997
 1916SOL    HW1 6647   4.418   6.175   1.081
 1916SOL    HW2 6648   4.416   6.164   0.918
 1917SOL     OW 6649   2.984   3.353   0.439
 1917SOL    HW1 6650   2.907   3.351   0.502
 1917SOL    HW2 6651   3.053   3.287   0.468
 1918SOL     OW 6652   0.836   0.786   4.670
 1918SOL    HW1 6653   0.897   0.863   4.653
 1918SOL    HW2 6654   0.742   0.819   4.680
 1919SOL     OW 6655   1.748   1.415   1.082
 1919SOL    HW1 6656   1.699   1.328   1.071
 1919SOL    HW2 6657   1.815   1.406   1.155
 1920SOL     OW 6658   6.134   2.796   2.376
 1920SOL    HW1 6659   6.125   2.733   2.298
 1920SOL    HW2 6660   6.048   2.844   2.390
 1921SOL     OW 6661   1.229   3.374   6.831
 1921SOL    HW1 6662   1.214   3.333   6.741
 1921SOL    HW2 6663   1.271   3.464   6.820
 1922SOL     OW 6664   2.916   3.179   2.003
 1922SOL    HW1 6665   2.963   3.146   1.921
 1922SOL    HW2 6666   2.928   3.112   2.077
 1923SOL     OW 6667   4.571   1.349   0.216
 1923SOL    HW1 6668   4.564   1.449   0.209
 1923SOL    HW2 6669   4.589   1.311   0.126
 1924SOL     OW 6670   4.570   0.014   0.836
 1924SOL    HW1 6671   4.535   0.056   0.919
 1924SOL    HW2 6672   4.634   0.077   0.791
 1925SOL     OW 6673   0.966   4.618   1.631
 1925SOL    HW1 6674   0.899   4.692   1.640
 1925SOL    HW2 6675   1.023   4.615   1.714
 1926SOL     OW 6676   3.066   0.388   2.033
 1926SOL    HW1 6677   3.058   0.330   2.114
 1926SOL    HW2 6678   3.017   0.346   1.957
 1927SOL     OW 6679   2.534   3.586   0.750
 1927SOL    HW1 6680   2.454   3.527   0.740
 1927SOL    HW2 6681   2.513   3.661   0.813
 1928SOL     OW 6682   4.951   5.124   4.280
 1928SOL    HW1 6683   4.871   5.182   4.266
 1928SOL    HW2 6684   4.923   5.030   4.297
 1929SOL     OW 6685   2.745   0.730   2.427
 1929SOL    HW1 6686   2.804   0.811   2.425
 1929SOL    HW2 6687   2.698   0.721   2.340
 1930SOL     OW 6688   5.310   3.434   6.504
 1930SOL    HW1 6689   5.408   3.420   6.491
 1930SOL    HW2 6690   5.269   3.350   6.539
 1931SOL     OW 6691   0.853   1.938   6.857
 1931SOL    HW1 6692   0.862   1.849   6.901
 1931SOL    HW2 6693   0.930   1.954   6.796
 1932SOL     OW 6694   4.727   2.744   3.289
 1932SOL    HW1 6695   4.637   2.712   3.315
 1932SOL    HW2 6696   4.761   2.689   3.212
 1933SOL     OW 6697   0.657   1.810   0.465
 1933SOL    HW1 6698   0.601   1.744   0.414
 1933SOL    HW2 6699   0.746   1.819   0.421
 1934SOL     OW 6700   0.750   0.360   5.238
 1934SOL    HW1 6701   0.687   0.432   5.210
 1934SOL    HW2 6702   0.698   0.282   5.274
 1935SOL     OW 6703   4.582   4.586   3.766
 1935SOL    HW1 6704   4.483   4.573   3.759
 1935SOL    HW2 6705   4.602   4.647   3.842
 1936SOL     OW 6706   5.129   3.835   3.889
 1936SOL    HW1 6707   5.188   3.760   3.861
 1936SOL    HW2 6708   5.183   3.903   3.939
 1937SOL     OW 6709   4.623   6.232   6.734
 1937SOL    HW1 6710   4.698   6.187   6.685
 1937SOL    HW2 6711   4.659   6.310   6.786
 1938SOL     OW 6712   1.229   2.774   0.063
 1938SOL    HW1 6713   1.198   2.681   0.046
 1938SOL    HW2 6714   1.250   2.818   7.001
 1939SOL     OW 6715   0.355   5.628   4.477
 1939SOL    HW1 6716   0.259   5.602   4.466
 1939SOL    HW2 6717   0.394   5.652   4.389
 1940SOL     OW 6718   5.835   4.403   2.037
 1940SOL    HW1 6719   5.762   4.353   1.990
 1940SOL    HW2 6720   5.807   4.498   2.050
 1941SOL     OW 6721   0.136   2.478   3.802
 1941SOL    HW1 6722   0.192   2.554   3.835
 1941SOL    HW2 6723   0.181   2.434   3.725
 1942SOL     OW 6724   5.597   4.116   2.667
 1942SOL    HW1 6725   5.577   4.214   2.672
 1942SOL    HW2 6726   5.514   4.065   2.688
 1943SOL     OW 6727   1.607   1.533   2.086
 1943SOL    HW1 6728   1.533   1.545   2.153
 1943SOL    HW2 6729   1.610   1.437   2.057
 1944SOL     OW 6730   6.426   4.059   0.509
 1944SOL    HW1 6731   6.482   3.976   0.521
 1944SOL    HW2 6732   6.465   4.114   0.435
 1945SOL     OW 6733   3.919   6.500   0.803
 1945SOL    HW1 6734   3.953   6.445   0.880
 1945SOL    HW2 6735   3.913   6.596   0.832
 1946SOL     OW 6736   5.675   6.251   1.531
 1946SOL    HW1 6737   5.748   6.314   1.506
 1946SOL    HW2 6738   5.605   6.300   1.583
 1947SOL     OW 6739   6.372   5.471   3.859
 1947SOL    HW1 6740   6.374   5.389   3.915
 1947SOL    HW2 6741   6.448   5.531   3.883
 1948SOL     OW 6742   6.047   3.957   2.582
 1948SOL    HW1 6743   6.012   3.934   2.673
 1948SOL    HW2 6744   5.976   4.001   2.528
 1949SOL     OW 6745   3.797   4.196   0.499
 1949SOL    HW1 6746   3.826   4.108   0.460
 1949SOL    HW2 6747   3.876   4.244   0.534
 1950SOL     OW 6748   3.675   3.505   4.081
 1950SOL    HW1 6749   3.615   3.427   4.096
 1950SOL    HW2 6750   3.756   3.476   4.030
 1951SOL     OW 6751   6.639   4.279   5.481
 1951SOL    HW1 6752   6.564   4.214   5.468
 1951SOL    HW2 6753   6.610   4.352   5.542
 1952SOL     OW 6754   4.899   4.296   1.107
 1952SOL    HW1 6755   4.842   4.223   1.071
 1952SOL    HW2 6756   4.914   4.281   1.205
 1953SOL     OW 6757   6.750   1.703   6.403
 1953SOL    HW1 6758   6.775   1.752   6.486
 1953SOL    HW2 6759   6.693   1.624   6.426
 1954SOL     OW 6760   5.755   1.168   1.767
 1954SOL    HW1 6761   5.759   1.194   1.864
 1954SOL    HW2 6762   5.725   1.072   1.760
 1955SOL     OW 6763   0.613   1.558   1.668
 1955SOL    HW1 6764   0.642   1.493   1.738
 1955SOL    HW2 6765   0.535   1.611   1.703
 1956SOL     OW 6766   5.180   0.963   2.837
 1956SOL    HW1 6767   5.269   0.980   2.794
 1956SOL    HW2 6768   5.159   0.865   2.831
 1957SOL     OW 6769   5.037   3.230   3.902
 1957SOL    HW1 6770   5.035   3.306   3.967
 1957SOL    HW2 6771   5.122   3.233   3.850
 1958SOL     OW 6772   4.710   1.556   1.147
 1958SOL    HW1 6773   4.626   1.597   1.114
 1958SOL    HW2 6774   4.692   1.507   1.232
 1959SOL     OW 6775   6.324   6.943   3.947
 1959SOL    HW1 6776   6.355   0.001   3.902
 1959SOL    HW2 6777   6.238   6.960   3.994
 1960SOL     OW 6778   6.239   2.613   3.191
 1960SOL    HW1 6779   6.320   2.621   3.132
 1960SOL    HW2 6780   6.262   2.555   3.269
 1961SOL     OW 6781   6.510   4.467   4.887
 1961SOL    HW1 6782   6.481   4.519   4.807
 1961SOL    HW2 6783   6.528   4.530   4.962
 1962SOL     OW 6784   1.225   5.802   2.841
 1962SOL    HW1 6785   1.242   5.827   2.936
 1962SOL    HW2 6786   1.200   5.883   2.788
 1963SOL     OW 6787   0.734   1.122   1.813
 1963SOL    HW1 6788   0.753   1.051   1.747
 1963SOL    HW2 6789   0.657   1.094   1.871
 1964SOL     OW 6790   5.140   4.556   1.564
 1964SOL    HW1 6791   5.226   4.605   1.550
 1964SOL    HW2 6792   5.118   4.503   1.483
 1965SOL     OW 6793   0.743   3.716   3.856
 1965SOL    HW1 6794   0.714   3.640   3.915
 1965SOL    HW2 6795   0.826   3.689   3.807
 1966SOL     OW 6796   1.612   4.790   1.047
 1966SOL    HW1 6797   1.593   4.799   1.145
 1966SOL    HW2 6798   1.681   4.720   1.033
 1967SOL     OW 6799   6.462   2.379   3.876
 1967SOL    HW1 6800   6.465   2.432   3.961
 1967SOL    HW2 6801   6.498   2.435   3.801
 1968SOL     OW 6802   2.470   0.881   5.597
 1968SOL    HW1 6803   2.431   0.879   5.689
 1968SOL    HW2 6804   2.424   0.950   5.542
 1969SOL     OW 6805   3.316   0.923   2.030
 1969SOL    HW1 6806   3.288   0.850   2.093
 1969SOL    HW2 6807   3.297   1.012   2.072
 1970SOL     OW 6808   6.185   6.587   5.045
 1970SOL    HW1 6809   6.124   6.515   5.078
 1970SOL    HW2 6810   6.144   6.676   5.062
 1971SOL     OW 6811   1.057   6.841   5.893
 1971SOL    HW1 6812   1.147   6.885   5.895
 1971SOL    HW2 6813   0.988   6.908   5.867
 1972SOL     OW 6814   5.695   2.503   1.667
 1972SOL    HW1 6815   5.598   2.522   1.649
 1972SOL    HW2 6816   5.739   2.473   1.583
 1973SOL     OW 6817   2.610   3.415   1.552
 1973SOL    HW1 6818   2.689   3.357   1.571
 1973SOL    HW2 6819   2.610   3.443   1.456
 1974SOL     OW 6820   4.047   6.627   4.379
 1974SOL    HW1 6821   4.047   6.653   4.282
 1974SOL    HW2 6822   4.023   6.706   4.434
 1975SOL     OW 6823   2.253   2.761   3.649
 1975SOL    HW1 6824   2.299   2.841   3.686
 1975SOL    HW2 6825   2.223   2.702   3.724
 1976SOL     OW 6826   5.843   0.051   7.013
 1976SOL    HW1 6827   5.780   7.002   6.990
 1976SOL    HW2 6828   5.902   0.071   6.935
 1977SOL     OW 6829   2.837   3.132   6.615
 1977SOL    HW1 6830   2.865   3.177   6.700
 1977SOL    HW2 6831   2.740   3.150   6.597
 1978SOL     OW 6832   2.380   6.206   2.876
 1978SOL    HW1 6833   2.287   6.224   2.844
 1978SOL    HW2 6834   2.438   6.285   2.855
 1979SOL     OW 6835   6.102   5.097   6.945
 1979SOL    HW1 6836   6.034   5.031   6.912
 1979SOL    HW2 6837   6.117   5.166   6.875
 1980SOL     OW 6838   3.222   0.502   2.322
 1980SOL    HW1 6839   3.140   0.485   2.377
 1980SOL    HW2 6840   3.278   0.419   2.320
 1981SOL     OW 6841   5.019   2.583   2.979
 1981SOL    HW1 6842   4.921   2.602   2.975
 1981SOL    HW2 6843   5.042   2.514   2.910
 1982SOL     OW 6844   6.455   3.737   3.795
 1982SOL    HW1 6845   6.451   3.661   3.860
 1982SOL    HW2 6846   6.424   3.706   3.705
 1983SOL     OW 6847   0.526   0.050   0.938
 1983SOL    HW1 6848   0.457   0.022   1.004
 1983SOL    HW2 6849   0.609   7.021   0.951
 1984SOL     OW 6850   5.169   2.367   5.256
 1984SOL    HW1 6851   5.070   2.383   5.253
 1984SOL    HW2 6852   5.216   2.455   5.257
 1985SOL     OW 6853   6.471   5.064   1.788
 1985SOL    HW1 6854   6.518   5.152   1.780
 1985SOL    HW2 6855   6.393   5.073   1.850
 1986SOL     OW 6856   3.023   1.087   6.368
 1986SOL    HW1 6857   2.954   1.069   6.298
 1986SOL    HW2 6858   3.095   1.144   6.331
 1987SOL     OW 6859   1.770   1.188   4.036
 1987SOL    HW1 6860   1.781   1.203   4.134
 1987SOL    HW2 6861   1.776   1.090   4.016
 1988SOL     OW 6862   0.419   1.434   1.237
 1988SOL    HW1 6863   0.392   1.529   1.220
 1988SOL    HW2 6864   0.462   1.396   1.155
 1989SOL     OW 6865   2.937   5.605   4.715
 1989SOL    HW1 6866   3.008   5.671   4.691
 1989SOL    HW2 6867   2.978   5.529   4.767
 1990SOL     OW 6868   4.210   0.158   6.831
 1990SOL    HW1 6869   4.158   0.198   6.756
 1990SOL    HW2 6870   4.227   0.227   6.901
 1991SOL     OW 6871   2.877   5.665   0.045
 1991SOL    HW1 6872   2.798   5.661   0.106
 1991SOL    HW2 6873   2.850   5.633   6.980
 1992SOL     OW 6874   6.967   6.522   6.989
 1992SOL    HW1 6875   6.938   6.505   0.057
 1992SOL    HW2 6876   6.952   6.618   6.965
 1993SOL     OW 6877   2.346   2.670   4.641
 1993SOL    HW1 6878   2.338   2.769   4.632
 1993SOL    HW2 6879   2.412   2.648   4.713
 1994SOL     OW 6880   4.407   2.885   0.965
 1994SOL    HW1 6881   4.435   2.851   1.055
 1994SOL    HW2 6882   4.423   2.983   0.959
 1995SOL     OW 6883   5.433   2.355   4.636
 1995SOL    HW1 6884   5.394   2.448   4.642
 1995SOL    HW2 6885   5.476   2.343   4.546
 1996SOL     OW 6886   2.847   1.923   0.935
 1996SOL    HW1 6887   2.894   1.957   1.016
 1996SOL    HW2 6888   2.750   1.909   0.955
 1997SOL     OW 6889   3.155   1.361   3.902
 1997SOL    HW1 6890   3.113   1.329   3.987
 1997SOL    HW2 6891   3.205   1.446   3.920
 1998SOL     OW 6892   1.303   3.180   1.143
 1998SOL    HW1 6893   1.261   3.270   1.150
 1998SOL    HW2 6894   1.233   3.109   1.145
 1999SOL     OW 6895   0.608   0.534   4.803
 1999SOL    HW1 6896   0.546   0.479   4.859
 1999SOL    HW2 6897   0.701   0.524   4.837
 2000SOL     OW 6898   4.139   3.720   6.108
 2000SOL    HW1 6899   4.105   3.642   6.161
 2000SOL    HW2 6900   4.066   3.787   6.098
 2001SOL     OW 6901   1.848   1.894   6.661
 2001SOL    HW1 6902   1.828   1.798   6.683
 2001SOL    HW2 6903   1.769   1.951   6.684
 2002SOL     OW 6904   0.462   5.571   1.098
 2002SOL    HW1 6905   0.388   5.527   1.046
 2002SOL    HW2 6906   0.444   5.669   1.104
 2003SOL     OW 6907   6.489   5.376   2.141
 2003SOL    HW1 6908   6.585   5.405   2.130
 2003SOL    HW2 6909   6.482   5.278   2.124
 2004SOL     OW 6910   3.773   0.487   3.715
 2004SOL    HW1 6911   3.820   0.539   3.785
 2004SOL    HW2 6912   3.839   0.452   3.649
 2005SOL     OW 6913   0.057   6.061   0.149
 2005SOL    HW1 6914   0.137   6.110   0.115
 2005SOL    HW2 6915   7.000   6.099   0.109
 2006SOL     OW 6916   5.450   0.495   4.061
 2006SOL    HW1 6917   5.365   0.546   4.071
 2006SOL    HW2 6918   5.523   0.542   4.111
 2007SOL     OW 6919   4.840   4.572   1.037
 2007SOL    HW1 6920   4.823   4.549   0.941
 2007SOL    HW2 6921   4.891   4.499   1.080
 2008SOL     OW 6922   2.101   3.866   3.887
 2008SOL    HW1 6923   2.132   3.961   3.878
 2008SOL    HW2 6924   2.051   3.839   3.805
 2009SOL     OW 6925   5.979   6.215   1.750
 2009SOL    HW1 6926   5.912   6.148   1.717
 2009SOL    HW2 6927   6.030   6.175   1.826
 2010SOL     OW 6928   1.418   2.501   1.293
 2010SOL    HW1 6929   1.445   2.412   1.256
 2010SOL    HW2 6930   1.398   2.563   1.217
 2011SOL     OW 6931   0.015   0.013   5.661
 2011SOL    HW1 6932   0.081   7.005   5.728
 2011SOL    HW2 6933   0.048   0.099   5.623
 2012SOL     OW 6934   1.467   3.501   1.950
 2012SOL    HW1 6935   1.507   3.434   2.011
 2012SOL    HW2 6936   1.465   3.591   1.994
 2013SOL     OW 6937   0.197   2.846   3.301
 2013SOL    HW1 6938   0.164   2.752   3.303
 2013SOL    HW2 6939   0.291   2.848   3.266
 2014SOL     OW 6940   3.314   0.234   3.472
 2014SOL    HW1 6941   3.215   0.248   3.461
 2014SOL    HW2 6942   3.362   0.318   3.446
 2015SOL     OW 6943   3.736   1.154   1.351
 2015SOL    HW1 6944   3.669   1.224   1.327
 2015SOL    HW2 6945   3.697   1.093   1.420
 2016SOL     OW 6946   1.497   6.000   5.365
 2016SOL    HW1 6947   1.597   5.998   5.373
 2016SOL    HW2 6948   1.467   5.921   5.311
 2017SOL     OW 6949   4.578   6.976   3.388
 2017SOL    HW1 6950   4.515   6.899   3.403
 2017SOL    HW2 6951   4.572   7.007   3.294
 2018SOL     OW 6952   0.185   2.281   3.315
 2018SOL    HW1 6953   0.253   2.274   3.242
 2018SOL    HW2 6954   0.095   2.298   3.275
 2019SOL     OW 6955   6.160   4.970   6.611
 2019SOL    HW1 6956   6.242   4.914   6.616
 2019SOL    HW2 6957   6.101   4.937   6.537
 2020SOL     OW 6958   1.277   5.969   5.545
 2020SOL    HW1 6959   1.294   5.961   5.643
 2020SOL    HW2 6960   1.365   5.978   5.497
 2021SOL     OW 6961   6.445   6.280   3.343
 2021SOL    HW1 6962   6.465   6.369   3.302
 2021SOL    HW2 6963   6.346   6.270   3.354
 2022SOL     OW 6964   2.031   4.094   5.016
 2022SOL    HW1 6965   2.129   4.074   5.005
 2022SOL    HW2 6966   2.001   4.064   5.107
 2023SOL     OW 6967   0.005   0.289   7.021
 2023SOL    HW1 6968   7.009   0.253   6.930
 2023SOL    HW2 6969   6.973   0.243   0.063
 2024SOL     OW 6970   0.193   5.456   4.167
 2024SOL    HW1 6971   0.181   5.544   4.121
 2024SOL    HW2 6972   0.122   5.392   4.136
 2025SOL     OW 6973   2.625   0.906   4.259
 2025SOL    HW1 6974   2.564   0.876   4.185
 2025SOL    HW2 6975   2.569   0.935   4.337
 2026SOL     OW 6976   5.731   0.813   6.476
 2026SOL    HW1 6977   5.752   0.736   6.536
 2026SOL    HW2 6978   5.638   0.803   6.440
 2027SOL     OW 6979   0.853   6.056   1.399
 2027SOL    HW1 6980   0.926   6.003   1.442
 2027SOL    HW2 6981   0.774   5.997   1.382
 2028SOL     OW 6982   4.167   5.934   2.697
 2028SOL    HW1 6983   4.071   5.925   2.722
 2028SOL    HW2 6984   4.183   6.024   2.657
 2029SOL     OW 6985   6.970   2.167   6.612
 2029SOL    HW1 6986   7.011   2.081   6.642
 2029SOL    HW2 6987   7.019   2.243   6.656
 2030SOL     OW 6988   3.275   6.119   3.184
 2030SOL    HW1 6989   3.274   6.021   3.164
 2030SOL    HW2 6990   3.321   6.134   3.272
 2031SOL     OW 6991   6.720   5.882   2.866
 2031SOL    HW1 6992   6.791   5.813   2.884
 2031SOL    HW2 6993   6.754   5.972   2.890
 2032SOL     OW 6994   3.555   1.539   6.903
 2032SOL    HW1 6995   3.623   1.466   6.891
 2032SOL    HW2 6996   3.593   1.625   6.869
 2033SOL     OW 6997   1.120   0.988   0.961
 2033SOL    HW1 6998   1.031   1.028   0.937
 2033SOL    HW2 6999   1.157   0.939   0.881
 2034SOL     OW 7000   1.437   5.492   5.676
 2034SOL    HW1 7001   1.447   5.413   5.615
 2034SOL    HW2 7002   1.423   5.460   5.770
 2035SOL     OW 7003   6.503   6.746   1.915
 2035SOL    HW1 7004   6.442   6.825   1.925
 2035SOL    HW2 7005   6.530   6.737   1.819
 2036SOL     OW 7006   1.037   3.347   3.049
 2036SOL    HW1 7007   0.980   3.409   2.994
 2036SOL    HW2 7008   1.115   3.316   2.994
 2037SOL     OW 7009   0.080   2.975   6.424
 2037SOL    HW1 7010   7.007   2.961   6.417
 2037SOL    HW2 7011   0.111   3.031   6.347
 2038SOL     OW 7012   2.799   1.141   0.098
 2038SOL    HW1 7013   2.874   1.080   0.071
 2038SOL    HW2 7014   2.726   1.136   0.030
 2039SOL     OW 7015   7.020   5.856   2.270
 2039SOL    HW1 7016   6.951   5.790   2.240
 2039SOL    HW2 7017   6.991   5.896   2.358
 2040SOL     OW 7018   2.281   2.586   6.991
 2040SOL    HW1 7019   2.330   2.541   6.917
 2040SOL    HW2 7020   2.183   2.568   6.981
 2041SOL     OW 7021   1.718   0.019   5.891
 2041SOL    HW1 7022   1.684   0.032   5.984
 2041SOL    HW2 7023   1.717   6.947   5.869
 2042SOL     OW 7024   4.770   0.364   6.346
 2042SOL    HW1 7025   4.853   0.331   6.300
 2042SOL    HW2 7026   4.757   0.461   6.326
 2043SOL     OW 7027   0.036   2.487   1.269
 2043SOL    HW1 7028   7.005   2.567   1.254
 2043SOL    HW2 7029   0.049   2.473   1.368
 2044SOL     OW 7030   5.588   1.113   1.093
 2044SOL    HW1 7031   5.565   1.179   1.021
 2044SOL    HW2 7032   5.590   1.160   1.182
 2045SOL     OW 7033   1.840   5.574   5.883
 2045SOL    HW1 7034   1.848   5.654   5.942
 2045SOL    HW2 7035   1.849   5.491   5.938
 2046SOL     OW 7036   0.474   1.418   5.593
 2046SOL    HW1 7037   0.498   1.510   5.563
 2046SOL    HW2 7038   0.481   1.355   5.516
 2047SOL     OW 7039   6.290   2.455   0.281
 2047SOL    HW1 7040   6.306   2.505   0.195
 2047SOL    HW2 7041   6.206   2.489   0.324
 2048SOL     OW 7042   0.563   1.412   4.204
 2048SOL    HW1 7043   0.595   1.478   4.137
 2048SOL    HW2 7044   0.623   1.415   4.284
 2049SOL     OW 7045   4.419   1.429   4.652
 2049SOL    HW1 7046   4.403   1.509   4.595
 2049SOL    HW2 7047   4.507   1.387   4.628
 2050SOL     OW 7048   0.356   1.739   4.183
 2050SOL    HW1 7049   0.317   1.808   4.245
 2050SOL    HW2 7050   0.283   1.680   4.149
 2051SOL     OW 7051   3.193   0.201   0.965
 2051SOL    HW1 7052   3.120   0.256   0.925
 2051SOL    HW2 7053   3.223   0.132   0.899
 2052SOL     OW 7054   1.902   4.084   0.269
 2052SOL    HW1 7055   1.904   4.074   0.369
 2052SOL    HW2 7056   1.954   4.165   0.242
 2053SOL     OW 7057   1.264   5.348   4.091
 2053SOL    HW1 7058   1.318   5.271   4.124
 2053SOL    HW2 7059   1.278   5.427   4.151
 2054SOL     OW 7060   3.232   3.228   2.757
 2054SOL    HW1 7061   3.215   3.156   2.825
 2054SOL    HW2 7062   3.164   3.222   2.684
 2055SOL     OW 7063   1.239   2.816   4.799
 2055SOL    HW1 7064   1.233   2.780   4.892
 2055SOL    HW2 7065   1.151   2.858   4.774
 2056SOL     OW 7066   3.814   5.051   0.783
 2056SOL    HW1 7067   3.794   5.028   0.688
 2056SOL    HW2 7068   3.881   4.987   0.820
 2057SOL     OW 7069   5.703   2.422   4.536
 2057SOL    HW1 7070   5.713   2.323   4.530
 2057SOL    HW2 7071   5.677   2.448   4.629
 2058SOL     OW 7072   1.002   6.706   3.548
 2058SOL    HW1 7073   1.082   6.715   3.489
 2058SOL    HW2 7074   0.918   6.709   3.493
 2059SOL     OW 7075   2.458   0.260   5.635
 2059SOL    HW1 7076   2.502   0.216   5.557
 2059SOL    HW2 7077   2.383   0.319   5.603
 2060SOL     OW 7078   1.311   3.448   0.328
 2060SOL    HW1 7079   1.380   3.436   0.400
 2060SOL    HW2 7080   1.318   3.374   0.262
 2061SOL     OW 7081   2.057   2.180   2.305
 2061SOL    HW1 7082   1.967   2.161   2.343
 2061SOL    HW2 7083   2.093   2.097   2.262
 2062SOL     OW 7084   6.615   5.545   5.260
 2062SOL    HW1 7085   6.601   5.551   5.161
 2062SOL    HW2 7086   6.676   5.468   5.281
 2063SOL     OW 7087   1.445   6.984   5.257
 2063SOL    HW1 7088   1.397   0.011   5.187
 2063SOL    HW2 7089   1.494   6.908   5.214
 2064SOL     OW 7090   0.637   3.566   4.096
 2064SOL    HW1 7091   0.699   3.560   4.175
 2064SOL    HW2 7092   0.585   3.651   4.102
 2065SOL     OW 7093   4.628   2.693   5.536
 2065SOL    HW1 7094   4.709   2.737   5.497
 2065SOL    HW2 7095   4.559   2.762   5.554
 2066SOL     OW 7096   5.930   3.394   5.226
 2066SOL    HW1 7097   5.904   3.470   5.285
 2066SOL    HW2 7098   6.027   3.404   5.201
 2067SOL     OW 7099   6.377   4.719   1.179
 2067SOL    HW1 7100   6.317   4.798   1.193
 2067SOL    HW2 7101   6.350   4.646   1.242
 2068SOL     OW 7102   3.615   1.082   3.739
 2068SOL    HW1 7103   3.706   1.071   3.779
 2068SOL    HW2 7104   3.617   1.158   3.673
 2069SOL     OW 7105   6.819   1.692   4.238
 2069SOL    HW1 7106   6.860   1.624   4.177
 2069SOL    HW2 7107   6.820   1.781   4.192
 2070SOL     OW 7108   1.079   3.170   1.909
 2070SOL    HW1 7109   1.035   3.246   1.863
 2070SOL    HW2 7110   1.043   3.162   2.002
 2071SOL     OW 7111   6.024   1.430   5.892
 2071SOL    HW1 7112   5.999   1.408   5.986
 2071SOL    HW2 7113   6.090   1.504   5.891
 2072SOL     OW 7114   3.902   4.782   5.241
 2072SOL    HW1 7115   3.995   4.749   5.228
 2072SOL    HW2 7116   3.847   4.711   5.285
 2073SOL     OW 7117   3.864   6.147   6.941
 2073SOL    HW1 7118   3.941   6.144   7.004
 2073SOL    HW2 7119   3.896   6.127   6.848
 2074SOL     OW 7120   2.046   3.671   5.749
 2074SOL    HW1 7121   2.081   3.710   5.664
 2074SOL    HW2 7122   1.976   3.603   5.729
 2075SOL     OW 7123   6.778   2.117   2.059
 2075SOL    HW1 7124   6.831   2.044   2.017
 2075SOL    HW2 7125   6.730   2.082   2.140
 2076SOL     OW 7126   5.495   6.937   4.944
 2076SOL    HW1 7127   5.580   6.903   4.903
 2076SOL    HW2 7128   5.473   0.000   4.906
 2077SOL     OW 7129   0.502   3.356   1.406
 2077SOL    HW1 7130   0.473   3.261   1.408
 2077SOL    HW2 7131   0.601   3.361   1.422
 2078SOL     OW 7132   2.192   4.836   5.854
 2078SOL    HW1 7133   2.227   4.779   5.779
 2078SOL    HW2 7134   2.230   4.928   5.846
 2079SOL     OW 7135   5.457   1.645   1.807
 2079SOL    HW1 7136   5.556   1.640   1.793
 2079SOL    HW2 7137   5.415   1.560   1.774
 2080SOL     OW 7138   2.829   2.189   5.240
 2080SOL    HW1 7139   2.768   2.140   5.177
 2080SOL    HW2 7140   2.924   2.175   5.211
 2081SOL     OW 7141   0.289   0.048   3.105
 2081SOL    HW1 7142   0.244   6.985   3.092
 2081SOL    HW2 7143   0.348   0.067   3.027
 2082SOL     OW 7144   0.276   5.939   2.407
 2082SOL    HW1 7145   0.237   5.973   2.321
 2082SOL    HW2 7146   0.242   5.847   2.425
 2083SOL     OW 7147   0.260   6.309   4.114
 2083SOL    HW1 7148   0.279   6.355   4.201
 2083SOL    HW2 7149   0.206   6.370   4.055
 2084SOL     OW 7150   1.216   1.496   1.920
 2084SOL    HW1 7151   1.301   1.545   1.901
 2084SOL    HW2 7152   1.142   1.537   1.867
 2085SOL     OW 7153   5.332   5.981   0.025
 2085SOL    HW1 7154   5.262   6.045   0.054
 2085SOL    HW2 7155   5.351   5.994   6.953
 2086SOL     OW 7156   4.476   0.292   0.340
 2086SOL    HW1 7157   4.427   0.213   0.303
 2086SOL    HW2 7158   4.574   0.272   0.344
 2087SOL     OW 7159   4.372   2.040   0.090
 2087SOL    HW1 7160   4.354   2.136   0.072
 2087SOL    HW2 7161   4.342   1.985   0.011
 2088SOL     OW 7162   0.160   5.420   5.477
 2088SOL    HW1 7163   0.089   5.459   5.536
 2088SOL    HW2 7164   0.158   5.464   5.388
 2089SOL     OW 7165   3.250   3.312   5.831
 2089SOL    HW1 7166   3.194   3.229   5.831
 2089SOL    HW2 7167   3.218   3.374   5.760
 2090SOL     OW 7168   4.574   3.449   5.332
 2090SOL    HW1 7169   4.615   3.521   5.276
 2090SOL    HW2 7170   4.622   3.363   5.317
 2091SOL     OW 7171   6.138   5.891   1.416
 2091SOL    HW1 7172   6.206   5.823   1.443
 2091SOL    HW2 7173   6.135   5.897   1.317
 2092SOL     OW 7174   4.906   3.548   1.487
 2092SOL    HW1 7175   4.922   3.613   1.562
 2092SOL    HW2 7176   4.851   3.593   1.416
 2093SOL     OW 7177   3.900   2.152   2.725
 2093SOL    HW1 7178   3.896   2.053   2.720
 2093SOL    HW2 7179   3.811   2.190   2.700
 2094SOL     OW 7180   5.800   3.150   0.295
 2094SOL    HW1 7181   5.864   3.222   0.269
 2094SOL    HW2 7182   5.813   3.072   0.234
 2095SOL     OW 7183   6.118   6.294   4.026
 2095SOL    HW1 7184   6.108   6.259   3.933
 2095SOL    HW2 7185   6.059   6.241   4.088
 2096SOL     OW 7186   4.489   6.744   2.000
 2096SOL    HW1 7187   4.407   6.797   1.982
 2096SOL    HW2 7188   4.518   6.697   1.917
 2097SOL     OW 7189   2.009   4.685   6.904
 2097SOL    HW1 7190   1.942   4.700   6.976
 2097SOL    HW2 7191   2.052   4.772   6.880
 2098SOL     OW 7192   3.867   6.424   2.768
 2098SOL    HW1 7193   3.901   6.392   2.679
 2098SOL    HW2 7194   3.945   6.448   2.826
 2099SOL     OW 7195   5.047   1.352   0.013
 2099SOL    HW1 7196   5.006   1.293   0.083
 2099SOL    HW2 7197   5.073   1.296   6.960
 2100SOL     OW 7198   5.591   1.097   0.224
 2100SOL    HW1 7199   5.674   1.100   0.168
 2100SOL    HW2 7200   5.575   1.187   0.265
 2101SOL     OW 7201   6.968   6.574   1.616
 2101SOL    HW1 7202   6.930   6.608   1.702
 2101SOL    HW2 7203   0.041   6.565   1.624
 2102SOL     OW 7204   4.204   3.635   1.017
 2102SOL    HW1 7205   4.191   3.621   1.115
 2102SOL    HW2 7206   4.288   3.590   0.988
 2103SOL     OW 7207   3.098   5.847   0.040
 2103SOL    HW1 7208   3.031   5.774   0.033
 2103SOL    HW2 7209   3.086   5.911   6.990
 2104SOL     OW 7210   1.004   4.688   2.957
 2104SOL    HW1 7211   1.035   4.760   3.019
 2104SOL    HW2 7212   1.063   4.608   2.966
 2105SOL     OW 7213   4.964   4.494   0.057
 2105SOL    HW1 7214   4.992   4.569   7.022
 2105SOL    HW2 7215   5.046   4.446   0.089
 2106SOL     OW 7216   5.001   3.442   2.190
 2106SOL    HW1 7217   4.913   3.424   2.232
 2106SOL    HW2 7218   5.043   3.355   2.161
 2107SOL     OW 7219   5.425   3.723   5.339
 2107SOL    HW1 7220   5.424   3.740   5.438
 2107SOL    HW2 7221   5.476   3.639   5.320
 2108SOL     OW 7222   5.823   6.781   6.158
 2108SOL    HW1 7223   5.862   6.820   6.074
 2108SOL    HW2 7224   5.817   6.682   6.149
 2109SOL     OW 7225   3.259   5.788   3.224
 2109SOL    HW1 7226   3.252   5.727   3.145
 2109SOL    HW2 7227   3.350   5.829   3.226
 2110SOL     OW 7228   3.339   0.601   6.701
 2110SOL    HW1 7229   3.341   0.677   6.635
 2110SOL    HW2 7230   3.361   0.516   6.654
 2111SOL     OW 7231   1.096   3.140   5.390
 2111SOL    HW1 7232   1.070   3.095   5.304
 2111SOL    HW2 7233   1.191   3.117   5.411
 2112SOL     OW 7234   0.022   1.584   0.604
 2112SOL    HW1 7235   0.022   1.601   0.703
 2112SOL    HW2 7236   6.991   1.654   0.559
 2113SOL     OW 7237   1.820   0.275   4.390
 2113SOL    HW1 7238   1.891   0.210   4.416
 2113SOL    HW2 7239   1.853   0.368   4.404
 2114SOL     OW 7240   1.803   2.987   6.732
 2114SOL    HW1 7241   1.878   2.979   6.797
 2114SOL    HW2 7242   1.837   3.022   6.645
 2115SOL     OW 7243   0.597   5.413   3.157
 2115SOL    HW1 7244   0.637   5.497   3.123
 2115SOL    HW2 7245   0.641   5.387   3.243
 2116SOL     OW 7246   1.173   2.187   6.899
 2116SOL    HW1 7247   1.076   2.212   6.901
 2116SOL    HW2 7248   1.210   2.195   6.992
 2117SOL     OW 7249   5.717   1.683   2.451
 2117SOL    HW1 7250   5.676   1.640   2.370
 2117SOL    HW2 7251   5.686   1.778   2.458
 2118SOL     OW 7252   6.519   3.222   2.200
 2118SOL    HW1 7253   6.525   3.314   2.239
 2118SOL    HW2 7254   6.457   3.166   2.254
 2119SOL     OW 7255   2.326   0.246   6.723
 2119SOL    HW1 7256   2.418   0.229   6.760
 2119SOL    HW2 7257   2.331   0.258   6.624
 2120SOL     OW 7258   5.797   1.741   1.179
 2120SOL    HW1 7259   5.732   1.805   1.139
 2120SOL    HW2 7260   5.851   1.698   1.107
 2121SOL     OW 7261   2.091   1.258   5.866
 2121SOL    HW1 7262   2.144   1.327   5.816
 2121SOL    HW2 7263   2.133   1.168   5.853
 2122SOL     OW 7264   6.117   0.435   5.157
 2122SOL    HW1 7265   6.188   0.456   5.224
 2122SOL    HW2 7266   6.075   0.347   5.179
 2123SOL     OW 7267   1.162   6.250   2.825
 2123SOL    HW1 7268   1.114   6.325   2.780
 2123SOL    HW2 7269   1.199   6.187   2.756
 2124SOL     OW 7270   3.313   2.902   5.689
 2124SOL    HW1 7271   3.288   2.975   5.625
 2124SOL    HW2 7272   3.233   2.873   5.739
 2125SOL     OW 7273   1.596   5.704   3.479
 2125SOL    HW1 7274   1.557   5.697   3.387
 2125SOL    HW2 7275   1.660   5.780   3.482
 2126SOL     OW 7276   3.834   3.801   6.941
 2126SOL    HW1 7277   3.749   3.788   6.991
 2126SOL    HW2 7278   3.850   3.722   6.882
 2127SOL     OW 7279   0.358   2.839   5.964
 2127SOL    HW1 7280   0.425   2.850   5.890
 2127SOL    HW2 7281   0.268   2.824   5.926
 2128SOL     OW 7282   5.258   3.530   1.729
 2128SOL    HW1 7283   5.330   3.599   1.733
 2128SOL    HW2 7284   5.270   3.474   1.647
 2129SOL     OW 7285   5.264   4.400   3.701
 2129SOL    HW1 7286   5.270   4.338   3.622
 2129SOL    HW2 7287   5.291   4.492   3.673
 2130SOL     OW 7288   1.699   1.179   2.316
 2130SOL    HW1 7289   1.757   1.235   2.374
 2130SOL    HW2 7290   1.605   1.183   2.349
 2131SOL     OW 7291   5.530   1.773   5.911
 2131SOL    HW1 7292   5.509   1.798   6.006
 2131SOL    HW2 7293   5.534   1.856   5.855
 2132SOL     OW 7294   2.621   1.881   6.902
 2132SOL    HW1 7295   2.537   1.896   6.954
 2132SOL    HW2 7296   2.667   1.799   6.938
 2133SOL     OW 7297   2.366   1.547   1.792
 2133SOL    HW1 7298   2.458   1.586   1.784
 2133SOL    HW2 7299   2.320   1.588   1.871
 2134SOL     OW 7300   0.776   6.178   4.692
 2134SOL    HW1 7301   0.861   6.125   4.687
 2134SOL    HW2 7302   0.762   6.227   4.607
 2135SOL     OW 7303   0.635   1.075   3.225
 2135SOL    HW1 7304   0.571   1.102   3.297
 2135SOL    HW2 7305   0.728   1.075   3.261
 2136SOL     OW 7306   0.812   3.415   4.636
 2136SOL    HW1 7307   0.738   3.481   4.647
 2136SOL    HW2 7308   0.891   3.444   4.690
 2137SOL     OW 7309   1.164   6.931   5.453
 2137SOL    HW1 7310   1.209   6.849   5.489
 2137SOL    HW2 7311   1.070   6.934   5.486
 2138SOL     OW 7312   6.797   2.847   0.548
 2138SOL    HW1 7313   6.773   2.769   0.606
 2138SOL    HW2 7314   6.871   2.819   0.485
 2139SOL     OW 7315   3.482   0.681   4.535
 2139SOL    HW1 7316   3.387   0.707   4.519
 2139SOL    HW2 7317   3.495   0.662   4.633
 2140SOL     OW 7318   2.458   6.269   3.709
 2140SOL    HW1 7319   2.489   6.363   3.697
 2140SOL    HW2 7320   2.502   6.230   3.789
 2141SOL     OW 7321   5.914   2.669   0.942
 2141SOL    HW1 7322   5.889   2.765   0.934
 2141SOL    HW2 7323   5.833   2.612   0.929
 2142SOL     OW 7324   1.949   1.790   3.603
 2142SOL    HW1 7325   1.969   1.720   3.672
 2142SOL    HW2 7326   1.924   1.875   3.648
 2143SOL     OW 7327   3.404   0.085   1.608
 2143SOL    HW1 7328   3.413   0.166   1.666
 2143SOL    HW2 7329   3.308   0.065   1.593
 2144SOL     OW 7330   1.078   0.903   3.439
 2144SOL    HW1 7331   1.106   0.989   3.481
 2144SOL    HW2 7332   1.143   0.878   3.367
 2145SOL     OW 7333   3.549   5.525   3.758
 2145SOL    HW1 7334   3.494   5.486   3.684
 2145SOL    HW2 7335   3.514   5.492   3.846
 2146SOL     OW 7336   3.147   2.846   1.823
 2146SOL    HW1 7337   3.237   2.851   1.866
 2146SOL    HW2 7338   3.137   2.758   1.776
 2147SOL     OW 7339   0.490   1.724   6.193
 2147SOL    HW1 7340   0.458   1.644   6.143
 2147SOL    HW2 7341   0.562   1.696   6.257
 2148SOL     OW 7342   4.912   3.741   3.709
 2148SOL    HW1 7343   4.897   3.643   3.723
 2148SOL    HW2 7344   5.000   3.767   3.748
 2149SOL     OW 7345   3.785   1.102   1.988
 2149SOL    HW1 7346   3.701   1.097   1.933
 2149SOL    HW2 7347   3.863   1.117   1.927
 2150SOL     OW 7348   3.437   2.023   3.437
 2150SOL    HW1 7349   3.339   2.039   3.451
 2150SOL    HW2 7350   3.464   1.938   3.484
 2151SOL     OW 7351   3.882   2.486   5.579
 2151SOL    HW1 7352   3.808   2.517   5.639
 2151SOL    HW2 7353   3.882   2.540   5.495
 2152SOL     OW 7354   6.238   6.696   2.134
 2152SOL    HW1 7355   6.279   6.609   2.164
 2152SOL    HW2 7356   6.301   6.771   2.153
 2153SOL     OW 7357   4.492   1.789   3.726
 2153SOL    HW1 7358   4.439   1.793   3.641
 2153SOL    HW2 7359   4.574   1.734   3.711
 2154SOL     OW 7360   2.832   5.825   4.373
 2154SOL    HW1 7361   2.901   5.758   4.400
 2154SOL    HW2 7362   2.811   5.885   4.450
 2155SOL     OW 7363   1.470   4.210   0.342
 2155SOL    HW1 7364   1.398   4.252   0.397
 2155SOL    HW2 7365   1.497   4.123   0.384
 2156SOL     OW 7366   1.529   0.442   2.508
 2156SOL    HW1 7367   1.530   0.477   2.414
 2156SOL    HW2 7368   1.461   0.493   2.561
 2157SOL     OW 7369   6.959   1.211   5.051
 2157SOL    HW1 7370   0.007   1.178   5.109
 2157SOL    HW2 7371   6.950   1.310   5.061
 2158SOL     OW 7372   3.981   0.124   1.196
 2158SOL    HW1 7373   3.918   0.183   1.247
 2158SOL    HW2 7374   4.029   0.179   1.127
 2159SOL     OW 7375   1.458   6.851   4.761
 2159SOL    HW1 7376   1.549   6.884   4.786
 2159SOL    HW2 7377   1.410   6.924   4.711
 2160SOL     OW 7378   3.112   4.354   1.076
 2160SOL    HW1 7379   3.192   4.338   1.018
 2160SOL    HW2 7380   3.053   4.273   1.072
 2161SOL     OW 7381   4.912   3.466   3.761
 2161SOL    HW1 7382   4.869   3.392   3.813
 2161SOL    HW2 7383   4.896   3.452   3.663
 2162SOL     OW 7384   1.898   0.717   6.767
 2162SOL    HW1 7385   1.913   0.707   6.669
 2162SOL    HW2 7386   1.843   0.640   6.801
 2163SOL     OW 7387   1.730   0.714   0.349
 2163SOL    HW1 7388   1.660   0.653   0.386
 2163SOL    HW2 7389   1.774   0.671   0.271
 2164SOL     OW 7390   2.156   0.632   6.570
 2164SOL    HW1 7391   2.203   0.584   6.496
 2164SOL    HW2 7392   2.060   0.643   6.547
 2165SOL     OW 7393   1.434   0.208   2.567
 2165SOL    HW1 7394   1.447   0.205   2.666
 2165SOL    HW2 7395   1.462   0.298   2.533
 2166SOL     OW 7396   1.446   2.419   5.115
 2166SOL    HW1 7397   1.389   2.442   5.194
 2166SOL    HW2 7398   1.478   2.325   5.123
 2167SOL     OW 7399   3.507   0.646   2.117
 2167SOL    HW1 7400   3.579   0.611   2.176
 2167SOL    HW2 7401   3.533   0.736   2.082
 2168SOL     OW 7402   5.814   3.563   4.480
 2168SOL    HW1 7403   5.752   3.485   4.494
 2168SOL    HW2 7404   5.885   3.562   4.550
 2169SOL     OW 7405   5.033   2.579   6.211
 2169SOL    HW1 7406   5.001   2.492   6.249
 2169SOL    HW2 7407   4.956   2.642   6.202
 2170SOL     OW 7408   4.784   4.948   4.954
 2170SOL    HW1 7409   4.690   4.914   4.951
 2170SOL    HW2 7410   4.846   4.872   4.972
 2171SOL     OW 7411   6.728   3.469   0.314
 2171SOL    HW1 7412   6.798   3.523   0.267
 2171SOL    HW2 7413   6.717   3.381   0.268
 2172SOL     OW 7414   3.317   1.091   0.910
 2172SOL    HW1 7415   3.372   1.169   0.941
 2172SOL    HW2 7416   3.253   1.122   0.840
 2173SOL     OW 7417   4.779   1.388   5.366
 2173SOL    HW1 7418   4.769   1.336   5.281
 2173SOL    HW2 7419   4.829   1.334   5.433
 2174SOL     OW 7420   6.637   4.874   4.850
 2174SOL    HW1 7421   6.683   4.791   4.819
 2174SOL    HW2 7422   6.589   4.916   4.773
 2175SOL     OW 7423   2.776   0.206   3.930
 2175SOL    HW1 7424   2.764   0.255   4.016
 2175SOL    HW2 7425   2.736   0.259   3.855
 2176SOL     OW 7426   2.152   2.524   3.261
 2176SOL    HW1 7427   2.143   2.523   3.161
 2176SOL    HW2 7428   2.229   2.467   3.288
 2177SOL     OW 7429   0.450   2.046   0.698
 2177SOL    HW1 7430   0.492   2.087   0.617
 2177SOL    HW2 7431   0.355   2.022   0.677
 2178SOL     OW 7432   0.848   4.362   0.344
 2178SOL    HW1 7433   0.834   4.264   0.331
 2178SOL    HW2 7434   0.839   4.385   0.441
 2179SOL     OW 7435   1.580   5.124   4.505
 2179SOL    HW1 7436   1.655   5.108   4.441
 2179SOL    HW2 7437   1.573   5.222   4.524
 2180SOL     OW 7438   3.120   4.080   2.339
 2180SOL    HW1 7439   3.207   4.097   2.384
 2180SOL    HW2 7440   3.084   4.166   2.302
 2181SOL     OW 7441   5.327   5.922   5.611
 2181SOL    HW1 7442   5.331   5.991   5.683
 2181SOL    HW2 7443   5.283   5.840   5.647
 2182SOL     OW 7444   6.876   3.332   6.107
 2182SOL    HW1 7445   6.941   3.381   6.166
 2182SOL    HW2 7446   6.846   3.392   6.033
 2183SOL     OW 7447   3.151   2.765   0.576
 2183SOL    HW1 7448   3.240   2.766   0.530
 2183SOL    HW2 7449   3.159   2.812   0.664
 2184SOL     OW 7450   3.792   2.214   6.252
 2184SOL    HW1 7451   3.777   2.251   6.161
 2184SOL    HW2 7452   3.704   2.202   6.298
 2185SOL     OW 7453   1.807   0.547   1.103
 2185SOL    HW1 7454   1.857   0.633   1.117
 2185SOL    HW2 7455   1.751   0.553   1.021
 2186SOL     OW 7456   0.151   5.614   2.904
 2186SOL    HW1 7457   0.181   5.595   2.998
 2186SOL    HW2 7458   0.188   5.545   2.842
 2187SOL     OW 7459   6.315   1.615   0.519
 2187SOL    HW1 7460   6.388   1.549   0.536
 2187SOL    HW2 7461   6.227   1.567   0.517
 2188SOL     OW 7462   5.385   6.807   3.700
 2188SOL    HW1 7463   5.445   6.759   3.764
 2188SOL    HW2 7464   5.379   6.903   3.724
 2189SOL     OW 7465   2.223   6.913   5.800
 2189SOL    HW1 7466   2.279   6.994   5.818
 2189SOL    HW2 7467   2.145   6.912   5.863
 2190SOL     OW 7468   5.968   2.219   1.679
 2190SOL    HW1 7469   6.052   2.165   1.684
 2190SOL    HW2 7470   5.974   2.297   1.741
 2191SOL     OW 7471   3.346   2.994   6.551
 2191SOL    HW1 7472   3.433   3.015   6.595
 2191SOL    HW2 7473   3.285   3.073   6.557
 2192SOL     OW 7474   4.412   5.664   5.060
 2192SOL    HW1 7475   4.450   5.656   5.152
 2192SOL    HW2 7476   4.475   5.715   5.002
 2193SOL     OW 7477   0.825   5.187   5.506
 2193SOL    HW1 7478   0.829   5.180   5.407
 2193SOL    HW2 7479   0.774   5.270   5.531
 2194SOL     OW 7480   2.520   6.276   0.990
 2194SOL    HW1 7481   2.535   6.374   0.984
 2194SOL    HW2 7482   2.483   6.253   1.080
 2195SOL     OW 7483   1.402   5.465   2.927
 2195SOL    HW1 7484   1.340   5.441   2.852
 2195SOL    HW2 7485   1.357   5.446   3.015
 2196SOL     OW 7486   3.396   1.797   6.007
 2196SOL    HW1 7487   3.439   1.879   6.044
 2196SOL    HW2 7488   3.380   1.808   5.909
 2197SOL     OW 7489   4.748   4.934   1.595
 2197SOL    HW1 7490   4.805   4.856   1.620
 2197SOL    HW2 7491   4.686   4.908   1.521
 2198SOL     OW 7492   6.529   4.196   0.298
 2198SOL    HW1 7493   6.472   4.244   0.231
 2198SOL    HW2 7494   6.623   4.230   0.293
 2199SOL     OW 7495   4.436   6.987   1.401
 2199SOL    HW1 7496   4.521   0.014   1.393
 2199SOL    HW2 7497   4.375   0.006   1.465
 2200SOL     OW 7498   3.862   1.021   4.325
 2200SOL    HW1 7499   3.813   0.938   4.353
 2200SOL    HW2 7500   3.890   1.011   4.229
 2201SOL     OW 7501   5.886   3.453   2.131
 2201SOL    HW1 7502   5.897   3.361   2.169
 2201SOL    HW2 7503   5.952   3.466   2.057
 2202SOL     OW 7504   4.414   5.823   3.563
 2202SOL    HW1 7505   4.378   5.744   3.514
 2202SOL    HW2 7506   4.514   5.825   3.554
 2203SOL     OW 7507   3.704   2.045   3.323
 2203SOL    HW1 7508   3.619   2.063   3.374
 2203SOL    HW2 7509   3.710   1.948   3.301
 2204SOL     OW 7510   3.270   2.203   0.390
 2204SOL    HW1 7511   3.297   2.282   0.444
 2204SOL    HW2 7512   3.347   2.139   0.384
 2205SOL     OW 7513   3.094   6.975   0.627
 2205SOL    HW1 7514   3.168   7.000   0.565
 2205SOL    HW2 7515   3.124   6.902   0.688
 2206SOL     OW 7516   2.835   2.985   0.028
 2206SOL    HW1 7517   2.854   2.965   0.124
 2206SOL    HW2 7518   2.791   2.906   7.011
 2207SOL     OW 7519   1.217   4.481   6.407
 2207SOL    HW1 7520   1.251   4.458   6.498
 2207SOL    HW2 7521   1.123   4.514   6.414
 2208SOL     OW 7522   0.559   3.619   1.725
 2208SOL    HW1 7523   0.600   3.704   1.691
 2208SOL    HW2 7524   0.464   3.636   1.751
 2209SOL     OW 7525   0.823   5.557   6.158
 2209SOL    HW1 7526   0.729   5.549   6.192
 2209SOL    HW2 7527   0.885   5.507   6.218
 2210SOL     OW 7528   1.131   5.960   4.096
 2210SOL    HW1 7529   1.056   5.916   4.145
 2210SOL    HW2 7530   1.107   6.055   4.076
 2211SOL     OW 7531   5.904   1.222   5.651
 2211SOL    HW1 7532   5.841   1.204   5.575
 2211SOL    HW2 7533   5.971   1.291   5.623
 2212SOL     OW 7534   1.610   0.489   6.425
 2212SOL    HW1 7535   1.551   0.462   6.348
 2212SOL    HW2 7536   1.554   0.530   6.497
 2213SOL     OW 7537   3.882   2.113   3.526
 2213SOL    HW1 7538   3.822   2.107   3.446
 2213SOL    HW2 7539   3.977   2.122   3.495
 2214SOL     OW 7540   5.320   0.178   4.570
 2214SOL    HW1 7541   5.415   0.202   4.552
 2214SOL    HW2 7542   5.273   0.161   4.483
 2215SOL     OW 7543   6.761   2.455   5.100
 2215SOL    HW1 7544   6.822   2.408   5.036
 2215SOL    HW2 7545   6.706   2.522   5.051
 2216SOL     OW 7546   1.386   6.557   0.918
 2216SOL    HW1 7547   1.407   6.487   0.987
 2216SOL    HW2 7548   1.394   6.647   0.960
 2217SOL     OW 7549   4.151   0.092   1.430
 2217SOL    HW1 7550   4.093   0.108   1.350
 2217SOL    HW2 7551   4.148   7.021   1.454
 2218SOL     OW 7552   0.564   5.675   0.013
 2218SOL    HW1 7553   0.491   5.715   6.984
 2218SOL    HW2 7554   0.638   5.644   6.980
 2219SOL     OW 7555   2.102   3.793   3.037
 2219SOL    HW1 7556   2.116   3.694   3.041
 2219SOL    HW2 7557   2.017   3.813   2.990
 2220SOL     OW 7558   0.437   1.448   6.096
 2220SOL    HW1 7559   0.340   1.469   6.100
 2220SOL    HW2 7560   0.455   1.388   6.018
 2221SOL     OW 7561   6.393   2.231   1.482
 2221SOL    HW1 7562   6.320   2.224   1.414
 2221SOL    HW2 7563   6.404   2.327   1.509
 2222SOL     OW 7564   4.658   6.780   2.268
 2222SOL    HW1 7565   4.572   6.729   2.256
 2222SOL    HW2 7566   4.735   6.723   2.240
 2223SOL     OW 7567   5.786   5.362   3.584
 2223SOL    HW1 7568   5.700   5.313   3.600
 2223SOL    HW2 7569   5.862   5.298   3.593
 2224SOL     OW 7570   1.928   4.789   1.609
 2224SOL    HW1 7571   1.969   4.807   1.698
 2224SOL    HW2 7572   1.873   4.705   1.613
 2225SOL     OW 7573   6.153   5.026   2.138
 2225SOL    HW1 7574   6.101   4.941   2.128
 2225SOL    HW2 7575   6.135   5.065   2.229
 2226SOL     OW 7576   3.649   3.875   0.695
 2226SOL    HW1 7577   3.696   3.962   0.709
 2226SOL    HW2 7578   3.685   3.807   0.759
 2227SOL     OW 7579   6.691   4.008   5.299
 2227SOL    HW1 7580   6.682   3.931   5.362
 2227SOL    HW2 7581   6.786   4.039   5.298
 2228SOL     OW 7582   2.978   4.519   6.100
 2228SOL    HW1 7583   2.991   4.590   6.169
 2228SOL    HW2 7584   2.914   4.551   6.031
 2229SOL     OW 7585   4.190   0.738   3.494
 2229SOL    HW1 7586   4.269   0.775   3.446
 2229SOL    HW2 7587   4.150   0.809   3.552
 2230SOL     OW 7588   1.207   6.445   6.116
 2230SOL    HW1 7589   1.269   6.426   6.191
 2230SOL    HW2 7590   1.134   6.377   6.115
 2231SOL     OW 7591   2.122   0.084   2.020
 2231SOL    HW1 7592   2.097   0.170   2.065
 2231SOL    HW2 7593   2.112   0.009   2.084
 2232SOL     OW 7594   6.467   2.625   2.161
 2232SOL    HW1 7595   6.372   2.638   2.189
 2232SOL    HW2 7596   6.521   2.593   2.238
 2233SOL     OW 7597   3.693   0.148   0.217
 2233SOL    HW1 7598   3.649   0.090   0.286
 2233SOL    HW2 7599   3.792   0.136   0.221
 2234SOL     OW 7600   3.828   1.428   0.651
 2234SOL    HW1 7601   3.783   1.355   0.702
 2234SOL    HW2 7602   3.771   1.510   0.651
 2235SOL     OW 7603   1.183   6.826   0.588
 2235SOL    HW1 7604   1.178   6.754   0.657
 2235SOL    HW2 7605   1.121   6.901   0.614
 2236SOL     OW 7606   0.531   4.068   1.256
 2236SOL    HW1 7607   0.459   4.136   1.271
 2236SOL    HW2 7608   0.520   4.027   1.166
 2237SOL     OW 7609   5.802   2.766   4.595
 2237SOL    HW1 7610   5.755   2.717   4.669
 2237SOL    HW2 7611   5.772   2.730   4.507
 2238SOL     OW 7612   0.578   5.816   2.025
 2238SOL    HW1 7613   0.622   5.746   1.969
 2238SOL    HW2 7614   0.529   5.772   2.100
 2239SOL     OW 7615   4.360   5.154   3.075
 2239SOL    HW1 7616   4.388   5.215   3.002
 2239SOL    HW2 7617   4.260   5.156   3.084
 2240SOL     OW 7618   5.617   5.048   2.550
 2240SOL    HW1 7619   5.649   5.080   2.639
 2240SOL    HW2 7620   5.520   5.067   2.540
 2241SOL     OW 7621   0.272   6.798   2.105
 2241SOL    HW1 7622   0.271   6.872   2.038
 2241SOL    HW2 7623   0.181   6.757   2.112
 2242SOL     OW 7624   4.922   1.934   3.072
 2242SOL    HW1 7625   4.825   1.946   3.089
 2242SOL    HW2 7626   4.947   1.980   2.986
 2243SOL     OW 7627   2.559   5.843   4.850
 2243SOL    HW1 7628   2.612   5.913   4.898
 2243SOL    HW2 7629   2.476   5.885   4.811
 2244SOL     OW 7630   2.833   0.737   4.588
 2244SOL    HW1 7631   2.766   0.662   4.594
 2244SOL    HW2 7632   2.881   0.730   4.501
 2245SOL     OW 7633   1.083   1.026   2.273
 2245SOL    HW1 7634   1.128   0.946   2.235
 2245SOL    HW2 7635   1.073   1.096   2.201
 2246SOL     OW 7636   0.863   4.288   6.091
 2246SOL    HW1 7637   0.806   4.369   6.108
 2246SOL    HW2 7638   0.916   4.268   6.173
 2247SOL     OW 7639   2.475   2.551   6.298
 2247SOL    HW1 7640   2.400   2.586   6.243
 2247SOL    HW2 7641   2.536   2.626   6.323
 2248SOL     OW 7642   4.723   3.662   5.862
 2248SOL    HW1 7643   4.672   3.590   5.814
 2248SOL    HW2 7644   4.719   3.746   5.808
 2249SOL     OW 7645   5.207   5.914   3.442
 2249SOL    HW1 7646   5.155   5.837   3.479
 2249SOL    HW2 7647   5.215   5.904   3.343
 2250SOL     OW 7648   0.158   4.264   0.742
 2250SOL    HW1 7649   0.187   4.359   0.733
 2250SOL    HW2 7650   0.062   4.255   0.714
 2251SOL     OW 7651   5.425   0.860   0.104
 2251SOL    HW1 7652   5.339   0.834   0.147
 2251SOL    HW2 7653   5.460   0.943   0.147
 2252SOL     OW 7654   4.648   2.418   5.593
 2252SOL    HW1 7655   4.742   2.392   5.617
 2252SOL    HW2 7656   4.647   2.515   5.567
 2253SOL     OW 7657   2.593   3.071   0.294
 2253SOL    HW1 7658   2.580   3.098   0.390
 2253SOL    HW2 7659   2.505   3.075   0.246
 2254SOL     OW 7660   2.889   4.007   6.376
 2254SOL    HW1 7661   2.922   4.100   6.392
 2254SOL    HW2 7662   2.855   3.969   6.462
 2255SOL     OW 7663   6.046   2.864   1.526
 2255SOL    HW1 7664   6.064   2.932   1.596
 2255SOL    HW2 7665   6.133   2.834   1.486
 2256SOL     OW 7666   4.343   4.815   1.815
 2256SOL    HW1 7667   4.430   4.780   1.849
 2256SOL    HW2 7668   4.360   4.892   1.754
 2257SOL     OW 7669   1.792   4.239   3.870
 2257SOL    HW1 7670   1.817   4.330   3.838
 2257SOL    HW2 7671   1.759   4.244   3.964
 2258SOL     OW 7672   1.829   5.527   4.429
 2258SOL    HW1 7673   1.740   5.496   4.396
 2258SOL    HW2 7674   1.834   5.517   4.528
 2259SOL     OW 7675   4.892   3.894   6.728
 2259SOL    HW1 7676   4.946   3.867   6.808
 2259SOL    HW2 7677   4.932   3.853   6.646
 2260SOL     OW 7678   5.447   5.036   1.390
 2260SOL    HW1 7679   5.524   5.003   1.444
 2260SOL    HW2 7680   5.474   5.048   1.295
 2261SOL     OW 7681   5.546   6.870   0.199
 2261SOL    HW1 7682   5.606   6.931   0.251
 2261SOL    HW2 7683   5.532   6.785   0.251
 2262SOL     OW 7684   4.690   2.153   3.761
 2262SOL    HW1 7685   4.697   2.243   3.718
 2262SOL    HW2 7686   4.781   2.117   3.779
 2263SOL     OW 7687   1.076   5.304   5.560
 2263SOL    HW1 7688   0.992   5.250   5.561
 2263SOL    HW2 7689   1.148   5.252   5.515
 2264SOL     OW 7690   3.340   3.434   4.434
 2264SOL    HW1 7691   3.429   3.475   4.458
 2264SOL    HW2 7692   3.328   3.439   4.335
 2265SOL     OW 7693   6.924   0.115   1.805
 2265SOL    HW1 7694   6.845   0.055   1.820
 2265SOL    HW2 7695   6.954   0.108   1.710
 2266SOL     OW 7696   6.097   0.518   0.575
 2266SOL    HW1 7697   6.051   0.526   0.664
 2266SOL    HW2 7698   6.157   0.438   0.575
 2267SOL     OW 7699   6.571   2.772   5.729
 2267SOL    HW1 7700   6.613   2.683   5.710
 2267SOL    HW2 7701   6.570   2.788   5.827
 2268SOL     OW 7702   6.992   6.067   6.685
 2268SOL    HW1 7703   6.955   6.006   6.616
 2268SOL    HW2 7704   6.982   6.025   6.776
 2269SOL     OW 7705   6.377   5.167   5.978
 2269SOL    HW1 7706   6.331   5.114   5.907
 2269SOL    HW2 7707   6.462   5.204   5.943
 2270SOL     OW 7708   4.165   3.265   2.250
 2270SOL    HW1 7709   4.243   3.297   2.197
 2270SOL    HW2 7710   4.084   3.260   2.191
 2271SOL     OW 7711   6.450   4.734   2.443
 2271SOL    HW1 7712   6.436   4.823   2.400
 2271SOL    HW2 7713   6.367   4.679   2.433
 2272SOL     OW 7714   5.724   2.219   5.699
 2272SOL    HW1 7715   5.669   2.136   5.713
 2272SOL    HW2 7716   5.700   2.260   5.611
 2273SOL     OW 7717   0.570   1.537   3.092
 2273SOL    HW1 7718   0.595   1.619   3.042
 2273SOL    HW2 7719   0.541   1.562   3.185
 2274SOL     OW 7720   0.796   3.180   3.955
 2274SOL    HW1 7721   0.862   3.105   3.962
 2274SOL    HW2 7722   0.735   3.177   4.034
 2275SOL     OW 7723   5.199   6.694   3.940
 2275SOL    HW1 7724   5.124   6.724   3.999
 2275SOL    HW2 7725   5.209   6.756   3.863
 2276SOL     OW 7726   3.947   4.546   1.525
 2276SOL    HW1 7727   3.912   4.453   1.539
 2276SOL    HW2 7728   3.990   4.552   1.435
 2277SOL     OW 7729   3.598   3.213   0.174
 2277SOL    HW1 7730   3.543   3.290   0.207
 2277SOL    HW2 7731   3.687   3.246   0.144
 2278SOL     OW 7732   5.115   5.860   1.442
 2278SOL    HW1 7733   5.147   5.768   1.467
 2278SOL    HW2 7734   5.135   5.877   1.345
 2279SOL     OW 7735   5.627   3.331   4.780
 2279SOL    HW1 7736   5.633   3.265   4.705
 2279SOL    HW2 7737   5.720   3.355   4.810
 2280SOL     OW 7738   6.003   6.361   6.267
 2280SOL    HW1 7739   6.056   6.400   6.342
 2280SOL    HW2 7740   6.012   6.421   6.187
 2281SOL     OW 7741   3.984   2.297   1.113
 2281SOL    HW1 7742   4.002   2.238   1.035
 2281SOL    HW2 7743   4.014   2.251   1.197
 2282SOL     OW 7744   4.672   5.772   3.016
 2282SOL    HW1 7745   4.753   5.713   3.004
 2282SOL    HW2 7746   4.612   5.731   3.085
 2283SOL     OW 7747   7.002   2.995   3.397
 2283SOL    HW1 7748   0.051   2.959   3.341
 2283SOL    HW2 7749   6.984   2.932   3.473
 2284SOL     OW 7750   2.076   2.556   1.627
 2284SOL    HW1 7751   2.057   2.459   1.614
 2284SOL    HW2 7752   2.152   2.584   1.567
 2285SOL     OW 7753   1.946   4.002   0.961
 2285SOL    HW1 7754   1.981   3.933   0.898
 2285SOL    HW2 7755   1.889   3.958   1.030
 2286SOL     OW 7756   6.449   6.445   5.005
 2286SOL    HW1 7757   6.444   6.493   4.918
 2286SOL    HW2 7758   6.377   6.480   5.066
 2287SOL     OW 7759   2.102   2.493   1.898
 2287SOL    HW1 7760   2.093   2.539   1.986
 2287SOL    HW2 7761   2.104   2.561   1.825
 2288SOL     OW 7762   0.233   6.321   3.436
 2288SOL    HW1 7763   0.242   6.240   3.495
 2288SOL    HW2 7764   0.202   6.292   3.345
 2289SOL     OW 7765   5.612   1.955   2.483
 2289SOL    HW1 7766   5.531   1.942   2.426
 2289SOL    HW2 7767   5.594   1.921   2.575
 2290SOL     OW 7768   2.963   3.167   2.617
 2290SOL    HW1 7769   2.877   3.188   2.663
 2290SOL    HW2 7770   2.963   3.209   2.526
 2291SOL     OW 7771   1.675   2.827   0.641
 2291SOL    HW1 7772   1.707   2.762   0.710
 2291SOL    HW2 7773   1.680   2.785   0.550
 2292SOL     OW 7774   4.472   2.104   3.573
 2292SOL    HW1 7775   4.389   2.085   3.627
 2292SOL    HW2 7776   4.551   2.107   3.634
 2293SOL     OW 7777   6.131   1.531   6.955
 2293SOL    HW1 7778   6.167   1.560   0.017
 2293SOL    HW2 7779   6.031   1.534   6.956
 2294SOL     OW 7780   1.243   2.199   5.986
 2294SOL    HW1 7781   1.300   2.220   5.907
 2294SOL    HW2 7782   1.230   2.281   6.041
 2295SOL     OW 7783   6.058   6.751   1.894
 2295SOL    HW1 7784   6.118   6.745   1.814
 2295SOL    HW2 7785   6.091   6.688   1.965
 2296SOL     OW 7786   2.527   5.623   3.799
 2296SOL    HW1 7787   2.551   5.543   3.744
 2296SOL    HW2 7788   2.577   5.620   3.886
 2297SOL     OW 7789   4.156   4.694   5.255
 2297SOL    HW1 7790   4.190   4.599   5.251
 2297SOL    HW2 7791   4.153   4.723   5.351
 2298SOL     OW 7792   3.794   3.367   4.976
 2298SOL    HW1 7793   3.704   3.409   4.964
 2298SOL    HW2 7794   3.789   3.296   5.046
 2299SOL     OW 7795   5.415   2.841   4.895
 2299SOL    HW1 7796   5.505   2.879   4.874
 2299SOL    HW2 7797   5.359   2.839   4.812
 2300SOL     OW 7798   3.745   6.402   2.367
 2300SOL    HW1 7799   3.780   6.421   2.276
 2300SOL    HW2 7800   3.688   6.478   2.398
 2301SOL     OW 7801   3.567   3.505   5.030
 2301SOL    HW1 7802   3.536   3.597   5.054
 2301SOL    HW2 7803   3.494   3.440   5.050
 2302SOL     OW 7804   4.862   2.422   0.560
 2302SOL    HW1 7805   4.781   2.478   0.543
 2302SOL    HW2 7806   4.848   2.331   0.521
 2303SOL     OW 7807   3.185   2.265   0.942
 2303SOL    HW1 7808   3.125   2.241   1.018
 2303SOL    HW2 7809   3.258   2.197   0.934
 2304SOL     OW 7810   5.948   5.934   2.054
 2304SOL    HW1 7811   5.863   5.986   2.050
 2304SOL    HW2 7812   5.977   5.910   1.961
 2305SOL     OW 7813   1.660   1.107   5.360
 2305SOL    HW1 7814   1.681   1.199   5.326
 2305SOL    HW2 7815   1.691   1.039   5.294
 2306SOL     OW 7816   2.056   5.216   3.656
 2306SOL    HW1 7817   2.109   5.267   3.723
 2306SOL    HW2 7818   2.076   5.251   3.564
 2307SOL     OW 7819   0.754   2.233   5.425
 2307SOL    HW1 7820   0.745   2.329   5.400
 2307SOL    HW2 7821   0.805   2.226   5.511
 2308SOL     OW 7822   2.553   4.499   1.490
 2308SOL    HW1 7823   2.606   4.450   1.558
 2308SOL    HW2 7824   2.457   4.471   1.496
 2309SOL     OW 7825   1.777   6.429   4.722
 2309SOL    HW1 7826   1.767   6.406   4.625
 2309SOL    HW2 7827   1.687   6.440   4.763
 2310SOL     OW 7828   4.827   6.538   1.533
 2310SOL    HW1 7829   4.927   6.533   1.539
 2310SOL    HW2 7830   4.801   6.621   1.483
 2311SOL     OW 7831   2.488   6.160   1.252
 2311SOL    HW1 7832   2.501   6.064   1.228
 2311SOL    HW2 7833   2.413   6.169   1.318
 2312SOL     OW 7834   3.458   4.951   2.590
 2312SOL    HW1 7835   3.399   4.907   2.658
 2312SOL    HW2 7836   3.403   5.010   2.531
 2313SOL     OW 7837   5.040   5.077   2.362
 2313SOL    HW1 7838   5.066   5.150   2.425
 2313SOL    HW2 7839   5.046   4.989   2.409
 2314SOL     OW 7840   2.899   5.900   3.990
 2314SOL    HW1 7841   2.966   5.826   4.001
 2314SOL    HW2 7842   2.897   5.929   3.895
 2315SOL     OW 7843   3.933   3.479   7.016
 2315SOL    HW1 7844   4.023   3.507   6.982
 2315SOL    HW2 7845   3.874   3.455   6.939
 2316SOL     OW 7846   5.572   2.951   3.028
 2316SOL    HW1 7847   5.605   3.003   3.107
 2316SOL    HW2 7848   5.623   2.979   2.946
 2317SOL     OW 7849   1.603   4.641   3.240
 2317SOL    HW1 7850   1.601   4.625   3.141
 2317SOL    HW2 7851   1.652   4.566   3.284
 2318SOL     OW 7852   0.267   0.864   3.534
 2318SOL    HW1 7853   0.365   0.883   3.537
 2318SOL    HW2 7854   0.252   0.769   3.506
 2319SOL     OW 7855   1.487   3.907   3.988
 2319SOL    HW1 7856   1.406   3.951   4.026
 2319SOL    HW2 7857   1.567   3.930   4.043
 2320SOL     OW 7858   6.938   2.804   4.447
 2320SOL    HW1 7859   6.881   2.728   4.416
 2320SOL    HW2 7860   6.879   2.876   4.485
 2321SOL     OW 7861   2.885   6.709   5.080
 2321SOL    HW1 7862   2.809   6.683   5.140
 2321SOL    HW2 7863   2.921   6.798   5.108
 2322SOL     OW 7864   1.909   0.301   4.888
 2322SOL    HW1 7865   1.836   0.272   4.950
 2322SOL    HW2 7866   1.926   0.398   4.900
 2323SOL     OW 7867   4.351   5.833   1.846
 2323SOL    HW1 7868   4.397   5.780   1.916
 2323SOL    HW2 7869   4.404   5.916   1.827
 2324SOL     OW 7870   0.141   5.378   3.331
 2324SOL    HW1 7871   0.186   5.323   3.401
 2324SOL    HW2 7872   0.209   5.434   3.283
 2325SOL     OW 7873   0.217   3.467   1.042
 2325SOL    HW1 7874   0.314   3.470   1.064
 2325SOL    HW2 7875   0.198   3.389   0.983
 2326SOL     OW 7876   1.076   5.345   6.758
 2326SOL    HW1 7877   1.001   5.410   6.760
 2326SOL    HW2 7878   1.161   5.391   6.731
 2327SOL     OW 7879   4.748   2.776   4.378
 2327SOL    HW1 7880   4.787   2.867   4.363
 2327SOL    HW2 7881   4.713   2.770   4.471
 2328SOL     OW 7882   4.412   0.349   3.447
 2328SOL    HW1 7883   4.386   0.329   3.541
 2328SOL    HW2 7884   4.496   0.404   3.446
 2329SOL     OW 7885   1.184   6.224   3.735
 2329SOL    HW1 7886   1.096   6.176   3.737
 2329SOL    HW2 7887   1.173   6.315   3.774
 2330SOL     OW 7888   0.289   4.169   2.840
 2330SOL    HW1 7889   0.218   4.132   2.779
 2330SOL    HW2 7890   0.270   4.265   2.858
 2331SOL     OW 7891   0.900   4.791   5.148
 2331SOL    HW1 7892   0.955   4.746   5.077
 2331SOL    HW2 7893   0.805   4.795   5.119
 2332SOL     OW 7894   5.928   2.451   6.155
 2332SOL    HW1 7895   5.959   2.392   6.080
 2332SOL    HW2 7896   5.900   2.540   6.118
 2333SOL     OW 7897   1.183   5.899   3.554
 2333SOL    HW1 7898   1.222   5.991   3.560
 2333SOL    HW2 7899   1.240   5.836   3.607
 2334SOL     OW 7900   3.146   6.746   6.747
 2334SOL    HW1 7901   3.241   6.721   6.765
 2334SOL    HW2 7902   3.121   6.825   6.803
 2335SOL     OW 7903   5.515   6.865   4.259
 2335SOL    HW1 7904   5.418   6.875   4.277
 2335SOL    HW2 7905   5.552   6.951   4.224
 2336SOL     OW 7906   5.215   1.629   5.769
 2336SOL    HW1 7907   5.227   1.532   5.788
 2336SOL    HW2 7908   5.228   1.681   5.853
 2337SOL     OW 7909   5.158   6.843   3.308
 2337SOL    HW1 7910   5.125   6.758   3.349
 2337SOL    HW2 7911   5.214   6.892   3.374
 2338SOL     OW 7912   0.900   6.837   6.566
 2338SOL    HW1 7913   0.989   6.866   6.600
 2338SOL    HW2 7914   0.888   6.869   6.472
 2339SOL     OW 7915   3.627   4.057   0.207
 2339SOL    HW1 7916   3.686   4.138   0.201
 2339SOL    HW2 7917   3.658   3.998   0.282
 2340SOL     OW 7918   3.545   5.314   4.534
 2340SOL    HW1 7919   3.453   5.312   4.572
 2340SOL    HW2 7920   3.549   5.259   4.451
 2341SOL     OW 7921   5.287   5.243   0.757
 2341SOL    HW1 7922   5.299   5.161   0.701
 2341SOL    HW2 7923   5.239   5.313   0.705
 2342SOL     OW 7924   6.331   0.475   5.345
 2342SOL    HW1 7925   6.398   0.418   5.394
 2342SOL    HW2 7926   6.378   0.555   5.308
 2343SOL     OW 7927   1.452   6.425   1.175
 2343SOL    HW1 7928   1.379   6.375   1.222
 2343SOL    HW2 7929   1.538   6.412   1.225
 2344SOL     OW 7930   1.951   2.332   2.730
 2344SOL    HW1 7931   2.016   2.287   2.792
 2344SOL    HW2 7932   1.995   2.411   2.687
 2345SOL     OW 7933   1.971   1.243   4.362
 2345SOL    HW1 7934   2.049   1.220   4.420
 2345SOL    HW2 7935   2.001   1.302   4.287
 2346SOL     OW 7936   5.216   3.830   5.721
 2346SOL    HW1 7937   5.255   3.889   5.792
 2346SOL    HW2 7938   5.137   3.782   5.757
 2347SOL     OW 7939   1.210   2.978   1.727
 2347SOL    HW1 7940   1.247   2.906   1.785
 2347SOL    HW2 7941   1.204   3.063   1.779
 2348SOL     OW 7942   2.629   6.686   2.208
 2348SOL    HW1 7943   2.719   6.656   2.240
 2348SOL    HW2 7944   2.615   6.655   2.114
 2349SOL     OW 7945   5.787   6.259   5.520
 2349SOL    HW1 7946   5.846   6.334   5.550
 2349SOL    HW2 7947   5.839   6.197   5.462
 2350SOL     OW 7948   2.624   0.010   5.919
 2350SOL    HW1 7949   2.646   0.070   5.996
 2350SOL    HW2 7950   2.707   7.017   5.867
 2351SOL     OW 7951   2.411   5.469   4.259
 2351SOL    HW1 7952   2.349   5.523   4.316
 2351SOL    HW2 7953   2.503   5.506   4.265
 2352SOL     OW 7954   0.734   3.217   2.873
 2352SOL    HW1 7955   0.789   3.294   2.840
 2352SOL    HW2 7956   0.683   3.244   2.954
 2353SOL     OW 7957   3.208   4.948   5.759
 2353SOL    HW1 7958   3.109   4.960   5.752
 2353SOL    HW2 7959   3.240   4.980   5.848
 2354SOL     OW 7960   3.727   2.163   0.767
 2354SOL    HW1 7961   3.649   2.217   0.735
 2354SOL    HW2 7962   3.709   2.129   0.859
 2355SOL     OW 7963   0.141   6.430   1.049
 2355SOL    HW1 7964   0.232   6.424   1.009
 2355SOL    HW2 7965   0.147   6.420   1.148
 2356SOL     OW 7966   2.690   4.974   3.530
 2356SOL    HW1 7967   2.745   4.894   3.554
 2356SOL    HW2 7968   2.689   4.985   3.430
 2357SOL     OW 7969   6.657   4.209   1.543
 2357SOL    HW1 7970   6.571   4.222   1.495
 2357SOL    HW2 7971   6.641   4.165   1.631
 2358SOL     OW 7972   3.590   2.005   6.022
 2358SOL    HW1 7973   3.634   2.051   5.945
 2358SOL    HW2 7974   3.658   1.948   6.069
 2359SOL     OW 7975   1.452   1.791   5.567
 2359SOL    HW1 7976   1.547   1.774   5.541
 2359SOL    HW2 7977   1.410   1.705   5.598
 2360SOL     OW 7978   3.915   4.545   1.001
 2360SOL    HW1 7979   3.855   4.564   0.923
 2360SOL    HW2 7980   3.859   4.518   1.080
 2361SOL     OW 7981   3.458   6.322   1.701
 2361SOL    HW1 7982   3.514   6.258   1.753
 2361SOL    HW2 7983   3.371   6.278   1.677
 2362SOL     OW 7984   4.070   5.678   4.076
 2362SOL    HW1 7985   4.063   5.740   3.997
 2362SOL    HW2 7986   4.155   5.627   4.071
 2363SOL     OW 7987   3.501   3.561   0.519
 2363SOL    HW1 7988   3.424   3.602   0.470
 2363SOL    HW2 7989   3.495   3.586   0.616
 2364SOL     OW 7990   4.744   1.818   2.120
 2364SOL    HW1 7991   4.662   1.801   2.174
 2364SOL    HW2 7992   4.723   1.804   2.023
 2365SOL     OW 7993   5.395   3.493   4.313
 2365SOL    HW1 7994   5.324   3.430   4.344
 2365SOL    HW2 7995   5.354   3.581   4.289
 2366SOL     OW 7996   2.582   4.560   5.127
 2366SOL    HW1 7997   2.675   4.574   5.094
 2366SOL    HW2 7998   2.553   4.638   5.182
 2367SOL     OW 7999   0.643   4.468   5.816
 2367SOL    HW1 8000   0.718   4.404   5.797
 2367SOL    HW2 8001   0.626   4.524   5.735
 2368SOL     OW 8002   5.715   6.275   4.273
 2368SOL    HW1 8003   5.720   6.337   4.351
 2368SOL    HW2 8004   5.631   6.294   4.221
 2369SOL     OW 8005   3.046   1.708   3.700
 2369SOL    HW1 8006   3.072   1.742   3.610
 2369SOL    HW2 8007   3.127   1.702   3.759
 2370SOL     OW 8008   5.541   2.360   1.942
 2370SOL    HW1 8009   5.458   2.414   1.935
 2370SOL    HW2 8010   5.580   2.370   2.034
 2371SOL     OW 8011   1.006   6.980   3.117
 2371SOL    HW1 8012   1.012   0.054   3.109
 2371SOL    HW2 8013   0.929   6.956   3.177
 2372SOL     OW 8014   6.256   1.236   5.842
 2372SOL    HW1 8015   6.170   1.279   5.816
 2372SOL    HW2 8016   6.322   1.306   5.871
 2373SOL     OW 8017   5.886   6.593   5.781
 2373SOL    HW1 8018   5.957   6.663   5.772
 2373SOL    HW2 8019   5.902   6.521   5.713
 2374SOL     OW 8020   5.891   5.975   2.553
 2374SOL    HW1 8021   5.952   5.983   2.474
 2374SOL    HW2 8022   5.800   5.948   2.522
 2375SOL     OW 8023   1.204   0.747   4.157
 2375SOL    HW1 8024   1.259   0.666   4.135
 2375SOL    HW2 8025   1.260   0.814   4.204
 2376SOL     OW 8026   6.245   1.658   3.060
 2376SOL    HW1 8027   6.304   1.734   3.034
 2376SOL    HW2 8028   6.169   1.651   2.995
 2377SOL     OW 8029   3.898   4.786   5.799
 2377SOL    HW1 8030   3.916   4.790   5.897
 2377SOL    HW2 8031   3.811   4.832   5.779
 2378SOL     OW 8032   0.051   1.100   0.023
 2378SOL    HW1 8033   0.087   1.181   0.070
 2378SOL    HW2 8034   6.998   1.127   6.993
 2379SOL     OW 8035   6.580   5.389   1.374
 2379SOL    HW1 8036   6.620   5.412   1.463
 2379SOL    HW2 8037   6.630   5.437   1.302
 2380SOL     OW 8038   4.935   4.739   5.014
 2380SOL    HW1 8039   5.025   4.782   5.023
 2380SOL    HW2 8040   4.935   4.652   5.063
 2381SOL     OW 8041   3.044   5.344   4.798
 2381SOL    HW1 8042   3.026   5.268   4.735
 2381SOL    HW2 8043   2.991   5.330   4.882
 2382SOL     OW 8044   1.249   6.280   1.361
 2382SOL    HW1 8045   1.150   6.279   1.372
 2382SOL    HW2 8046   1.276   6.208   1.297
 2383SOL     OW 8047   5.182   5.808   5.119
 2383SOL    HW1 8048   5.192   5.856   5.206
 2383SOL    HW2 8049   5.240   5.727   5.119
 2384SOL     OW 8050   0.835   1.879   1.873
 2384SOL    HW1 8051   0.800   1.835   1.955
 2384SOL    HW2 8052   0.791   1.968   1.861
 2385SOL     OW 8053   0.845   1.613   1.013
 2385SOL    HW1 8054   0.797   1.614   0.925
 2385SOL    HW2 8055   0.780   1.634   1.086
 2386SOL     OW 8056   4.669   6.240   4.003
 2386SOL    HW1 8057   4.722   6.300   4.063
 2386SOL    HW2 8058   4.572   6.251   4.022
 2387SOL     OW 8059   1.598   1.422   3.742
 2387SOL    HW1 8060   1.620   1.324   3.744
 2387SOL    HW2 8061   1.671   1.472   3.696
 2388SOL     OW 8062   6.483   1.971   5.459
 2388SOL    HW1 8063   6.504   2.067   5.477
 2388SOL    HW2 8064   6.387   1.963   5.431
 2389SOL     OW 8065   5.776   4.509   4.308
 2389SOL    HW1 8066   5.798   4.598   4.347
 2389SOL    HW2 8067   5.693   4.516   4.254
 2390SOL     OW 8068   4.626   4.299   5.873
 2390SOL    HW1 8069   4.567   4.367   5.918
 2390SOL    HW2 8070   4.571   4.220   5.847
 2391SOL     OW 8071   3.626   3.537   6.613
 2391SOL    HW1 8072   3.584   3.455   6.652
 2391SOL    HW2 8073   3.726   3.530   6.618
 2392SOL     OW 8074   3.262   5.566   4.538
 2392SOL    HW1 8075   3.174   5.531   4.507
 2392SOL    HW2 8076   3.322   5.490   4.562
 2393SOL     OW 8077   2.963   4.989   1.330
 2393SOL    HW1 8078   3.031   4.957   1.264
 2393SOL    HW2 8079   2.888   4.922   1.336
 2394SOL     OW 8080   0.802   2.709   3.341
 2394SOL    HW1 8081   0.736   2.692   3.268
 2394SOL    HW2 8082   0.777   2.656   3.422
 2395SOL     OW 8083   0.445   2.479   5.438
 2395SOL    HW1 8084   0.544   2.478   5.421
 2395SOL    HW2 8085   0.396   2.481   5.351
 2396SOL     OW 8086   6.546   1.179   5.253
 2396SOL    HW1 8087   6.599   1.199   5.336
 2396SOL    HW2 8088   6.602   1.124   5.191
 2397SOL     OW 8089   0.516   5.182   5.103
 2397SOL    HW1 8090   0.560   5.130   5.030
 2397SOL    HW2 8091   0.465   5.258   5.063
 2398SOL     OW 8092   2.953   5.527   3.995
 2398SOL    HW1 8093   2.958   5.494   3.901
 2398SOL    HW2 8094   3.034   5.582   4.015
 2399SOL     OW 8095   2.849   2.318   3.826
 2399SOL    HW1 8096   2.786   2.350   3.896
 2399SOL    HW2 8097   2.906   2.244   3.863
 2400SOL     OW 8098   1.490   3.516   0.534
 2400SOL    HW1 8099   1.489   3.438   0.597
 2400SOL    HW2 8100   1.584   3.546   0.519
 2401SOL     OW 8101   3.572   0.012   5.773
 2401SOL    HW1 8102   3.551   6.960   5.832
 2401SOL    HW2 8103   3.613   0.085   5.829
 2402SOL     OW 8104   1.086   2.629   1.932
 2402SOL    HW1 8105   1.101   2.531   1.931
 2402SOL    HW2 8106   0.992   2.649   1.903
 2403SOL     OW 8107   3.557   4.175   3.181
 2403SOL    HW1 8108   3.461   4.157   3.199
 2403SOL    HW2 8109   3.600   4.212   3.263
 2404SOL     OW 8110   6.782   1.527   0.753
 2404SOL    HW1 8111   6.870   1.544   0.707
 2404SOL    HW2 8112   6.709   1.573   0.702
 2405SOL     OW 8113   2.904   3.688   0.757
 2405SOL    HW1 8114   2.851   3.702   0.674
 2405SOL    HW2 8115   2.918   3.590   0.772
 2406SOL     OW 8116   2.466   7.016   5.172
 2406SOL    HW1 8117   2.379   7.022   5.221
 2406SOL    HW2 8118   2.493   6.920   5.164
 2407SOL     OW 8119   3.487   1.216   3.954
 2407SOL    HW1 8120   3.547   1.162   3.894
 2407SOL    HW2 8121   3.427   1.273   3.899
 2408SOL     OW 8122   2.615   6.252   4.689
 2408SOL    HW1 8123   2.667   6.337   4.688
 2408SOL    HW2 8124   2.566   6.244   4.776
 2409SOL     OW 8125   2.416   2.681   0.931
 2409SOL    HW1 8126   2.318   2.681   0.915
 2409SOL    HW2 8127   2.434   2.687   1.029
 2410SOL     OW 8128   6.610   4.061   5.775
 2410SOL    HW1 8129   6.568   4.064   5.866
 2410SOL    HW2 8130   6.641   4.153   5.750
 2411SOL     OW 8131   2.469   3.369   0.051
 2411SOL    HW1 8132   2.564   3.366   0.018
 2411SOL    HW2 8133   2.466   3.416   0.139
 2412SOL     OW 8134   3.029   2.168   6.448
 2412SOL    HW1 8135   3.021   2.072   6.421
 2412SOL    HW2 8136   2.979   2.183   6.533
 2413SOL     OW 8137   0.448   2.490   6.761
 2413SOL    HW1 8138   0.416   2.584   6.770
 2413SOL    HW2 8139   0.445   2.463   6.664
 2414SOL     OW 8140   6.132   2.384   4.768
 2414SOL    HW1 8141   6.172   2.403   4.858
 2414SOL    HW2 8142   6.158   2.457   4.704
 2415SOL     OW 8143   2.841   6.185   0.875
 2415SOL    HW1 8144   2.884   6.236   0.799
 2415SOL    HW2 8145   2.869   6.225   0.962
 2416SOL     OW 8146   6.587   3.157   2.857
 2416SOL    HW1 8147   6.549   3.104   2.934
 2416SOL    HW2 8148   6.512   3.188   2.798
 2417SOL     OW 8149   4.026   3.460   0.901
 2417SOL    HW1 8150   4.081   3.533   0.942
 2417SOL    HW2 8151   3.933   3.462   0.940
 2418SOL     OW 8152   4.999   4.223   5.521
 2418SOL    HW1 8153   5.029   4.295   5.584
 2418SOL    HW2 8154   4.902   4.233   5.503
 2419SOL     OW 8155   2.129   6.265   4.254
 2419SOL    HW1 8156   2.035   6.233   4.260
 2419SOL    HW2 8157   2.179   6.209   4.187
 2420SOL     OW 8158   2.799   4.765   2.753
 2420SOL    HW1 8159   2.720   4.705   2.745
 2420SOL    HW2 8160   2.869   4.738   2.687
 2421SOL     OW 8161   3.228   6.795   4.469
 2421SOL    HW1 8162   3.307   6.775   4.410
 2421SOL    HW2 8163   3.185   6.880   4.439
 2422SOL     OW 8164   4.270   6.596   1.668
 2422SOL    HW1 8165   4.218   6.547   1.738
 2422SOL    HW2 8166   4.361   6.555   1.660
 2423SOL     OW 8167   1.813   4.887   2.305
 2423SOL    HW1 8168   1.878   4.817   2.334
 2423SOL    HW2 8169   1.762   4.854   2.225
 2424SOL     OW 8170   5.155   0.693   6.355
 2424SOL    HW1 8171   5.214   0.753   6.301
 2424SOL    HW2 8172   5.132   0.738   6.442
 2425SOL     OW 8173   4.375   5.430   5.541
 2425SOL    HW1 8174   4.384   5.346   5.486
 2425SOL    HW2 8175   4.280   5.441   5.569
 2426SOL     OW 8176   1.258   4.566   5.661
 2426SOL    HW1 8177   1.233   4.469   5.671
 2426SOL    HW2 8178   1.351   4.573   5.627
 2427SOL     OW 8179   4.985   0.564   6.149
 2427SOL    HW1 8180   5.034   0.482   6.120
 2427SOL    HW2 8181   5.047   0.624   6.200
 2428SOL     OW 8182   0.578   0.816   3.312
 2428SOL    HW1 8183   0.485   0.790   3.285
 2428SOL    HW2 8184   0.601   0.905   3.271
 2429SOL     OW 8185   5.481   5.805   2.235
 2429SOL    HW1 8186   5.538   5.732   2.275
 2429SOL    HW2 8187   5.433   5.769   2.155
 2430SOL     OW 8188   6.488   3.173   0.142
 2430SOL    HW1 8189   6.584   3.197   0.129
 2430SOL    HW2 8190   6.469   3.163   0.239
 2431SOL     OW 8191   6.864   1.792   0.843
 2431SOL    HW1 8192   6.853   1.769   0.939
 2431SOL    HW2 8193   6.804   1.734   0.787
 2432SOL     OW 8194   3.832   5.330   1.953
 2432SOL    HW1 8195   3.738   5.297   1.946
 2432SOL    HW2 8196   3.878   5.282   2.027
 2433SOL     OW 8197   6.958   4.271   0.148
 2433SOL    HW1 8198   6.880   4.286   0.208
 2433SOL    HW2 8199   6.995   4.359   0.118
 2434SOL     OW 8200   4.117   1.778   2.874
 2434SOL    HW1 8201   4.117   1.773   2.974
 2434SOL    HW2 8202   4.030   1.817   2.843
 2435SOL     OW 8203   5.530   0.224   6.736
 2435SOL    HW1 8204   5.527   0.144   6.797
 2435SOL    HW2 8205   5.571   0.301   6.785
 2436SOL     OW 8206   1.778   1.603   0.894
 2436SOL    HW1 8207   1.767   1.545   0.975
 2436SOL    HW2 8208   1.723   1.567   0.819
 2437SOL     OW 8209   6.723   6.064   1.916
 2437SOL    HW1 8210   6.776   5.987   1.951
 2437SOL    HW2 8211   6.683   6.041   1.828
 2438SOL     OW 8212   3.193   1.606   4.629
 2438SOL    HW1 8213   3.196   1.705   4.612
 2438SOL    HW2 8214   3.100   1.579   4.651
 2439SOL     OW 8215   0.177   5.417   0.213
 2439SOL    HW1 8216   0.237   5.459   0.281
 2439SOL    HW2 8217   0.105   5.365   0.258
 2440SOL     OW 8218   4.216   1.192   4.719
 2440SOL    HW1 8219   4.142   1.250   4.685
 2440SOL    HW2 8220   4.293   1.196   4.655
 2441SOL     OW 8221   6.240   0.374   6.557
 2441SOL    HW1 8222   6.294   0.292   6.574
 2441SOL    HW2 8223   6.301   0.451   6.535
 2442SOL     OW 8224   4.856   3.748   2.246
 2442SOL    HW1 8225   4.925   3.702   2.190
 2442SOL    HW2 8226   4.835   3.690   2.325
 2443SOL     OW 8227   2.231   1.465   0.352
 2443SOL    HW1 8228   2.264   1.384   0.304
 2443SOL    HW2 8229   2.256   1.459   0.448
 2444SOL     OW 8230   3.382   5.768   0.793
 2444SOL    HW1 8231   3.409   5.673   0.781
 2444SOL    HW2 8232   3.299   5.786   0.740
 2445SOL     OW 8233   0.751   1.924   0.951
 2445SOL    HW1 8234   0.740   1.849   1.016
 2445SOL    HW2 8235   0.713   1.897   0.862
 2446SOL     OW 8236   1.375   3.369   1.687
 2446SOL    HW1 8237   1.392   3.467   1.678
 2446SOL    HW2 8238   1.426   3.332   1.765
 2447SOL     OW 8239   2.333   0.633   0.965
 2447SOL    HW1 8240   2.387   0.595   1.040
 2447SOL    HW2 8241   2.391   0.641   0.883
 2448SOL     OW 8242   6.216   2.080   3.816
 2448SOL    HW1 8243   6.201   2.029   3.732
 2448SOL    HW2 8244   6.288   2.036   3.870
 2449SOL     OW 8245   1.391   4.178   2.087
 2449SOL    HW1 8246   1.448   4.100   2.058
 2449SOL    HW2 8247   1.450   4.257   2.102
 2450SOL     OW 8248   2.395   5.480   6.684
 2450SOL    HW1 8249   2.309   5.493   6.634
 2450SOL    HW2 8250   2.466   5.538   6.644
 2451SOL     OW 8251   0.992   7.021   4.571
 2451SOL    HW1 8252   1.061   6.952   4.592
 2451SOL    HW2 8253   0.923   7.022   4.644
 2452SOL     OW 8254   2.790   2.353   3.571
 2452SOL    HW1 8255   2.815   2.329   3.665
 2452SOL    HW2 8256   2.730   2.434   3.572
 2453SOL     OW 8257   0.257   1.761   0.099
 2453SOL    HW1 8258   0.206   1.838   0.060
 2453SOL    HW2 8259   0.211   1.727   0.180
 2454SOL     OW 8260   3.632   5.492   1.128
 2454SOL    HW1 8261   3.645   5.393   1.124
 2454SOL    HW2 8262   3.698   5.537   1.068
 2455SOL     OW 8263   3.582   1.098   0.349
 2455SOL    HW1 8264   3.578   1.011   0.398
 2455SOL    HW2 8265   3.675   1.135   0.356
 2456SOL     OW 8266   1.198   4.597   6.994
 2456SOL    HW1 8267   1.287   4.609   6.950
 2456SOL    HW2 8268   1.208   4.537   0.047
 2457SOL     OW 8269   5.418   1.435   5.320
 2457SOL    HW1 8270   5.400   1.456   5.224
 2457SOL    HW2 8271   5.397   1.515   5.377
 2458SOL     OW 8272   0.765   0.122   2.719
 2458SOL    HW1 8273   0.720   0.165   2.640
 2458SOL    HW2 8274   0.755   0.181   2.799
 2459SOL     OW 8275   2.498   6.122   0.361
 2459SOL    HW1 8276   2.528   6.217   0.351
 2459SOL    HW2 8277   2.569   6.071   0.409
 2460SOL     OW 8278   1.385   1.143   6.802
 2460SOL    HW1 8279   1.465   1.085   6.817
 2460SOL    HW2 8280   1.302   1.090   6.818
 2461SOL     OW 8281   4.314   7.009   4.618
 2461SOL    HW1 8282   4.357   6.942   4.558
 2461SOL    HW2 8283   4.333   0.075   4.585
 2462SOL     OW 8284   0.658   5.543   0.731
 2462SOL    HW1 8285   0.560   5.557   0.723
 2462SOL    HW2 8286   0.676   5.458   0.780
 2463SOL     OW 8287   6.645   1.257   6.971
 2463SOL    HW1 8288   6.626   1.247   0.043
 2463SOL    HW2 8289   6.567   1.223   6.919
 2464SOL     OW 8290   0.031   2.423   2.541
 2464SOL    HW1 8291   0.104   2.385   2.485
 2464SOL    HW2 8292   6.969   2.389   2.508
 2465SOL     OW 8293   0.127   5.323   5.915
 2465SOL    HW1 8294   0.170   5.300   6.002
 2465SOL    HW2 8295   0.196   5.357   5.851
 2466SOL     OW 8296   1.897   1.817   1.900
 2466SOL    HW1 8297   1.864   1.899   1.854
 2466SOL    HW2 8298   1.820   1.771   1.945
 2467SOL     OW 8299   4.571   1.526   5.998
 2467SOL    HW1 8300   4.545   1.431   6.018
 2467SOL    HW2 8301   4.572   1.578   6.083
 2468SOL     OW 8302   3.693   0.285   6.358
 2468SOL    HW1 8303   3.649   0.351   6.418
 2468SOL    HW2 8304   3.710   0.328   6.269
 2469SOL     OW 8305   4.286   2.631   5.573
 2469SOL    HW1 8306   4.269   2.659   5.668
 2469SOL    HW2 8307   4.228   2.552   5.551
 2470SOL     OW 8308   3.920   4.869   6.055
 2470SOL    HW1 8309   3.976   4.806   6.109
 2470SOL    HW2 8310   3.849   4.909   6.113
 2471SOL     OW 8311   3.600   6.656   0.892
 2471SOL    HW1 8312   3.575   6.580   0.833
 2471SOL    HW2 8313   3.658   6.623   0.967
 2472SOL     OW 8314   4.592   2.676   3.800
 2472SOL    HW1 8315   4.534   2.687   3.880
 2472SOL    HW2 8316   4.644   2.591   3.807
 2473SOL     OW 8317   1.218   4.430   5.061
 2473SOL    HW1 8318   1.135   4.401   5.108
 2473SOL    HW2 8319   1.265   4.350   5.023
 2474SOL     OW 8320   0.975   5.461   0.607
 2474SOL    HW1 8321   0.975   5.519   0.526
 2474SOL    HW2 8322   1.064   5.467   0.652
 2475SOL     OW 8323   4.841   0.608   0.680
 2475SOL    HW1 8324   4.797   0.697   0.686
 2475SOL    HW2 8325   4.792   0.542   0.738
 2476SOL     OW 8326   5.520   0.665   2.767
 2476SOL    HW1 8327   5.612   0.693   2.738
 2476SOL    HW2 8328   5.482   0.734   2.829
 2477SOL     OW 8329   3.945   0.342   3.549
 2477SOL    HW1 8330   4.020   0.375   3.491
 2477SOL    HW2 8331   3.972   0.256   3.591
 2478SOL     OW 8332   4.179   1.105   2.808
 2478SOL    HW1 8333   4.228   1.178   2.857
 2478SOL    HW2 8334   4.194   1.116   2.710
 2479SOL     OW 8335   0.679   2.676   1.400
 2479SOL    HW1 8336   0.590   2.655   1.440
 2479SOL    HW2 8337   0.751   2.642   1.460
 2480SOL     OW 8338   3.934   2.647   1.370
 2480SOL    HW1 8339   4.005   2.666   1.302
 2480SOL    HW2 8340   3.915   2.549   1.372
 2481SOL     OW 8341   2.926   0.214   1.881
 2481SOL    HW1 8342   2.848   0.177   1.931
 2481SOL    HW2 8343   2.904   0.217   1.783
 2482SOL     OW 8344   5.000   3.811   6.981
 2482SOL    HW1 8345   5.058   3.732   6.999
 2482SOL    HW2 8346   4.921   3.808   0.016
 2483SOL     OW 8347   1.410   1.952   0.268
 2483SOL    HW1 8348   1.347   1.976   0.341
 2483SOL    HW2 8349   1.499   1.996   0.284
 2484SOL     OW 8350   3.489   0.797   1.503
 2484SOL    HW1 8351   3.497   0.805   1.404
 2484SOL    HW2 8352   3.398   0.826   1.531
 2485SOL     OW 8353   5.400   2.601   6.946
 2485SOL    HW1 8354   5.328   2.533   6.946
 2485SOL    HW2 8355   5.463   2.583   6.870
 2486SOL     OW 8356   0.128   5.352   5.148
 2486SOL    HW1 8357   0.076   5.283   5.198
 2486SOL    HW2 8358   0.198   5.391   5.208
 2487SOL     OW 8359   4.095   6.285   0.384
 2487SOL    HW1 8360   4.015   6.310   0.438
 2487SOL    HW2 8361   4.117   6.359   0.320
 2488SOL     OW 8362   0.774   3.655   1.908
 2488SOL    HW1 8363   0.699   3.632   1.846
 2488SOL    HW2 8364   0.760   3.746   1.946
 2489SOL     OW 8365   0.874   6.450   3.637
 2489SOL    HW1 8366   0.912   6.535   3.601
 2489SOL    HW2 8367   0.831   6.468   3.726
 2490SOL     OW 8368   0.809   5.753   1.154
 2490SOL    HW1 8369   0.834   5.672   1.101
 2490SOL    HW2 8370   0.744   5.809   1.102
 2491SOL     OW 8371   4.102   3.877   1.187
 2491SOL    HW1 8372   4.049   3.936   1.126
 2491SOL    HW2 8373   4.100   3.783   1.153
 2492SOL     OW 8374   4.959   3.467   1.144
 2492SOL    HW1 8375   4.897   3.391   1.125
 2492SOL    HW2 8376   4.907   3.545   1.177
 2493SOL     OW 8377   6.613   0.210   0.816
 2493SOL    HW1 8378   6.535   0.161   0.854
 2493SOL    HW2 8379   6.586   0.257   0.732
 2494SOL     OW 8380   6.197   4.046   1.987
 2494SOL    HW1 8381   6.143   3.962   1.985
 2494SOL    HW2 8382   6.198   4.083   2.080
 2495SOL     OW 8383   5.269   6.139   3.582
 2495SOL    HW1 8384   5.248   6.047   3.547
 2495SOL    HW2 8385   5.188   6.196   3.576
 2496SOL     OW 8386   0.593   3.690   6.852
 2496SOL    HW1 8387   0.673   3.670   6.908
 2496SOL    HW2 8388   0.559   3.782   6.874
 2497SOL     OW 8389   0.496   0.339   0.536
 2497SOL    HW1 8390   0.521   0.255   0.584
 2497SOL    HW2 8391   0.469   0.317   0.442
 2498SOL     OW 8392   3.166   2.118   5.747
 2498SOL    HW1 8393   3.185   2.187   5.677
 2498SOL    HW2 8394   3.219   2.138   5.829
 2499SOL     OW 8395   5.711   2.878   2.128
 2499SOL    HW1 8396   5.624   2.926   2.137
 2499SOL    HW2 8397   5.749   2.895   2.037
 2500SOL     OW 8398   4.081   3.366   6.580
 2500SOL    HW1 8399   4.151   3.328   6.641
 2500SOL    HW2 8400   4.010   3.297   6.564
 2501SOL     OW 8401   5.151   5.739   0.121
 2501SOL    HW1 8402   5.229   5.801   0.110
 2501SOL    HW2 8403   5.175   5.665   0.183
 2502SOL     OW 8404   2.219   7.024   4.910
 2502SOL    HW1 8405   2.197   6.936   4.953
 2502SOL    HW2 8406   2.288   7.009   4.839
 2503SOL     OW 8407   3.387   6.559   5.040
 2503SOL    HW1 8408   3.450   6.519   4.974
 2503SOL    HW2 8409   3.411   6.529   5.133
 2504SOL     OW 8410   3.783   5.341   2.909
 2504SOL    HW1 8411   3.876   5.304   2.907
 2504SOL    HW2 8412   3.745   5.330   3.001
 2505SOL     OW 8413   0.522   5.752   2.855
 2505SOL    HW1 8414   0.438   5.798   2.829
 2505SOL    HW2 8415   0.599   5.789   2.803
 2506SOL     OW 8416   6.305   3.562   6.191
 2506SOL    HW1 8417   6.390   3.526   6.230
 2506SOL    HW2 8418   6.279   3.507   6.112
 2507SOL     OW 8419   0.431   3.599   0.070
 2507SOL    HW1 8420   0.413   3.656   7.015
 2507SOL    HW2 8421   0.530   3.587   0.080
 2508SOL     OW 8422   2.556   1.863   4.196
 2508SOL    HW1 8423   2.478   1.850   4.134
 2508SOL    HW2 8424   2.565   1.960   4.218
 2509SOL     OW 8425   6.889   4.454   0.834
 2509SOL    HW1 8426   6.798   4.420   0.858
 2509SOL    HW2 8427   6.954   4.426   0.905
 2510SOL     OW 8428   3.492   4.861   0.723
 2510SOL    HW1 8429   3.453   4.952   0.729
 2510SOL    HW2 8430   3.426   4.794   0.758
 2511SOL     OW 8431   2.133   1.150   4.546
 2511SOL    HW1 8432   2.220   1.197   4.563
 2511SOL    HW2 8433   2.149   1.051   4.542
 2512SOL     OW 8434   4.296   4.062   5.380
 2512SOL    HW1 8435   4.214   4.118   5.370
 2512SOL    HW2 8436   4.368   4.115   5.426
 2513SOL     OW 8437   2.151   5.526   4.927
 2513SOL    HW1 8438   2.217   5.506   4.855
 2513SOL    HW2 8439   2.170   5.471   5.007
 2514SOL     OW 8440   0.670   3.818   4.380
 2514SOL    HW1 8441   0.696   3.885   4.449
 2514SOL    HW2 8442   0.703   3.847   4.290
 2515SOL     OW 8443   2.093   6.499   0.865
 2515SOL    HW1 8444   2.095   6.450   0.778
 2515SOL    HW2 8445   2.000   6.530   0.884
 2516SOL     OW 8446   5.508   1.232   2.279
 2516SOL    HW1 8447   5.521   1.169   2.202
 2516SOL    HW2 8448   5.435   1.296   2.258
 2517SOL     OW 8449   1.443   0.690   6.283
 2517SOL    HW1 8450   1.435   0.602   6.235
 2517SOL    HW2 8451   1.536   0.725   6.274
 2518SOL     OW 8452   1.229   5.445   0.766
 2518SOL    HW1 8453   1.202   5.519   0.829
 2518SOL    HW2 8454   1.180   5.362   0.791
 2519SOL     OW 8455   3.563   1.005   1.844
 2519SOL    HW1 8456   3.473   1.021   1.883
 2519SOL    HW2 8457   3.589   0.910   1.856
 2520SOL     OW 8458   3.523   1.884   0.233
 2520SOL    HW1 8459   3.585   1.881   0.154
 2520SOL    HW2 8460   3.430   1.902   0.201
 2521SOL     OW 8461   3.110   1.465   5.365
 2521SOL    HW1 8462   3.149   1.375   5.380
 2521SOL    HW2 8463   3.134   1.525   5.441
 2522SOL     OW 8464   1.524   1.434   5.515
 2522SOL    HW1 8465   1.574   1.417   5.430
 2522SOL    HW2 8466   1.588   1.443   5.591
 2523SOL     OW 8467   1.206   3.423   1.140
 2523SOL    HW1 8468   1.192   3.460   1.232
 2523SOL    HW2 8469   1.160   3.481   1.073
 2524SOL     OW 8470   6.757   6.697   4.404
 2524SOL    HW1 8471   6.659   6.693   4.420
 2524SOL    HW2 8472   6.784   6.619   4.347
 2525SOL     OW 8473   1.662   2.821   4.614
 2525SOL    HW1 8474   1.706   2.751   4.670
 2525SOL    HW2 8475   1.726   2.853   4.544
 2526SOL     OW 8476   1.795   4.615   6.765
 2526SOL    HW1 8477   1.727   4.631   6.837
 2526SOL    HW2 8478   1.882   4.655   6.793
 2527SOL     OW 8479   5.549   6.423   5.606
 2527SOL    HW1 8480   5.554   6.431   5.706
 2527SOL    HW2 8481   5.609   6.349   5.575
 2528SOL     OW 8482   5.819   4.523   5.705
 2528SOL    HW1 8483   5.805   4.582   5.785
 2528SOL    HW2 8484   5.803   4.576   5.622
 2529SOL     OW 8485   6.884   6.781   6.918
 2529SOL    HW1 8486   6.958   6.845   6.937
 2529SOL    HW2 8487   6.796   6.824   6.938
 2530SOL     OW 8488   2.629   6.436   5.189
 2530SOL    HW1 8489   2.532   6.410   5.186
 2530SOL    HW2 8490   2.665   6.421   5.281
 2531SOL     OW 8491   6.357   6.345   5.377
 2531SOL    HW1 8492   6.332   6.400   5.456
 2531SOL    HW2 8493   6.275   6.323   5.324
 2532SOL     OW 8494   6.876   6.030   0.888
 2532SOL    HW1 8495   6.809   6.095   0.922
 2532SOL    HW2 8496   6.966   6.074   0.882
 2533SOL     OW 8497   4.755   0.542   3.604
 2533SOL    HW1 8498   4.740   0.491   3.689
 2533SOL    HW2 8499   4.832   0.502   3.554
 2534SOL     OW 8500   3.375   1.730   1.519
 2534SOL    HW1 8501   3.429   1.646   1.517
 2534SOL    HW2 8502   3.294   1.717   1.576
 2535SOL     OW 8503   3.646   2.853   6.370
 2535SOL    HW1 8504   3.580   2.790   6.411
 2535SOL    HW2 8505   3.600   2.938   6.346
 2536SOL     OW 8506   1.292   0.711   6.713
 2536SOL    HW1 8507   1.192   0.703   6.712
 2536SOL    HW2 8508   1.320   0.783   6.649
 2537SOL     OW 8509   3.392   6.890   6.170
 2537SOL    HW1 8510   3.379   6.981   6.131
 2537SOL    HW2 8511   3.375   6.893   6.269
 2538SOL     OW 8512   0.214   3.738   3.664
 2538SOL    HW1 8513   0.292   3.691   3.705
 2538SOL    HW2 8514   0.247   3.810   3.603
 2539SOL     OW 8515   5.291   1.250   3.850
 2539SOL    HW1 8516   5.214   1.187   3.846
 2539SOL    HW2 8517   5.336   1.255   3.761
 2540SOL     OW 8518   4.248   1.567   2.739
 2540SOL    HW1 8519   4.203   1.647   2.779
 2540SOL    HW2 8520   4.292   1.514   2.812
 2541SOL     OW 8521   3.393   0.130   5.194
 2541SOL    HW1 8522   3.426   0.196   5.262
 2541SOL    HW2 8523   3.297   0.149   5.174
 2542SOL     OW 8524   3.586   3.537   6.302
 2542SOL    HW1 8525   3.581   3.527   6.401
 2542SOL    HW2 8526   3.528   3.613   6.273
 2543SOL     OW 8527   0.369   0.546   3.780
 2543SOL    HW1 8528   0.350   0.623   3.841
 2543SOL    HW2 8529   0.286   0.492   3.767
 2544SOL     OW 8530   0.136   5.673   0.167
 2544SOL    HW1 8531   0.155   5.577   0.148
 2544SOL    HW2 8532   0.160   5.728   0.087
 2545SOL     OW 8533   1.790   6.443   1.745
 2545SOL    HW1 8534   1.745   6.362   1.707
 2545SOL    HW2 8535   1.795   6.434   1.845
 2546SOL     OW 8536   0.321   1.640   1.742
 2546SOL    HW1 8537   0.361   1.728   1.716
 2546SOL    HW2 8538   0.257   1.610   1.671
 2547SOL     OW 8539   0.417   4.441   6.848
 2547SOL    HW1 8540   0.419   4.502   6.928
 2547SOL    HW2 8541   0.458   4.354   6.873
 2548SOL     OW 8542   1.096   6.555   5.136
 2548SOL    HW1 8543   1.024   6.625   5.143
 2548SOL    HW2 8544   1.181   6.598   5.103
 2549SOL     OW 8545   0.878   0.104   1.206
 2549SOL    HW1 8546   0.819   0.050   1.266
 2549SOL    HW2 8547   0.915   0.181   1.258
 2550SOL     OW 8548   6.103   6.814   0.317
 2550SOL    HW1 8549   6.138   6.836   0.226
 2550SOL    HW2 8550   6.178   6.820   0.384
 2551SOL     OW 8551   3.481   4.531   0.473
 2551SOL    HW1 8552   3.496   4.623   0.439
 2551SOL    HW2 8553   3.437   4.475   0.402
 2552SOL     OW 8554   1.866   6.168   4.242
 2552SOL    HW1 8555   1.808   6.214   4.174
 2552SOL    HW2 8556   1.836   6.073   4.251
 2553SOL     OW 8557   3.856   3.606   5.942
 2553SOL    HW1 8558   3.932   3.623   5.880
 2553SOL    HW2 8559   3.876   3.646   6.032
 2554SOL     OW 8560   2.801   0.254   0.429
 2554SOL    HW1 8561   2.833   0.160   0.426
 2554SOL    HW2 8562   2.701   0.255   0.437
 2555SOL     OW 8563   5.939   1.593   4.645
 2555SOL    HW1 8564   5.975   1.503   4.620
 2555SOL    HW2 8565   5.996   1.664   4.603
 2556SOL     OW 8566   4.630   6.601   0.326
 2556SOL    HW1 8567   4.699   6.550   0.378
 2556SOL    HW2 8568   4.636   6.698   0.349
 2557SOL     OW 8569   1.690   3.463   0.891
 2557SOL    HW1 8570   1.675   3.411   0.807
 2557SOL    HW2 8571   1.601   3.489   0.929
 2558SOL     OW 8572   4.623   1.102   4.560
 2558SOL    HW1 8573   4.585   1.099   4.652
 2558SOL    HW2 8574   4.656   1.194   4.540
 2559SOL     OW 8575   1.258   4.134   5.419
 2559SOL    HW1 8576   1.205   4.057   5.384
 2559SOL    HW2 8577   1.351   4.131   5.383
 2560SOL     OW 8578   5.876   2.627   5.698
 2560SOL    HW1 8579   5.908   2.683   5.621
 2560SOL    HW2 8580   5.790   2.582   5.673
 2561SOL     OW 8581   2.686   4.717   4.840
 2561SOL    HW1 8582   2.757   4.733   4.771
 2561SOL    HW2 8583   2.727   4.721   4.932
 2562SOL     OW 8584   2.191   5.322   1.228
 2562SOL    HW1 8585   2.244   5.246   1.191
 2562SOL    HW2 8586   2.253   5.390   1.267
 2563SOL     OW 8587   3.701   1.231   0.789
 2563SOL    HW1 8588   3.646   1.290   0.849
 2563SOL    HW2 8589   3.683   1.135   0.812
 2564SOL     OW 8590   1.661   5.629   0.017
 2564SOL    HW1 8591   1.659   5.593   6.949
 2564SOL    HW2 8592   1.629   5.558   0.080
 2565SOL     OW 8593   1.499   0.264   0.117
 2565SOL    HW1 8594   1.402   0.271   0.095
 2565SOL    HW2 8595   1.553   0.296   0.040
 2566SOL     OW 8596   2.401   6.963   1.580
 2566SOL    HW1 8597   2.320   7.013   1.549
 2566SOL    HW2 8598   2.400   6.956   1.680
 2567SOL     OW 8599   1.136   0.618   0.894
 2567SOL    HW1 8600   1.086   0.656   0.816
 2567SOL    HW2 8601   1.083   0.544   0.935
 2568SOL     OW 8602   4.700   2.137   6.461
 2568SOL    HW1 8603   4.661   2.045   6.452
 2568SOL    HW2 8604   4.748   2.160   6.377
 2569SOL     OW 8605   2.754   0.342   2.591
 2569SOL    HW1 8606   2.854   0.348   2.599
 2569SOL    HW2 8607   2.728   0.248   2.572
 2570SOL     OW 8608   5.351   0.745   5.777
 2570SOL    HW1 8609   5.437   0.741   5.828
 2570SOL    HW2 8610   5.363   0.700   5.688
 2571SOL     OW 8611   2.140   4.772   4.130
 2571SOL    HW1 8612   2.137   4.870   4.110
 2571SOL    HW2 8613   2.199   4.756   4.210
 2572SOL     OW 8614   2.677   5.710   1.957
 2572SOL    HW1 8615   2.689   5.798   2.001
 2572SOL    HW2 8616   2.633   5.723   1.868
 2573SOL     OW 8617   0.630   1.759   1.149
 2573SOL    HW1 8618   0.623   1.695   1.226
 2573SOL    HW2 8619   0.539   1.795   1.128
 2574SOL     OW 8620   5.177   4.032   1.288
 2574SOL    HW1 8621   5.264   3.995   1.256
 2574SOL    HW2 8622   5.107   4.019   1.218
 2575SOL     OW 8623   5.793   5.862   6.533
 2575SOL    HW1 8624   5.782   5.910   6.620
 2575SOL    HW2 8625   5.831   5.771   6.550
 2576SOL     OW 8626   4.590   6.193   4.390
 2576SOL    HW1 8627   4.562   6.288   4.405
 2576SOL    HW2 8628   4.512   6.141   4.354
 2577SOL     OW 8629   3.141   5.112   1.941
 2577SOL    HW1 8630   3.142   5.183   2.012
 2577SOL    HW2 8631   3.047   5.102   1.906
 2578SOL     OW 8632   3.866   1.600   3.775
 2578SOL    HW1 8633   3.769   1.593   3.795
 2578SOL    HW2 8634   3.907   1.509   3.774
 2579SOL     OW 8635   1.321   6.488   4.058
 2579SOL    HW1 8636   1.257   6.439   4.117
 2579SOL    HW2 8637   1.366   6.560   4.111
 2580SOL     OW 8638   2.675   4.916   6.995
 2580SOL    HW1 8639   2.627   5.000   7.017
 2580SOL    HW2 8640   2.610   4.840   6.989
 2581SOL     OW 8641   2.114   5.848   0.994
 2581SOL    HW1 8642   2.056   5.913   1.044
 2581SOL    HW2 8643   2.085   5.755   1.015
 2582SOL     OW 8644   0.347   4.115   1.798
 2582SOL    HW1 8645   0.393   4.070   1.875
 2582SOL    HW2 8646   0.376   4.073   1.712
 2583SOL     OW 8647   0.534   0.952   6.489
 2583SOL    HW1 8648   0.500   0.992   6.574
 2583SOL    HW2 8649   0.609   1.007   6.453
 2584SOL     OW 8650   3.938   5.194   5.837
 2584SOL    HW1 8651   4.009   5.155   5.778
 2584SOL    HW2 8652   3.979   5.224   5.923
 2585SOL     OW 8653   3.083   3.742   0.440
 2585SOL    HW1 8654   3.063   3.833   0.477
 2585SOL    HW2 8655   3.079   3.675   0.514
 2586SOL     OW 8656   2.761   1.370   5.692
 2586SOL    HW1 8657   2.730   1.445   5.634
 2586SOL    HW2 8658   2.852   1.341   5.664
 2587SOL     OW 8659   6.703   1.272   3.265
 2587SOL    HW1 8660   6.727   1.175   3.269
 2587SOL    HW2 8661   6.784   1.327   3.289
 2588SOL     OW 8662   3.970   2.260   5.675
 2588SOL    HW1 8663   3.937   2.180   5.626
 2588SOL    HW2 8664   3.942   2.343   5.625
 2589SOL     OW 8665   1.257   6.925   6.405
 2589SOL    HW1 8666   1.283   6.988   6.331
 2589SOL    HW2 8667   1.287   6.833   6.382
 2590SOL     OW 8668   2.671   5.058   0.287
 2590SOL    HW1 8669   2.583   5.076   0.332
 2590SOL    HW2 8670   2.698   5.138   0.234
 2591SOL     OW 8671   6.884   5.462   3.384
 2591SOL    HW1 8672   6.980   5.438   3.372
 2591SOL    HW2 8673   6.833   5.439   3.301
 2592SOL     OW 8674   2.726   4.456   6.748
 2592SOL    HW1 8675   2.670   4.403   6.684
 2592SOL    HW2 8676   2.817   4.470   6.709
 2593SOL     OW 8677   3.150   5.719   0.660
 2593SOL    HW1 8678   3.076   5.694   0.597
 2593SOL    HW2 8679   3.115   5.780   0.731
 2594SOL     OW 8680   2.549   4.261   5.684
 2594SOL    HW1 8681   2.628   4.322   5.691
 2594SOL    HW2 8682   2.563   4.196   5.609
 2595SOL     OW 8683   6.906   1.471   4.068
 2595SOL    HW1 8684   6.861   1.397   4.118
 2595SOL    HW2 8685   6.956   1.432   3.990
 2596SOL     OW 8686   2.139   2.731   0.946
 2596SOL    HW1 8687   2.102   2.729   0.853
 2596SOL    HW2 8688   2.070   2.769   1.008
 2597SOL     OW 8689   0.403   5.492   6.782
 2597SOL    HW1 8690   0.416   5.436   6.864
 2597SOL    HW2 8691   0.376   5.434   6.705
 2598SOL     OW 8692   6.601   1.347   1.646
 2598SOL    HW1 8693   6.552   1.434   1.654
 2598SOL    HW2 8694   6.699   1.364   1.638
 2599SOL     OW 8695   1.397   6.181   0.751
 2599SOL    HW1 8696   1.394   6.259   0.688
 2599SOL    HW2 8697   1.317   6.123   0.736
 2600SOL     OW 8698   6.089   2.926   4.259
 2600SOL    HW1 8699   6.031   3.001   4.291
 2600SOL    HW2 8700   6.048   2.838   4.285
 2601SOL     OW 8701   1.379   1.790   1.582
 2601SOL    HW1 8702   1.376   1.785   1.483
 2601SOL    HW2 8703   1.313   1.725   1.621
 2602SOL     OW 8704   1.893   4.611   5.028
 2602SOL    HW1 8705   1.933   4.603   4.936
 2602SOL    HW2 8706   1.827   4.537   5.042
 2603SOL     OW 8707   2.617   0.942   2.633
 2603SOL    HW1 8708   2.621   0.843   2.619
 2603SOL    HW2 8709   2.543   0.981   2.578
 2604SOL     OW 8710   5.282   1.818   2.681
 2604SOL    HW1 8711   5.286   1.740   2.618
 2604SOL    HW2 8712   5.313   1.901   2.634
 2605SOL     OW 8713   1.641   3.383   2.513
 2605SOL    HW1 8714   1.686   3.306   2.467
 2605SOL    HW2 8715   1.544   3.363   2.524
 2606SOL     OW 8716   5.734   5.026   1.508
 2606SOL    HW1 8717   5.724   5.114   1.555
 2606SOL    HW2 8718   5.712   4.952   1.572
 2607SOL     OW 8719   1.486   1.545   1.011
 2607SOL    HW1 8720   1.572   1.500   1.034
 2607SOL    HW2 8721   1.504   1.636   0.973
 2608SOL     OW 8722   2.783   5.770   6.659
 2608SOL    HW1 8723   2.768   5.862   6.695
 2608SOL    HW2 8724   2.853   5.773   6.587
 2609SOL     OW 8725   6.855   1.392   1.554
 2609SOL    HW1 8726   6.835   1.304   1.511
 2609SOL    HW2 8727   6.946   1.390   1.596
 2610SOL     OW 8728   0.986   4.496   3.997
 2610SOL    HW1 8729   1.062   4.436   3.974
 2610SOL    HW2 8730   0.942   4.464   4.082
 2611SOL     OW 8731   4.395   6.417   6.987
 2611SOL    HW1 8732   4.421   6.408   0.058
 2611SOL    HW2 8733   4.402   6.512   6.959
 2612SOL     OW 8734   5.695   6.814   4.545
 2612SOL    HW1 8735   5.644   6.816   4.459
 2612SOL    HW2 8736   5.759   6.892   4.548
 2613SOL     OW 8737   2.020   4.854   6.466
 2613SOL    HW1 8738   2.103   4.854   6.522
 2613SOL    HW2 8739   2.017   4.938   6.412
 2614SOL     OW 8740   5.879   0.962   6.299
 2614SOL    HW1 8741   5.812   0.947   6.226
 2614SOL    HW2 8742   5.845   0.921   6.384
 2615SOL     OW 8743   0.669   2.703   1.712
 2615SOL    HW1 8744   0.636   2.769   1.645
 2615SOL    HW2 8745   0.740   2.647   1.670
 2616SOL     OW 8746   0.854   1.611   5.391
 2616SOL    HW1 8747   0.787   1.561   5.337
 2616SOL    HW2 8748   0.917   1.547   5.434
 2617SOL     OW 8749   4.996   0.975   0.905
 2617SOL    HW1 8750   5.012   0.941   0.813
 2617SOL    HW2 8751   5.055   1.054   0.923
 2618SOL     OW 8752   1.475   5.617   4.799
 2618SOL    HW1 8753   1.391   5.613   4.744
 2618SOL    HW2 8754   1.519   5.527   4.798
 2619SOL     OW 8755   4.176   1.956   1.963
 2619SOL    HW1 8756   4.112   1.881   1.948
 2619SOL    HW2 8757   4.127   2.043   1.956
 2620SOL     OW 8758   6.099   6.455   1.942
 2620SOL    HW1 8759   6.119   6.358   1.951
 2620SOL    HW2 8760   6.124   6.486   1.850
 2621SOL     OW 8761   0.598   4.915   2.957
 2621SOL    HW1 8762   0.656   4.861   2.897
 2621SOL    HW2 8763   0.631   5.010   2.959
 2622SOL     OW 8764   3.023   2.873   5.757
 2622SOL    HW1 8765   3.004   2.952   5.816
 2622SOL    HW2 8766   2.944   2.856   5.698
 2623SOL     OW 8767   0.496   0.112   3.813
 2623SOL    HW1 8768   0.465   0.150   3.726
 2623SOL    HW2 8769   0.549   0.181   3.862
 2624SOL     OW 8770   6.956   2.064   4.408
 2624SOL    HW1 8771   6.997   2.105   4.327
 2624SOL    HW2 8772   6.903   2.134   4.458
 2625SOL     OW 8773   2.282   5.113   5.812
 2625SOL    HW1 8774   2.232   5.124   5.726
 2625SOL    HW2 8775   2.373   5.155   5.804
 2626SOL     OW 8776   6.407   0.103   5.640
 2626SOL    HW1 8777   6.351   0.077   5.719
 2626SOL    HW2 8778   6.347   0.122   5.562
 2627SOL     OW 8779   0.844   0.464   6.555
 2627SOL    HW1 8780   0.940   0.460   6.528
 2627SOL    HW2 8781   0.822   0.557   6.586
 2628SOL     OW 8782   1.808   3.447   3.821
 2628SOL    HW1 8783   1.722   3.491   3.795
 2628SOL    HW2 8784   1.839   3.389   3.746
 2629SOL     OW 8785   3.312   3.568   3.293
 2629SOL    HW1 8786   3.312   3.473   3.264
 2629SOL    HW2 8787   3.218   3.604   3.288
 2630SOL     OW 8788   3.339   0.951   3.343
 2630SOL    HW1 8789   3.424   0.936   3.293
 2630SOL    HW2 8790   3.359   0.986   3.434
 2631SOL     OW 8791   5.702   0.606   6.204
 2631SOL    HW1 8792   5.729   0.685   6.258
 2631SOL    HW2 8793   5.645   0.545   6.260
 2632SOL     OW 8794   5.348   4.710   1.497
 2632SOL    HW1 8795   5.386   4.799   1.522
 2632SOL    HW2 8796   5.412   4.661   1.439
 2633SOL     OW 8797   6.744   2.585   5.630
 2633SOL    HW1 8798   6.757   2.537   5.543
 2633SOL    HW2 8799   6.705   2.522   5.697
 2634SOL     OW 8800   0.412   6.175   4.334
 2634SOL    HW1 8801   0.379   6.269   4.342
 2634SOL    HW2 8802   0.351   6.123   4.274
 2635SOL     OW 8803   5.620   5.452   3.889
 2635SOL    HW1 8804   5.632   5.354   3.902
 2635SOL    HW2 8805   5.709   5.495   3.876
 2636SOL     OW 8806   3.686   1.168   6.620
 2636SOL    HW1 8807   3.770   1.167   6.567
 2636SOL    HW2 8808   3.626   1.241   6.586
 2637SOL     OW 8809   0.005   1.843   3.456
 2637SOL    HW1 8810   6.955   1.878   3.401
 2637SOL    HW2 8811   0.060   1.781   3.401
 2638SOL     OW 8812   0.899   0.051   4.828
 2638SOL    HW1 8813   0.985   0.078   4.870
 2638SOL    HW2 8814   0.853   7.009   4.885
 2639SOL     OW 8815   5.088   5.088   5.028
 2639SOL    HW1 8816   4.999   5.130   5.008
 2639SOL    HW2 8817   5.127   5.050   4.944
 2640SOL     OW 8818   0.457   6.862   5.399
 2640SOL    HW1 8819   0.426   6.957   5.399
 2640SOL    HW2 8820   0.384   6.803   5.435
 2641SOL     OW 8821   5.266   2.902   0.349
 2641SOL    HW1 8822   5.272   2.803   0.336
 2641SOL    HW2 8823   5.334   2.932   0.416
 2642SOL     OW 8824   0.039   0.949   3.685
 2642SOL    HW1 8825   0.120   0.908   3.644
 2642SOL    HW2 8826   6.992   0.957   3.616
 2643SOL     OW 8827   0.756   3.212   3.677
 2643SOL    HW1 8828   0.758   3.218   3.776
 2643SOL    HW2 8829   0.802   3.128   3.648
 2644SOL     OW 8830   4.757   5.510   5.098
 2644SOL    HW1 8831   4.687   5.532   5.031
 2644SOL    HW2 8832   4.792   5.594   5.139
 2645SOL     OW 8833   4.986   5.128   3.719
 2645SOL    HW1 8834   5.029   5.096   3.803
 2645SOL    HW2 8835   4.920   5.200   3.740
 2646SOL     OW 8836   0.678   3.953   6.752
 2646SOL    HW1 8837   0.732   3.929   6.833
 2646SOL    HW2 8838   0.736   4.001   6.686
 2647SOL     OW 8839   5.054   7.006   1.682
 2647SOL    HW1 8840   5.070   0.079   1.675
 2647SOL    HW2 8841   5.125   6.965   1.740
 2648SOL     OW 8842   1.010   0.354   3.832
 2648SOL    HW1 8843   1.074   0.279   3.819
 2648SOL    HW2 8844   0.954   0.337   3.913
 2649SOL     OW 8845   5.104   2.968   2.050
 2649SOL    HW1 8846   5.092   2.870   2.036
 2649SOL    HW2 8847   5.015   3.010   2.072
 2650SOL     OW 8848   2.971   5.572   4.430
 2650SOL    HW1 8849   2.959   5.571   4.530
 2650SOL    HW2 8850   2.926   5.493   4.390
 2651SOL     OW 8851   3.412   1.621   6.356
 2651SOL    HW1 8852   3.490   1.683   6.368
 2651SOL    HW2 8853   3.442   1.539   6.308
 2652SOL     OW 8854   4.585   3.495   5.720
 2652SOL    HW1 8855   4.540   3.576   5.681
 2652SOL    HW2 8856   4.516   3.423   5.736
 2653SOL     OW 8857   3.382   6.059   5.795
 2653SOL    HW1 8858   3.443   6.102   5.728
 2653SOL    HW2 8859   3.321   5.995   5.748
 2654SOL     OW 8860   5.076   6.661   0.845
 2654SOL    HW1 8861   5.046   6.572   0.879
 2654SOL    HW2 8862   5.089   6.657   0.746
 2655SOL     OW 8863   4.666   6.298   3.473
 2655SOL    HW1 8864   4.719   6.382   3.488
 2655SOL    HW2 8865   4.607   6.282   3.552
 2656SOL     OW 8866   3.733   5.744   3.719
 2656SOL    HW1 8867   3.665   5.671   3.728
 2656SOL    HW2 8868   3.723   5.787   3.629
 2657SOL     OW 8869   1.759   3.651   0.435
 2657SOL    HW1 8870   1.733   3.627   0.342
 2657SOL    HW2 8871   1.730   3.745   0.455
 2658SOL     OW 8872   4.412   4.137   6.388
 2658SOL    HW1 8873   4.336   4.113   6.449
 2658SOL    HW2 8874   4.498   4.131   6.439
 2659SOL     OW 8875   5.359   2.557   4.958
 2659SOL    HW1 8876   5.324   2.549   5.051
 2659SOL    HW2 8877   5.355   2.653   4.929
 2660SOL     OW 8878   0.887   1.120   0.843
 2660SOL    HW1 8879   0.955   1.137   0.772
 2660SOL    HW2 8880   0.816   1.059   0.807
 2661SOL     OW 8881   1.355   0.774   1.745
 2661SOL    HW1 8882   1.414   0.813   1.675
 2661SOL    HW2 8883   1.343   0.676   1.729
 2662SOL     OW 8884   3.051   0.807   3.744
 2662SOL    HW1 8885   3.115   0.775   3.674
 2662SOL    HW2 8886   3.083   0.780   3.835
 2663SOL     OW 8887   3.157   7.009   5.986
 2663SOL    HW1 8888   3.215   0.047   6.037
 2663SOL    HW2 8889   3.202   6.920   5.979
 2664SOL     OW 8890   3.790   2.584   5.349
 2664SOL    HW1 8891   3.877   2.632   5.344
 2664SOL    HW2 8892   3.721   2.634   5.295
 2665SOL     OW 8893   2.318   3.506   5.459
 2665SOL    HW1 8894   2.364   3.417   5.467
 2665SOL    HW2 8895   2.376   3.569   5.408
 2666SOL     OW 8896   1.820   3.177   2.381
 2666SOL    HW1 8897   1.918   3.157   2.375
 2666SOL    HW2 8898   1.799   3.257   2.324
 2667SOL     OW 8899   6.506   4.556   3.854
 2667SOL    HW1 8900   6.478   4.474   3.905
 2667SOL    HW2 8901   6.456   4.560   3.768
 2668SOL     OW 8902   5.437   2.094   4.706
 2668SOL    HW1 8903   5.506   2.043   4.655
 2668SOL    HW2 8904   5.420   2.182   4.660
 2669SOL     OW 8905   2.574   6.301   0.039
 2669SOL    HW1 8906   2.665   6.293   0.078
 2669SOL    HW2 8907   2.576   6.271   6.969
 2670SOL     OW 8908   6.461   1.817   5.104
 2670SOL    HW1 8909   6.523   1.773   5.169
 2670SOL    HW2 8910   6.433   1.906   5.140
 2671SOL     OW 8911   4.165   5.725   6.482
 2671SOL    HW1 8912   4.116   5.639   6.500
 2671SOL    HW2 8913   4.180   5.735   6.384
 2672SOL     OW 8914   3.372   1.313   2.017
 2672SOL    HW1 8915   3.297   1.259   2.055
 2672SOL    HW2 8916   3.385   1.395   2.072
 2673SOL     OW 8917   5.399   6.905   3.053
 2673SOL    HW1 8918   5.366   6.931   2.963
 2673SOL    HW2 8919   5.341   6.947   3.123
 2674SOL     OW 8920   1.282   5.470   3.593
 2674SOL    HW1 8921   1.239   5.458   3.682
 2674SOL    HW2 8922   1.336   5.554   3.593
 2675SOL     OW 8923   0.090   6.362   3.878
 2675SOL    HW1 8924   0.130   6.289   3.823
 2675SOL    HW2 8925   0.022   6.411   3.824
 2676SOL     OW 8926   3.167   3.896   2.146
 2676SOL    HW1 8927   3.144   3.963   2.216
 2676SOL    HW2 8928   3.147   3.933   2.055
 2677SOL     OW 8929   2.404   4.511   0.820
 2677SOL    HW1 8930   2.382   4.608   0.811
 2677SOL    HW2 8931   2.425   4.490   0.915
 2678SOL     OW 8932   6.868   2.211   2.379
 2678SOL    HW1 8933   6.823   2.131   2.340
 2678SOL    HW2 8934   6.960   2.220   2.341
 2679SOL     OW 8935   1.532   5.651   2.132
 2679SOL    HW1 8936   1.443   5.696   2.128
 2679SOL    HW2 8937   1.525   5.568   2.186
 2680SOL     OW 8938   1.326   2.452   6.845
 2680SOL    HW1 8939   1.343   2.468   6.748
 2680SOL    HW2 8940   1.395   2.498   6.899
 2681SOL     OW 8941   1.231   2.849   5.321
 2681SOL    HW1 8942   1.260   2.807   5.408
 2681SOL    HW2 8943   1.162   2.791   5.278
 2682SOL     OW 8944   4.792   4.161   2.031
 2682SOL    HW1 8945   4.862   4.207   1.977
 2682SOL    HW2 8946   4.705   4.209   2.019
 2683SOL     OW 8947   2.567   4.592   2.737
 2683SOL    HW1 8948   2.616   4.518   2.692
 2683SOL    HW2 8949   2.477   4.559   2.766
 2684SOL     OW 8950   5.318   6.182   2.141
 2684SOL    HW1 8951   5.413   6.151   2.134
 2684SOL    HW2 8952   5.295   6.237   2.060
 2685SOL     OW 8953   6.891   5.014   4.781
 2685SOL    HW1 8954   6.919   4.951   4.853
 2685SOL    HW2 8955   6.817   4.973   4.728
 2686SOL     OW 8956   1.691   1.211   4.826
 2686SOL    HW1 8957   1.661   1.186   4.734
 2686SOL    HW2 8958   1.770   1.273   4.819
 2687SOL     OW 8959   4.001   1.146   1.842
 2687SOL    HW1 8960   4.056   1.099   1.911
 2687SOL    HW2 8961   4.037   1.126   1.751
 2688SOL     OW 8962   3.514   2.066   0.463
 2688SOL    HW1 8963   3.552   2.000   0.527
 2688SOL    HW2 8964   3.501   2.022   0.374
 2689SOL     OW 8965   0.514   4.120   2.700
 2689SOL    HW1 8966   0.446   4.156   2.764
 2689SOL    HW2 8967   0.477   4.041   2.652
 2690SOL     OW 8968   3.287   2.184   6.467
 2690SOL    HW1 8969   3.333   2.206   6.381
 2690SOL    HW2 8970   3.188   2.198   6.456
 2691SOL     OW 8971   0.352   4.434   4.070
 2691SOL    HW1 8972   0.448   4.416   4.093
 2691SOL    HW2 8973   0.294   4.364   4.110
 2692SOL     OW 8974   2.864   5.848   3.125
 2692SOL    HW1 8975   2.770   5.838   3.092
 2692SOL    HW2 8976   2.922   5.883   3.052
 2693SOL     OW 8977   1.672   5.152   3.802
 2693SOL    HW1 8978   1.585   5.110   3.776
 2693SOL    HW2 8979   1.692   5.130   3.898
 2694SOL     OW 8980   4.015   6.344   3.176
 2694SOL    HW1 8981   4.102   6.381   3.143
 2694SOL    HW2 8982   3.951   6.419   3.193
 2695SOL     OW 8983   6.511   6.779   2.660
 2695SOL    HW1 8984   6.574   6.855   2.676
 2695SOL    HW2 8985   6.535   6.734   2.573
 2696SOL     OW 8986   4.550   3.804   6.482
 2696SOL    HW1 8987   4.503   3.739   6.423
 2696SOL    HW2 8988   4.518   3.792   6.576
 2697SOL     OW 8989   4.319   1.308   1.133
 2697SOL    HW1 8990   4.308   1.230   1.195
 2697SOL    HW2 8991   4.371   1.279   1.053
 2698SOL     OW 8992   1.037   4.892   6.152
 2698SOL    HW1 8993   1.106   4.873   6.222
 2698SOL    HW2 8994   0.960   4.829   6.163
 2699SOL     OW 8995   2.800   6.012   2.295
 2699SOL    HW1 8996   2.875   5.962   2.338
 2699SOL    HW2 8997   2.827   6.106   2.278
 2700SOL     OW 8998   2.609   1.876   1.018
 2700SOL    HW1 8999   2.616   1.784   0.981
 2700SOL    HW2 9000   2.645   1.878   1.111
 2701SOL     OW 9001   5.361   2.635   4.640
 2701SOL    HW1 9002   5.390   2.726   4.610
 2701SOL    HW2 9003   5.305   2.592   4.569
 2702SOL     OW 9004   2.210   1.641   4.250
 2702SOL    HW1 9005   2.301   1.648   4.210
 2702SOL    HW2 9006   2.181   1.730   4.283
 2703SOL     OW 9007   1.531   5.517   1.413
 2703SOL    HW1 9008   1.435   5.524   1.387
 2703SOL    HW2 9009   1.560   5.421   1.404
 2704SOL     OW 9010   0.089   5.699   3.243
 2704SOL    HW1 9011   0.168   5.641   3.263
 2704SOL    HW2 9012   0.019   5.686   3.313
 2705SOL     OW 9013   7.023   1.259   5.481
 2705SOL    HW1 9014   7.023   1.233   5.578
 2705SOL    HW2 9015   6.962   1.337   5.467
 2706SOL     OW 9016   5.994   4.382   4.228
 2706SOL    HW1 9017   5.920   4.424   4.281
 2706SOL    HW2 9018   6.069   4.357   4.289
 2707SOL     OW 9019   4.138   6.809   3.030
 2707SOL    HW1 9020   4.068   6.822   2.959
 2707SOL    HW2 9021   4.122   6.873   3.105
 2708SOL     OW 9022   5.854   2.997   0.543
 2708SOL    HW1 9023   5.851   3.054   0.461
 2708SOL    HW2 9024   5.939   3.015   0.593
 2709SOL     OW 9025   5.105   6.872   6.165
 2709SOL    HW1 9026   5.148   6.808   6.229
 2709SOL    HW2 9027   5.010   6.887   6.192
 2710SOL     OW 9028   1.556   3.234   4.012
 2710SOL    HW1 9029   1.554   3.144   3.968
 2710SOL    HW2 9030   1.636   3.241   4.071
 2711SOL     OW 9031   3.615   1.811   3.515
 2711SOL    HW1 9032   3.663   1.776   3.435
 2711SOL    HW2 9033   3.682   1.828   3.588
 2712SOL     OW 9034   3.664   5.531   2.211
 2712SOL    HW1 9035   3.573   5.490   2.206
 2712SOL    HW2 9036   3.658   5.629   2.193
 2713SOL     OW 9037   4.802   4.478   6.389
 2713SOL    HW1 9038   4.795   4.571   6.354
 2713SOL    HW2 9039   4.763   4.474   6.481
 2714SOL     OW 9040   3.359   3.676   6.647
 2714SOL    HW1 9041   3.454   3.645   6.643
 2714SOL    HW2 9042   3.350   3.765   6.602
 2715SOL     OW 9043   5.456   1.727   1.108
 2715SOL    HW1 9044   5.525   1.791   1.075
 2715SOL    HW2 9045   5.458   1.725   1.208
 2716SOL     OW 9046   4.362   2.249   2.732
 2716SOL    HW1 9047   4.273   2.254   2.779
 2716SOL    HW2 9048   4.377   2.156   2.699
 2717SOL     OW 9049   0.829   0.580   2.084
 2717SOL    HW1 9050   0.881   0.496   2.097
 2717SOL    HW2 9051   0.794   0.611   2.173
 2718SOL     OW 9052   0.719   1.098   5.845
 2718SOL    HW1 9053   0.731   1.073   5.749
 2718SOL    HW2 9054   0.793   1.059   5.899
 2719SOL     OW 9055   1.452   4.424   2.583
 2719SOL    HW1 9056   1.432   4.401   2.679
 2719SOL    HW2 9057   1.446   4.342   2.527
 2720SOL     OW 9058   0.747   6.962   5.048
 2720SOL    HW1 9059   0.804   7.007   5.116
 2720SOL    HW2 9060   0.697   6.887   5.091
 2721SOL     OW 9061   3.219   6.218   1.640
 2721SOL    HW1 9062   3.261   6.154   1.575
 2721SOL    HW2 9063   3.127   6.188   1.662
 2722SOL     OW 9064   4.682   5.915   6.722
 2722SOL    HW1 9065   4.709   5.881   6.632
 2722SOL    HW2 9066   4.763   5.947   6.770
 2723SOL     OW 9067   3.282   6.555   6.965
 2723SOL    HW1 9068   3.361   6.493   6.971
 2723SOL    HW2 9069   3.315   6.650   6.964
 2724SOL     OW 9070   1.328   6.035   6.595
 2724SOL    HW1 9071   1.371   5.966   6.652
 2724SOL    HW2 9072   1.396   6.104   6.568
 2725SOL     OW 9073   5.419   3.858   4.005
 2725SOL    HW1 9074   5.444   3.950   3.973
 2725SOL    HW2 9075   5.461   3.790   3.945
 2726SOL     OW 9076   0.949   1.820   1.468
 2726SOL    HW1 9077   0.955   1.843   1.371
 2726SOL    HW2 9078   0.937   1.721   1.479
 2727SOL     OW 9079   2.182   4.137   3.851
 2727SOL    HW1 9080   2.176   4.153   3.950
 2727SOL    HW2 9081   2.097   4.165   3.808
 2728SOL     OW 9082   5.508   5.791   6.545
 2728SOL    HW1 9083   5.461   5.829   6.466
 2728SOL    HW2 9084   5.606   5.811   6.537
 2729SOL     OW 9085   5.731   6.825   6.946
 2729SOL    HW1 9086   5.825   6.791   6.948
 2729SOL    HW2 9087   5.697   6.828   6.852
 2730SOL     OW 9088   0.491   5.407   1.643
 2730SOL    HW1 9089   0.454   5.476   1.705
 2730SOL    HW2 9090   0.416   5.362   1.594
 2731SOL     OW 9091   3.104   3.293   3.655
 2731SOL    HW1 9092   3.180   3.238   3.689
 2731SOL    HW2 9093   3.140   3.374   3.609
 2732SOL     OW 9094   5.008   1.293   1.093
 2732SOL    HW1 9095   5.074   1.277   1.167
 2732SOL    HW2 9096   5.050   1.269   1.005
 2733SOL     OW 9097   6.899   1.154   5.951
 2733SOL    HW1 9098   6.924   1.106   6.036
 2733SOL    HW2 9099   6.871   1.247   5.973
 2734SOL     OW 9100   3.584   6.205   1.371
 2734SOL    HW1 9101   3.552   6.121   1.328
 2734SOL    HW2 9102   3.541   6.214   1.461
 2735SOL     OW 9103   1.215   1.942   0.513
 2735SOL    HW1 9104   1.177   1.853   0.539
 2735SOL    HW2 9105   1.164   1.979   0.436
 2736SOL     OW 9106   5.653   5.780   4.016
 2736SOL    HW1 9107   5.621   5.871   3.989
 2736SOL    HW2 9108   5.576   5.727   4.051
 2737SOL     OW 9109   2.824   2.145   6.207
 2737SOL    HW1 9110   2.900   2.161   6.144
 2737SOL    HW2 9111   2.860   2.131   6.300
 2738SOL     OW 9112   5.812   0.535   1.527
 2738SOL    HW1 9113   5.800   0.563   1.623
 2738SOL    HW2 9114   5.878   0.596   1.483
 2739SOL     OW 9115   1.094   5.268   1.204
 2739SOL    HW1 9116   0.995   5.251   1.209
 2739SOL    HW2 9117   1.120   5.286   1.109
 2740SOL     OW 9118   0.236   5.401   2.749
 2740SOL    HW1 9119   0.218   5.328   2.682
 2740SOL    HW2 9120   0.330   5.433   2.739
 2741SOL     OW 9121   1.134   2.398   4.226
 2741SOL    HW1 9122   1.191   2.449   4.290
 2741SOL    HW2 9123   1.158   2.301   4.230
 2742SOL     OW 9124   3.324   4.651   1.701
 2742SOL    HW1 9125   3.316   4.613   1.609
 2742SOL    HW2 9126   3.417   4.638   1.734
 2743SOL     OW 9127   6.986   4.805   1.999
 2743SOL    HW1 9128   0.051   4.837   2.025
 2743SOL    HW2 9129   6.993   4.751   1.915
 2744SOL     OW 9130   3.484   3.199   2.352
 2744SOL    HW1 9131   3.436   3.261   2.290
 2744SOL    HW2 9132   3.581   3.198   2.329
 2745SOL     OW 9133   6.414   1.625   5.789
 2745SOL    HW1 9134   6.467   1.704   5.756
 2745SOL    HW2 9135   6.324   1.657   5.820
 2746SOL     OW 9136   0.778   1.153   4.178
 2746SOL    HW1 9137   0.795   1.236   4.233
 2746SOL    HW2 9138   0.758   1.077   4.238
 2747SOL     OW 9139   3.809   5.842   6.863
 2747SOL    HW1 9140   3.800   5.894   6.948
 2747SOL    HW2 9141   3.742   5.768   6.862
 2748SOL     OW 9142   4.257   0.626   1.526
 2748SOL    HW1 9143   4.321   0.575   1.583
 2748SOL    HW2 9144   4.232   0.572   1.446
 2749SOL     OW 9145   1.052   3.490   0.276
 2749SOL    HW1 9146   1.148   3.505   0.301
 2749SOL    HW2 9147   1.028   3.547   0.198
 2750SOL     OW 9148   2.511   5.242   2.127
 2750SOL    HW1 9149   2.495   5.182   2.206
 2750SOL    HW2 9150   2.462   5.205   2.048
 2751SOL     OW 9151   2.001   1.903   1.479
 2751SOL    HW1 9152   2.062   1.824   1.484
 2751SOL    HW2 9153   2.043   1.975   1.425
 2752SOL     OW 9154   4.266   4.591   5.837
 2752SOL    HW1 9155   4.201   4.616   5.765
 2752SOL    HW2 9156   4.221   4.534   5.905
 2753SOL     OW 9157   5.932   6.403   5.088
 2753SOL    HW1 9158   5.843   6.400   5.135
 2753SOL    HW2 9159   5.920   6.441   4.996
 2754SOL     OW 9160   0.619   6.430   6.763
 2754SOL    HW1 9161   0.568   6.515   6.775
 2754SOL    HW2 9162   0.652   6.424   6.668
 2755SOL     OW 9163   2.886   6.767   2.776
 2755SOL    HW1 9164   2.846   6.684   2.736
 2755SOL    HW2 9165   2.982   6.773   2.749
 2756SOL     OW 9166   4.454   6.388   0.644
 2756SOL    HW1 9167   4.476   6.468   0.700
 2756SOL    HW2 9168   4.356   6.384   0.627
 2757SOL     OW 9169   1.680   5.279   0.473
 2757SOL    HW1 9170   1.599   5.222   0.460
 2757SOL    HW2 9171   1.713   5.267   0.567
 2758SOL     OW 9172   5.439   0.199   4.876
 2758SOL    HW1 9173   5.472   0.254   4.799
 2758SOL    HW2 9174   5.499   0.211   4.955
 2759SOL     OW 9175   5.455   6.519   4.448
 2759SOL    HW1 9176   5.401   6.517   4.532
 2759SOL    HW2 9177   5.452   6.611   4.409
 2760SOL     OW 9178   1.506   5.247   2.485
 2760SOL    HW1 9179   1.441   5.195   2.430
 2760SOL    HW2 9180   1.501   5.216   2.580
 2761SOL     OW 9181   1.790   4.799   3.737
 2761SOL    HW1 9182   1.809   4.751   3.823
 2761SOL    HW2 9183   1.834   4.750   3.662
 2762SOL     OW 9184   0.897   0.450   5.497
 2762SOL    HW1 9185   0.839   0.498   5.563
 2762SOL    HW2 9186   0.846   0.436   5.412
 2763SOL     OW 9187   5.750   2.152   3.891
 2763SOL    HW1 9188   5.837   2.141   3.939
 2763SOL    HW2 9189   5.737   2.075   3.829
 2764SOL     OW 9190   5.465   0.224   1.576
 2764SOL    HW1 9191   5.390   0.240   1.513
 2764SOL    HW2 9192   5.541   0.180   1.528
 2765SOL     OW 9193   5.390   1.053   1.627
 2765SOL    HW1 9194   5.381   1.054   1.727
 2765SOL    HW2 9195   5.438   0.970   1.599
 2766SOL     OW 9196   5.723   1.643   0.613
 2766SOL    HW1 9197   5.682   1.557   0.645
 2766SOL    HW2 9198   5.819   1.627   0.589
 2767SOL     OW 9199   6.658   4.952   6.994
 2767SOL    HW1 9200   6.594   4.875   7.000
 2767SOL    HW2 9201   6.686   4.966   6.899
 2768SOL     OW 9202   5.787   1.400   0.282
 2768SOL    HW1 9203   5.868   1.342   0.291
 2768SOL    HW2 9204   5.709   1.355   0.324
 2769SOL     OW 9205   6.325   4.459   3.641
 2769SOL    HW1 9206   6.232   4.422   3.631
 2769SOL    HW2 9207   6.389   4.383   3.653
 2770SOL     OW 9208   1.536   5.422   0.156
 2770SOL    HW1 9209   1.583   5.334   0.145
 2770SOL    HW2 9210   1.515   5.436   0.253
 2771SOL     OW 9211   5.280   1.362   1.238
 2771SOL    HW1 9212   5.317   1.422   1.166
 2771SOL    HW2 9213   5.291   1.267   1.211
 2772SOL     OW 9214   4.562   2.255   0.514
 2772SOL    HW1 9215   4.506   2.179   0.480
 2772SOL    HW2 9216   4.511   2.340   0.509
 2773SOL     OW 9217   4.217   3.053   5.950
 2773SOL    HW1 9218   4.246   2.963   5.916
 2773SOL    HW2 9219   4.138   3.042   6.011
 2774SOL     OW 9220   6.251   2.899   2.893
 2774SOL    HW1 9221   6.253   2.800   2.883
 2774SOL    HW2 9222   6.163   2.934   2.860
 2775SOL     OW 9223   6.803   5.641   0.730
 2775SOL    HW1 9224   6.849   5.681   0.810
 2775SOL    HW2 9225   6.725   5.697   0.705
 2776SOL     OW 9226   4.143   5.553   5.373
 2776SOL    HW1 9227   4.160   5.547   5.472
 2776SOL    HW2 9228   4.079   5.481   5.346
 2777SOL     OW 9229   3.186   1.163   2.588
 2777SOL    HW1 9230   3.133   1.246   2.574
 2777SOL    HW2 9231   3.126   1.083   2.579
 2778SOL     OW 9232   1.762   1.279   5.578
 2778SOL    HW1 9233   1.673   1.239   5.560
 2778SOL    HW2 9234   1.830   1.207   5.587
 2779SOL     OW 9235   4.427   0.407   0.586
 2779SOL    HW1 9236   4.515   0.370   0.616
 2779SOL    HW2 9237   4.416   0.390   0.488
 2780SOL     OW 9238   6.153   5.664   5.903
 2780SOL    HW1 9239   6.105   5.643   5.988
 2780SOL    HW2 9240   6.141   5.588   5.838
 2781SOL     OW 9241   6.209   5.634   1.782
 2781SOL    HW1 9242   6.296   5.679   1.805
 2781SOL    HW2 9243   6.205   5.618   1.683
 2782SOL     OW 9244   3.279   2.433   6.610
 2782SOL    HW1 9245   3.373   2.455   6.635
 2782SOL    HW2 9246   3.278   2.350   6.555
 2783SOL     OW 9247   5.934   3.177   4.977
 2783SOL    HW1 9248   5.907   3.256   4.922
 2783SOL    HW2 9249   6.015   3.199   5.030
 2784SOL     OW 9250   2.209   2.309   1.118
 2784SOL    HW1 9251   2.188   2.346   1.028
 2784SOL    HW2 9252   2.188   2.379   1.187
 2785SOL     OW 9253   6.253   1.293   0.171
 2785SOL    HW1 9254   6.300   1.376   0.140
 2785SOL    HW2 9255   6.181   1.269   0.106
 2786SOL     OW 9256   3.606   0.124   1.421
 2786SOL    HW1 9257   3.634   0.042   1.372
 2786SOL    HW2 9258   3.522   0.105   1.473
 2787SOL     OW 9259   2.574   3.473   6.561
 2787SOL    HW1 9260   2.572   3.403   6.632
 2787SOL    HW2 9261   2.624   3.439   6.481
 2788SOL     OW 9262   2.285   4.249   0.357
 2788SOL    HW1 9263   2.324   4.210   0.440
 2788SOL    HW2 9264   2.334   4.332   0.332
 2789SOL     OW 9265   1.540   2.099   4.187
 2789SOL    HW1 9266   1.579   2.033   4.251
 2789SOL    HW2 9267   1.552   2.191   4.222
 2790SOL     OW 9268   3.408   5.324   2.510
 2790SOL    HW1 9269   3.378   5.285   2.597
 2790SOL    HW2 9270   3.492   5.279   2.480
 2791SOL     OW 9271   1.867   4.307   5.018
 2791SOL    HW1 9272   1.932   4.232   5.026
 2791SOL    HW2 9273   1.903   4.376   4.954
 2792SOL     OW 9274   1.594   0.330   5.301
 2792SOL    HW1 9275   1.588   0.247   5.356
 2792SOL    HW2 9276   1.524   0.328   5.230
 2793SOL     OW 9277   4.933   1.652   2.506
 2793SOL    HW1 9278   4.888   1.734   2.543
 2793SOL    HW2 9279   4.927   1.653   2.407
 2794SOL     OW 9280   0.007   2.779   0.439
 2794SOL    HW1 9281   0.063   2.841   0.385
 2794SOL    HW2 9282   0.032   2.685   0.418
 2795SOL     OW 9283   3.061   4.035   1.496
 2795SOL    HW1 9284   3.033   4.021   1.591
 2795SOL    HW2 9285   2.987   4.082   1.447
 2796SOL     OW 9286   6.325   4.184   2.828
 2796SOL    HW1 9287   6.293   4.215   2.738
 2796SOL    HW2 9288   6.266   4.111   2.861
 2797SOL     OW 9289   5.392   5.655   5.008
 2797SOL    HW1 9290   5.444   5.616   4.933
 2797SOL    HW2 9291   5.402   5.754   5.010
 2798SOL     OW 9292   0.783   4.049   2.784
 2798SOL    HW1 9293   0.683   4.052   2.786
 2798SOL    HW2 9294   0.813   3.959   2.752
 2799SOL     OW 9295   0.201   5.820   6.973
 2799SOL    HW1 9296   0.253   5.885   0.002
 2799SOL    HW2 9297   0.217   5.837   6.876
 2800SOL     OW 9298   4.563   4.227   6.669
 2800SOL    HW1 9299   4.541   4.324   6.680
 2800SOL    HW2 9300   4.656   4.217   6.634
 2801SOL     OW 9301   4.278   6.178   3.370
 2801SOL    HW1 9302   4.204   6.129   3.324
 2801SOL    HW2 9303   4.365   6.152   3.329
 2802SOL     OW 9304   4.255   3.107   6.366
 2802SOL    HW1 9305   4.172   3.131   6.317
 2802SOL    HW2 9306   4.265   3.166   6.447
 2803SOL     OW 9307   2.330   6.270   5.748
 2803SOL    HW1 9308   2.346   6.301   5.842
 2803SOL    HW2 9309   2.239   6.300   5.718
 2804SOL     OW 9310   6.327   4.608   3.378
 2804SOL    HW1 9311   6.340   4.566   3.468
 2804SOL    HW2 9312   6.311   4.536   3.310
 2805SOL     OW 9313   4.442   3.660   1.397
 2805SOL    HW1 9314   4.361   3.648   1.455
 2805SOL    HW2 9315   4.476   3.754   1.406
 2806SOL     OW 9316   5.830   5.231   3.277
 2806SOL    HW1 9317   5.846   5.311   3.333
 2806SOL    HW2 9318   5.897   5.160   3.299
 2807SOL     OW 9319   5.781   4.698   3.624
 2807SOL    HW1 9320   5.693   4.668   3.660
 2807SOL    HW2 9321   5.787   4.798   3.628
 2808SOL     OW 9322   4.262   1.260   3.113
 2808SOL    HW1 9323   4.287   1.315   3.033
 2808SOL    HW2 9324   4.332   1.191   3.129
 2809SOL     OW 9325   6.796   2.243   1.403
 2809SOL    HW1 9326   6.820   2.256   1.307
 2809SOL    HW2 9327   6.756   2.327   1.439
 2810SOL     OW 9328   3.420   6.526   4.653
 2810SOL    HW1 9329   3.426   6.549   4.556
 2810SOL    HW2 9330   3.468   6.595   4.707
 2811SOL     OW 9331   0.623   0.890   2.641
 2811SOL    HW1 9332   0.720   0.913   2.642
 2811SOL    HW2 9333   0.607   0.816   2.575
 2812SOL     OW 9334   5.046   3.567   1.865
 2812SOL    HW1 9335   5.125   3.537   1.812
 2812SOL    HW2 9336   4.974   3.497   1.860
 2813SOL     OW 9337   5.755   0.067   5.782
 2813SOL    HW1 9338   5.848   0.083   5.749
 2813SOL    HW2 9339   5.697   0.145   5.760
 2814SOL     OW 9340   4.280   2.963   0.092
 2814SOL    HW1 9341   4.211   3.017   0.045
 2814SOL    HW2 9342   4.294   3.000   0.184
 2815SOL     OW 9343   0.006   1.250   4.632
 2815SOL    HW1 9344   6.990   1.188   4.697
 2815SOL    HW2 9345   6.986   1.339   4.636
 2816SOL     OW 9346   6.498   6.484   3.833
 2816SOL    HW1 9347   6.578   6.490   3.774
 2816SOL    HW2 9348   6.415   6.484   3.778
 2817SOL     OW 9349   1.696   0.219   1.339
 2817SOL    HW1 9350   1.791   0.240   1.362
 2817SOL    HW2 9351   1.667   0.138   1.389
 2818SOL     OW 9352   6.862   5.323   0.009
 2818SOL    HW1 9353   6.806   5.401   7.007
 2818SOL    HW2 9354   6.827   5.286   0.095
 2819SOL     OW 9355   0.643   1.851   0.721
 2819SOL    HW1 9356   0.586   1.931   0.705
 2819SOL    HW2 9357   0.684   1.820   0.635
 2820SOL     OW 9358   0.372   2.629   2.625
 2820SOL    HW1 9359   0.388   2.600   2.531
 2820SOL    HW2 9360   0.410   2.720   2.639
 2821SOL     OW 9361   3.046   4.418   6.694
 2821SOL    HW1 9362   3.099   4.373   6.766
 2821SOL    HW2 9363   3.058   4.517   6.702
 2822SOL     OW 9364   3.998   2.602   0.577
 2822SOL    HW1 9365   4.015   2.675   0.510
 2822SOL    HW2 9366   3.920   2.547   0.548
 2823SOL     OW 9367   2.219   6.644   1.635
 2823SOL    HW1 9368   2.219   6.737   1.600
 2823SOL    HW2 9369   2.131   6.624   1.679
 2824SOL     OW 9370   2.451   1.239   5.053
 2824SOL    HW1 9371   2.482   1.330   5.082
 2824SOL    HW2 9372   2.351   1.240   5.041
 2825SOL     OW 9373   6.298   6.873   0.495
 2825SOL    HW1 9374   6.392   6.859   0.463
 2825SOL    HW2 9375   6.289   6.839   0.589
 2826SOL     OW 9376   5.428   2.189   6.374
 2826SOL    HW1 9377   5.466   2.160   6.286
 2826SOL    HW2 9378   5.449   2.122   6.444
 2827SOL     OW 9379   6.854   1.026   5.361
 2827SOL    HW1 9380   6.814   1.022   5.270
 2827SOL    HW2 9381   6.852   1.121   5.394
 2828SOL     OW 9382   3.631   1.169   6.301
 2828SOL    HW1 9383   3.715   1.136   6.260
 2828SOL    HW2 9384   3.559   1.100   6.291
 2829SOL     OW 9385   4.103   4.305   6.435
 2829SOL    HW1 9386   4.061   4.255   6.511
 2829SOL    HW2 9387   4.158   4.381   6.472
 2830SOL     OW 9388   6.928   4.623   6.827
 2830SOL    HW1 9389   6.928   4.713   6.783
 2830SOL    HW2 9390   6.998   4.565   6.786
 2831SOL     OW 9391   6.855   6.441   4.640
 2831SOL    HW1 9392   6.766   6.395   4.643
 2831SOL    HW2 9393   6.926   6.377   4.611
 2832SOL     OW 9394   0.543   1.274   1.473
 2832SOL    HW1 9395   0.642   1.283   1.466
 2832SOL    HW2 9396   0.500   1.323   1.397
 2833SOL     OW 9397   5.537   1.576   2.217
 2833SOL    HW1 9398   5.484   1.492   2.218
 2833SOL    HW2 9399   5.521   1.626   2.132
 2834SOL     OW 9400   2.600   0.765   6.036
 2834SOL    HW1 9401   2.602   0.865   6.035
 2834SOL    HW2 9402   2.642   0.729   5.952
 2835SOL     OW 9403   0.358   6.883   1.714
 2835SOL    HW1 9404   0.299   6.896   1.634
 2835SOL    HW2 9405   0.317   6.928   1.793
 2836SOL     OW 9406   6.960   0.277   1.158
 2836SOL    HW1 9407   6.965   0.244   1.063
 2836SOL    HW2 9408   7.015   0.217   1.217
 2837SOL     OW 9409   5.677   3.055   3.256
 2837SOL    HW1 9410   5.643   3.147   3.275
 2837SOL    HW2 9411   5.628   2.988   3.313
 2838SOL     OW 9412   2.081   4.280   1.656
 2838SOL    HW1 9413   2.121   4.228   1.731
 2838SOL    HW2 9414   2.076   4.222   1.574
 2839SOL     OW 9415   5.949   1.396   2.088
 2839SOL    HW1 9416   6.005   1.457   2.032
 2839SOL    HW2 9417   5.853   1.418   2.076
 2840SOL     OW 9418   0.384   1.027   4.333
 2840SOL    HW1 9419   0.476   0.991   4.352
 2840SOL    HW2 9420   0.371   1.113   4.383
 2841SOL     OW 9421   0.013   0.621   6.300
 2841SOL    HW1 9422   0.026   0.526   6.274
 2841SOL    HW2 9423   6.965   0.661   6.246
 2842SOL     OW 9424   0.336   2.137   3.940
 2842SOL    HW1 9425   0.267   2.146   3.868
 2842SOL    HW2 9426   0.351   2.225   3.983
 2843SOL     OW 9427   3.126   1.715   4.152
 2843SOL    HW1 9428   3.153   1.811   4.149
 2843SOL    HW2 9429   3.162   1.673   4.235
 2844SOL     OW 9430   1.106   3.781   0.168
 2844SOL    HW1 9431   1.154   3.842   0.105
 2844SOL    HW2 9432   1.170   3.749   0.238
 2845SOL     OW 9433   0.991   3.353   0.822
 2845SOL    HW1 9434   0.977   3.381   0.917
 2845SOL    HW2 9435   0.966   3.257   0.812
 2846SOL     OW 9436   4.991   1.833   6.969
 2846SOL    HW1 9437   5.015   1.893   0.018
 2846SOL    HW2 9438   5.074   1.801   6.923
 2847SOL     OW 9439   5.306   3.730   3.505
 2847SOL    HW1 9440   5.264   3.712   3.594
 2847SOL    HW2 9441   5.274   3.662   3.439
 2848SOL     OW 9442   0.337   4.724   6.259
 2848SOL    HW1 9443   0.239   4.710   6.244
 2848SOL    HW2 9444   0.376   4.772   6.181
 2849SOL     OW 9445   3.531   0.344   1.255
 2849SOL    HW1 9446   3.439   0.378   1.277
 2849SOL    HW2 9447   3.560   0.279   1.325
 2850SOL     OW 9448   3.596   0.709   1.828
 2850SOL    HW1 9449   3.526   0.664   1.884
 2850SOL    HW2 9450   3.567   0.711   1.733
 2851SOL     OW 9451   0.959   4.356   5.220
 2851SOL    HW1 9452   1.013   4.289   5.271
 2851SOL    HW2 9453   0.917   4.420   5.284
 2852SOL     OW 9454   5.434   4.134   6.861
 2852SOL    HW1 9455   5.459   4.228   6.883
 2852SOL    HW2 9456   5.449   4.076   6.942
 2853SOL     OW 9457   2.936   2.231   6.706
 2853SOL    HW1 9458   3.026   2.237   6.749
 2853SOL    HW2 9459   2.886   2.153   6.744
 2854SOL     OW 9460   2.991   1.346   4.348
 2854SOL    HW1 9461   3.018   1.280   4.277
 2854SOL    HW2 9462   2.892   1.344   4.359
 2855SOL     OW 9463   1.679   0.607   6.043
 2855SOL    HW1 9464   1.700   0.676   6.113
 2855SOL    HW2 9465   1.737   0.528   6.057
 2856SOL     OW 9466   2.236   2.885   6.124
 2856SOL    HW1 9467   2.155   2.924   6.169
 2856SOL    HW2 9468   2.249   2.928   6.035
 2857SOL     OW 9469   3.049   1.589   1.441
 2857SOL    HW1 9470   3.080   1.630   1.527
 2857SOL    HW2 9471   3.122   1.534   1.402
 2858SOL     OW 9472   6.335   3.395   1.954
 2858SOL    HW1 9473   6.329   3.322   2.022
 2858SOL    HW2 9474   6.420   3.386   1.902
 2859SOL     OW 9475   5.211   1.914   0.648
 2859SOL    HW1 9476   5.292   1.869   0.609
 2859SOL    HW2 9477   5.210   1.901   0.747
 2860SOL     OW 9478   3.874   1.864   1.090
 2860SOL    HW1 9479   3.870   1.842   1.188
 2860SOL    HW2 9480   3.957   1.825   1.050
 2861SOL     OW 9481   4.670   5.364   5.555
 2861SOL    HW1 9482   4.571   5.365   5.556
 2861SOL    HW2 9483   4.703   5.397   5.466
 2862SOL     OW 9484   5.998   1.607   3.328
 2862SOL    HW1 9485   6.097   1.599   3.313
 2862SOL    HW2 9486   5.966   1.529   3.381
 2863SOL     OW 9487   5.826   1.093   0.090
 2863SOL    HW1 9488   5.881   1.138   0.161
 2863SOL    HW2 9489   5.848   1.132   0.001
 2864SOL     OW 9490   3.903   0.307   0.967
 2864SOL    HW1 9491   4.002   0.296   0.968
 2864SOL    HW2 9492   3.870   0.319   1.060
 2865SOL     OW 9493   4.971   4.483   5.127
 2865SOL    HW1 9494   5.030   4.425   5.183
 2865SOL    HW2 9495   4.986   4.464   5.031
 2866SOL     OW 9496   6.527   6.773   0.381
 2866SOL    HW1 9497   6.625   6.766   0.364
 2866SOL    HW2 9498   6.487   6.681   0.383
 2867SOL     OW 9499   5.536   4.124   2.008
 2867SOL    HW1 9500   5.600   4.125   2.085
 2867SOL    HW2 9501   5.560   4.197   1.943
 2868SOL     OW 9502   0.752   3.575   5.329
 2868SOL    HW1 9503   0.779   3.480   5.344
 2868SOL    HW2 9504   0.814   3.617   5.263
 2869SOL     OW 9505   6.110   1.110   3.150
 2869SOL    HW1 9506   6.174   1.109   3.227
 2869SOL    HW2 9507   6.032   1.051   3.171
 2870SOL     OW 9508   6.947   1.470   4.516
 2870SOL    HW1 9509   7.018   1.437   4.454
 2870SOL    HW2 9510   6.944   1.570   4.513
 2871SOL     OW 9511   2.120   1.834   6.577
 2871SOL    HW1 9512   2.153   1.866   6.488
 2871SOL    HW2 9513   2.023   1.857   6.587
 2872SOL     OW 9514   2.911   1.629   4.001
 2872SOL    HW1 9515   2.953   1.645   3.912
 2872SOL    HW2 9516   2.979   1.639   4.073
 2873SOL     OW 9517   0.950   5.149   3.404
 2873SOL    HW1 9518   0.977   5.075   3.466
 2873SOL    HW2 9519   0.983   5.236   3.438
 2874SOL     OW 9520   4.972   5.217   2.116
 2874SOL    HW1 9521   5.008   5.153   2.184
 2874SOL    HW2 9522   5.045   5.279   2.087
 2875SOL     OW 9523   4.096   6.321   6.387
 2875SOL    HW1 9524   4.178   6.268   6.406
 2875SOL    HW2 9525   4.038   6.271   6.323
 2876SOL     OW 9526   0.550   0.222   1.941
 2876SOL    HW1 9527   0.567   0.227   1.843
 2876SOL    HW2 9528   0.457   0.254   1.961
 2877SOL     OW 9529   3.554   2.898   5.385
 2877SOL    HW1 9530   3.483   2.876   5.318
 2877SOL    HW2 9531   3.543   2.840   5.466
 2878SOL     OW 9532   3.443   4.983   4.406
 2878SOL    HW1 9533   3.392   5.003   4.490
 2878SOL    HW2 9534   3.382   4.938   4.341
 2879SOL     OW 9535   4.923   5.428   0.168
 2879SOL    HW1 9536   4.867   5.458   0.245
 2879SOL    HW2 9537   5.016   5.463   0.180
 2880SOL     OW 9538   6.162   6.411   0.279
 2880SOL    HW1 9539   6.124   6.339   0.337
 2880SOL    HW2 9540   6.088   6.468   0.245
 2881SOL     OW 9541   5.848   6.256   0.807
 2881SOL    HW1 9542   5.846   6.198   0.888
 2881SOL    HW2 9543   5.800   6.342   0.826
 2882SOL     OW 9544   0.476   3.379   2.599
 2882SOL    HW1 9545   0.452   3.330   2.683
 2882SOL    HW2 9546   0.438   3.332   2.520
 2883SOL     OW 9547   4.352   6.574   3.602
 2883SOL    HW1 9548   4.347   6.497   3.539
 2883SOL    HW2 9549   4.336   6.542   3.696
 2884SOL     OW 9550   0.778   6.057   3.168
 2884SOL    HW1 9551   0.817   6.142   3.204
 2884SOL    HW2 9552   0.842   6.016   3.103
 2885SOL     OW 9553   0.167   2.560   3.259
 2885SOL    HW1 9554   0.123   2.529   3.175
 2885SOL    HW2 9555   0.253   2.510   3.272
 2886SOL     OW 9556   2.277   3.342   6.689
 2886SOL    HW1 9557   2.325   3.281   6.752
 2886SOL    HW2 9558   2.179   3.320   6.690
 2887SOL     OW 9559   2.217   0.072   5.265
 2887SOL    HW1 9560   2.182   0.144   5.204
 2887SOL    HW2 9561   2.148   0.001   5.276
 2888SOL     OW 9562   0.098   5.193   6.642
 2888SOL    HW1 9563   0.022   5.202   6.706
 2888SOL    HW2 9564   0.063   5.194   6.548
 2889SOL     OW 9565   1.520   0.897   2.393
 2889SOL    HW1 9566   1.472   0.822   2.439
 2889SOL    HW2 9567   1.482   0.909   2.301
 2890SOL     OW 9568   2.912   0.548   1.490
 2890SOL    HW1 9569   2.850   0.600   1.548
 2890SOL    HW2 9570   2.900   0.575   1.394
 2891SOL     OW 9571   2.496   4.687   3.284
 2891SOL    HW1 9572   2.439   4.769   3.282
 2891SOL    HW2 9573   2.485   4.641   3.372
 2892SOL     OW 9574   5.190   4.219   0.152
 2892SOL    HW1 9575   5.125   4.269   0.209
 2892SOL    HW2 9576   5.198   4.125   0.186
 2893SOL     OW 9577   1.643   6.451   5.582
 2893SOL    HW1 9578   1.704   6.399   5.522
 2893SOL    HW2 9579   1.554   6.406   5.587
 2894SOL     OW 9580   3.124   2.508   6.819
 2894SOL    HW1 9581   3.135   2.423   6.870
 2894SOL    HW2 9582   3.177   2.504   6.735
 2895SOL     OW 9583   4.031   3.049   6.649
 2895SOL    HW1 9584   3.957   2.982   6.644
 2895SOL    HW2 9585   4.108   3.010   6.698
 2896SOL     OW 9586   2.727   5.139   6.517
 2896SOL    HW1 9587   2.640   5.159   6.562
 2896SOL    HW2 9588   2.730   5.043   6.490
 2897SOL     OW 9589   2.325   6.377   4.046
 2897SOL    HW1 9590   2.269   6.387   4.128
 2897SOL    HW2 9591   2.395   6.306   4.061
 2898SOL     OW 9592   4.541   4.586   2.940
 2898SOL    HW1 9593   4.596   4.522   2.993
 2898SOL    HW2 9594   4.601   4.645   2.886
 2899SOL     OW 9595   0.272   1.569   6.588
 2899SOL    HW1 9596   0.324   1.652   6.573
 2899SOL    HW2 9597   0.315   1.493   6.540
 2900SOL     OW 9598   1.581   4.851   5.503
 2900SOL    HW1 9599   1.521   4.893   5.572
 2900SOL    HW2 9600   1.618   4.922   5.444
 2901SOL     OW 9601   1.341   6.989   2.586
 2901SOL    HW1 9602   1.393   0.040   2.549
 2901SOL    HW2 9603   1.268   7.024   2.645
 2902SOL     OW 9604   5.577   6.586   0.625
 2902SOL    HW1 9605   5.547   6.497   0.589
 2902SOL    HW2 9606   5.502   6.628   0.676
 2903SOL     OW 9607   3.217   6.781   1.981
 2903SOL    HW1 9608   3.233   6.690   2.020
 2903SOL    HW2 9609   3.262   6.788   1.893
 2904SOL     OW 9610   2.456   3.228   5.366
 2904SOL    HW1 9611   2.461   3.151   5.303
 2904SOL    HW2 9612   2.483   3.198   5.458
 2905SOL     OW 9613   1.171   1.764   2.725
 2905SOL    HW1 9614   1.210   1.754   2.633
 2905SOL    HW2 9615   1.176   1.860   2.753
 2906SOL     OW 9616   5.132   5.279   2.521
 2906SOL    HW1 9617   5.093   5.271   2.613
 2906SOL    HW2 9618   5.131   5.375   2.493
 2907SOL     OW 9619   6.320   1.018   4.879
 2907SOL    HW1 9620   6.305   1.113   4.907
 2907SOL    HW2 9621   6.269   0.957   4.939
 2908SOL     OW 9622   3.990   6.418   3.928
 2908SOL    HW1 9623   3.925   6.483   3.966
 2908SOL    HW2 9624   3.943   6.332   3.907
 2909SOL     OW 9625   0.624   4.939   4.813
 2909SOL    HW1 9626   0.624   4.869   4.884
 2909SOL    HW2 9627   0.691   5.010   4.835
 2910SOL     OW 9628   3.904   6.411   4.428
 2910SOL    HW1 9629   3.895   6.447   4.521
 2910SOL    HW2 9630   3.948   6.479   4.370
 2911SOL     OW 9631   2.330   5.549   3.973
 2911SOL    HW1 9632   2.363   5.542   4.067
 2911SOL    HW2 9633   2.398   5.599   3.918
 2912SOL     OW 9634   3.059   6.250   0.430
 2912SOL    HW1 9635   3.034   6.329   0.374
 2912SOL    HW2 9636   3.011   6.169   0.396
 2913SOL     OW 9637   1.942   4.619   2.907
 2913SOL    HW1 9638   1.905   4.705   2.942
 2913SOL    HW2 9639   1.876   4.577   2.844
 2914SOL     OW 9640   5.827   5.101   6.381
 2914SOL    HW1 9641   5.900   5.033   6.377
 2914SOL    HW2 9642   5.739   5.058   6.367
 2915SOL     OW 9643   4.656   1.784   3.984
 2915SOL    HW1 9644   4.588   1.852   3.957
 2915SOL    HW2 9645   4.747   1.825   3.987
 2916SOL     OW 9646   6.234   4.781   6.019
 2916SOL    HW1 9647   6.287   4.768   5.935
 2916SOL    HW2 9648   6.138   4.795   5.994
 2917SOL     OW 9649   3.790   0.325   1.481
 2917SOL    HW1 9650   3.855   0.283   1.544
 2917SOL    HW2 9651   3.708   0.267   1.473
 2918SOL     OW 9652   6.979   2.820   3.628
 2918SOL    HW1 9653   0.017   2.750   3.595
 2918SOL    HW2 9654   6.978   2.820   3.728
 2919SOL     OW 9655   6.218   0.377   0.090
 2919SOL    HW1 9656   6.258   0.347   0.004
 2919SOL    HW2 9657   6.287   0.424   0.145
 2920SOL     OW 9658   3.602   2.097   2.620
 2920SOL    HW1 9659   3.523   2.070   2.565
 2920SOL    HW2 9660   3.571   2.141   2.704
 2921SOL     OW 9661   6.837   0.969   2.719
 2921SOL    HW1 9662   6.801   1.019   2.798
 2921SOL    HW2 9663   6.935   0.988   2.710
 2922SOL     OW 9664   5.754   6.635   0.150
 2922SOL    HW1 9665   5.710   6.547   0.134
 2922SOL    HW2 9666   5.727   6.700   0.079
 2923SOL     OW 9667   0.039   5.415   2.170
 2923SOL    HW1 9668   0.003   5.437   2.261
 2923SOL    HW2 9669   0.074   5.321   2.170
 2924SOL     OW 9670   0.027   1.938   6.192
 2924SOL    HW1 9671   0.073   1.859   6.231
 2924SOL    HW2 9672   0.075   1.968   6.110
 2925SOL     OW 9673   5.666   0.993   3.135
 2925SOL    HW1 9674   5.713   0.906   3.143
 2925SOL    HW2 9675   5.733   1.067   3.129
 2926SOL     OW 9676   6.951   1.517   5.147
 2926SOL    HW1 9677   6.901   1.602   5.130
 2926SOL    HW2 9678   0.013   1.538   5.189
 2927SOL     OW 9679   1.785   2.048   2.353
 2927SOL    HW1 9680   1.757   1.959   2.315
 2927SOL    HW2 9681   1.719   2.118   2.325
 2928SOL     OW 9682   6.435   2.208   6.582
 2928SOL    HW1 9683   6.413   2.132   6.521
 2928SOL    HW2 9684   6.529   2.238   6.566
 2929SOL     OW 9685   1.035   1.197   5.755
 2929SOL    HW1 9686   1.063   1.165   5.665
 2929SOL    HW2 9687   0.948   1.246   5.748
 2930SOL     OW 9688   4.635   6.605   5.006
 2930SOL    HW1 9689   4.651   6.520   5.057
 2930SOL    HW2 9690   4.549   6.646   5.037
 2931SOL     OW 9691   5.077   5.937   6.479
 2931SOL    HW1 9692   5.001   5.923   6.415
 2931SOL    HW2 9693   5.040   5.964   6.568
 2932SOL     OW 9694   1.420   4.924   2.076
 2932SOL    HW1 9695   1.419   4.868   2.158
 2932SOL    HW2 9696   1.383   4.872   1.999
 2933SOL     OW 9697   5.377   2.694   3.944
 2933SOL    HW1 9698   5.285   2.685   3.982
 2933SOL    HW2 9699   5.408   2.606   3.909
 2934SOL     OW 9700   3.789   0.842   1.049
 2934SOL    HW1 9701   3.725   0.903   1.002
 2934SOL    HW2 9702   3.836   0.891   1.122
 2935SOL     OW 9703   6.605   2.947   1.499
 2935SOL    HW1 9704   6.537   3.017   1.477
 2935SOL    HW2 9705   6.630   2.955   1.595
 2936SOL     OW 9706   4.903   5.631   1.608
 2936SOL    HW1 9707   5.003   5.640   1.610
 2936SOL    HW2 9708   4.877   5.554   1.550
 2937SOL     OW 9709   3.400   5.109   0.720
 2937SOL    HW1 9710   3.336   5.130   0.646
 2937SOL    HW2 9711   3.356   5.127   0.808
 2938SOL     OW 9712   4.860   4.790   5.345
 2938SOL    HW1 9713   4.929   4.775   5.415
 2938SOL    HW2 9714   4.834   4.703   5.303
 2939SOL     OW 9715   0.364   6.630   4.532
 2939SOL    HW1 9716   0.429   6.578   4.586
 2939SOL    HW2 9717   0.328   6.706   4.587
 2940SOL     OW 9718   5.874   0.456   5.037
 2940SOL    HW1 9719   5.965   0.467   5.077
 2940SOL    HW2 9720   5.809   0.430   5.109
 2941SOL     OW 9721   1.712   2.491   5.697
 2941SOL    HW1 9722   1.661   2.540   5.627
 2941SOL    HW2 9723   1.780   2.431   5.654
 2942SOL     OW 9724   2.494   0.781   2.245
 2942SOL    HW1 9725   2.395   0.772   2.235
 2942SOL    HW2 9726   2.532   0.823   2.163
 2943SOL     OW 9727   5.266   3.359   3.170
 2943SOL    HW1 9728   5.225   3.408   3.093
 2943SOL    HW2 9729   5.241   3.262   3.165
 2944SOL     OW 9730   3.225   5.546   5.485
 2944SOL    HW1 9731   3.256   5.548   5.390
 2944SOL    HW2 9732   3.294   5.500   5.541
 2945SOL     OW 9733   4.098   3.693   3.489
 2945SOL    HW1 9734   4.044   3.610   3.505
 2945SOL    HW2 9735   4.082   3.725   3.396
 2946SOL     OW 9736   6.936   5.480   5.601
 2946SOL    HW1 9737   6.886   5.548   5.548
 2946SOL    HW2 9738   6.910   5.488   5.698
 2947SOL     OW 9739   0.933   3.766   0.381
 2947SOL    HW1 9740   0.976   3.710   0.452
 2947SOL    HW2 9741   0.999   3.782   0.307
 2948SOL     OW 9742   6.255   3.792   5.460
 2948SOL    HW1 9743   6.261   3.892   5.468
 2948SOL    HW2 9744   6.230   3.768   5.367
 2949SOL     OW 9745   1.820   6.326   1.284
 2949SOL    HW1 9746   1.874   6.409   1.292
 2949SOL    HW2 9747   1.816   6.297   1.188
 2950SOL     OW 9748   5.466   3.526   4.688
 2950SOL    HW1 9749   5.508   3.452   4.741
 2950SOL    HW2 9750   5.448   3.603   4.748
 2951SOL     OW 9751   7.015   2.749   0.090
 2951SOL    HW1 9752   0.082   2.728   0.123
 2951SOL    HW2 9753   6.949   2.690   0.135
 2952SOL     OW 9754   1.530   4.800   3.885
 2952SOL    HW1 9755   1.596   4.819   3.812
 2952SOL    HW2 9756   1.467   4.877   3.893
 2953SOL     OW 9757   5.149   2.466   2.464
 2953SOL    HW1 9758   5.061   2.428   2.436
 2953SOL    HW2 9759   5.165   2.553   2.416
 2954SOL     OW 9760   1.029   6.230   2.056
 2954SOL    HW1 9761   1.004   6.133   2.044
 2954SOL    HW2 9762   1.004   6.281   1.974
 2955SOL     OW 9763   0.627   3.124   0.188
 2955SOL    HW1 9764   0.602   3.175   0.271
 2955SOL    HW2 9765   0.655   3.188   0.117
 2956SOL     OW 9766   6.961   6.021   2.495
 2956SOL    HW1 9767   0.014   6.082   2.506
 2956SOL    HW2 9768   6.877   6.073   2.510
 2957SOL     OW 9769   6.794   3.729   1.053
 2957SOL    HW1 9770   6.704   3.710   1.013
 2957SOL    HW2 9771   6.861   3.665   1.015
 2958SOL     OW 9772   2.495   4.538   4.846
 2958SOL    HW1 9773   2.552   4.620   4.843
 2958SOL    HW2 9774   2.477   4.514   4.942
 2959SOL     OW 9775   5.021   4.682   6.849
 2959SOL    HW1 9776   5.021   4.767   6.798
 2959SOL    HW2 9777   5.022   4.605   6.786
 2960SOL     OW 9778   3.109   1.120   6.634
 2960SOL    HW1 9779   3.196   1.138   6.679
 2960SOL    HW2 9780   3.122   1.114   6.535
 2961SOL     OW 9781   5.205   2.871   4.332
 2961SOL    HW1 9782   5.296   2.911   4.337
 2961SOL    HW2 9783   5.209   2.774   4.353
 2962SOL     OW 9784   4.959   0.727   3.928
 2962SOL    HW1 9785   4.962   0.760   4.022
 2962SOL    HW2 9786   4.863   0.713   3.901
 2963SOL     OW 9787   2.055   1.614   5.902
 2963SOL    HW1 9788   2.127   1.676   5.933
 2963SOL    HW2 9789   2.037   1.629   5.805
 2964SOL     OW 9790   1.579   0.143   1.785
 2964SOL    HW1 9791   1.645   0.111   1.717
 2964SOL    HW2 9792   1.541   0.230   1.756
 2965SOL     OW 9793   0.104   1.148   5.266
 2965SOL    HW1 9794   0.079   1.198   5.349
 2965SOL    HW2 9795   0.061   1.058   5.267
 2966SOL     OW 9796   5.972   4.489   3.798
 2966SOL    HW1 9797   5.905   4.416   3.808
 2966SOL    HW2 9798   5.931   4.566   3.749
 2967SOL     OW 9799   5.924   2.925   3.800
 2967SOL    HW1 9800   5.839   2.938   3.748
 2967SOL    HW2 9801   5.953   3.012   3.839
 2968SOL     OW 9802   0.755   4.115   5.900
 2968SOL    HW1 9803   0.758   4.141   5.803
 2968SOL    HW2 9804   0.777   4.195   5.956
 2969SOL     OW 9805   5.350   1.299   5.017
 2969SOL    HW1 9806   5.267   1.356   5.022
 2969SOL    HW2 9807   5.386   1.300   4.924
 2970SOL     OW 9808   0.920   4.219   6.960
 2970SOL    HW1 9809   0.973   4.209   6.876
 2970SOL    HW2 9810   0.970   4.178   0.011
 2971SOL     OW 9811   5.722   2.634   4.362
 2971SOL    HW1 9812   5.723   2.546   4.409
 2971SOL    HW2 9813   5.659   2.630   4.284
 2972SOL     OW 9814   6.532   4.703   6.973
 2972SOL    HW1 9815   6.589   4.663   6.901
 2972SOL    HW2 9816   6.442   4.727   6.935
 2973SOL     OW 9817   5.633   0.618   4.249
 2973SOL    HW1 9818   5.684   0.649   4.329
 2973SOL    HW2 9819   5.535   0.631   4.264
 2974SOL     OW 9820   6.153   3.681   3.462
 2974SOL    HW1 9821   6.153   3.772   3.420
 2974SOL    HW2 9822   6.062   3.641   3.457
 2975SOL     OW 9823   0.159   1.758   5.145
 2975SOL    HW1 9824   0.248   1.716   5.132
 2975SOL    HW2 9825   0.162   1.820   5.223
 2976SOL     OW 9826   3.952   1.473   3.054
 2976SOL    HW1 9827   3.972   1.386   3.010
 2976SOL    HW2 9828   3.854   1.479   3.073
 2977SOL     OW 9829   2.432   0.142   4.194
 2977SOL    HW1 9830   2.524   0.182   4.192
 2977SOL    HW2 9831   2.386   0.168   4.279
 2978SOL     OW 9832   4.369   4.803   0.196
 2978SOL    HW1 9833   4.460   4.763   0.201
 2978SOL    HW2 9834   4.374   4.901   0.217
 2979SOL     OW 9835   4.142   6.851   3.903
 2979SOL    HW1 9836   4.195   6.781   3.855
 2979SOL    HW2 9837   4.050   6.856   3.865
 2980SOL     OW 9838   1.710   6.298   4.064
 2980SOL    HW1 9839   1.746   6.391   4.067
 2980SOL    HW2 9840   1.613   6.299   4.092
 2981SOL     OW 9841   0.499   0.337   6.019
 2981SOL    HW1 9842   0.584   0.287   6.034
 2981SOL    HW2 9843   0.444   0.335   6.103
 2982SOL     OW 9844   4.751   6.552   3.247
 2982SOL    HW1 9845   4.677   6.496   3.210
 2982SOL    HW2 9846   4.737   6.564   3.346
 2983SOL     OW 9847   0.900   0.626   3.809
 2983SOL    HW1 9848   0.805   0.630   3.839
 2983SOL    HW2 9849   0.930   0.531   3.805
 2984SOL     OW 9850   4.878   6.089   1.390
 2984SOL    HW1 9851   4.809   6.098   1.461
 2984SOL    HW2 9852   4.937   6.170   1.390
 2985SOL     OW 9853   0.765   2.032   4.496
 2985SOL    HW1 9854   0.822   2.101   4.453
 2985SOL    HW2 9855   0.672   2.039   4.461
 2986SOL     OW 9856   2.433   4.122   6.478
 2986SOL    HW1 9857   2.481   4.040   6.445
 2986SOL    HW2 9858   2.382   4.162   6.403
 2987SOL     OW 9859   4.979   1.253   3.976
 2987SOL    HW1 9860   5.004   1.170   3.927
 2987SOL    HW2 9861   5.020   1.253   4.067
 2988SOL     OW 9862   0.031   6.870   2.386
 2988SOL    HW1 9863   7.002   6.874   2.470
 2988SOL    HW2 9864   0.107   6.805   2.399
 2989SOL     OW 9865   5.673   5.588   1.079
 2989SOL    HW1 9866   5.756   5.616   1.032
 2989SOL    HW2 9867   5.685   5.600   1.178
 2990SOL     OW 9868   4.081   1.025   3.315
 2990SOL    HW1 9869   4.156   1.006   3.252
 2990SOL    HW2 9870   4.051   0.939   3.357
 2991SOL     OW 9871   0.184   3.808   0.753
 2991SOL    HW1 9872   0.245   3.859   0.693
 2991SOL    HW2 9873   0.149   3.727   0.704
 2992SOL     OW 9874   2.479   5.661   5.399
 2992SOL    HW1 9875   2.554   5.601   5.425
 2992SOL    HW2 9876   2.498   5.701   5.309
 2993SOL     OW 9877   1.097   4.628   1.878
 2993SOL    HW1 9878   1.049   4.654   1.962
 2993SOL    HW2 9879   1.181   4.681   1.869
 2994SOL     OW 9880   4.342   1.145   0.262
 2994SOL    HW1 9881   4.327   1.139   0.361
 2994SOL    HW2 9882   4.413   1.214   0.244
 2995SOL     OW 9883   0.878   2.720   6.655
 2995SOL    HW1 9884   0.951   2.787   6.649
 2995SOL    HW2 9885   0.821   2.739   6.735
 2996SOL     OW 9886   3.212   6.237   4.626
 2996SOL    HW1 9887   3.309   6.220   4.646
 2996SOL    HW2 9888   3.187   6.328   4.660
 2997SOL     OW 9889   4.944   5.922   1.987
 2997SOL    HW1 9890   4.946   5.946   2.084
 2997SOL    HW2 9891   5.018   5.968   1.939
 2998SOL     OW 9892   4.866   6.041   4.812
 2998SOL    HW1 9893   4.925   5.966   4.843
 2998SOL    HW2 9894   4.864   6.043   4.712
 2999SOL     OW 9895   4.009   6.037   3.569
 2999SOL    HW1 9896   3.938   6.080   3.513
 2999SOL    HW2 9897   4.050   6.105   3.629
 3000SOL     OW 9898   1.805   3.912   6.290
 3000SOL    HW1 9899   1.887   3.858   6.273
 3000SOL    HW2 9900   1.771   3.948   6.203
 3001SOL     OW 9901   5.162   6.937   6.905
 3001SOL    HW1 9902   5.139   6.957   7.000
 3001SOL    HW2 9903   5.261   6.927   6.895
 3002SOL     OW 9904   3.865   0.195   5.382
 3002SOL    HW1 9905   3.849   0.097   5.369
 3002SOL    HW2 9906   3.956   0.209   5.421
 3003SOL     OW 9907   2.731   6.323   6.305
 3003SOL    HW1 9908   2.704   6.246   6.363
 3003SOL    HW2 9909   2.831   6.332   6.308
 3004SOL     OW 9910   6.798   4.636   4.160
 3004SOL    HW1 9911   6.817   4.624   4.062
 3004SOL    HW2 9912   6.884   4.627   4.211
 3005SOL     OW 9913   3.626   3.281   1.172
 3005SOL    HW1 9914   3.548   3.332   1.208
 3005SOL    HW2 9915   3.602   3.184   1.164
 3006SOL     OW 9916   6.081   1.906   0.926
 3006SOL    HW1 9917   5.994   1.954   0.915
 3006SOL    HW2 9918   6.157   1.968   0.906
 3007SOL     OW 9919   6.034   5.289   2.074
 3007SOL    HW1 9920   6.053   5.328   1.984
 3007SOL    HW2 9921   6.114   5.236   2.104
 3008SOL     OW 9922   3.622   0.131   6.039
 3008SOL    HW1 9923   3.699   0.067   6.051
 3008SOL    HW2 9924   3.651   0.223   6.066
 3009SOL     OW 9925   0.591   6.479   2.599
 3009SOL    HW1 9926   0.614   6.382   2.602
 3009SOL    HW2 9927   0.610   6.515   2.508
 3010SOL     OW 9928   3.874   5.722   3.323
 3010SOL    HW1 9929   3.827   5.633   3.322
 3010SOL    HW2 9930   3.854   5.770   3.237
 3011SOL     OW 9931   5.466   0.854   6.414
 3011SOL    HW1 9932   5.445   0.942   6.457
 3011SOL    HW2 9933   5.429   0.853   6.321
 3012SOL     OW 9934   0.392   3.685   4.397
 3012SOL    HW1 9935   0.461   3.723   4.459
 3012SOL    HW2 9936   0.368   3.754   4.329
 3013SOL     OW 9937   5.264   5.980   4.010
 3013SOL    HW1 9938   5.331   6.054   4.016
 3013SOL    HW2 9939   5.237   5.952   4.103
 3014SOL     OW 9940   5.273   2.365   4.207
 3014SOL    HW1 9941   5.338   2.294   4.233
 3014SOL    HW2 9942   5.251   2.357   4.110
 3015SOL     OW 9943   3.655   2.802   0.320
 3015SOL    HW1 9944   3.738   2.747   0.310
 3015SOL    HW2 9945   3.679   2.896   0.343
 3016SOL     OW 9946   3.396   6.050   4.204
 3016SOL    HW1 9947   3.471   6.114   4.221
 3016SOL    HW2 9948   3.318   6.073   4.263
 3017SOL     OW 9949   1.247   5.611   0.998
 3017SOL    HW1 9950   1.341   5.576   1.009
 3017SOL    HW2 9951   1.193   5.587   1.079
 3018SOL     OW 9952   3.397   0.477   6.379
 3018SOL    HW1 9953   3.306   0.519   6.377
 3018SOL    HW2 9954   3.426   0.457   6.285
 3019SOL     OW 9955   3.120   6.471   1.073
 3019SOL    HW1 9956   3.113   6.571   1.068
 3019SOL    HW2 9957   3.207   6.442   1.033
 3020SOL     OW 9958   3.757   3.564   1.498
 3020SOL    HW1 9959   3.762   3.486   1.561
 3020SOL    HW2 9960   3.843   3.571   1.447
 3021SOL     OW 9961   2.419   1.952   0.083
 3021SOL    HW1 9962   2.375   2.039   0.104
 3021SOL    HW2 9963   2.494   1.936   0.147
 3022SOL     OW 9964   4.184   6.198   2.561
 3022SOL    HW1 9965   4.234   6.168   2.480
 3022SOL    HW2 9966   4.096   6.235   2.534
 3023SOL     OW 9967   3.717   6.144   2.968
 3023SOL    HW1 9968   3.754   6.118   2.879
 3023SOL    HW2 9969   3.748   6.236   2.992
 3024SOL     OW 9970   3.147   0.632   6.356
 3024SOL    HW1 9971   3.059   0.595   6.325
 3024SOL    HW2 9972   3.130   0.699   6.429
 3025SOL     OW 9973   3.404   2.723   0.497
 3025SOL    HW1 9974   3.483   2.707   0.438
 3025SOL    HW2 9975   3.431   2.718   0.593
 3026SOL     OW 9976   1.410   3.078   0.884
 3026SOL    HW1 9977   1.507   3.068   0.906
 3026SOL    HW2 9978   1.363   3.125   0.958
 3027SOL     OW 9979   3.933   1.463   1.960
 3027SOL    HW1 9980   4.007   1.404   1.929
 3027SOL    HW2 9981   3.933   1.469   2.059
 3028SOL     OW 9982   0.952   4.552   6.424
 3028SOL    HW1 9983   0.934   4.649   6.409
 3028SOL    HW2 9984   0.902   4.521   6.505
 3029SOL     OW 9985   6.802   5.235   4.955
 3029SOL    HW1 9986   6.794   5.147   4.908
 3029SOL    HW2 9987   6.887   5.280   4.927
 3030SOL     OW 9988   0.625   1.661   5.547
 3030SOL    HW1 9989   0.585   1.723   5.479
 3030SOL    HW2 9990   0.722   1.648   5.527
 3031SOL     OW 9991   0.758   3.511   0.580
 3031SOL    HW1 9992   0.748   3.443   0.653
 3031SOL    HW2 9993   0.853   3.544   0.579
 3032SOL     OW 9994   5.232   0.641   0.463
 3032SOL    HW1 9995   5.136   0.614   0.463
 3032SOL    HW2 9996   5.240   0.737   0.435
 3033SOL     OW 9997   0.875   2.562   7.006
 3033SOL    HW1 9998   0.841   2.519   0.064
 3033SOL    HW2 9999   0.974   2.574   7.014
 3034SOL     OW10000   2.141   5.965   3.881
 3034SOL    HW110001   2.159   5.951   3.783
 3034SOL    HW210002   2.064   6.029   3.891
 3035SOL     OW10003   6.542   2.316   0.689
 3035SOL    HW110004   6.542   2.409   0.652
 3035SOL    HW210005   6.507   2.252   0.620
 3036SOL     OW10006   1.798   3.722   0.069
 3036SOL    HW110007   1.755   3.639   0.105
 3036SOL    HW210008   1.897   3.709   0.063
 3037SOL     OW10009   6.322   6.028   4.531
 3037SOL    HW110010   6.354   5.935   4.548
 3037SOL    HW210011   6.267   6.029   4.447
 3038SOL     OW10012   5.776   6.875   6.682
 3038SOL    HW110013   5.760   6.792   6.629
 3038SOL    HW210014   5.839   6.935   6.632
 3039SOL     OW10015   6.851   4.188   2.656
 3039SOL    HW110016   6.933   4.216   2.606
 3039SOL    HW210017   6.833   4.091   2.637
 3040SOL     OW10018   4.747   4.010   5.972
 3040SOL    HW110019   4.684   4.058   6.034
 3040SOL    HW210020   4.841   4.032   5.998
 3041SOL     OW10021   1.550   2.456   5.898
 3041SOL    HW110022   1.539   2.524   5.970
 3041SOL    HW210023   1.626   2.482   5.839
 3042SOL     OW10024   5.052   6.286   1.695
 3042SOL    HW110025   4.994   6.206   1.706
 3042SOL    HW210026   5.127   6.265   1.631
 3043SOL     OW10027   0.248   5.384   0.958
 3043SOL    HW110028   0.301   5.331   0.893
 3043SOL    HW210029   0.152   5.356   0.953
 3044SOL     OW10030   3.159   4.388   5.955
 3044SOL    HW110031   3.076   4.416   6.003
 3044SOL    HW210032   3.202   4.468   5.913
 3045SOL     OW10033   4.473   0.345   2.705
 3045SOL    HW110034   4.504   0.268   2.648
 3045SOL    HW210035   4.552   0.390   2.747
 3046SOL     OW10036   1.689   3.103   5.418
 3046SOL    HW110037   1.702   3.118   5.320
 3046SOL    HW210038   1.778   3.096   5.463
 3047SOL     OW10039   5.092   5.552   2.104
 3047SOL    HW110040   5.035   5.602   2.039
 3047SOL    HW210041   5.182   5.535   2.064
 3048SOL     OW10042   3.791   3.364   1.657
 3048SOL    HW110043   3.811   3.317   1.743
 3048SOL    HW210044   3.716   3.316   1.611
 3049SOL     OW10045   0.920   6.108   1.132
 3049SOL    HW110046   0.910   6.078   1.227
 3049SOL    HW210047   0.999   6.063   1.090
 3050SOL     OW10048   3.515   0.038   3.436
 3050SOL    HW110049   3.587   0.092   3.479
 3050SOL    HW210050   3.427   0.083   3.447
 3051SOL     OW10051   2.640   3.612   0.163
 3051SOL    HW110052   2.727   3.637   0.206
 3051SOL    HW210053   2.657   3.557   0.081
 3052SOL     OW10054   4.470   0.846   2.970
 3052SOL    HW110055   4.511   0.766   3.015
 3052SOL    HW210056   4.535   0.921   2.970
 3053SOL     OW10057   6.475   0.562   6.993
 3053SOL    HW110058   6.444   0.556   0.062
 3053SOL    HW210059   6.466   0.473   6.949
 3054SOL     OW10060   0.443   2.538   0.072
 3054SOL    HW110061   0.538   2.569   0.077
 3054SOL    HW210062   0.420   2.516   7.003
 3055SOL     OW10063   5.173   0.409   3.865
 3055SOL    HW110064   5.237   0.440   3.795
 3055SOL    HW210065   5.196   0.317   3.894
 3056SOL     OW10066   6.800   0.420   6.801
 3056SOL    HW110067   6.800   0.515   6.769
 3056SOL    HW210068   6.812   0.418   6.900
 3057SOL     OW10069   4.245   5.684   2.712
 3057SOL    HW110070   4.192   5.617   2.661
 3057SOL    HW210071   4.219   5.776   2.682
 3058SOL     OW10072   6.203   5.629   1.177
 3058SOL    HW110073   6.246   5.617   1.266
 3058SOL    HW210074   6.104   5.622   1.186
 3059SOL     OW10075   1.843   2.879   5.157
 3059SOL    HW110076   1.763   2.837   5.113
 3059SOL    HW210077   1.821   2.973   5.182
 3060SOL     OW10078   0.123   6.369   0.417
 3060SOL    HW110079   0.147   6.312   0.338
 3060SOL    HW210080   0.097   6.311   0.494
 3061SOL     OW10081   6.724   1.032   5.119
 3061SOL    HW110082   6.792   1.092   5.076
 3061SOL    HW210083   6.680   0.977   5.048
 3062SOL     OW10084   1.824   6.650   0.891
 3062SOL    HW110085   1.844   6.701   0.807
 3062SOL    HW210086   1.730   6.616   0.887
 3063SOL     OW10087   2.223   5.296   2.418
 3063SOL    HW110088   2.172   5.294   2.504
 3063SOL    HW210089   2.214   5.386   2.376
 3064SOL     OW10090   5.972   3.609   3.798
 3064SOL    HW110091   6.044   3.565   3.852
 3064SOL    HW210092   5.980   3.582   3.703
 3065SOL     OW10093   1.970   0.115   6.438
 3065SOL    HW110094   2.007   0.120   6.345
 3065SOL    HW210095   1.885   0.167   6.443
 3066SOL     OW10096   5.512   4.209   0.429
 3066SOL    HW110097   5.440   4.263   0.473
 3066SOL    HW210098   5.573   4.172   0.498
 3067SOL     OW10099   3.316   1.228   4.448
 3067SOL    HW110100   3.224   1.194   4.469
 3067SOL    HW210101   3.379   1.152   4.442
 3068SOL     OW10102   5.685   5.980   0.467
 3068SOL    HW110103   5.586   5.980   0.483
 3068SOL    HW210104   5.708   5.913   0.396
 3069SOL     OW10105   6.664   5.674   1.376
 3069SOL    HW110106   6.722   5.740   1.424
 3069SOL    HW210107   6.673   5.688   1.277
 3070SOL     OW10108   1.984   0.859   2.351
 3070SOL    HW110109   1.950   0.831   2.441
 3070SOL    HW210110   1.911   0.903   2.300
 3071SOL     OW10111   6.590   6.720   3.602
 3071SOL    HW110112   6.647   6.752   3.678
 3071SOL    HW210113   6.538   6.797   3.565
 3072SOL     OW10114   0.716   6.153   0.953
 3072SOL    HW110115   0.733   6.195   0.864
 3072SOL    HW210116   0.794   6.169   1.013
 3073SOL     OW10117   1.158   4.013   5.180
 3073SOL    HW110118   1.061   4.028   5.162
 3073SOL    HW210119   1.170   3.926   5.228
 3074SOL     OW10120   5.298   2.637   0.878
 3074SOL    HW110121   5.359   2.716   0.868
 3074SOL    HW210122   5.250   2.643   0.966
 3075SOL     OW10123   1.701   6.269   1.538
 3075SOL    HW110124   1.705   6.297   1.442
 3075SOL    HW210125   1.754   6.185   1.551
 3076SOL     OW10126   6.853   0.867   4.270
 3076SOL    HW110127   6.774   0.863   4.332
 3076SOL    HW210128   6.928   0.916   4.315
 3077SOL     OW10129   5.417   4.662   2.547
 3077SOL    HW110130   5.459   4.675   2.636
 3077SOL    HW210131   5.333   4.609   2.557
 3078SOL     OW10132   2.233   3.708   1.175
 3078SOL    HW110133   2.279   3.652   1.244
 3078SOL    HW210134   2.169   3.651   1.124
 3079SOL     OW10135   1.777   2.617   4.776
 3079SOL    HW110136   1.745   2.539   4.831
 3079SOL    HW210137   1.807   2.690   4.837
 3080SOL     OW10138   5.276   5.191   2.190
 3080SOL    HW110139   5.358   5.237   2.223
 3080SOL    HW210140   5.242   5.128   2.260
 3081SOL     OW10141   0.630   4.453   6.082
 3081SOL    HW110142   0.623   4.471   5.983
 3081SOL    HW210143   0.548   4.406   6.113
 3082SOL     OW10144   3.817   6.659   3.696
 3082SOL    HW110145   3.898   6.616   3.656
 3082SOL    HW210146   3.737   6.635   3.641
 3083SOL     OW10147   4.114   6.524   2.844
 3083SOL    HW110148   4.128   6.583   2.765
 3083SOL    HW210149   4.172   6.555   2.919
 3084SOL     OW10150   4.988   4.623   4.387
 3084SOL    HW110151   4.997   4.554   4.315
 3084SOL    HW210152   5.074   4.628   4.439
 3085SOL     OW10153   7.004   4.538   2.657
 3085SOL    HW110154   0.021   4.596   2.726
 3085SOL    HW210155   6.994   4.445   2.693
 3086SOL     OW10156   4.472   1.580   1.810
 3086SOL    HW110157   4.393   1.581   1.749
 3086SOL    HW210158   4.442   1.557   1.903
 3087SOL     OW10159   0.230   4.840   3.973
 3087SOL    HW110160   0.189   4.767   3.919
 3087SOL    HW210161   0.316   4.808   4.013
 3088SOL     OW10162   2.929   5.078   5.234
 3088SOL    HW110163   2.928   4.984   5.269
 3088SOL    HW210164   3.022   5.102   5.207
 3089SOL     OW10165   1.297   2.935   6.819
 3089SOL    HW110166   1.279   2.991   6.901
 3089SOL    HW210167   1.387   2.956   6.783
 3090SOL     OW10168   1.656   1.487   1.447
 3090SOL    HW110169   1.706   1.401   1.448
 3090SOL    HW210170   1.685   1.544   1.524
 3091SOL     OW10171   2.828   6.672   0.419
 3091SOL    HW110172   2.747   6.724   0.394
 3091SOL    HW210173   2.801   6.588   0.465
 3092SOL     OW10174   5.162   0.173   0.095
 3092SOL    HW110175   5.237   0.170   0.162
 3092SOL    HW210176   5.075   0.179   0.143
 3093SOL     OW10177   5.647   5.172   5.633
 3093SOL    HW110178   5.696   5.246   5.586
 3093SOL    HW210179   5.565   5.148   5.580
 3094SOL     OW10180   3.418   0.037   4.931
 3094SOL    HW110181   3.424   0.063   5.027
 3094SOL    HW210182   3.451   6.969   4.920
 3095SOL     OW10183   2.698   4.646   4.363
 3095SOL    HW110184   2.639   4.625   4.441
 3095SOL    HW210185   2.673   4.587   4.286
 3096SOL     OW10186   0.434   0.418   4.355
 3096SOL    HW110187   0.460   0.340   4.411
 3096SOL    HW210188   0.398   0.386   4.268
 3097SOL     OW10189   0.933   2.243   0.154
 3097SOL    HW110190   0.872   2.193   0.092
 3097SOL    HW210191   0.884   2.322   0.191
 3098SOL     OW10192   2.379   3.540   1.430
 3098SOL    HW110193   2.456   3.507   1.377
 3098SOL    HW210194   2.407   3.551   1.526
 3099SOL     OW10195   0.271   5.865   5.132
 3099SOL    HW110196   0.312   5.906   5.051
 3099SOL    HW210197   0.340   5.812   5.181
 3100SOL     OW10198   6.716   0.223   4.570
 3100SOL    HW110199   6.685   0.135   4.533
 3100SOL    HW210200   6.637   0.284   4.582
 3101SOL     OW10201   4.623   6.295   5.418
 3101SOL    HW110202   4.595   6.391   5.416
 3101SOL    HW210203   4.648   6.269   5.511
 3102SOL     OW10204   1.114   5.090   1.630
 3102SOL    HW110205   1.188   5.147   1.667
 3102SOL    HW210206   1.153   5.020   1.570
 3103SOL     OW10207   3.499   1.552   0.920
 3103SOL    HW110208   3.559   1.600   0.984
 3103SOL    HW210209   3.404   1.573   0.942
 3104SOL     OW10210   5.922   6.138   4.170
 3104SOL    HW110211   5.857   6.202   4.210
 3104SOL    HW210212   5.883   6.046   4.170
 3105SOL     OW10213   6.229   5.656   3.695
 3105SOL    HW110214   6.284   5.599   3.755
 3105SOL    HW210215   6.255   5.752   3.707
 3106SOL     OW10216   6.937   2.005   2.608
 3106SOL    HW110217   6.905   1.956   2.527
 3106SOL    HW210218   7.010   1.952   2.652
 3107SOL     OW10219   3.784   0.457   4.386
 3107SOL    HW110220   3.830   0.532   4.433
 3107SOL    HW210221   3.829   0.371   4.408
 3108SOL     OW10222   1.834   0.983   4.412
 3108SOL    HW110223   1.894   1.061   4.393
 3108SOL    HW210224   1.824   0.972   4.511
 3109SOL     OW10225   6.068   6.067   2.963
 3109SOL    HW110226   6.144   6.128   2.941
 3109SOL    HW210227   6.074   5.984   2.908
 3110SOL     OW10228   0.581   1.586   3.788
 3110SOL    HW110229   0.541   1.656   3.846
 3110SOL    HW210230   0.650   1.627   3.728
 3111SOL     OW10231   6.111   5.405   4.216
 3111SOL    HW110232   6.193   5.460   4.201
 3111SOL    HW210233   6.030   5.464   4.211
 3112SOL     OW10234   4.998   2.464   5.918
 3112SOL    HW110235   4.967   2.550   5.957
 3112SOL    HW210236   4.993   2.392   5.986
 3113SOL     OW10237   2.284   0.220   3.949
 3113SOL    HW110238   2.370   0.200   3.903
 3113SOL    HW210239   2.293   0.198   4.046
 3114SOL     OW10240   5.251   3.621   0.011
 3114SOL    HW110241   5.230   3.607   6.940
 3114SOL    HW210242   5.338   3.668   0.020
 3115SOL     OW10243   4.513   3.652   0.356
 3115SOL    HW110244   4.560   3.564   0.351
 3115SOL    HW210245   4.414   3.639   0.344
 3116SOL     OW10246   6.992   3.347   6.982
 3116SOL    HW110247   0.023   3.375   6.904
 3116SOL    HW210248   6.959   3.429   0.004
 3117SOL     OW10249   4.612   3.797   5.350
 3117SOL    HW110250   4.524   3.827   5.312
 3117SOL    HW210251   4.642   3.715   5.302
 3118SOL     OW10252   6.821   4.541   6.170
 3118SOL    HW110253   6.735   4.591   6.176
 3118SOL    HW210254   6.874   4.575   6.092
 3119SOL     OW10255   1.999   3.951   5.282
 3119SOL    HW110256   2.077   3.889   5.293
 3119SOL    HW210257   1.978   3.994   5.370
 3120SOL     OW10258   2.460   6.127   4.911
 3120SOL    HW110259   2.523   6.094   4.981
 3120SOL    HW210260   2.366   6.101   4.936
 3121SOL     OW10261   0.169   1.416   2.554
 3121SOL    HW110262   0.180   1.328   2.599
 3121SOL    HW210263   0.251   1.436   2.499
 3122SOL     OW10264   3.526   5.966   6.000
 3122SOL    HW110265   3.474   5.998   5.922
 3122SOL    HW210266   3.469   5.906   6.056
 3123SOL     OW10267   3.423   6.523   3.771
 3123SOL    HW110268   3.514   6.486   3.754
 3123SOL    HW210269   3.430   6.618   3.800
 3124SOL     OW10270   3.970   0.691   5.290
 3124SOL    HW110271   4.039   0.741   5.239
 3124SOL    HW210272   3.979   0.593   5.272
 3125SOL     OW10273   6.174   2.048   6.213
 3125SOL    HW110274   6.150   2.142   6.191
 3125SOL    HW210275   6.231   2.047   6.294
 3126SOL     OW10276   4.784   4.944   6.506
 3126SOL    HW110277   4.879   4.976   6.513
 3126SOL    HW210278   4.741   4.986   6.426
 3127SOL     OW10279   0.903   2.319   2.912
 3127SOL    HW110280   0.846   2.240   2.892
 3127SOL    HW210281   0.869   2.399   2.863
 3128SOL     OW10282   1.313   0.349   0.643
 3128SOL    HW110283   1.368   0.432   0.647
 3128SOL    HW210284   1.338   0.296   0.562
 3129SOL     OW10285   0.535   4.811   6.459
 3129SOL    HW110286   0.488   4.798   6.546
 3129SOL    HW210287   0.488   4.759   6.388
 3130SOL     OW10288   2.480   4.662   2.434
 3130SOL    HW110289   2.560   4.673   2.376
 3130SOL    HW210290   2.451   4.566   2.433
 3131SOL     OW10291   1.118   2.616   3.041
 3131SOL    HW110292   1.102   2.535   3.096
 3131SOL    HW210293   1.182   2.677   3.088
 3132SOL     OW10294   5.333   6.448   5.186
 3132SOL    HW110295   5.368   6.510   5.255
 3132SOL    HW210296   5.291   6.369   5.230
 3133SOL     OW10297   2.617   2.134   4.242
 3133SOL    HW110298   2.593   2.166   4.150
 3133SOL    HW210299   2.554   2.175   4.308
 3134SOL     OW10300   5.186   3.771   1.991
 3134SOL    HW110301   5.126   3.698   1.956
 3134SOL    HW210302   5.174   3.853   1.935
 3135SOL     OW10303   4.053   1.963   4.832
 3135SOL    HW110304   4.141   1.932   4.795
 3135SOL    HW210305   4.008   2.022   4.766
 3136SOL     OW10306   6.107   6.791   5.755
 3136SOL    HW110307   6.201   6.814   5.782
 3136SOL    HW210308   6.079   6.850   5.679
 3137SOL     OW10309   5.411   1.201   3.600
 3137SOL    HW110310   5.397   1.102   3.597
 3137SOL    HW210311   5.348   1.245   3.536
 3138SOL     OW10312   6.299   2.060   4.381
 3138SOL    HW110313   6.260   2.024   4.296
 3138SOL    HW210314   6.395   2.084   4.366
 3139SOL     OW10315   5.235   6.765   6.615
 3139SOL    HW110316   5.319   6.781   6.667
 3139SOL    HW210317   5.177   6.846   6.620
 3140SOL     OW10318   6.509   6.104   6.443
 3140SOL    HW110319   6.548   6.171   6.505
 3140SOL    HW210320   6.420   6.136   6.410
 3141SOL     OW10321   0.880   6.530   6.492
 3141SOL    HW110322   0.924   6.613   6.458
 3141SOL    HW210323   0.916   6.508   6.583
 3142SOL     OW10324   4.886   6.283   7.000
 3142SOL    HW110325   4.843   6.346   6.936
 3142SOL    HW210326   4.858   6.307   0.068
 3143SOL     OW10327   6.986   2.487   6.638
 3143SOL    HW110328   0.010   2.524   6.559
 3143SOL    HW210329   7.020   2.529   6.722
 3144SOL     OW10330   2.336   3.441   1.027
 3144SOL    HW110331   2.313   3.444   0.929
 3144SOL    HW210332   2.431   3.410   1.037
 3145SOL     OW10333   2.794   5.831   2.776
 3145SOL    HW110334   2.811   5.887   2.695
 3145SOL    HW210335   2.880   5.808   2.820
 3146SOL     OW10336   1.311   6.235   3.071
 3146SOL    HW110337   1.272   6.260   2.983
 3146SOL    HW210338   1.341   6.317   3.119
 3147SOL     OW10339   4.065   5.405   7.004
 3147SOL    HW110340   4.164   5.415   6.995
 3147SOL    HW210341   4.021   5.432   6.918
 3148SOL     OW10342   4.511   5.329   4.050
 3148SOL    HW110343   4.420   5.304   4.019
 3148SOL    HW210344   4.557   5.248   4.087
 3149SOL     OW10345   3.176   0.731   5.394
 3149SOL    HW110346   3.209   0.704   5.303
 3149SOL    HW210347   3.084   0.769   5.386
 3150SOL     OW10348   5.268   5.981   4.457
 3150SOL    HW110349   5.266   6.016   4.551
 3150SOL    HW210350   5.345   6.022   4.408
 3151SOL     OW10351   4.503   1.285   6.432
 3151SOL    HW110352   4.501   1.241   6.522
 3151SOL    HW210353   4.471   1.379   6.440
 3152SOL     OW10354   0.792   5.305   1.825
 3152SOL    HW110355   0.789   5.370   1.749
 3152SOL    HW210356   0.699   5.284   1.855
 3153SOL     OW10357   5.999   4.390   1.592
 3153SOL    HW110358   5.963   4.461   1.532
 3153SOL    HW210359   6.099   4.399   1.598
 3154SOL     OW10360   6.430   2.247   0.392
 3154SOL    HW110361   6.525   2.252   0.361
 3154SOL    HW210362   6.376   2.318   0.346
 3155SOL     OW10363   0.201   4.804   1.697
 3155SOL    HW110364   0.283   4.841   1.655
 3155SOL    HW210365   0.134   4.781   1.626
 3156SOL     OW10366   3.684   3.766   3.878
 3156SOL    HW110367   3.594   3.732   3.851
 3156SOL    HW210368   3.749   3.690   3.881
 3157SOL     OW10369   1.693   3.171   4.517
 3157SOL    HW110370   1.736   3.239   4.576
 3157SOL    HW210371   1.607   3.207   4.481
 3158SOL     OW10372   4.812   0.426   1.653
 3158SOL    HW110373   4.795   0.520   1.683
 3158SOL    HW210374   4.889   0.425   1.590
 3159SOL     OW10375   4.791   6.264   6.488
 3159SOL    HW110376   4.792   6.358   6.522
 3159SOL    HW210377   4.859   6.210   6.539
 3160SOL     OW10378   6.140   4.195   6.438
 3160SOL    HW110379   6.076   4.147   6.498
 3160SOL    HW210380   6.134   4.156   6.346
 3161SOL     OW10381   1.606   1.133   3.212
 3161SOL    HW110382   1.552   1.176   3.285
 3161SOL    HW210383   1.606   1.192   3.132
 3162SOL     OW10384   6.989   5.294   0.359
 3162SOL    HW110385   6.980   5.369   0.424
 3162SOL    HW210386   6.916   5.228   0.373
 3163SOL     OW10387   3.866   2.846   6.524
 3163SOL    HW110388   3.911   2.787   6.457
 3163SOL    HW210389   3.769   2.854   6.501
 3164SOL     OW10390   4.899   4.251   1.382
 3164SOL    HW110391   4.949   4.226   1.465
 3164SOL    HW210392   4.801   4.238   1.397
 3165SOL     OW10393   0.645   6.796   1.930
 3165SOL    HW110394   0.656   6.743   1.847
 3165SOL    HW210395   0.582   6.749   1.992
 3166SOL     OW10396   5.134   2.911   6.303
 3166SOL    HW110397   5.147   2.812   6.307
 3166SOL    HW210398   5.210   2.956   6.350
 3167SOL     OW10399   6.789   4.548   1.690
 3167SOL    HW110400   6.729   4.581   1.763
 3167SOL    HW210401   6.847   4.474   1.725
 3168SOL     OW10402   5.263   2.979   0.880
 3168SOL    HW110403   5.194   2.919   0.839
 3168SOL    HW210404   5.352   2.933   0.878
 3169SOL     OW10405   0.740   3.847   5.939
 3169SOL    HW110406   0.746   3.944   5.918
 3169SOL    HW210407   0.650   3.812   5.913
 3170SOL     OW10408   4.260   0.404   6.989
 3170SOL    HW110409   4.316   0.457   0.028
 3170SOL    HW210410   4.278   0.435   6.896
 3171SOL     OW10411   6.228   7.009   1.470
 3171SOL    HW110412   6.216   0.048   1.545
 3171SOL    HW210413   6.269   0.031   1.391
 3172SOL     OW10414   6.660   6.274   5.027
 3172SOL    HW110415   6.615   6.356   4.991
 3172SOL    HW210416   6.711   6.298   5.110
 3173SOL     OW10417   2.324   0.580   2.481
 3173SOL    HW110418   2.421   0.591   2.503
 3173SOL    HW210419   2.311   0.498   2.426
 3174SOL     OW10420   2.790   3.126   6.178
 3174SOL    HW110421   2.698   3.147   6.145
 3174SOL    HW210422   2.813   3.032   6.154
 3175SOL     OW10423   0.951   6.233   6.899
 3175SOL    HW110424   0.932   6.176   6.819
 3175SOL    HW210425   0.871   6.236   6.958
 3176SOL     OW10426   1.548   4.284   6.318
 3176SOL    HW110427   1.486   4.363   6.312
 3176SOL    HW210428   1.626   4.298   6.256
 3177SOL     OW10429   5.720   4.693   5.896
 3177SOL    HW110430   5.620   4.698   5.896
 3177SOL    HW210431   5.757   4.751   5.969
 3178SOL     OW10432   0.744   3.936   1.894
 3178SOL    HW110433   0.715   3.928   1.799
 3178SOL    HW210434   0.839   3.968   1.898
 3179SOL     OW10435   2.047   2.235   1.808
 3179SOL    HW110436   2.056   2.335   1.812
 3179SOL    HW210437   2.055   2.197   1.900
 3180SOL     OW10438   4.747   1.008   5.389
 3180SOL    HW110439   4.835   0.995   5.435
 3180SOL    HW210440   4.722   0.923   5.342
 3181SOL     OW10441   0.752   0.865   3.690
 3181SOL    HW110442   0.743   0.803   3.768
 3181SOL    HW210443   0.807   0.822   3.619
 3182SOL     OW10444   0.501   0.576   5.886
 3182SOL    HW110445   0.506   0.481   5.916
 3182SOL    HW210446   0.583   0.625   5.917
 3183SOL     OW10447   4.127   4.855   1.454
 3183SOL    HW110448   4.223   4.885   1.456
 3183SOL    HW210449   4.084   4.877   1.542
 3184SOL     OW10450   2.253   1.640   2.359
 3184SOL    HW110451   2.211   1.552   2.334
 3184SOL    HW210452   2.187   1.696   2.408
 3185SOL     OW10453   0.292   0.131   5.407
 3185SOL    HW110454   0.200   0.169   5.417
 3185SOL    HW210455   0.344   0.147   5.491
 3186SOL     OW10456   3.545   1.076   2.827
 3186SOL    HW110457   3.461   1.070   2.881
 3186SOL    HW210458   3.526   1.052   2.732
 3187SOL     OW10459   3.970   4.042   7.009
 3187SOL    HW110460   4.036   4.050   6.934
 3187SOL    HW210461   3.919   3.957   6.999
 3188SOL     OW10462   3.458   5.918   2.949
 3188SOL    HW110463   3.534   5.859   2.922
 3188SOL    HW210464   3.419   5.962   2.868
 3189SOL     OW10465   1.260   0.774   3.262
 3189SOL    HW110466   1.344   0.760   3.314
 3189SOL    HW210467   1.212   0.687   3.251
 3190SOL     OW10468   1.437   6.353   1.558
 3190SOL    HW110469   1.529   6.314   1.554
 3190SOL    HW210470   1.382   6.316   1.483
 3191SOL     OW10471   3.804   0.361   1.211
 3191SOL    HW110472   3.816   0.388   1.306
 3191SOL    HW210473   3.706   0.351   1.191
 3192SOL     OW10474   1.000   1.837   1.160
 3192SOL    HW110475   1.090   1.873   1.136
 3192SOL    HW210476   0.952   1.810   1.076
 3193SOL     OW10477   4.466   2.386   6.582
 3193SOL    HW110478   4.376   2.356   6.615
 3193SOL    HW210479   4.514   2.308   6.542
 3194SOL     OW10480   1.488   3.864   6.685
 3194SOL    HW110481   1.567   3.837   6.739
 3194SOL    HW210482   1.499   3.833   6.591
 3195SOL     OW10483   1.322   2.490   3.539
 3195SOL    HW110484   1.421   2.486   3.528
 3195SOL    HW210485   1.300   2.531   3.628
 3196SOL     OW10486   0.256   0.254   4.560
 3196SOL    HW110487   0.350   0.287   4.569
 3196SOL    HW210488   0.194   0.332   4.549
 3197SOL     OW10489   1.313   5.871   3.333
 3197SOL    HW110490   1.382   5.798   3.332
 3197SOL    HW210491   1.271   5.876   3.424
 3198SOL     OW10492   6.862   1.802   5.930
 3198SOL    HW110493   6.826   1.748   6.006
 3198SOL    HW210494   6.789   1.857   5.890
 3199SOL     OW10495   5.052   1.538   1.984
 3199SOL    HW110496   5.035   1.492   1.897
 3199SOL    HW210497   5.146   1.573   1.986
 3200SOL     OW10498   0.342   2.604   0.677
 3200SOL    HW110499   0.273   2.542   0.641
 3200SOL    HW210500   0.299   2.667   0.742
 3201SOL     OW10501   5.519   4.089   3.706
 3201SOL    HW110502   5.530   4.023   3.632
 3201SOL    HW210503   5.579   4.065   3.782
 3202SOL     OW10504   1.873   4.496   2.157
 3202SOL    HW110505   1.781   4.507   2.196
 3202SOL    HW210506   1.867   4.490   2.058
 3203SOL     OW10507   6.551   0.916   1.251
 3203SOL    HW110508   6.633   0.909   1.308
 3203SOL    HW210509   6.551   0.842   1.184
 3204SOL     OW10510   6.372   5.688   1.433
 3204SOL    HW110511   6.462   5.648   1.417
 3204SOL    HW210512   6.315   5.623   1.484
 3205SOL     OW10513   6.786   3.791   5.822
 3205SOL    HW110514   6.886   3.783   5.816
 3205SOL    HW210515   6.756   3.872   5.771
 3206SOL     OW10516   0.248   6.749   5.521
 3206SOL    HW110517   0.266   6.651   5.521
 3206SOL    HW210518   0.152   6.765   5.543
 3207SOL     OW10519   0.897   1.223   5.254
 3207SOL    HW110520   0.836   1.302   5.257
 3207SOL    HW210521   0.954   1.227   5.172
 3208SOL     OW10522   4.597   5.480   4.831
 3208SOL    HW110523   4.647   5.395   4.819
 3208SOL    HW210524   4.499   5.464   4.822
 3209SOL     OW10525   3.149   6.885   4.086
 3209SOL    HW110526   3.091   6.923   4.158
 3209SOL    HW210527   3.143   6.785   4.088
 3210SOL     OW10528   6.560   3.817   2.166
 3210SOL    HW110529   6.515   3.766   2.093
 3210SOL    HW210530   6.492   3.870   2.217
 3211SOL     OW10531   2.233   4.522   1.169
 3211SOL    HW110532   2.260   4.584   1.243
 3211SOL    HW210533   2.195   4.439   1.208
 3212SOL     OW10534   4.652   2.614   6.673
 3212SOL    HW110535   4.572   2.560   6.649
 3212SOL    HW210536   4.733   2.578   6.626
 3213SOL     OW10537   5.682   5.803   3.338
 3213SOL    HW110538   5.738   5.786   3.257
 3213SOL    HW210539   5.741   5.805   3.419
 3214SOL     OW10540   4.212   6.267   6.726
 3214SOL    HW110541   4.152   6.192   6.699
 3214SOL    HW210542   4.214   6.336   6.654
 3215SOL     OW10543   6.803   2.561   0.185
 3215SOL    HW110544   6.778   2.521   0.096
 3215SOL    HW210545   6.736   2.631   0.210
 3216SOL     OW10546   5.507   6.291   3.876
 3216SOL    HW110547   5.553   6.315   3.790
 3216SOL    HW210548   5.414   6.328   3.875
 3217SOL     OW10549   0.724   4.265   2.572
 3217SOL    HW110550   0.775   4.195   2.521
 3217SOL    HW210551   0.642   4.224   2.611
 3218SOL     OW10552   3.671   6.752   2.850
 3218SOL    HW110553   3.596   6.818   2.858
 3218SOL    HW210554   3.668   6.707   2.761
 3219SOL     OW10555   0.411   0.015   2.760
 3219SOL    HW110556   0.408   0.111   2.788
 3219SOL    HW210557   0.343   7.025   2.688
 3220SOL     OW10558   6.990   4.857   4.979
 3220SOL    HW110559   0.000   4.774   4.938
 3220SOL    HW210560   0.040   4.912   5.016
 3221SOL     OW10561   2.452   6.552   3.651
 3221SOL    HW110562   2.470   6.602   3.737
 3221SOL    HW210563   2.359   6.572   3.620
 3222SOL     OW10564   4.820   1.742   2.802
 3222SOL    HW110565   4.904   1.796   2.803
 3222SOL    HW210566   4.840   1.650   2.769
 3223SOL     OW10567   2.667   5.477   5.851
 3223SOL    HW110568   2.750   5.449   5.804
 3223SOL    HW210569   2.686   5.556   5.910
 3224SOL     OW10570   4.403   5.652   6.781
 3224SOL    HW110571   4.369   5.561   6.804
 3224SOL    HW210572   4.446   5.650   6.690
 3225SOL     OW10573   3.907   3.312   0.515
 3225SOL    HW110574   3.862   3.387   0.466
 3225SOL    HW210575   3.848   3.279   0.588
 3226SOL     OW10576   2.068   0.775   4.311
 3226SOL    HW110577   2.090   0.793   4.407
 3226SOL    HW210578   1.975   0.808   4.292
 3227SOL     OW10579   3.642   1.677   5.747
 3227SOL    HW110580   3.695   1.653   5.666
 3227SOL    HW210581   3.568   1.610   5.759
 3228SOL     OW10582   5.919   3.170   4.183
 3228SOL    HW110583   6.002   3.172   4.128
 3228SOL    HW210584   5.891   3.263   4.206
 3229SOL     OW10585   3.874   2.007   5.617
 3229SOL    HW110586   3.826   1.949   5.552
 3229SOL    HW210587   3.855   1.975   5.710
 3230SOL     OW10588   0.218   0.982   2.957
 3230SOL    HW110589   0.315   0.994   2.936
 3230SOL    HW210590   0.170   0.948   2.876
 3231SOL     OW10591   4.916   5.593   1.214
 3231SOL    HW110592   4.879   5.677   1.254
 3231SOL    HW210593   5.005   5.612   1.172
 3232SOL     OW10594   3.044   5.156   4.550
 3232SOL    HW110595   3.131   5.110   4.532
 3232SOL    HW210596   2.969   5.094   4.530
 3233SOL     OW10597   0.571   3.732   1.271
 3233SOL    HW110598   0.583   3.823   1.232
 3233SOL    HW210599   0.626   3.723   1.354
 3234SOL     OW10600   0.077   1.955   6.992
 3234SOL    HW110601   0.043   2.049   6.987
 3234SOL    HW210602   0.079   1.915   6.900
 3235SOL     OW10603   5.631   0.101   3.123
 3235SOL    HW110604   5.612   0.176   3.186
 3235SOL    HW210605   5.561   0.030   3.134
 3236SOL     OW10606   0.933   2.634   2.819
 3236SOL    HW110607   0.846   2.680   2.837
 3236SOL    HW210608   0.981   2.619   2.905
 3237SOL     OW10609   4.128   6.375   4.869
 3237SOL    HW110610   4.115   6.472   4.846
 3237SOL    HW210611   4.057   6.321   4.824
 3238SOL     OW10612   0.443   5.672   6.455
 3238SOL    HW110613   0.364   5.633   6.409
 3238SOL    HW210614   0.427   5.673   6.554
 3239SOL     OW10615   6.339   0.363   5.896
 3239SOL    HW110616   6.407   0.290   5.899
 3239SOL    HW210617   6.384   0.451   5.881
 3240SOL     OW10618   1.170   0.113   4.831
 3240SOL    HW110619   1.213   0.069   4.910
 3240SOL    HW210620   1.211   0.203   4.816
 3241SOL     OW10621   5.146   1.011   3.809
 3241SOL    HW110622   5.159   0.929   3.865
 3241SOL    HW210623   5.210   1.009   3.732
 3242SOL     OW10624   3.851   6.030   6.435
 3242SOL    HW110625   3.889   5.978   6.359
 3242SOL    HW210626   3.797   6.106   6.400
 3243SOL     OW10627   4.356   5.453   0.136
 3243SOL    HW110628   4.330   5.525   0.071
 3243SOL    HW210629   4.446   5.417   0.112
 3244SOL     OW10630   3.870   5.833   5.753
 3244SOL    HW110631   3.835   5.893   5.826
 3244SOL    HW210632   3.912   5.889   5.682
 3245SOL     OW10633   4.024   3.175   6.212
 3245SOL    HW110634   4.058   3.248   6.154
 3245SOL    HW210635   3.926   3.165   6.200
 3246SOL     OW10636   5.619   6.512   2.929
 3246SOL    HW110637   5.634   6.415   2.912
 3246SOL    HW210638   5.549   6.547   2.866
 3247SOL     OW10639   6.901   3.301   3.742
 3247SOL    HW110640   6.847   3.296   3.658
 3247SOL    HW210641   6.862   3.239   3.810
 3248SOL     OW10642   5.950   3.164   2.102
 3248SOL    HW110643   6.042   3.126   2.111
 3248SOL    HW210644   5.910   3.133   2.015
 3249SOL     OW10645   3.096   4.912   4.764
 3249SOL    HW110646   3.043   4.857   4.699
 3249SOL    HW210647   3.071   4.886   4.858
 3250SOL     OW10648   4.754   6.728   2.506
 3250SOL    HW110649   4.771   6.629   2.513
 3250SOL    HW210650   4.691   6.745   2.430
 3251SOL     OW10651   3.558   2.114   2.937
 3251SOL    HW110652   3.647   2.147   2.970
 3251SOL    HW210653   3.499   2.095   3.015
 3252SOL     OW10654   2.907   1.156   2.920
 3252SOL    HW110655   2.905   1.256   2.926
 3252SOL    HW210656   2.815   1.121   2.904
 3253SOL     OW10657   5.127   2.811   1.417
 3253SOL    HW110658   5.073   2.798   1.334
 3253SOL    HW210659   5.137   2.909   1.435
 3254SOL     OW10660   4.056   4.737   3.404
 3254SOL    HW110661   4.099   4.810   3.457
 3254SOL    HW210662   4.060   4.759   3.307
 3255SOL     OW10663   4.410   5.947   0.127
 3255SOL    HW110664   4.388   5.974   0.220
 3255SOL    HW210665   4.450   6.026   0.079
 3256SOL     OW10666   5.084   6.606   5.809
 3256SOL    HW110667   5.166   6.648   5.848
 3256SOL    HW210668   5.104   6.512   5.783
 3257SOL     OW10669   1.499   1.809   0.866
 3257SOL    HW110670   1.401   1.824   0.879
 3257SOL    HW210671   1.516   1.774   0.775
 3258SOL     OW10672   5.117   6.548   1.529
 3258SOL    HW110673   5.161   6.562   1.617
 3258SOL    HW210674   5.145   6.621   1.466
 3259SOL     OW10675   4.198   6.016   4.449
 3259SOL    HW110676   4.162   5.928   4.415
 3259SOL    HW210677   4.125   6.084   4.449
 3260SOL     OW10678   1.843   1.530   0.043
 3260SOL    HW110679   1.835   1.457   7.000
 3260SOL    HW210680   1.856   1.490   0.133
 3261SOL     OW10681   4.595   6.569   0.784
 3261SOL    HW110682   4.649   6.649   0.810
 3261SOL    HW210683   4.556   6.528   0.865
 3262SOL     OW10684   3.656   1.880   2.941
 3262SOL    HW110685   3.591   1.815   2.902
 3262SOL    HW210686   3.616   1.971   2.942
 3263SOL     OW10687   4.572   6.631   1.759
 3263SOL    HW110688   4.647   6.644   1.824
 3263SOL    HW210689   4.578   6.699   1.687
 3264SOL     OW10690   0.119   5.045   0.417
 3264SOL    HW110691   0.064   4.961   0.407
 3264SOL    HW210692   0.058   5.124   0.419
 3265SOL     OW10693   4.598   1.612   6.359
 3265SOL    HW110694   4.610   1.592   6.456
 3265SOL    HW210695   4.686   1.606   6.312
 3266SOL     OW10696   0.592   2.394   6.516
 3266SOL    HW110697   0.645   2.451   6.453
 3266SOL    HW210698   0.652   2.325   6.557
 3267SOL     OW10699   3.374   2.017   0.860
 3267SOL    HW110700   3.383   2.034   0.959
 3267SOL    HW210701   3.459   2.041   0.814
 3268SOL     OW10702   0.825   4.100   0.310
 3268SOL    HW110703   0.803   4.103   0.212
 3268SOL    HW210704   0.866   4.011   0.332
 3269SOL     OW10705   4.394   4.393   0.901
 3269SOL    HW110706   4.324   4.462   0.885
 3269SOL    HW210707   4.355   4.302   0.891
 3270SOL     OW10708   0.881   5.374   4.032
 3270SOL    HW110709   0.948   5.447   4.049
 3270SOL    HW210710   0.803   5.385   4.094
 3271SOL     OW10711   6.475   2.705   1.407
 3271SOL    HW110712   6.522   2.781   1.451
 3271SOL    HW210713   6.500   2.702   1.310
 3272SOL     OW10714   3.580   0.841   0.507
 3272SOL    HW110715   3.658   0.806   0.455
 3272SOL    HW210716   3.500   0.783   0.491
 3273SOL     OW10717   0.683   6.576   2.341
 3273SOL    HW110718   0.603   6.591   2.283
 3273SOL    HW210719   0.745   6.512   2.296
 3274SOL     OW10720   2.421   2.164   5.632
 3274SOL    HW110721   2.437   2.149   5.730
 3274SOL    HW210722   2.461   2.252   5.605
 3275SOL     OW10723   2.094   0.605   0.002
 3275SOL    HW110724   2.191   0.621   0.022
 3275SOL    HW210725   2.085   0.561   6.939
 3276SOL     OW10726   3.414   5.829   6.423
 3276SOL    HW110727   3.495   5.803   6.477
 3276SOL    HW210728   3.347   5.874   6.483
 3277SOL     OW10729   0.018   6.145   5.623
 3277SOL    HW110730   0.060   6.129   5.534
 3277SOL    HW210731   6.971   6.077   5.638
 3278SOL     OW10732   1.323   0.682   5.999
 3278SOL    HW110733   1.385   0.628   5.943
 3278SOL    HW210734   1.336   0.659   6.095
 3279SOL     OW10735   0.050   6.831   0.959
 3279SOL    HW110736   0.019   6.827   1.054
 3279SOL    HW210737   0.077   6.740   0.929
 3280SOL     OW10738   2.139   5.062   6.271
 3280SOL    HW110739   2.066   5.120   6.234
 3280SOL    HW210740   2.226   5.111   6.265
 3281SOL     OW10741   2.537   5.530   6.935
 3281SOL    HW110742   2.630   5.495   6.939
 3281SOL    HW210743   2.492   5.497   6.853
 3282SOL     OW10744   2.606   5.282   4.044
 3282SOL    HW110745   2.619   5.379   4.028
 3282SOL    HW210746   2.658   5.229   3.977
 3283SOL     OW10747   2.946   0.714   3.193
 3283SOL    HW110748   2.953   0.640   3.126
 3283SOL    HW210749   2.938   0.802   3.145
 3284SOL     OW10750   6.681   5.533   6.970
 3284SOL    HW110751   6.646   5.540   6.877
 3284SOL    HW210752   6.731   5.617   6.994
 3285SOL     OW10753   0.690   2.147   2.903
 3285SOL    HW110754   0.633   2.220   2.941
 3285SOL    HW210755   0.639   2.062   2.901
 3286SOL     OW10756   3.223   3.631   4.694
 3286SOL    HW110757   3.143   3.655   4.639
 3286SOL    HW210758   3.306   3.642   4.639
 3287SOL     OW10759   1.814   5.507   0.393
 3287SOL    HW110760   1.845   5.491   0.299
 3287SOL    HW210761   1.771   5.423   0.428
 3288SOL     OW10762   0.633   5.846   6.370
 3288SOL    HW110763   0.634   5.906   6.450
 3288SOL    HW210764   0.559   5.780   6.379
 3289SOL     OW10765   0.768   6.057   5.390
 3289SOL    HW110766   0.795   5.964   5.364
 3289SOL    HW210767   0.668   6.064   5.387
 3290SOL     OW10768   6.975   5.663   1.593
 3290SOL    HW110769   6.886   5.617   1.591
 3290SOL    HW210770   0.015   5.606   1.642
 3291SOL     OW10771   1.519   6.107   6.991
 3291SOL    HW110772   1.468   6.172   0.022
 3291SOL    HW210773   1.614   6.139   6.982
 3292SOL     OW10774   6.762   6.923   6.122
 3292SOL    HW110775   6.847   6.892   6.079
 3292SOL    HW210776   6.742   7.016   6.092
 3293SOL     OW10777   6.672   1.171   2.858
 3293SOL    HW110778   6.596   1.178   2.923
 3293SOL    HW210779   6.637   1.180   2.765
 3294SOL     OW10780   6.810   0.566   6.120
 3294SOL    HW110781   6.824   0.622   6.039
 3294SOL    HW210782   6.723   0.590   6.163
 3295SOL     OW10783   2.274   3.149   0.877
 3295SOL    HW110784   2.211   3.127   0.802
 3295SOL    HW210785   2.239   3.110   0.962
 3296SOL     OW10786   2.063   6.444   2.594
 3296SOL    HW110787   2.089   6.388   2.516
 3296SOL    HW210788   1.971   6.419   2.625
 3297SOL     OW10789   3.186   2.742   5.959
 3297SOL    HW110790   3.164   2.652   5.920
 3297SOL    HW210791   3.140   2.813   5.906
 3298SOL     OW10792   6.776   3.211   2.652
 3298SOL    HW110793   6.860   3.159   2.667
 3298SOL    HW210794   6.704   3.176   2.712
 3299SOL     OW10795   1.670   0.168   4.959
 3299SOL    HW110796   1.588   0.222   4.979
 3299SOL    HW210797   1.697   0.117   5.040
 3300SOL     OW10798   6.337   6.628   4.792
 3300SOL    HW110799   6.274   6.626   4.869
 3300SOL    HW210800   6.307   6.563   4.723
 3301SOL     OW10801   0.068   3.178   3.136
 3301SOL    HW110802   0.004   3.180   3.059
 3301SOL    HW210803   0.024   3.136   3.215
 3302SOL     OW10804   1.437   4.703   3.579
 3302SOL    HW110805   1.394   4.793   3.580
 3302SOL    HW210806   1.536   4.714   3.571
 3303SOL     OW10807   4.034   3.761   4.030
 3303SOL    HW110808   4.094   3.681   4.035
 3303SOL    HW210809   3.982   3.758   3.944
 3304SOL     OW10810   0.646   6.271   4.228
 3304SOL    HW110811   0.630   6.361   4.189
 3304SOL    HW210812   0.561   6.236   4.267
 3305SOL     OW10813   1.779   0.974   2.168
 3305SOL    HW110814   1.825   1.014   2.088
 3305SOL    HW210815   1.727   1.045   2.215
 3306SOL     OW10816   2.165   4.123   3.503
 3306SOL    HW110817   2.189   4.211   3.462
 3306SOL    HW210818   2.135   4.138   3.597
 3307SOL     OW10819   6.218   6.033   0.652
 3307SOL    HW110820   6.300   6.082   0.623
 3307SOL    HW210821   6.162   6.010   0.572
 3308SOL     OW10822   4.915   6.103   0.690
 3308SOL    HW110823   4.839   6.039   0.682
 3308SOL    HW210824   4.880   6.197   0.681
 3309SOL     OW10825   0.806   4.933   3.286
 3309SOL    HW110826   0.880   4.992   3.318
 3309SOL    HW210827   0.789   4.861   3.353
 3310SOL     OW10828   0.582   4.721   2.591
 3310SOL    HW110829   0.518   4.798   2.591
 3310SOL    HW210830   0.665   4.748   2.641
 3311SOL     OW10831   4.252   0.043   1.080
 3311SOL    HW110832   4.232   6.974   1.105
 3311SOL    HW210833   4.351   0.054   1.071
 3312SOL     OW10834   3.454   3.414   6.114
 3312SOL    HW110835   3.513   3.428   6.194
 3312SOL    HW210836   3.362   3.388   6.145
 3313SOL     OW10837   0.674   4.842   3.706
 3313SOL    HW110838   0.676   4.871   3.802
 3313SOL    HW210839   0.580   4.846   3.671
 3314SOL     OW10840   1.814   3.516   5.360
 3314SOL    HW110841   1.896   3.479   5.316
 3314SOL    HW210842   1.824   3.615   5.371
 3315SOL     OW10843   6.892   2.133   3.762
 3315SOL    HW110844   6.892   2.051   3.820
 3315SOL    HW210845   6.868   2.108   3.668
 3316SOL     OW10846   4.840   2.196   6.152
 3316SOL    HW110847   4.787   2.275   6.122
 3316SOL    HW210848   4.824   2.119   6.090
 3317SOL     OW10849   4.314   2.606   1.410
 3317SOL    HW110850   4.261   2.670   1.354
 3317SOL    HW210851   4.401   2.649   1.435
 3318SOL     OW10852   2.628   6.008   5.097
 3318SOL    HW110853   2.703   6.028   5.034
 3318SOL    HW210854   2.650   6.043   5.188
 3319SOL     OW10855   0.746   6.343   4.457
 3319SOL    HW110856   0.726   6.300   4.369
 3319SOL    HW210857   0.836   6.386   4.455
 3320SOL     OW10858   5.977   0.887   5.295
 3320SOL    HW110859   6.003   0.964   5.355
 3320SOL    HW210860   6.030   0.806   5.320
 3321SOL     OW10861   2.948   3.182   3.472
 3321SOL    HW110862   3.010   3.201   3.547
 3321SOL    HW210863   2.880   3.256   3.466
 3322SOL     OW10864   3.971   2.248   0.735
 3322SOL    HW110865   3.987   2.206   0.646
 3322SOL    HW210866   3.882   2.220   0.770
 3323SOL     OW10867   2.042   5.112   0.031
 3323SOL    HW110868   2.130   5.158   0.014
 3323SOL    HW210869   2.043   5.071   0.122
 3324SOL     OW10870   0.987   3.231   0.093
 3324SOL    HW110871   0.913   3.190   0.146
 3324SOL    HW210872   1.072   3.224   0.146
 3325SOL     OW10873   1.422   2.464   0.683
 3325SOL    HW110874   1.435   2.471   0.782
 3325SOL    HW210875   1.413   2.368   0.658
 3326SOL     OW10876   6.524   1.748   0.841
 3326SOL    HW110877   6.517   1.733   0.940
 3326SOL    HW210878   6.452   1.810   0.812
 3327SOL     OW10879   3.239   6.528   2.081
 3327SOL    HW110880   3.183   6.512   2.162
 3327SOL    HW210881   3.256   6.442   2.034
 3328SOL     OW10882   5.138   1.212   2.121
 3328SOL    HW110883   5.138   1.118   2.152
 3328SOL    HW210884   5.165   1.216   2.024
 3329SOL     OW10885   4.649   0.759   5.254
 3329SOL    HW110886   4.564   0.716   5.225
 3329SOL    HW210887   4.691   0.806   5.176
 3330SOL     OW10888   5.984   6.428   2.327
 3330SOL    HW110889   5.974   6.516   2.280
 3330SOL    HW210890   5.898   6.406   2.374
 3331SOL     OW10891   2.144   3.517   2.989
 3331SOL    HW110892   2.174   3.488   3.080
 3331SOL    HW210893   2.150   3.440   2.926
 3332SOL     OW10894   4.256   5.535   0.387
 3332SOL    HW110895   4.301   5.620   0.414
 3332SOL    HW210896   4.291   5.504   0.299
 3333SOL     OW10897   3.895   3.701   1.890
 3333SOL    HW110898   3.952   3.781   1.909
 3333SOL    HW210899   3.860   3.707   1.796
 3334SOL     OW10900   1.650   2.298   2.728
 3334SOL    HW110901   1.746   2.319   2.710
 3334SOL    HW210902   1.626   2.209   2.688
 3335SOL     OW10903   3.827   4.305   5.141
 3335SOL    HW110904   3.745   4.288   5.196
 3335SOL    HW210905   3.803   4.305   5.044
 3336SOL     OW10906   3.874   6.891   3.813
 3336SOL    HW110907   3.846   6.800   3.783
 3336SOL    HW210908   3.817   6.920   3.889
 3337SOL     OW10909   3.344   4.158   2.895
 3337SOL    HW110910   3.300   4.219   2.961
 3337SOL    HW210911   3.274   4.104   2.848
 3338SOL     OW10912   2.243   1.373   1.547
 3338SOL    HW110913   2.145   1.386   1.530
 3338SOL    HW210914   2.267   1.415   1.635
 3339SOL     OW10915   2.394   0.608   5.993
 3339SOL    HW110916   2.442   0.528   5.956
 3339SOL    HW210917   2.460   0.668   6.037
 3340SOL     OW10918   4.001   1.217   4.053
 3340SOL    HW110919   3.930   1.287   4.058
 3340SOL    HW210920   3.959   1.127   4.056
 3341SOL     OW10921   2.381   4.802   2.663
 3341SOL    HW110922   2.427   4.727   2.616
 3341SOL    HW210923   2.414   4.889   2.628
 3342SOL     OW10924   6.367   6.976   3.021
 3342SOL    HW110925   6.316   6.946   2.941
 3342SOL    HW210926   6.351   6.914   3.097
 3343SOL     OW10927   4.954   5.488   6.511
 3343SOL    HW110928   4.941   5.533   6.599
 3343SOL    HW210929   5.051   5.468   6.498
 3344SOL     OW10930   7.021   3.106   1.435
 3344SOL    HW110931   6.948   3.050   1.395
 3344SOL    HW210932   0.068   3.119   1.368
 3345SOL     OW10933   0.214   4.541   0.817
 3345SOL    HW110934   0.137   4.605   0.813
 3345SOL    HW210935   0.281   4.574   0.883
 3346SOL     OW10936   1.800   0.913   6.925
 3346SOL    HW110937   1.828   0.833   6.872
 3346SOL    HW210938   1.862   0.924   7.004
 3347SOL     OW10939   0.847   3.137   6.295
 3347SOL    HW110940   0.924   3.141   6.360
 3347SOL    HW210941   0.763   3.117   6.345
 3348SOL     OW10942   3.925   3.896   6.068
 3348SOL    HW110943   3.958   3.963   6.135
 3348SOL    HW210944   3.987   3.894   5.989
 3349SOL     OW10945   2.890   4.779   3.516
 3349SOL    HW110946   2.908   4.856   3.456
 3349SOL    HW210947   2.895   4.694   3.464
 3350SOL     OW10948   0.085   4.107   5.554
 3350SOL    HW110949   0.097   4.142   5.647
 3350SOL    HW210950   0.162   4.136   5.497
 3351SOL     OW10951   5.070   1.133   0.660
 3351SOL    HW110952   5.066   1.037   0.634
 3351SOL    HW210953   5.116   1.142   0.749
 3352SOL     OW10954   5.373   3.094   6.329
 3352SOL    HW110955   5.400   3.166   6.266
 3352SOL    HW210956   5.334   3.134   6.412
 3353SOL     OW10957   2.536   1.028   1.891
 3353SOL    HW110958   2.557   0.941   1.846
 3353SOL    HW210959   2.509   1.096   1.824
 3354SOL     OW10960   3.786   2.770   6.103
 3354SOL    HW110961   3.762   2.804   6.012
 3354SOL    HW210962   3.749   2.832   6.173
 3355SOL     OW10963   1.990   0.558   4.920
 3355SOL    HW110964   1.911   0.614   4.944
 3355SOL    HW210965   2.060   0.566   4.992
 3356SOL     OW10966   1.491   6.875   5.543
 3356SOL    HW110967   1.430   6.797   5.552
 3356SOL    HW210968   1.503   6.898   5.446
 3357SOL     OW10969   3.339   3.136   1.491
 3357SOL    HW110970   3.346   3.199   1.568
 3357SOL    HW210971   3.412   3.068   1.497
 3358SOL     OW10972   6.374   0.587   2.893
 3358SOL    HW110973   6.298   0.548   2.842
 3358SOL    HW210974   6.352   0.590   2.990
 3359SOL     OW10975   6.716   5.665   4.238
 3359SOL    HW110976   6.673   5.635   4.153
 3359SOL    HW210977   6.747   5.586   4.289
 3360SOL     OW10978   6.853   3.008   5.551
 3360SOL    HW110979   6.830   2.991   5.456
 3360SOL    HW210980   6.942   3.053   5.557
 3361SOL     OW10981   0.431   0.863   4.825
 3361SOL    HW110982   0.466   0.938   4.769
 3361SOL    HW210983   0.421   0.781   4.769
 3362SOL     OW10984   3.624   1.663   4.032
 3362SOL    HW110985   3.596   1.635   4.124
 3362SOL    HW210986   3.604   1.760   4.019
 3363SOL     OW10987   5.877   3.267   1.516
 3363SOL    HW110988   5.828   3.180   1.518
 3363SOL    HW210989   5.957   3.259   1.457
 3364SOL     OW10990   2.296   4.363   2.988
 3364SOL    HW110991   2.284   4.442   2.927
 3364SOL    HW210992   2.388   4.366   3.029
 3365SOL     OW10993   2.212   3.220   4.602
 3365SOL    HW110994   2.164   3.307   4.616
 3365SOL    HW210995   2.212   3.168   4.687
 3366SOL     OW10996   6.140   3.587   4.256
 3366SOL    HW110997   6.230   3.599   4.213
 3366SOL    HW210998   6.140   3.629   4.346
 3367SOL     OW10999   3.821   3.317   4.546
 3367SOL    HW111000   3.816   3.394   4.609
 3367SOL    HW211001   3.841   3.233   4.597
 3368SOL     OW11002   1.729   5.921   0.392
 3368SOL    HW111003   1.824   5.952   0.390
 3368SOL    HW211004   1.693   5.919   0.299
 3369SOL     OW11005   4.270   2.550   1.062
 3369SOL    HW111006   4.217   2.467   1.075
 3369SOL    HW211007   4.292   2.560   0.965
 3370SOL     OW11008   0.400   5.596   1.842
 3370SOL    HW111009   0.490   5.638   1.855
 3370SOL    HW211010   0.356   5.581   1.931
 3371SOL     OW11011   2.302   2.779   3.252
 3371SOL    HW111012   2.357   2.860   3.233
 3371SOL    HW211013   2.212   2.788   3.209
 3372SOL     OW11014   6.625   3.335   1.231
 3372SOL    HW111015   6.620   3.249   1.180
 3372SOL    HW211016   6.586   3.322   1.322
 3373SOL     OW11017   0.292   2.304   1.553
 3373SOL    HW111018   0.299   2.205   1.565
 3373SOL    HW211019   0.197   2.332   1.564
 3374SOL     OW11020   0.635   0.547   3.634
 3374SOL    HW111021   0.570   0.552   3.710
 3374SOL    HW211022   0.606   0.477   3.569
 3375SOL     OW11023   6.797   4.928   6.668
 3375SOL    HW111024   6.855   4.862   6.620
 3375SOL    HW211025   6.854   4.991   6.721
 3376SOL     OW11026   2.648   3.551   5.585
 3376SOL    HW111027   2.707   3.620   5.543
 3376SOL    HW211028   2.594   3.594   5.658
 3377SOL     OW11029   5.715   4.330   2.952
 3377SOL    HW111030   5.730   4.246   3.004
 3377SOL    HW211031   5.795   4.388   2.959
 3378SOL     OW11032   1.316   6.332   6.690
 3378SOL    HW111033   1.288   6.428   6.691
 3378SOL    HW211034   1.285   6.287   6.774
 3379SOL     OW11035   0.417   4.016   3.899
 3379SOL    HW111036   0.493   4.002   3.836
 3379SOL    HW211037   0.340   4.057   3.848
 3380SOL     OW11038   3.857   4.447   5.908
 3380SOL    HW111039   3.811   4.489   5.829
 3380SOL    HW211040   3.805   4.367   5.937
 3381SOL     OW11041   1.671   3.262   1.460
 3381SOL    HW111042   1.635   3.345   1.504
 3381SOL    HW211043   1.771   3.266   1.458
 3382SOL     OW11044   6.839   2.240   0.741
 3382SOL    HW111045   6.741   2.245   0.723
 3382SOL    HW211046   6.871   2.327   0.779
 3383SOL     OW11047   4.951   5.088   0.116
 3383SOL    HW111048   4.947   5.160   0.185
 3383SOL    HW211049   4.979   5.002   0.159
 3384SOL     OW11050   2.691   4.165   0.713
 3384SOL    HW111051   2.659   4.157   0.807
 3384SOL    HW211052   2.682   4.076   0.667
 3385SOL     OW11053   0.559   2.157   3.169
 3385SOL    HW111054   0.469   2.119   3.191
 3385SOL    HW211055   0.628   2.086   3.181
 3386SOL     OW11056   6.455   4.868   6.674
 3386SOL    HW111057   6.449   4.926   6.755
 3386SOL    HW211058   6.438   4.773   6.700
 3387SOL     OW11059   6.257   0.086   3.314
 3387SOL    HW111060   6.247   0.019   3.388
 3387SOL    HW211061   6.349   0.076   3.274
 3388SOL     OW11062   6.138   3.042   1.744
 3388SOL    HW111063   6.238   3.043   1.743
 3388SOL    HW211064   6.104   3.130   1.711
 3389SOL     OW11065   6.058   5.975   0.877
 3389SOL    HW111066   6.115   6.010   0.802
 3389SOL    HW211067   5.981   5.924   0.839
 3390SOL     OW11068   3.926   6.239   6.173
 3390SOL    HW111069   3.854   6.299   6.209
 3390SOL    HW211070   3.950   6.267   6.080
 3391SOL     OW11071   5.518   2.924   3.444
 3391SOL    HW111072   5.430   2.921   3.490
 3391SOL    HW211073   5.524   2.848   3.379
 3392SOL     OW11074   4.302   6.672   5.675
 3392SOL    HW111075   4.283   6.632   5.764
 3392SOL    HW211076   4.237   6.745   5.655
 3393SOL     OW11077   5.180   6.637   1.274
 3393SOL    HW111078   5.164   6.725   1.319
 3393SOL    HW211079   5.096   6.607   1.229
 3394SOL     OW11080   2.869   5.473   1.816
 3394SOL    HW111081   2.854   5.376   1.837
 3394SOL    HW211082   2.848   5.489   1.719
 3395SOL     OW11083   4.015   0.205   2.972
 3395SOL    HW111084   3.957   0.281   2.945
 3395SOL    HW211085   4.104   0.213   2.927
 3396SOL     OW11086   4.182   1.788   3.832
 3396SOL    HW111087   4.248   1.714   3.819
 3396SOL    HW211088   4.122   1.767   3.910
 3397SOL     OW11089   2.575   5.654   6.557
 3397SOL    HW111090   2.604   5.592   6.484
 3397SOL    HW211091   2.655   5.698   6.598
 3398SOL     OW11092   6.795   2.083   5.029
 3398SOL    HW111093   6.853   2.123   5.100
 3398SOL    HW211094   6.761   1.994   5.060
 3399SOL     OW11095   0.014   4.998   2.564
 3399SOL    HW111096   6.942   4.978   2.572
 3399SOL    HW211097   0.064   4.947   2.634
 3400SOL     OW11098   5.643   2.565   5.558
 3400SOL    HW111099   5.560   2.570   5.614
 3400SOL    HW211100   5.662   2.470   5.536
 3401SOL     OW11101   6.865   3.499   5.460
 3401SOL    HW111102   6.887   3.584   5.412
 3401SOL    HW211103   6.929   3.427   5.434
 3402SOL     OW11104   6.714   4.682   1.441
 3402SOL    HW111105   6.733   4.632   1.525
 3402SOL    HW211106   6.662   4.765   1.462
 3403SOL     OW11107   4.084   6.556   6.675
 3403SOL    HW111108   4.041   6.640   6.642
 3403SOL    HW211109   4.015   6.485   6.683
 3404SOL     OW11110   5.256   3.409   5.372
 3404SOL    HW111111   5.270   3.434   5.468
 3404SOL    HW211112   5.168   3.445   5.341
 3405SOL     OW11113   5.667   6.107   5.729
 3405SOL    HW111114   5.715   6.135   5.646
 3405SOL    HW211115   5.716   6.141   5.809
 3406SOL     OW11116   1.886   3.870   1.920
 3406SOL    HW111117   1.954   3.884   1.848
 3406SOL    HW211118   1.933   3.851   2.007
 3407SOL     OW11119   1.675   3.975   0.141
 3407SOL    HW111120   1.734   4.037   0.192
 3407SOL    HW211121   1.721   3.887   0.129
 3408SOL     OW11122   5.076   2.290   3.988
 3408SOL    HW111123   5.081   2.369   3.928
 3408SOL    HW211124   5.027   2.215   3.941
 3409SOL     OW11125   4.736   1.339   0.946
 3409SOL    HW111126   4.647   1.382   0.933
 3409SOL    HW211127   4.790   1.394   1.010
 3410SOL     OW11128   5.020   0.325   2.244
 3410SOL    HW111129   4.943   0.353   2.301
 3410SOL    HW211130   4.994   0.331   2.148
 3411SOL     OW11131   6.991   2.085   0.561
 3411SOL    HW111132   6.945   2.123   0.641
 3411SOL    HW211133   7.017   2.159   0.499
 3412SOL     OW11134   5.583   3.117   1.774
 3412SOL    HW111135   5.605   3.211   1.800
 3412SOL    HW211136   5.538   3.071   1.851
 3413SOL     OW11137   0.079   1.863   5.787
 3413SOL    HW111138   7.009   1.854   5.815
 3413SOL    HW211139   0.134   1.892   5.865
 3414SOL     OW11140   4.184   3.058   1.156
 3414SOL    HW111141   4.272   3.104   1.165
 3414SOL    HW211142   4.142   3.083   1.069
 3415SOL     OW11143   2.107   2.565   5.067
 3415SOL    HW111144   2.055   2.623   5.004
 3415SOL    HW211145   2.191   2.611   5.093
 3416SOL     OW11146   6.532   0.022   6.515
 3416SOL    HW111147   6.603   0.030   6.585
 3416SOL    HW211148   6.527   6.954   6.483
 3417SOL     OW11149   6.784   6.823   3.005
 3417SOL    HW111150   6.718   6.763   2.959
 3417SOL    HW211151   6.801   6.789   3.098
 3418SOL     OW11152   4.599   4.822   1.400
 3418SOL    HW111153   4.582   4.844   1.304
 3418SOL    HW211154   4.672   4.754   1.406
 3419SOL     OW11155   3.110   6.001   6.124
 3419SOL    HW111156   3.021   5.970   6.090
 3419SOL    HW211157   3.107   6.100   6.139
 3420SOL     OW11158   4.351   2.358   3.798
 3420SOL    HW111159   4.309   2.333   3.885
 3420SOL    HW211160   4.354   2.278   3.739
 3421SOL     OW11161   5.487   2.341   3.566
 3421SOL    HW111162   5.573   2.331   3.616
 3421SOL    HW211163   5.488   2.426   3.514
 3422SOL     OW11164   1.978   6.983   1.006
 3422SOL    HW111165   2.046   6.964   1.077
 3422SOL    HW211166   2.008   6.941   0.920
 3423SOL     OW11167   0.902   4.541   5.419
 3423SOL    HW111168   0.890   4.640   5.428
 3423SOL    HW211169   0.922   4.501   5.508
 3424SOL     OW11170   4.712   0.166   1.673
 3424SOL    HW111171   4.749   0.258   1.662
 3424SOL    HW211172   4.757   0.121   1.750
 3425SOL     OW11173   5.886   4.197   1.468
 3425SOL    HW111174   5.866   4.110   1.514
 3425SOL    HW211175   5.942   4.254   1.528
 3426SOL     OW11176   5.505   3.729   0.039
 3426SOL    HW111177   5.567   3.699   6.993
 3426SOL    HW211178   5.542   3.702   0.128
 3427SOL     OW11179   1.145   2.651   0.428
 3427SOL    HW111180   1.191   2.563   0.412
 3427SOL    HW211181   1.163   2.682   0.521
 3428SOL     OW11182   5.338   6.116   5.183
 3428SOL    HW111183   5.251   6.094   5.138
 3428SOL    HW211184   5.320   6.152   5.274
 3429SOL     OW11185   0.061   0.502   1.476
 3429SOL    HW111186   0.160   0.507   1.459
 3429SOL    HW211187   0.012   0.526   1.392
 3430SOL     OW11188   2.372   4.519   5.461
 3430SOL    HW111189   2.424   4.448   5.414
 3430SOL    HW211190   2.292   4.545   5.405
 3431SOL     OW11191   2.490   6.103   2.620
 3431SOL    HW111192   2.423   6.115   2.692
 3431SOL    HW211193   2.452   6.046   2.548
 3432SOL     OW11194   2.329   4.240   0.873
 3432SOL    HW111195   2.342   4.334   0.839
 3432SOL    HW211196   2.417   4.193   0.874
 3433SOL     OW11197   2.717   0.862   6.525
 3433SOL    HW111198   2.689   0.950   6.565
 3433SOL    HW211199   2.751   0.878   6.432
 3434SOL     OW11200   3.005   1.822   1.286
 3434SOL    HW111201   3.024   1.738   1.337
 3434SOL    HW211202   3.031   1.901   1.341
 3435SOL     OW11203   2.287   0.775   0.334
 3435SOL    HW111204   2.263   0.679   0.327
 3435SOL    HW211205   2.277   0.805   0.429
 3436SOL     OW11206   3.239   6.060   0.588
 3436SOL    HW111207   3.265   6.153   0.615
 3436SOL    HW211208   3.140   6.049   0.594
 3437SOL     OW11209   1.395   6.409   6.338
 3437SOL    HW111210   1.396   6.504   6.370
 3437SOL    HW211211   1.466   6.358   6.386
 3438SOL     OW11212   1.084   4.130   1.255
 3438SOL    HW111213   1.082   4.050   1.195
 3438SOL    HW211214   1.043   4.106   1.343
 3439SOL     OW11215   1.914   5.578   2.058
 3439SOL    HW111216   1.913   5.487   2.099
 3439SOL    HW211217   1.847   5.582   1.984
 3440SOL     OW11218   3.943   3.745   4.634
 3440SOL    HW111219   4.010   3.682   4.673
 3440SOL    HW211220   3.920   3.716   4.542
 3441SOL     OW11221   5.733   5.658   5.535
 3441SOL    HW111222   5.832   5.671   5.538
 3441SOL    HW211223   5.691   5.696   5.618
 3442SOL     OW11224   3.746   3.160   1.431
 3442SOL    HW111225   3.844   3.149   1.448
 3442SOL    HW211226   3.731   3.194   1.339
 3443SOL     OW11227   2.089   6.047   2.212
 3443SOL    HW111228   2.007   5.989   2.201
 3443SOL    HW211229   2.087   6.119   2.143
 3444SOL     OW11230   5.728   3.644   1.480
 3444SOL    HW111231   5.819   3.612   1.505
 3444SOL    HW211232   5.734   3.708   1.403
 3445SOL     OW11233   6.146   4.254   3.378
 3445SOL    HW111234   6.177   4.178   3.436
 3445SOL    HW211235   6.105   4.325   3.435
 3446SOL     OW11236   5.274   1.093   1.170
 3446SOL    HW111237   5.349   1.104   1.236
 3446SOL    HW211238   5.208   1.026   1.206
 3447SOL     OW11239   4.974   0.952   0.241
 3447SOL    HW111240   4.945   1.043   0.211
 3447SOL    HW211241   4.894   0.892   0.246
 3448SOL     OW11242   1.508   6.111   4.833
 3448SOL    HW111243   1.473   6.065   4.914
 3448SOL    HW211244   1.550   6.044   4.772
 3449SOL     OW11245   6.431   4.103   5.252
 3449SOL    HW111246   6.390   4.012   5.262
 3449SOL    HW211247   6.530   4.094   5.246
 3450SOL     OW11248   1.508   6.100   0.395
 3450SOL    HW111249   1.448   6.062   0.465
 3450SOL    HW211250   1.595   6.051   0.395
 3451SOL     OW11251   2.210   6.318   1.054
 3451SOL    HW111252   2.213   6.242   0.990
 3451SOL    HW211253   2.165   6.396   1.010
 3452SOL     OW11254   4.838   0.366   5.708
 3452SOL    HW111255   4.937   0.371   5.710
 3452SOL    HW211256   4.808   0.319   5.625
 3453SOL     OW11257   5.178   6.323   5.794
 3453SOL    HW111258   5.090   6.277   5.779
 3453SOL    HW211259   5.249   6.255   5.809
 3454SOL     OW11260   1.205   2.584   2.176
 3454SOL    HW111261   1.182   2.644   2.253
 3454SOL    HW211262   1.171   2.625   2.092
 3455SOL     OW11263   1.116   3.513   5.874
 3455SOL    HW111264   1.073   3.596   5.908
 3455SOL    HW211265   1.211   3.509   5.905
 3456SOL     OW11266   5.144   3.817   2.480
 3456SOL    HW111267   5.067   3.880   2.485
 3456SOL    HW211268   5.134   3.760   2.398
 3457SOL     OW11269   3.925   5.803   5.257
 3457SOL    HW111270   4.020   5.835   5.254
 3457SOL    HW211271   3.890   5.795   5.164
 3458SOL     OW11272   4.379   1.428   2.947
 3458SOL    HW111273   4.467   1.419   2.900
 3458SOL    HW211274   4.387   1.499   3.017
 3459SOL     OW11275   3.975   0.362   3.229
 3459SOL    HW111276   4.026   0.413   3.298
 3459SOL    HW211277   4.038   0.307   3.175
 3460SOL     OW11278   4.172   2.034   5.528
 3460SOL    HW111279   4.134   2.051   5.619
 3460SOL    HW211280   4.264   1.996   5.537
 3461SOL     OW11281   5.581   4.869   6.338
 3461SOL    HW111282   5.589   4.794   6.404
 3461SOL    HW211283   5.503   4.852   6.278
 3462SOL     OW11284   2.578   3.878   6.812
 3462SOL    HW111285   2.580   3.839   6.719
 3462SOL    HW211286   2.506   3.833   6.865
 3463SOL     OW11287   5.906   4.359   1.066
 3463SOL    HW111288   5.850   4.292   1.115
 3463SOL    HW211289   6.002   4.344   1.088
 3464SOL     OW11290   0.093   4.819   6.160
 3464SOL    HW111291   0.092   4.799   6.062
 3464SOL    HW211292   0.003   4.853   6.188
 3465SOL     OW11293   1.942   0.642   1.926
 3465SOL    HW111294   2.036   0.635   1.960
 3465SOL    HW211295   1.915   0.556   1.884
 3466SOL     OW11296   6.293   3.864   5.189
 3466SOL    HW111297   6.312   3.927   5.114
 3466SOL    HW211298   6.198   3.874   5.217
 3467SOL     OW11299   1.796   2.045   6.407
 3467SOL    HW111300   1.848   2.003   6.481
 3467SOL    HW211301   1.809   2.144   6.410
 3468SOL     OW11302   3.271   0.510   3.914
 3468SOL    HW111303   3.208   0.432   3.918
 3468SOL    HW211304   3.291   0.532   3.819
 3469SOL     OW11305   5.763   2.395   3.166
 3469SOL    HW111306   5.804   2.483   3.186
 3469SOL    HW211307   5.664   2.405   3.157
 3470SOL     OW11308   0.100   5.636   0.999
 3470SOL    HW111309   0.170   5.697   0.959
 3470SOL    HW211310   0.110   5.544   0.961
 3471SOL     OW11311   4.280   5.998   5.038
 3471SOL    HW111312   4.362   6.029   5.086
 3471SOL    HW211313   4.212   5.966   5.104
 3472SOL     OW11314   3.216   1.172   5.370
 3472SOL    HW111315   3.208   1.113   5.450
 3472SOL    HW211316   3.194   1.120   5.288
 3473SOL     OW11317   5.322   0.883   6.177
 3473SOL    HW111318   5.381   0.823   6.121
 3473SOL    HW211319   5.312   0.971   6.131
 3474SOL     OW11320   3.853   5.112   1.494
 3474SOL    HW111321   3.929   5.057   1.531
 3474SOL    HW211322   3.826   5.074   1.405
 3475SOL     OW11323   1.272   5.876   4.343
 3475SOL    HW111324   1.246   5.914   4.254
 3475SOL    HW211325   1.190   5.864   4.399
 3476SOL     OW11326   4.608   0.874   4.109
 3476SOL    HW111327   4.661   0.846   4.189
 3476SOL    HW211328   4.622   0.809   4.034
 3477SOL     OW11329   3.707   6.065   1.031
 3477SOL    HW111330   3.659   6.152   1.045
 3477SOL    HW211331   3.650   6.004   0.976
 3478SOL     OW11332   3.787   5.364   7.023
 3478SOL    HW111333   3.721   5.396   0.066
 3478SOL    HW211334   3.880   5.381   0.030
 3479SOL     OW11335   0.982   0.601   1.652
 3479SOL    HW111336   0.940   0.616   1.562
 3479SOL    HW211337   0.910   0.590   1.721
 3480SOL     OW11338   0.487   1.283   3.117
 3480SOL    HW111339   0.508   1.381   3.122
 3480SOL    HW211340   0.569   1.230   3.139
 3481SOL     OW11341   2.592   6.258   6.805
 3481SOL    HW111342   2.679   6.286   6.765
 3481SOL    HW211343   2.550   6.189   6.746
 3482SOL     OW11344   0.093   2.462   0.614
 3482SOL    HW111345   0.006   2.472   0.662
 3482SOL    HW211346   0.078   2.417   0.525
 3483SOL     OW11347   2.541   0.646   1.608
 3483SOL    HW111348   2.472   0.705   1.566
 3483SOL    HW211349   2.524   0.551   1.582
 3484SOL     OW11350   3.891   3.607   3.793
 3484SOL    HW111351   3.881   3.517   3.751
 3484SOL    HW211352   3.981   3.644   3.771
 3485SOL     OW11353   1.183   3.057   5.030
 3485SOL    HW111354   1.148   3.149   5.013
 3485SOL    HW211355   1.282   3.061   5.047
 3486SOL     OW11356   4.764   2.132   1.614
 3486SOL    HW111357   4.771   2.040   1.575
 3486SOL    HW211358   4.707   2.189   1.555
 3487SOL     OW11359   5.952   1.493   6.458
 3487SOL    HW111360   5.988   1.559   6.524
 3487SOL    HW211361   5.991   1.511   6.368
 3488SOL     OW11362   5.662   3.397   3.569
 3488SOL    HW111363   5.594   3.333   3.533
 3488SOL    HW211364   5.754   3.359   3.558
 3489SOL     OW11365   3.391   0.488   1.499
 3489SOL    HW111366   3.325   0.560   1.521
 3489SOL    HW211367   3.479   0.530   1.477
 3490SOL     OW11368   4.664   4.053   0.220
 3490SOL    HW111369   4.669   4.132   0.158
 3490SOL    HW211370   4.677   4.085   0.314
 3491SOL     OW11371   0.370   3.213   5.374
 3491SOL    HW111372   0.337   3.125   5.408
 3491SOL    HW211373   0.467   3.223   5.396
 3492SOL     OW11374   6.675   4.536   6.804
 3492SOL    HW111375   6.764   4.573   6.830
 3492SOL    HW211376   6.687   4.447   6.761
 3493SOL     OW11377   6.458   4.643   0.816
 3493SOL    HW111378   6.519   4.613   0.890
 3493SOL    HW211379   6.511   4.695   0.749
 3494SOL     OW11380   3.231   0.292   1.375
 3494SOL    HW111381   3.273   0.371   1.420
 3494SOL    HW211382   3.143   0.273   1.417
 3495SOL     OW11383   4.507   4.920   1.095
 3495SOL    HW111384   4.546   5.011   1.105
 3495SOL    HW211385   4.408   4.927   1.083
 3496SOL     OW11386   2.011   2.557   0.682
 3496SOL    HW111387   1.989   2.506   0.599
 3496SOL    HW211388   2.025   2.653   0.658
 3497SOL     OW11389   4.583   0.700   3.875
 3497SOL    HW111390   4.495   0.728   3.838
 3497SOL    HW211391   4.586   0.601   3.886
 3498SOL     OW11392   2.615   1.608   1.811
 3498SOL    HW111393   2.685   1.610   1.740
 3498SOL    HW211394   2.622   1.690   1.868
 3499SOL     OW11395   6.495   2.947   4.343
 3499SOL    HW111396   6.539   3.011   4.281
 3499SOL    HW211397   6.502   2.982   4.437
 3500SOL     OW11398   6.106   3.865   6.751
 3500SOL    HW111399   6.168   3.910   6.815
 3500SOL    HW211400   6.062   3.787   6.796
 3501SOL     OW11401   2.008   4.413   4.783
 3501SOL    HW111402   1.980   4.335   4.727
 3501SOL    HW211403   2.107   4.415   4.790
 3502SOL     OW11404   1.073   2.450   0.666
 3502SOL    HW111405   1.117   2.530   0.707
 3502SOL    HW211406   1.131   2.415   0.592
 3503SOL     OW11407   4.913   6.243   5.345
 3503SOL    HW111408   4.886   6.235   5.249
 3503SOL    HW211409   4.837   6.214   5.403
 3504SOL     OW11410   2.200   3.181   1.697
 3504SOL    HW111411   2.297   3.203   1.691
 3504SOL    HW211412   2.188   3.084   1.716
 3505SOL     OW11413   5.554   5.473   5.730
 3505SOL    HW111414   5.632   5.458   5.670
 3505SOL    HW211415   5.564   5.418   5.813
 3506SOL     OW11416   4.918   5.733   3.303
 3506SOL    HW111417   4.966   5.738   3.391
 3506SOL    HW211418   4.874   5.644   3.293
 3507SOL     OW11419   0.771   0.141   6.379
 3507SOL    HW111420   0.736   0.164   6.470
 3507SOL    HW211421   0.765   0.042   6.365
 3508SOL     OW11422   5.727   3.997   0.074
 3508SOL    HW111423   5.755   3.904   0.050
 3508SOL    HW211424   5.638   3.994   0.119
 3509SOL     OW11425   6.425   6.511   0.128
 3509SOL    HW111426   6.425   6.504   0.228
 3509SOL    HW211427   6.338   6.548   0.097
 3510SOL     OW11428   2.357   2.371   1.971
 3510SOL    HW111429   2.280   2.435   1.965
 3510SOL    HW211430   2.323   2.278   1.959
 3511SOL     OW11431   0.496   2.227   6.880
 3511SOL    HW111432   0.512   2.326   6.873
 3511SOL    HW211433   0.532   2.182   6.798
 3512SOL     OW11434   2.727   2.753   0.838
 3512SOL    HW111435   2.628   2.754   0.852
 3512SOL    HW211436   2.759   2.659   0.828
 3513SOL     OW11437   6.415   4.001   1.453
 3513SOL    HW111438   6.467   3.931   1.501
 3513SOL    HW211439   6.423   4.088   1.503
 3514SOL     OW11440   0.534   6.282   1.147
 3514SOL    HW111441   0.600   6.212   1.121
 3514SOL    HW211442   0.566   6.330   1.228
 3515SOL     OW11443   3.270   6.559   3.124
 3515SOL    HW111444   3.171   6.553   3.138
 3515SOL    HW211445   3.310   6.620   3.193
 3516SOL     OW11446   2.977   1.380   0.871
 3516SOL    HW111447   2.945   1.286   0.871
 3516SOL    HW211448   2.988   1.412   0.965
 3517SOL     OW11449   1.155   1.499   6.671
 3517SOL    HW111450   1.173   1.471   6.577
 3517SOL    HW211451   1.133   1.597   6.673
 3518SOL     OW11452   4.475   3.229   6.195
 3518SOL    HW111453   4.486   3.275   6.107
 3518SOL    HW211454   4.378   3.214   6.213
 3519SOL     OW11455   1.979   6.467   6.598
 3519SOL    HW111456   1.971   6.379   6.646
 3519SOL    HW211457   1.904   6.527   6.625
 3520SOL     OW11458   3.657   5.712   1.320
 3520SOL    HW111459   3.624   5.697   1.227
 3520SOL    HW211460   3.579   5.710   1.383
 3521SOL     OW11461   5.782   2.445   1.390
 3521SOL    HW111462   5.824   2.354   1.388
 3521SOL    HW211463   5.853   2.515   1.388
 3522SOL     OW11464   3.282   5.041   2.383
 3522SOL    HW111465   3.282   5.132   2.426
 3522SOL    HW211466   3.291   5.051   2.284
 3523SOL     OW11467   2.530   4.862   4.667
 3523SOL    HW111468   2.550   4.954   4.700
 3523SOL    HW211469   2.554   4.795   4.737
 3524SOL     OW11470   2.720   0.429   0.892
 3524SOL    HW111471   2.725   0.528   0.901
 3524SOL    HW211472   2.811   0.393   0.870
 3525SOL     OW11473   0.553   2.934   2.524
 3525SOL    HW111474   0.615   3.008   2.501
 3525SOL    HW211475   0.463   2.951   2.483
 3526SOL     OW11476   1.352   0.679   2.419
 3526SOL    HW111477   1.253   0.679   2.431
 3526SOL    HW211478   1.374   0.661   2.323
 3527SOL     OW11479   5.372   3.300   6.148
 3527SOL    HW111480   5.273   3.293   6.134
 3527SOL    HW211481   5.403   3.391   6.121
 3528SOL     OW11482   0.602   6.530   4.142
 3528SOL    HW111483   0.638   6.589   4.214
 3528SOL    HW211484   0.534   6.582   4.088
 3529SOL     OW11485   4.298   6.030   5.620
 3529SOL    HW111486   4.218   6.014   5.678
 3529SOL    HW211487   4.325   6.126   5.626
 3530SOL     OW11488   2.566   5.650   2.767
 3530SOL    HW111489   2.662   5.677   2.765
 3530SOL    HW211490   2.509   5.729   2.787
 3531SOL     OW11491   5.955   4.326   0.093
 3531SOL    HW111492   5.880   4.303   0.154
 3531SOL    HW211493   6.039   4.280   0.125
 3532SOL     OW11494   2.185   0.298   0.012
 3532SOL    HW111495   2.153   0.329   6.949
 3532SOL    HW211496   2.112   0.307   0.080
 3533SOL     OW11497   0.831   1.454   3.495
 3533SOL    HW111498   0.737   1.488   3.499
 3533SOL    HW211499   0.866   1.441   3.588
 3534SOL     OW11500   4.946   1.044   4.616
 3534SOL    HW111501   4.880   1.078   4.550
 3534SOL    HW211502   4.898   0.996   4.690
 3535SOL     OW11503   5.395   5.181   6.136
 3535SOL    HW111504   5.376   5.115   6.063
 3535SOL    HW211505   5.309   5.223   6.166
 3536SOL     OW11506   1.732   3.564   2.834
 3536SOL    HW111507   1.632   3.555   2.831
 3536SOL    HW211508   1.767   3.582   2.743
 3537SOL     OW11509   1.854   5.329   1.075
 3537SOL    HW111510   1.784   5.258   1.074
 3537SOL    HW211511   1.856   5.373   1.164
 3538SOL     OW11512   3.042   0.300   3.500
 3538SOL    HW111513   3.040   0.375   3.566
 3538SOL    HW211514   2.991   0.327   3.418
 3539SOL     OW11515   4.860   5.155   6.121
 3539SOL    HW111516   4.875   5.244   6.080
 3539SOL    HW211517   4.943   5.099   6.112
 3540SOL     OW11518   3.266   3.428   6.852
 3540SOL    HW111519   3.196   3.383   6.795
 3540SOL    HW211520   3.221   3.483   6.922
 3541SOL     OW11521   2.989   2.260   0.753
 3541SOL    HW111522   3.045   2.242   0.834
 3541SOL    HW211523   2.986   2.359   0.736
 3542SOL     OW11524   5.623   2.085   6.133
 3542SOL    HW111525   5.595   1.995   6.163
 3542SOL    HW211526   5.722   2.087   6.121
 3543SOL     OW11527   1.642   2.648   3.441
 3543SOL    HW111528   1.688   2.569   3.401
 3543SOL    HW211529   1.642   2.639   3.541
 3544SOL     OW11530   2.498   4.542   5.874
 3544SOL    HW111531   2.414   4.540   5.820
 3544SOL    HW211532   2.492   4.475   5.948
 3545SOL     OW11533   3.446   0.129   0.831
 3545SOL    HW111534   3.487   0.050   0.876
 3545SOL    HW211535   3.474   0.212   0.878
 3546SOL     OW11536   6.808   3.426   3.209
 3546SOL    HW111537   6.873   3.391   3.276
 3546SOL    HW211538   6.825   3.523   3.193
 3547SOL     OW11539   0.490   3.690   5.891
 3547SOL    HW111540   0.540   3.635   5.824
 3547SOL    HW211541   0.461   3.632   5.967
 3548SOL     OW11542   5.651   0.858   5.687
 3548SOL    HW111543   5.698   0.910   5.759
 3548SOL    HW211544   5.718   0.814   5.628
 3549SOL     OW11545   2.988   5.810   6.391
 3549SOL    HW111546   2.970   5.720   6.352
 3549SOL    HW211547   3.052   5.860   6.332
 3550SOL     OW11548   5.011   1.226   5.010
 3550SOL    HW111549   5.010   1.326   5.014
 3550SOL    HW211550   5.089   1.192   5.062
 3551SOL     OW11551   4.383   2.122   4.574
 3551SOL    HW111552   4.320   2.176   4.630
 3551SOL    HW211553   4.430   2.055   4.631
 3552SOL     OW11554   0.358   6.003   2.923
 3552SOL    HW111555   0.351   6.090   2.971
 3552SOL    HW211556   0.274   5.951   2.935
 3553SOL     OW11557   4.194   5.378   6.527
 3553SOL    HW111558   4.195   5.366   6.626
 3553SOL    HW211559   4.121   5.323   6.487
 3554SOL     OW11560   4.515   3.420   1.604
 3554SOL    HW111561   4.466   3.468   1.531
 3554SOL    HW211562   4.612   3.415   1.582
 3555SOL     OW11563   2.421   2.250   4.450
 3555SOL    HW111564   2.466   2.261   4.539
 3555SOL    HW211565   2.364   2.329   4.431
 3556SOL     OW11566   4.548   0.791   5.577
 3556SOL    HW111567   4.573   0.884   5.601
 3556SOL    HW211568   4.630   0.734   5.572
 3557SOL     OW11569   6.585   1.376   1.301
 3557SOL    HW111570   6.650   1.379   1.377
 3557SOL    HW211571   6.492   1.368   1.337
 3558SOL     OW11572   3.148   6.898   1.413
 3558SOL    HW111573   3.080   6.928   1.480
 3558SOL    HW211574   3.182   6.976   1.361
 3559SOL     OW11575   3.925   6.130   4.446
 3559SOL    HW111576   3.868   6.073   4.386
 3559SOL    HW211577   3.929   6.223   4.410
 3560SOL     OW11578   2.103   5.967   4.438
 3560SOL    HW111579   2.068   5.875   4.420
 3560SOL    HW211580   2.173   5.989   4.370
 3561SOL     OW11581   4.765   4.183   5.157
 3561SOL    HW111582   4.751   4.087   5.135
 3561SOL    HW211583   4.698   4.239   5.108
 3562SOL     OW11584   2.166   1.319   5.584
 3562SOL    HW111585   2.245   1.345   5.640
 3562SOL    HW211586   2.151   1.388   5.513
 3563SOL     OW11587   5.848   2.522   5.228
 3563SOL    HW111588   5.887   2.535   5.137
 3563SOL    HW211589   5.832   2.425   5.245
 3564SOL     OW11590   6.517   4.097   2.307
 3564SOL    HW111591   6.615   4.114   2.292
 3564SOL    HW211592   6.502   4.073   2.403
 3565SOL     OW11593   3.720   5.895   3.471
 3565SOL    HW111594   3.781   5.836   3.418
 3565SOL    HW211595   3.625   5.865   3.457
 3566SOL     OW11596   0.265   1.299   5.724
 3566SOL    HW111597   0.344   1.332   5.671
 3566SOL    HW211598   0.220   1.376   5.768
 3567SOL     OW11599   0.146   4.804   6.771
 3567SOL    HW111600   0.203   4.884   6.754
 3567SOL    HW211601   0.151   4.742   6.693
 3568SOL     OW11602   6.663   3.694   6.046
 3568SOL    HW111603   6.703   3.735   5.963
 3568SOL    HW211604   6.726   3.707   6.122
 3569SOL     OW11605   2.043   2.246   5.355
 3569SOL    HW111606   2.126   2.301   5.365
 3569SOL    HW211607   2.008   2.256   5.261
 3570SOL     OW11608   6.251   1.323   3.976
 3570SOL    HW111609   6.346   1.291   3.979
 3570SOL    HW211610   6.212   1.320   4.067
 3571SOL     OW11611   6.195   5.727   6.589
 3571SOL    HW111612   6.241   5.714   6.676
 3571SOL    HW211613   6.134   5.806   6.595
 3572SOL     OW11614   5.805   3.685   4.877
 3572SOL    HW111615   5.727   3.673   4.939
 3572SOL    HW211616   5.849   3.773   4.897
 3573SOL     OW11617   1.542   3.274   3.428
 3573SOL    HW111618   1.613   3.250   3.362
 3573SOL    HW211619   1.455   3.285   3.381
 3574SOL     OW11620   0.424   4.231   0.645
 3574SOL    HW111621   0.336   4.246   0.689
 3574SOL    HW211622   0.447   4.133   0.648
 3575SOL     OW11623   6.328   5.377   2.740
 3575SOL    HW111624   6.231   5.380   2.715
 3575SOL    HW211625   6.338   5.400   2.837
 3576SOL     OW11626   0.567   1.319   6.315
 3576SOL    HW111627   0.628   1.240   6.318
 3576SOL    HW211628   0.505   1.311   6.236
 3577SOL     OW11629   0.727   2.688   6.437
 3577SOL    HW111630   0.786   2.683   6.518
 3577SOL    HW211631   0.631   2.687   6.465
 3578SOL     OW11632   3.188   4.714   0.399
 3578SOL    HW111633   3.226   4.800   0.366
 3578SOL    HW211634   3.179   4.718   0.499
 3579SOL     OW11635   6.544   3.496   4.663
 3579SOL    HW111636   6.525   3.535   4.573
 3579SOL    HW211637   6.619   3.430   4.656
 3580SOL     OW11638   6.285   1.491   2.072
 3580SOL    HW111639   6.285   1.495   2.172
 3580SOL    HW211640   6.334   1.409   2.042
 3581SOL     OW11641   6.930   0.375   2.495
 3581SOL    HW111642   7.025   0.344   2.500
 3581SOL    HW211643   6.882   0.350   2.579
 3582SOL     OW11644   1.130   0.518   5.807
 3582SOL    HW111645   1.221   0.522   5.764
 3582SOL    HW211646   1.099   0.610   5.826
 3583SOL     OW11647   0.916   4.917   6.889
 3583SOL    HW111648   0.931   4.820   6.910
 3583SOL    HW211649   0.913   4.969   6.974
 3584SOL     OW11650   5.166   6.311   6.728
 3584SOL    HW111651   5.227   6.339   6.802
 3584SOL    HW211652   5.101   6.384   6.708
 3585SOL     OW11653   3.864   4.909   4.280
 3585SOL    HW111654   3.937   4.881   4.218
 3585SOL    HW211655   3.786   4.943   4.228
 3586SOL     OW11656   6.477   3.438   5.815
 3586SOL    HW111657   6.431   3.412   5.730
 3586SOL    HW211658   6.424   3.406   5.893
 3587SOL     OW11659   3.675   6.721   0.458
 3587SOL    HW111660   3.676   6.820   0.444
 3587SOL    HW211661   3.651   6.701   0.553
 3588SOL     OW11662   1.492   2.324   6.223
 3588SOL    HW111663   1.449   2.351   6.137
 3588SOL    HW211664   1.521   2.228   6.218
 3589SOL     OW11665   2.856   0.813   5.615
 3589SOL    HW111666   2.924   0.860   5.671
 3589SOL    HW211667   2.896   0.791   5.526
 3590SOL     OW11668   1.589   5.355   5.917
 3590SOL    HW111669   1.687   5.348   5.934
 3590SOL    HW211670   1.563   5.294   5.843
 3591SOL     OW11671   5.534   2.782   5.953
 3591SOL    HW111672   5.534   2.875   5.915
 3591SOL    HW211673   5.454   2.771   6.012
 3592SOL     OW11674   5.143   2.831   2.920
 3592SOL    HW111675   5.142   2.732   2.933
 3592SOL    HW211676   5.223   2.870   2.965
 3593SOL     OW11677   1.970   6.578   3.788
 3593SOL    HW111678   2.065   6.564   3.817
 3593SOL    HW211679   1.909   6.566   3.867
 3594SOL     OW11680   2.653   1.042   3.306
 3594SOL    HW111681   2.729   1.081   3.359
 3594SOL    HW211682   2.675   0.947   3.283
 3595SOL     OW11683   2.603   6.639   6.103
 3595SOL    HW111684   2.552   6.683   6.029
 3595SOL    HW211685   2.554   6.558   6.134
 3596SOL     OW11686   6.563   0.958   2.212
 3596SOL    HW111687   6.518   1.031   2.263
 3596SOL    HW211688   6.502   0.923   2.142
 3597SOL     OW11689   4.340   6.160   4.634
 3597SOL    HW111690   4.306   6.110   4.555
 3597SOL    HW211691   4.307   6.254   4.631
 3598SOL     OW11692   0.749   6.901   6.309
 3598SOL    HW111693   0.764   6.824   6.247
 3598SOL    HW211694   0.662   6.888   6.357
 3599SOL     OW11695   6.685   2.130   4.801
 3599SOL    HW111696   6.740   2.103   4.880
 3599SOL    HW211697   6.595   2.161   4.832
 3600SOL     OW11698   6.115   2.944   1.124
 3600SOL    HW111699   6.153   2.872   1.182
 3600SOL    HW211700   6.016   2.935   1.120
 3601SOL     OW11701   0.100   3.580   0.605
 3601SOL    HW111702   0.100   3.568   0.506
 3601SOL    HW211703   0.020   3.535   0.645
 3602SOL     OW11704   1.970   0.872   0.104
 3602SOL    HW111705   2.051   0.824   0.071
 3602SOL    HW211706   1.905   0.806   0.142
 3603SOL     OW11707   4.313   4.907   3.825
 3603SOL    HW111708   4.220   4.941   3.816
 3603SOL    HW211709   4.372   4.955   3.760
 3604SOL     OW11710   6.946   2.354   2.772
 3604SOL    HW111711   6.852   2.329   2.748
 3604SOL    HW211712   6.994   2.385   2.689
 3605SOL     OW11713   5.997   4.056   6.611
 3605SOL    HW111714   6.037   3.972   6.647
 3605SOL    HW211715   5.972   4.116   6.687
 3606SOL     OW11716   6.540   4.462   5.648
 3606SOL    HW111717   6.571   4.551   5.614
 3606SOL    HW211718   6.566   4.452   5.744
 3607SOL     OW11719   5.255   0.715   0.866
 3607SOL    HW111720   5.187   0.774   0.823
 3607SOL    HW211721   5.314   0.676   0.796
 3608SOL     OW11722   0.662   1.838   1.512
 3608SOL    HW111723   0.758   1.857   1.528
 3608SOL    HW211724   0.652   1.753   1.460
 3609SOL     OW11725   6.721   0.819   4.545
 3609SOL    HW111726   6.707   0.911   4.583
 3609SOL    HW211727   6.786   0.769   4.602
 3610SOL     OW11728   0.731   6.224   5.624
 3610SOL    HW111729   0.754   6.320   5.612
 3610SOL    HW211730   0.763   6.172   5.544
 3611SOL     OW11731   3.475   5.353   5.131
 3611SOL    HW111732   3.460   5.436   5.185
 3611SOL    HW211733   3.572   5.330   5.130
 3612SOL     OW11734   1.195   6.392   0.181
 3612SOL    HW111735   1.210   6.490   0.166
 3612SOL    HW211736   1.189   6.345   0.093
 3613SOL     OW11737   5.300   4.973   0.588
 3613SOL    HW111738   5.383   4.934   0.627
 3613SOL    HW211739   5.313   4.989   0.490
 3614SOL     OW11740   3.816   3.775   3.592
 3614SOL    HW111741   3.913   3.775   3.569
 3614SOL    HW211742   3.802   3.728   3.679
 3615SOL     OW11743   6.101   5.266   5.494
 3615SOL    HW111744   6.031   5.219   5.548
 3615SOL    HW211745   6.067   5.278   5.400
 3616SOL     OW11746   6.644   2.106   6.127
 3616SOL    HW111747   6.653   2.057   6.040
 3616SOL    HW211748   6.634   2.041   6.201
 3617SOL     OW11749   6.209   2.365   6.549
 3617SOL    HW111750   6.293   2.310   6.545
 3617SOL    HW211751   6.222   2.449   6.496
 3618SOL     OW11752   1.765   1.867   5.808
 3618SOL    HW111753   1.707   1.927   5.863
 3618SOL    HW211754   1.787   1.785   5.861
 3619SOL     OW11755   6.232   2.590   3.890
 3619SOL    HW111756   6.318   2.549   3.921
 3619SOL    HW211757   6.170   2.601   3.968
 3620SOL     OW11758   5.852   0.486   5.735
 3620SOL    HW111759   5.938   0.452   5.771
 3620SOL    HW211760   5.829   0.573   5.779
 3621SOL     OW11761   2.774   2.816   5.613
 3621SOL    HW111762   2.806   2.754   5.541
 3621SOL    HW211763   2.674   2.815   5.616
 3622SOL     OW11764   0.617   1.358   2.748
 3622SOL    HW111765   0.669   1.339   2.665
 3622SOL    HW211766   0.662   1.316   2.827
 3623SOL     OW11767   5.709   5.180   3.858
 3623SOL    HW111768   5.797   5.219   3.884
 3623SOL    HW211769   5.705   5.084   3.888
 3624SOL     OW11770   2.524   6.450   3.395
 3624SOL    HW111771   2.488   6.483   3.482
 3624SOL    HW211772   2.450   6.409   3.342
 3625SOL     OW11773   6.252   3.405   5.973
 3625SOL    HW111774   6.199   3.445   5.898
 3625SOL    HW211775   6.236   3.307   5.977
 3626SOL     OW11776   2.124   3.455   4.981
 3626SOL    HW111777   2.189   3.418   5.047
 3626SOL    HW211778   2.154   3.547   4.953
 3627SOL     OW11779   3.804   4.036   3.316
 3627SOL    HW111780   3.896   4.059   3.347
 3627SOL    HW211781   3.739   4.045   3.392
 3628SOL     OW11782   2.115   5.527   1.813
 3628SOL    HW111783   2.121   5.437   1.856
 3628SOL    HW211784   2.026   5.538   1.769
 3629SOL     OW11785   6.067   2.200   5.499
 3629SOL    HW111786   6.079   2.235   5.592
 3629SOL    HW211787   6.075   2.275   5.433
 3630SOL     OW11788   5.782   2.233   4.868
 3630SOL    HW111789   5.775   2.203   4.773
 3630SOL    HW211790   5.692   2.263   4.900
 3631SOL     OW11791   2.655   0.054   4.478
 3631SOL    HW111792   2.695   6.997   4.438
 3631SOL    HW211793   2.729   0.110   4.517
 3632SOL     OW11794   5.100   0.857   1.205
 3632SOL    HW111795   5.149   0.771   1.221
 3632SOL    HW211796   5.042   0.847   1.124
 3633SOL     OW11797   2.597   2.379   5.557
 3633SOL    HW111798   2.623   2.385   5.653
 3633SOL    HW211799   2.640   2.454   5.507
 3634SOL     OW11800   1.232   6.605   4.780
 3634SOL    HW111801   1.236   6.514   4.820
 3634SOL    HW211802   1.281   6.669   4.839
 3635SOL     OW11803   2.746   1.376   5.022
 3635SOL    HW111804   2.809   1.355   5.097
 3635SOL    HW211805   2.669   1.430   5.058
 3636SOL     OW11806   0.252   5.650   6.085
 3636SOL    HW111807   0.191   5.730   6.086
 3636SOL    HW211808   0.275   5.624   6.179
 3637SOL     OW11809   5.849   2.189   1.284
 3637SOL    HW111810   5.791   2.236   1.217
 3637SOL    HW211811   5.866   2.096   1.254
 3638SOL     OW11812   6.641   4.379   4.449
 3638SOL    HW111813   6.727   4.363   4.400
 3638SOL    HW211814   6.597   4.461   4.413
 3639SOL     OW11815   3.897   4.053   1.071
 3639SOL    HW111816   3.914   4.133   1.129
 3639SOL    HW211817   3.824   3.998   1.111
 3640SOL     OW11818   3.548   6.222   0.176
 3640SOL    HW111819   3.647   6.236   0.173
 3640SOL    HW211820   3.529   6.128   0.205
 3641SOL     OW11821   3.615   1.298   4.715
 3641SOL    HW111822   3.665   1.340   4.640
 3641SOL    HW211823   3.523   1.338   4.721
 3642SOL     OW11824   4.635   1.089   5.634
 3642SOL    HW111825   4.659   1.103   5.538
 3642SOL    HW211826   4.601   1.175   5.673
 3643SOL     OW11827   3.367   5.662   4.277
 3643SOL    HW111828   3.453   5.696   4.315
 3643SOL    HW211829   3.297   5.664   4.349
 3644SOL     OW11830   6.903   2.278   1.161
 3644SOL    HW111831   6.933   2.186   1.136
 3644SOL    HW211832   6.982   2.330   1.193
 3645SOL     OW11833   5.404   1.756   3.851
 3645SOL    HW111834   5.385   1.659   3.869
 3645SOL    HW211835   5.360   1.811   3.921
 3646SOL     OW11836   6.865   4.493   5.240
 3646SOL    HW111837   6.796   4.421   5.242
 3646SOL    HW211838   6.943   4.464   5.183
 3647SOL     OW11839   1.275   3.113   7.016
 3647SOL    HW111840   1.268   3.208   6.986
 3647SOL    HW211841   1.253   3.107   0.088
 3648SOL     OW11842   4.042   5.481   2.621
 3648SOL    HW111843   3.970   5.540   2.657
 3648SOL    HW211844   4.002   5.396   2.589
 3649SOL     OW11845   4.412   3.522   0.834
 3649SOL    HW111846   4.412   3.424   0.817
 3649SOL    HW211847   4.396   3.571   0.749
 3650SOL     OW11848   6.251   6.288   1.121
 3650SOL    HW111849   6.249   6.283   1.221
 3650SOL    HW211850   6.188   6.358   1.090
 3651SOL     OW11851   0.241   6.112   2.177
 3651SOL    HW111852   0.259   6.200   2.221
 3651SOL    HW211853   0.323   6.081   2.129
 3652SOL     OW11854   4.747   6.558   3.521
 3652SOL    HW111855   4.827   6.577   3.578
 3652SOL    HW211856   4.665   6.592   3.566
 3653SOL     OW11857   6.100   0.887   3.341
 3653SOL    HW111858   6.039   0.809   3.361
 3653SOL    HW211859   6.075   0.964   3.400
 3654SOL     OW11860   2.259   6.696   0.705
 3654SOL    HW111861   2.314   6.761   0.757
 3654SOL    HW211862   2.205   6.640   0.767
 3655SOL     OW11863   1.281   6.971   4.351
 3655SOL    HW111864   1.308   6.995   4.444
 3655SOL    HW211865   1.311   0.017   4.288
 3656SOL     OW11866   1.725   2.366   1.865
 3656SOL    HW111867   1.757   2.377   1.771
 3656SOL    HW211868   1.625   2.376   1.867
 3657SOL     OW11869   4.028   5.528   6.728
 3657SOL    HW111870   3.971   5.603   6.762
 3657SOL    HW211871   3.997   5.501   6.637
 3658SOL     OW11872   0.984   5.480   5.139
 3658SOL    HW111873   0.888   5.456   5.148
 3658SOL    HW211874   1.017   5.517   5.226
 3659SOL     OW11875   2.964   4.516   7.014
 3659SOL    HW111876   2.865   4.500   7.019
 3659SOL    HW211877   3.011   4.430   6.995
 3660SOL     OW11878   4.688   6.335   2.286
 3660SOL    HW111879   4.703   6.396   2.365
 3660SOL    HW211880   4.693   6.388   2.202
 3661SOL     OW11881   5.070   2.532   6.642
 3661SOL    HW111882   4.999   2.470   6.607
 3661SOL    HW211883   5.150   2.478   6.670
 3662SOL     OW11884   3.792   6.906   4.970
 3662SOL    HW111885   3.705   6.899   4.922
 3662SOL    HW211886   3.822   7.002   4.971
 3663SOL     OW11887   1.488   1.246   0.390
 3663SOL    HW111888   1.517   1.288   0.304
 3663SOL    HW211889   1.390   1.226   0.386
 3664SOL     OW11890   4.947   1.555   0.213
 3664SOL    HW111891   4.937   1.523   0.119
 3664SOL    HW211892   4.913   1.649   0.221
 3665SOL     OW11893   0.411   5.792   5.371
 3665SOL    HW111894   0.341   5.770   5.438
 3665SOL    HW211895   0.434   5.889   5.376
 3666SOL     OW11896   1.565   4.509   3.935
 3666SOL    HW111897   1.627   4.488   4.010
 3666SOL    HW211898   1.554   4.608   3.927
 3667SOL     OW11899   6.258   0.862   0.219
 3667SOL    HW111900   6.161   0.844   0.239
 3667SOL    HW211901   6.272   0.857   0.120
 3668SOL     OW11902   1.367   6.704   2.576
 3668SOL    HW111903   1.373   6.804   2.578
 3668SOL    HW211904   1.456   6.666   2.551
 3669SOL     OW11905   5.930   1.724   4.223
 3669SOL    HW111906   5.983   1.769   4.295
 3669SOL    HW211907   5.856   1.671   4.265
 3670SOL     OW11908   2.254   5.410   0.519
 3670SOL    HW111909   2.197   5.491   0.512
 3670SOL    HW211910   2.201   5.335   0.559
 3671SOL     OW11911   6.573   0.164   3.069
 3671SOL    HW111912   6.514   0.086   3.044
 3671SOL    HW211913   6.635   0.137   3.143
 3672SOL     OW11914   6.002   2.159   0.599
 3672SOL    HW111915   5.925   2.219   0.619
 3672SOL    HW211916   5.969   2.065   0.587
 3673SOL     OW11917   3.852   1.073   6.154
 3673SOL    HW111918   3.923   1.087   6.086
 3673SOL    HW211919   3.893   1.072   6.245
 3674SOL     OW11920   0.442   6.655   6.785
 3674SOL    HW111921   0.471   6.750   6.799
 3674SOL    HW211922   0.430   6.637   6.687
 3675SOL     OW11923   1.573   2.489   5.395
 3675SOL    HW111924   1.645   2.552   5.366
 3675SOL    HW211925   1.614   2.403   5.426
 3676SOL     OW11926   4.282   5.273   3.927
 3676SOL    HW111927   4.227   5.192   3.911
 3676SOL    HW211928   4.222   5.352   3.942
 3677SOL     OW11929   0.893   6.293   3.216
 3677SOL    HW111930   0.871   6.359   3.144
 3677SOL    HW211931   0.991   6.296   3.235
 3678SOL     OW11932   1.129   2.148   3.703
 3678SOL    HW111933   1.161   2.164   3.610
 3678SOL    HW211934   1.121   2.236   3.751
 3679SOL     OW11935   0.383   0.760   2.666
 3679SOL    HW111936   0.471   0.805   2.682
 3679SOL    HW211937   0.357   0.769   2.570
 3680SOL     OW11938   6.198   2.958   3.953
 3680SOL    HW111939   6.137   2.982   4.028
 3680SOL    HW211940   6.148   2.906   3.885
 3681SOL     OW11941   1.026   0.763   5.824
 3681SOL    HW111942   1.010   0.846   5.878
 3681SOL    HW211943   0.941   0.737   5.777
 3682SOL     OW11944   6.098   2.213   5.775
 3682SOL    HW111945   6.075   2.117   5.762
 3682SOL    HW211946   6.019   2.262   5.810
 3683SOL     OW11947   6.227   6.949   4.746
 3683SOL    HW111948   6.308   6.910   4.789
 3683SOL    HW211949   6.234   6.938   4.647
 3684SOL     OW11950   1.837   2.836   1.479
 3684SOL    HW111951   1.879   2.923   1.454
 3684SOL    HW211952   1.873   2.806   1.567
 3685SOL     OW11953   6.190   6.041   6.114
 3685SOL    HW111954   6.140   6.002   6.037
 3685SOL    HW211955   6.139   6.024   6.199
 3686SOL     OW11956   6.745   4.931   2.650
 3686SOL    HW111957   6.691   4.848   2.667
 3686SOL    HW211958   6.756   4.981   2.736
 3687SOL     OW11959   3.101   6.531   6.003
 3687SOL    HW111960   3.155   6.457   5.964
 3687SOL    HW211961   3.004   6.507   6.000
 3688SOL     OW11962   0.848   3.909   6.958
 3688SOL    HW111963   0.853   3.810   6.969
 3688SOL    HW211964   0.930   3.941   6.911
 3689SOL     OW11965   1.004   0.348   5.167
 3689SOL    HW111966   1.020   0.347   5.068
 3689SOL    HW211967   0.913   0.386   5.185
 3690SOL     OW11968   4.279   0.656   6.251
 3690SOL    HW111969   4.272   0.698   6.161
 3690SOL    HW211970   4.190   0.662   6.297
 3691SOL     OW11971   2.439   2.910   6.805
 3691SOL    HW111972   2.450   2.846   6.881
 3691SOL    HW211973   2.515   2.900   6.741
 3692SOL     OW11974   0.837   5.619   4.441
 3692SOL    HW111975   0.776   5.559   4.391
 3692SOL    HW211976   0.787   5.664   4.515
 3693SOL     OW11977   1.824   2.569   2.979
 3693SOL    HW111978   1.855   2.517   3.059
 3693SOL    HW211979   1.742   2.526   2.942
 3694SOL     OW11980   1.008   5.415   3.487
 3694SOL    HW111981   0.946   5.425   3.565
 3694SOL    HW211982   1.098   5.449   3.511
 3695SOL     OW11983   0.493   2.352   2.896
 3695SOL    HW111984   0.416   2.378   2.838
 3695SOL    HW211985   0.577   2.353   2.842
 3696SOL     OW11986   4.618   5.949   5.769
 3696SOL    HW111987   4.612   5.854   5.741
 3696SOL    HW211988   4.711   5.983   5.754
 3697SOL     OW11989   6.905   6.446   3.308
 3697SOL    HW111990   6.898   6.347   3.296
 3697SOL    HW211991   6.982   6.467   3.369
 3698SOL     OW11992   3.834   0.339   5.633
 3698SOL    HW111993   3.813   0.288   5.550
 3698SOL    HW211994   3.781   0.423   5.635
 3699SOL     OW11995   6.773   3.661   3.077
 3699SOL    HW111996   6.689   3.715   3.084
 3699SOL    HW211997   6.795   3.647   2.981
 3700SOL     OW11998   6.243   0.718   3.861
 3700SOL    HW111999   6.218   0.793   3.922
 3700SOL    HW212000   6.199   0.634   3.892
 3701SOL     OW12001   0.466   0.923   3.971
 3701SOL    HW112002   0.470   1.017   4.005
 3701SOL    HW212003   0.558   0.890   3.951
 3702SOL     OW12004   4.086   0.008   1.927
 3702SOL    HW112005   4.057   0.095   1.968
 3702SOL    HW212006   4.184   0.011   1.910
 3703SOL     OW12007   4.082   3.920   5.856
 3703SOL    HW112008   4.163   3.941   5.910
 3703SOL    HW212009   4.075   3.986   5.781
 3704SOL     OW12010   3.037   0.933   2.582
 3704SOL    HW112011   2.950   0.923   2.533
 3704SOL    HW212012   3.068   0.843   2.613
 3705SOL     OW12013   4.554   0.028   3.638
 3705SOL    HW112014   4.491   0.106   3.644
 3705SOL    HW212015   4.579   0.013   3.542
 3706SOL     OW12016   1.953   2.688   4.388
 3706SOL    HW112017   1.935   2.621   4.461
 3706SOL    HW212018   1.956   2.780   4.428
 3707SOL     OW12019   5.302   3.027   5.660
 3707SOL    HW112020   5.299   2.937   5.618
 3707SOL    HW212021   5.213   3.071   5.652
 3708SOL     OW12022   5.821   0.255   6.555
 3708SOL    HW112023   5.885   0.322   6.593
 3708SOL    HW212024   5.727   0.287   6.571
 3709SOL     OW12025   3.422   1.041   6.161
 3709SOL    HW112026   3.413   0.985   6.079
 3709SOL    HW212027   3.427   1.137   6.135
 3710SOL     OW12028   6.845   6.143   0.041
 3710SOL    HW112029   6.796   6.203   7.004
 3710SOL    HW212030   6.779   6.096   0.100
 3711SOL     OW12031   0.364   5.874   2.660
 3711SOL    HW112032   0.296   5.834   2.721
 3711SOL    HW212033   0.320   5.945   2.604
 3712SOL     OW12034   6.814   6.368   6.850
 3712SOL    HW112035   6.880   6.426   6.898
 3712SOL    HW212036   6.721   6.398   6.871
 3713SOL     OW12037   2.201   6.090   5.012
 3713SOL    HW112038   2.149   6.024   5.065
 3713SOL    HW212039   2.139   6.157   4.971
 3714SOL     OW12040   4.980   6.488   4.876
 3714SOL    HW112041   4.991   6.557   4.948
 3714SOL    HW212042   4.883   6.466   4.865
 3715SOL     OW12043   6.107   4.262   4.704
 3715SOL    HW112044   6.096   4.165   4.684
 3715SOL    HW212045   6.040   4.315   4.651
 3716SOL     OW12046   6.862   0.030   4.466
 3716SOL    HW112047   6.796   6.988   4.500
 3716SOL    HW212048   6.850   0.116   4.516
 3717SOL     OW12049   5.907   5.557   0.343
 3717SOL    HW112050   5.877   5.485   0.406
 3717SOL    HW212051   6.000   5.539   0.312
 3718SOL     OW12052   1.367   6.600   6.720
 3718SOL    HW112053   1.279   6.626   6.761
 3718SOL    HW212054   1.440   6.611   6.788
 3719SOL     OW12055   4.808   4.345   0.760
 3719SOL    HW112056   4.825   4.301   0.848
 3719SOL    HW212057   4.737   4.415   0.771
 3720SOL     OW12058   6.461   2.400   6.769
 3720SOL    HW112059   6.439   2.310   6.730
 3720SOL    HW212060   6.554   2.425   6.743
 3721SOL     OW12061   5.289   4.812   6.816
 3721SOL    HW112062   5.317   4.862   6.734
 3721SOL    HW212063   5.192   4.790   6.810
 3722SOL     OW12064   6.688   6.390   2.393
 3722SOL    HW112065   6.716   6.347   2.307
 3722SOL    HW212066   6.769   6.429   2.437
 3723SOL     OW12067   5.593   6.715   2.067
 3723SOL    HW112068   5.668   6.741   2.005
 3723SOL    HW212069   5.614   6.747   2.159
 3724SOL     OW12070   1.737   5.098   6.640
 3724SOL    HW112071   1.773   5.090   6.547
 3724SOL    HW212072   1.687   5.015   6.663
 3725SOL     OW12073   6.303   6.144   6.971
 3725SOL    HW112074   6.219   6.197   6.962
 3725SOL    HW212075   6.303   6.098   0.034
 3726SOL     OW12076   7.000   4.023   1.318
 3726SOL    HW112077   0.059   3.971   1.303
 3726SOL    HW212078   6.923   3.960   1.325
 3727SOL     OW12079   0.464   3.171   5.692
 3727SOL    HW112080   0.508   3.227   5.763
 3727SOL    HW212081   0.409   3.230   5.633
 3728SOL     OW12082   2.126   3.438   0.252
 3728SOL    HW112083   2.223   3.420   0.268
 3728SOL    HW212084   2.096   3.514   0.309
 3729SOL     OW12085   0.674   2.437   2.734
 3729SOL    HW112086   0.646   2.431   2.638
 3729SOL    HW212087   0.726   2.521   2.749
 3730SOL     OW12088   2.499   6.992   0.143
 3730SOL    HW112089   2.453   0.031   0.203
 3730SOL    HW212090   2.569   0.014   0.090
 3731SOL     OW12091   5.236   2.094   0.445
 3731SOL    HW112092   5.190   2.180   0.470
 3731SOL    HW212093   5.226   2.028   0.519
 3732SOL     OW12094   2.407   3.347   5.846
 3732SOL    HW112095   2.393   3.439   5.883
 3732SOL    HW212096   2.319   3.304   5.830
 3733SOL     OW12097   2.273   4.107   1.820
 3733SOL    HW112098   2.211   4.090   1.896
 3733SOL    HW212099   2.303   4.020   1.781
 3734SOL     OW12100   4.610   1.469   2.134
 3734SOL    HW112101   4.628   1.471   2.232
 3734SOL    HW212102   4.696   1.470   2.083
 3735SOL     OW12103   1.378   1.914   2.519
 3735SOL    HW112104   1.317   1.924   2.441
 3735SOL    HW212105   1.347   1.973   2.594
 3736SOL     OW12106   0.078   2.876   0.679
 3736SOL    HW112107   0.010   2.843   0.613
 3736SOL    HW212108   0.156   2.917   0.630
 3737SOL     OW12109   4.949   0.434   3.474
 3737SOL    HW112110   4.965   0.335   3.482
 3737SOL    HW212111   5.025   0.484   3.514
 3738SOL     OW12112   6.096   5.793   3.184
 3738SOL    HW112113   6.056   5.880   3.216
 3738SOL    HW212114   6.144   5.749   3.259
 3739SOL     OW12115   1.703   3.998   2.817
 3739SOL    HW112116   1.635   3.955   2.757
 3739SOL    HW212117   1.773   4.042   2.761
 3740SOL     OW12118   4.378   0.827   6.775
 3740SOL    HW112119   4.473   0.798   6.769
 3740SOL    HW212120   4.342   0.844   6.684
 3741SOL     OW12121   4.600   3.881   1.028
 3741SOL    HW112122   4.635   3.787   1.031
 3741SOL    HW212123   4.579   3.912   1.121
 3742SOL     OW12124   3.076   2.507   5.859
 3742SOL    HW112125   3.049   2.513   5.763
 3742SOL    HW212126   2.996   2.521   5.918
 3743SOL     OW12127   6.159   4.844   0.470
 3743SOL    HW112128   6.108   4.873   0.390
 3743SOL    HW212129   6.210   4.760   0.449
 3744SOL     OW12130   0.679   5.443   4.210
 3744SOL    HW112131   0.734   5.376   4.261
 3744SOL    HW212132   0.585   5.409   4.203
 3745SOL     OW12133   3.377   5.305   2.908
 3745SOL    HW112134   3.439   5.265   2.975
 3745SOL    HW212135   3.429   5.343   2.832
 3746SOL     OW12136   4.682   1.428   1.425
 3746SOL    HW112137   4.596   1.474   1.405
 3746SOL    HW212138   4.708   1.445   1.520
 3747SOL     OW12139   3.406   6.620   6.126
 3747SOL    HW112140   3.363   6.709   6.142
 3747SOL    HW212141   3.371   6.554   6.193
 3748SOL     OW12142   5.884   1.376   1.618
 3748SOL    HW112143   5.957   1.420   1.670
 3748SOL    HW212144   5.851   1.296   1.668
 3749SOL     OW12145   1.991   0.060   4.454
 3749SOL    HW112146   1.957   7.000   4.415
 3749SOL    HW212147   1.983   0.057   4.554
 3750SOL     OW12148   1.370   3.735   0.344
 3750SOL    HW112149   1.437   3.807   0.362
 3750SOL    HW212150   1.415   3.646   0.350
 3751SOL     OW12151   7.021   3.832   2.819
 3751SOL    HW112152   6.985   3.738   2.819
 3751SOL    HW212153   0.058   3.843   2.896
 3752SOL     OW12154   4.910   0.947   5.867
 3752SOL    HW112155   4.886   0.882   5.794
 3752SOL    HW212156   5.009   0.959   5.870
 3753SOL     OW12157   6.563   1.019   4.183
 3753SOL    HW112158   6.473   1.028   4.140
 3753SOL    HW212159   6.611   1.107   4.176
 3754SOL     OW12160   2.058   0.917   1.891
 3754SOL    HW112161   2.034   0.832   1.938
 3754SOL    HW212162   1.974   0.961   1.857
 3755SOL     OW12163   3.306   5.036   4.626
 3755SOL    HW112164   3.389   5.034   4.683
 3755SOL    HW212165   3.226   5.015   4.682
 3756SOL     OW12166   2.462   5.971   0.115
 3756SOL    HW112167   2.364   5.964   0.132
 3756SOL    HW212168   2.503   6.033   0.182
 3757SOL     OW12169   6.130   4.965   1.823
 3757SOL    HW112170   6.175   5.013   1.898
 3757SOL    HW212171   6.039   5.004   1.808
 3758SOL     OW12172   1.766   0.694   3.919
 3758SOL    HW112173   1.814   0.620   3.965
 3758SOL    HW212174   1.806   0.708   3.828
 3759SOL     OW12175   5.482   0.845   4.026
 3759SOL    HW112176   5.490   0.935   4.067
 3759SOL    HW212177   5.387   0.827   4.002
 3760SOL     OW12178   0.287   0.395   4.077
 3760SOL    HW112179   0.221   0.375   4.149
 3760SOL    HW212180   0.239   0.425   3.995
 3761SOL     OW12181   5.744   1.602   4.407
 3761SOL    HW112182   5.788   1.670   4.465
 3761SOL    HW212183   5.663   1.566   4.452
 3762SOL     OW12184   1.457   3.942   2.406
 3762SOL    HW112185   1.514   3.945   2.324
 3762SOL    HW212186   1.382   3.878   2.392
 3763SOL     OW12187   6.894   4.145   0.511
 3763SOL    HW112188   6.922   4.107   0.599
 3763SOL    HW212189   6.836   4.225   0.527
 3764SOL     OW12190   2.113   6.956   3.427
 3764SOL    HW112191   2.206   6.979   3.455
 3764SOL    HW212192   2.049   6.979   3.501
 3765SOL     OW12193   6.532   1.755   1.150
 3765SOL    HW112194   6.573   1.846   1.150
 3765SOL    HW212195   6.597   1.689   1.114
 3766SOL     OW12196   1.879   2.474   3.649
 3766SOL    HW112197   1.932   2.524   3.581
 3766SOL    HW212198   1.782   2.480   3.627
 3767SOL     OW12199   2.987   4.272   6.241
 3767SOL    HW112200   3.004   4.349   6.179
 3767SOL    HW212201   2.957   4.193   6.187
 3768SOL     OW12202   1.294   0.862   4.597
 3768SOL    HW112203   1.342   0.936   4.645
 3768SOL    HW212204   1.318   0.863   4.500
 3769SOL     OW12205   5.594   5.631   4.792
 3769SOL    HW112206   5.526   5.639   4.719
 3769SOL    HW212207   5.620   5.535   4.804
 3770SOL     OW12208   1.060   1.181   0.637
 3770SOL    HW112209   1.130   1.252   0.647
 3770SOL    HW212210   1.022   1.184   0.545
 3771SOL     OW12211   7.013   5.306   0.968
 3771SOL    HW112212   6.951   5.244   1.016
 3771SOL    HW212213   6.968   5.339   0.885
 3772SOL     OW12214   1.134   6.337   0.585
 3772SOL    HW112215   1.097   6.282   0.511
 3772SOL    HW212216   1.120   6.434   0.565
 3773SOL     OW12217   5.766   3.579   5.991
 3773SOL    HW112218   5.674   3.558   5.959
 3773SOL    HW212219   5.822   3.496   5.990
 3774SOL     OW12220   5.187   5.608   1.595
 3774SOL    HW112221   5.180   5.516   1.633
 3774SOL    HW212222   5.280   5.623   1.560
 3775SOL     OW12223   4.085   4.831   3.144
 3775SOL    HW112224   4.017   4.847   3.072
 3775SOL    HW212225   4.169   4.796   3.103
 3776SOL     OW12226   4.041   2.895   6.131
 3776SOL    HW112227   4.035   2.978   6.186
 3776SOL    HW212228   3.951   2.851   6.126
 3777SOL     OW12229   2.571   6.520   4.265
 3777SOL    HW112230   2.563   6.424   4.238
 3777SOL    HW212231   2.660   6.555   4.237
 3778SOL     OW12232   3.160   6.104   4.359
 3778SOL    HW112233   3.140   6.168   4.433
 3778SOL    HW212234   3.094   6.029   4.359
 3779SOL     OW12235   0.007   5.195   0.667
 3779SOL    HW112236   6.939   5.218   0.694
 3779SOL    HW212237   0.056   5.280   0.645
 3780SOL     OW12238   0.102   2.452   2.145
 3780SOL    HW112239   0.164   2.498   2.209
 3780SOL    HW212240   0.065   2.518   2.081
 3781SOL     OW12241   1.402   6.522   5.300
 3781SOL    HW112242   1.426   6.430   5.329
 3781SOL    HW212243   1.483   6.581   5.303
 3782SOL     OW12244   4.082   6.441   1.830
 3782SOL    HW112245   4.114   6.348   1.848
 3782SOL    HW212246   4.031   6.443   1.745
 3783SOL     OW12247   5.549   4.850   5.451
 3783SOL    HW112248   5.505   4.808   5.372
 3783SOL    HW212249   5.526   4.797   5.533
 3784SOL     OW12250   5.127   2.476   2.732
 3784SOL    HW112251   5.222   2.482   2.764
 3784SOL    HW212252   5.126   2.478   2.632
 3785SOL     OW12253   0.680   2.907   4.709
 3785SOL    HW112254   0.641   2.973   4.645
 3785SOL    HW212255   0.674   2.943   4.802
 3786SOL     OW12256   2.789   2.018   3.992
 3786SOL    HW112257   2.715   1.964   3.952
 3786SOL    HW212258   2.810   1.982   4.083
 3787SOL     OW12259   4.063   0.713   2.717
 3787SOL    HW112260   4.135   0.782   2.707
 3787SOL    HW212261   4.103   0.622   2.708
 3788SOL     OW12262   0.513   3.529   4.970
 3788SOL    HW112263   0.587   3.466   4.948
 3788SOL    HW212264   0.472   3.563   4.885
 3789SOL     OW12265   1.153   2.296   2.799
 3789SOL    HW112266   1.173   2.389   2.768
 3789SOL    HW212267   1.071   2.297   2.857
 3790SOL     OW12268   0.905   5.898   0.362
 3790SOL    HW112269   0.938   5.826   0.300
 3790SOL    HW212270   0.916   5.868   0.457
 3791SOL     OW12271   5.555   1.264   5.663
 3791SOL    HW112272   5.592   1.232   5.576
 3791SOL    HW212273   5.535   1.362   5.657
 3792SOL     OW12274   0.898   0.513   4.231
 3792SOL    HW112275   0.910   0.602   4.186
 3792SOL    HW212276   0.845   0.525   4.315
 3793SOL     OW12277   6.053   6.147   0.439
 3793SOL    HW112278   6.040   6.091   0.358
 3793SOL    HW212279   5.966   6.187   0.467
 3794SOL     OW12280   1.863   3.858   1.154
 3794SOL    HW112281   1.963   3.860   1.150
 3794SOL    HW212282   1.831   3.764   1.141
 3795SOL     OW12283   2.806   5.921   0.929
 3795SOL    HW112284   2.788   6.008   0.882
 3795SOL    HW212285   2.905   5.908   0.938
 3796SOL     OW12286   4.109   2.038   0.927
 3796SOL    HW112287   4.148   2.088   0.851
 3796SOL    HW212288   4.043   1.970   0.893
 3797SOL     OW12289   1.164   3.983   2.600
 3797SOL    HW112290   1.220   3.965   2.681
 3797SOL    HW212291   1.141   3.897   2.555
 3798SOL     OW12292   2.933   6.693   3.058
 3798SOL    HW112293   2.909   6.720   3.151
 3798SOL    HW212294   2.858   6.716   2.996
 3799SOL     OW12295   6.603   2.472   2.788
 3799SOL    HW112296   6.676   2.504   2.848
 3799SOL    HW212297   6.644   2.426   2.709
 3800SOL     OW12298   5.677   1.744   3.331
 3800SOL    HW112299   5.729   1.750   3.246
 3800SOL    HW212300   5.646   1.835   3.358
 3801SOL     OW12301   5.543   6.466   2.266
 3801SOL    HW112302   5.584   6.551   2.233
 3801SOL    HW212303   5.479   6.430   2.198
 3802SOL     OW12304   0.138   1.706   2.184
 3802SOL    HW112305   0.142   1.798   2.222
 3802SOL    HW212306   0.103   1.710   2.091
 3803SOL     OW12307   3.187   4.036   4.070
 3803SOL    HW112308   3.153   3.984   4.148
 3803SOL    HW212309   3.283   4.013   4.054
 3804SOL     OW12310   3.900   0.626   4.568
 3804SOL    HW112311   3.967   0.647   4.497
 3804SOL    HW212312   3.926   0.671   4.654
 3805SOL     OW12313   2.092   2.796   0.635
 3805SOL    HW112314   2.188   2.825   0.628
 3805SOL    HW212315   2.035   2.876   0.654
 3806SOL     OW12316   3.975   4.648   6.454
 3806SOL    HW112317   4.051   4.625   6.515
 3806SOL    HW212318   3.925   4.564   6.431
 3807SOL     OW12319   1.354   5.040   4.345
 3807SOL    HW112320   1.422   5.079   4.407
 3807SOL    HW212321   1.379   5.061   4.250
 3808SOL     OW12322   4.773   0.449   5.971
 3808SOL    HW112323   4.835   0.521   6.002
 3808SOL    HW212324   4.789   0.431   5.874
 3809SOL     OW12325   5.554   2.201   1.377
 3809SOL    HW112326   5.593   2.187   1.468
 3809SOL    HW212327   5.462   2.240   1.385
 3810SOL     OW12328   6.395   2.497   2.934
 3810SOL    HW112329   6.376   2.418   2.992
 3810SOL    HW212330   6.482   2.484   2.886
 3811SOL     OW12331   0.195   5.299   4.683
 3811SOL    HW112332   0.282   5.255   4.707
 3811SOL    HW212333   0.132   5.230   4.647
 3812SOL     OW12334   3.525   6.144   6.852
 3812SOL    HW112335   3.598   6.209   6.873
 3812SOL    HW212336   3.462   6.185   6.786
 3813SOL     OW12337   6.090   3.607   1.187
 3813SOL    HW112338   6.172   3.551   1.200
 3813SOL    HW212339   6.117   3.702   1.169
 3814SOL     OW12340   0.136   6.801   3.781
 3814SOL    HW112341   0.178   6.886   3.813
 3814SOL    HW212342   0.167   6.781   3.688
 3815SOL     OW12343   5.414   3.113   0.561
 3815SOL    HW112344   5.442   3.206   0.536
 3815SOL    HW212345   5.358   3.117   0.644
 3816SOL     OW12346   0.813   6.325   5.345
 3816SOL    HW112347   0.818   6.370   5.434
 3816SOL    HW212348   0.853   6.234   5.352
 3817SOL     OW12349   4.990   3.474   2.750
 3817SOL    HW112350   4.988   3.465   2.850
 3817SOL    HW212351   4.985   3.570   2.725
 3818SOL     OW12352   0.306   0.390   1.306
 3818SOL    HW112353   0.281   0.483   1.279
 3818SOL    HW212354   0.394   0.392   1.354
 3819SOL     OW12355   6.611   4.332   2.598
 3819SOL    HW112356   6.643   4.419   2.559
 3819SOL    HW212357   6.689   4.285   2.641
 3820SOL     OW12358   5.401   6.627   4.143
 3820SOL    HW112359   5.452   6.711   4.162
 3820SOL    HW212360   5.323   6.648   4.085
 3821SOL     OW12361   0.528   6.910   6.803
 3821SOL    HW112362   0.561   6.988   6.750
 3821SOL    HW212363   0.440   6.933   6.844
 3822SOL     OW12364   3.401   0.670   0.224
 3822SOL    HW112365   3.464   0.599   0.192
 3822SOL    HW212366   3.405   0.676   0.323
 3823SOL     OW12367   4.878   4.598   6.119
 3823SOL    HW112368   4.799   4.634   6.169
 3823SOL    HW212369   4.918   4.671   6.063
 3824SOL     OW12370   1.200   3.098   0.263
 3824SOL    HW112371   1.153   3.164   0.321
 3824SOL    HW212372   1.151   3.011   0.265
 3825SOL     OW12373   1.013   4.225   0.831
 3825SOL    HW112374   0.966   4.137   0.838
 3825SOL    HW212375   1.030   4.262   0.923
 3826SOL     OW12376   6.760   3.908   2.694
 3826SOL    HW112377   6.854   3.880   2.714
 3826SOL    HW212378   6.718   3.943   2.778
 3827SOL     OW12379   0.735   0.750   1.029
 3827SOL    HW112380   0.745   0.741   0.930
 3827SOL    HW212381   0.819   0.718   1.074
 3828SOL     OW12382   3.570   4.212   5.043
 3828SOL    HW112383   3.533   4.126   5.009
 3828SOL    HW212384   3.583   4.205   5.142
 3829SOL     OW12385   0.652   5.258   2.532
 3829SOL    HW112386   0.738   5.210   2.549
 3829SOL    HW212387   0.585   5.233   2.603
 3830SOL     OW12388   0.557   0.559   5.174
 3830SOL    HW112389   0.510   0.524   5.093
 3830SOL    HW212390   0.491   0.573   5.248
 3831SOL     OW12391   4.119   2.106   3.110
 3831SOL    HW112392   4.170   2.168   3.170
 3831SOL    HW212393   4.122   2.013   3.146
 3832SOL     OW12394   0.483   0.221   1.667
 3832SOL    HW112395   0.518   0.130   1.690
 3832SOL    HW212396   0.536   0.259   1.592
 3833SOL     OW12397   1.580   6.279   6.716
 3833SOL    HW112398   1.480   6.283   6.719
 3833SOL    HW212399   1.614   6.245   6.804
 3834SOL     OW12400   4.183   4.281   1.421
 3834SOL    HW112401   4.183   4.251   1.517
 3834SOL    HW212402   4.222   4.373   1.415
 3835SOL     OW12403   3.764   6.067   5.427
 3835SOL    HW112404   3.843   6.014   5.457
 3835SOL    HW212405   3.681   6.011   5.438
 3836SOL     OW12406   0.745   4.882   5.869
 3836SOL    HW112407   0.652   4.900   5.837
 3836SOL    HW212408   0.797   4.967   5.871
 3837SOL     OW12409   3.724   5.274   5.135
 3837SOL    HW112410   3.754   5.188   5.094
 3837SOL    HW212411   3.744   5.273   5.233
 3838SOL     OW12412   1.477   1.033   3.561
 3838SOL    HW112413   1.477   0.967   3.635
 3838SOL    HW212414   1.383   1.060   3.539
 3839SOL     OW12415   4.628   0.643   3.116
 3839SOL    HW112416   4.673   0.731   3.134
 3839SOL    HW212417   4.675   0.571   3.168
 3840SOL     OW12418   2.459   1.204   6.241
 3840SOL    HW112419   2.450   1.121   6.295
 3840SOL    HW212420   2.540   1.254   6.270
 3841SOL     OW12421   0.622   4.417   4.129
 3841SOL    HW112422   0.684   4.424   4.207
 3841SOL    HW212423   0.645   4.335   4.076
 3842SOL     OW12424   2.263   2.405   4.115
 3842SOL    HW112425   2.272   2.323   4.058
 3842SOL    HW212426   2.345   2.416   4.170
 3843SOL     OW12427   5.477   3.525   1.236
 3843SOL    HW112428   5.499   3.493   1.328
 3843SOL    HW212429   5.450   3.447   1.180
 3844SOL     OW12430   1.591   4.820   0.172
 3844SOL    HW112431   1.655   4.876   0.226
 3844SOL    HW212432   1.514   4.794   0.229
 3845SOL     OW12433   2.292   6.261   0.091
 3845SOL    HW112434   2.297   6.181   0.150
 3845SOL    HW212435   2.384   6.295   0.071
 3846SOL     OW12436   0.634   3.182   4.528
 3846SOL    HW112437   0.562   3.178   4.458
 3846SOL    HW212438   0.636   3.273   4.568
 3847SOL     OW12439   5.613   1.952   4.572
 3847SOL    HW112440   5.583   1.940   4.477
 3847SOL    HW212441   5.646   1.864   4.608
 3848SOL     OW12442   4.800   2.925   3.002
 3848SOL    HW112443   4.835   2.869   2.927
 3848SOL    HW212444   4.721   2.879   3.044
 3849SOL     OW12445   0.236   6.948   6.538
 3849SOL    HW112446   0.231   6.863   6.590
 3849SOL    HW212447   0.157   7.005   6.560
 3850SOL     OW12448   3.231   3.078   1.030
 3850SOL    HW112449   3.187   3.168   1.028
 3850SOL    HW212450   3.198   3.026   1.109
 3851SOL     OW12451   6.797   4.845   3.522
 3851SOL    HW112452   6.728   4.828   3.592
 3851SOL    HW212453   6.792   4.941   3.492
 3852SOL     OW12454   3.797   6.606   4.005
 3852SOL    HW112455   3.727   6.580   4.073
 3852SOL    HW212456   3.758   6.596   3.913
 3853SOL     OW12457   2.233   1.688   3.561
 3853SOL    HW112458   2.219   1.589   3.549
 3853SOL    HW212459   2.148   1.736   3.542
 3854SOL     OW12460   1.463   3.250   3.071
 3854SOL    HW112461   1.490   3.158   3.098
 3854SOL    HW212462   1.537   3.292   3.018
 3855SOL     OW12463   4.199   6.542   0.266
 3855SOL    HW112464   4.172   6.574   0.176
 3855SOL    HW212465   4.193   6.617   0.332
 3856SOL     OW12466   0.772   1.897   6.034
 3856SOL    HW112467   0.800   1.814   6.081
 3856SOL    HW212468   0.687   1.881   5.984
 3857SOL     OW12469   1.830   6.250   5.515
 3857SOL    HW112470   1.912   6.287   5.472
 3857SOL    HW212471   1.852   6.164   5.561
 3858SOL     OW12472   3.272   1.341   6.075
 3858SOL    HW112473   3.183   1.302   6.053
 3858SOL    HW212474   3.264   1.441   6.084
 3859SOL     OW12475   6.007   1.143   1.024
 3859SOL    HW112476   5.931   1.205   1.045
 3859SOL    HW212477   6.079   1.154   1.093
 3860SOL     OW12478   1.903   0.937   4.672
 3860SOL    HW112479   1.991   0.979   4.696
 3860SOL    HW212480   1.905   0.840   4.696
 3861SOL     OW12481   4.578   5.936   2.838
 3861SOL    HW112482   4.630   6.021   2.846
 3861SOL    HW212483   4.626   5.864   2.888
 3862SOL     OW12484   0.786   0.407   4.443
 3862SOL    HW112485   0.695   0.368   4.456
 3862SOL    HW212486   0.846   0.337   4.402
 3863SOL     OW12487   5.882   1.623   0.140
 3863SOL    HW112488   5.867   1.565   0.220
 3863SOL    HW212489   5.905   1.716   0.171
 3864SOL     OW12490   2.487   0.560   4.815
 3864SOL    HW112491   2.430   0.640   4.832
 3864SOL    HW212492   2.516   0.560   4.719
 3865SOL     OW12493   4.489   1.374   0.790
 3865SOL    HW112494   4.429   1.297   0.814
 3865SOL    HW212495   4.527   1.360   0.699
 3866SOL     OW12496   3.620   1.134   0.069
 3866SOL    HW112497   3.619   1.107   0.165
 3866SOL    HW212498   3.690   1.082   0.020
 3867SOL     OW12499   1.548   4.224   3.191
 3867SOL    HW112500   1.595   4.285   3.254
 3867SOL    HW212501   1.605   4.144   3.173
 3868SOL     OW12502   4.327   0.476   6.732
 3868SOL    HW112503   4.383   0.433   6.661
 3868SOL    HW212504   4.355   0.572   6.742
 3869SOL     OW12505   6.356   3.116   3.768
 3869SOL    HW112506   6.305   3.110   3.854
 3869SOL    HW212507   6.386   3.025   3.741
 3870SOL     OW12508   6.810   6.580   2.111
 3870SOL    HW112509   6.714   6.584   2.137
 3870SOL    HW212510   6.841   6.485   2.112
 3871SOL     OW12511   3.071   6.881   3.309
 3871SOL    HW112512   3.055   6.952   3.241
 3871SOL    HW212513   2.983   6.847   3.343
 3872SOL     OW12514   3.229   3.061   4.289
 3872SOL    HW112515   3.162   3.051   4.215
 3872SOL    HW212516   3.205   3.140   4.346
 3873SOL     OW12517   5.018   3.989   1.076
 3873SOL    HW112518   5.081   3.979   0.999
 3873SOL    HW212519   4.933   4.032   1.044
 3874SOL     OW12520   4.279   0.741   0.357
 3874SOL    HW112521   4.248   0.836   0.357
 3874SOL    HW212522   4.225   0.688   0.423
 3875SOL     OW12523   1.714   2.858   3.686
 3875SOL    HW112524   1.689   2.953   3.665
 3875SOL    HW212525   1.812   2.845   3.671
 3876SOL     OW12526   3.428   5.286   1.267
 3876SOL    HW112527   3.404   5.375   1.229
 3876SOL    HW212528   3.469   5.298   1.357
 3877SOL     OW12529   6.650   2.402   1.093
 3877SOL    HW112530   6.696   2.443   1.014
 3877SOL    HW212531   6.709   2.334   1.135
 3878SOL     OW12532   4.821   6.082   4.516
 3878SOL    HW112533   4.871   6.090   4.430
 3878SOL    HW212534   4.729   6.120   4.505
 3879SOL     OW12535   5.544   5.502   0.594
 3879SOL    HW112536   5.544   5.454   0.682
 3879SOL    HW212537   5.548   5.600   0.610
 3880SOL     OW12538   4.875   4.229   4.576
 3880SOL    HW112539   4.954   4.272   4.533
 3880SOL    HW212540   4.902   4.188   4.663
 3881SOL     OW12541   1.838   3.592   1.574
 3881SOL    HW112542   1.885   3.671   1.535
 3881SOL    HW212543   1.808   3.614   1.667
 3882SOL     OW12544   0.464   1.143   0.082
 3882SOL    HW112545   0.553   1.178   0.054
 3882SOL    HW212546   0.401   1.144   0.004
 3883SOL     OW12547   3.959   1.265   2.529
 3883SOL    HW112548   3.958   1.232   2.435
 3883SOL    HW212549   3.868   1.298   2.554
 3884SOL     OW12550   0.444   5.712   2.217
 3884SOL    HW112551   0.349   5.742   2.205
 3884SOL    HW212552   0.453   5.665   2.305
 3885SOL     OW12553   6.265   5.784   3.422
 3885SOL    HW112554   6.215   5.772   3.508
 3885SOL    HW212555   6.329   5.708   3.411
 3886SOL     OW12556   4.355   5.358   5.142
 3886SOL    HW112557   4.258   5.376   5.128
 3886SOL    HW212558   4.373   5.345   5.239
 3887SOL     OW12559   0.765   6.756   6.800
 3887SOL    HW112560   0.802   6.769   6.708
 3887SOL    HW212561   0.674   6.798   6.805
 3888SOL     OW12562   6.534   0.050   5.294
 3888SOL    HW112563   6.594   0.033   5.216
 3888SOL    HW212564   6.562   7.017   5.371
 3889SOL     OW12565   6.856   3.174   0.308
 3889SOL    HW112566   6.917   3.099   0.283
 3889SOL    HW212567   6.785   3.140   0.370
 3890SOL     OW12568   5.987   5.181   3.638
 3890SOL    HW112569   6.070   5.164   3.586
 3890SOL    HW212570   5.924   5.104   3.628
 3891SOL     OW12571   5.306   3.723   4.230
 3891SOL    HW112572   5.225   3.781   4.241
 3891SOL    HW212573   5.361   3.756   4.153
 3892SOL     OW12574   0.786   2.438   0.488
 3892SOL    HW112575   0.820   2.374   0.556
 3892SOL    HW212576   0.757   2.522   0.533
 3893SOL     OW12577   4.248   4.082   0.396
 3893SOL    HW112578   4.315   4.013   0.371
 3893SOL    HW212579   4.197   4.111   0.315
 3894SOL     OW12580   4.703   0.874   6.880
 3894SOL    HW112581   4.712   0.879   6.980
 3894SOL    HW212582   4.775   0.814   6.843
 3895SOL     OW12583   0.813   7.008   5.818
 3895SOL    HW112584   0.825   0.077   5.848
 3895SOL    HW212585   0.811   7.004   5.718
 3896SOL     OW12586   0.935   0.967   6.017
 3896SOL    HW112587   1.018   1.023   6.023
 3896SOL    HW212588   0.911   0.933   6.108
 3897SOL     OW12589   4.019   5.576   2.362
 3897SOL    HW112590   3.974   5.665   2.351
 3897SOL    HW212591   4.026   5.553   2.459
 3898SOL     OW12592   2.824   2.579   5.994
 3898SOL    HW112593   2.759   2.515   5.953
 3898SOL    HW212594   2.834   2.559   6.091
 3899SOL     OW12595   4.558   6.551   5.713
 3899SOL    HW112596   4.620   6.589   5.782
 3899SOL    HW212597   4.480   6.612   5.700
 3900SOL     OW12598   4.492   2.524   3.593
 3900SOL    HW112599   4.407   2.493   3.635
 3900SOL    HW212600   4.523   2.608   3.638
 3901SOL     OW12601   3.402   0.644   6.111
 3901SOL    HW112602   3.318   0.677   6.068
 3901SOL    HW212603   3.429   0.707   6.183
 3902SOL     OW12604   6.625   2.868   1.774
 3902SOL    HW112605   6.527   2.863   1.796
 3902SOL    HW212606   6.663   2.952   1.814
 3903SOL     OW12607   3.635   6.439   0.377
 3903SOL    HW112608   3.629   6.535   0.405
 3903SOL    HW212609   3.569   6.384   0.428
 3904SOL     OW12610   1.945   1.024   6.195
 3904SOL    HW112611   2.025   0.975   6.160
 3904SOL    HW212612   1.946   1.023   6.295
 3905SOL     OW12613   6.609   6.696   6.135
 3905SOL    HW112614   6.677   6.769   6.126
 3905SOL    HW212615   6.634   6.621   6.074
 3906SOL     OW12616   5.734   6.425   5.282
 3906SOL    HW112617   5.770   6.511   5.320
 3906SOL    HW212618   5.737   6.354   5.353
 3907SOL     OW12619   6.516   0.752   3.906
 3907SOL    HW112620   6.422   0.743   3.873
 3907SOL    HW212621   6.519   0.732   4.004
 3908SOL     OW12622   0.735   2.126   7.022
 3908SOL    HW112623   0.758   2.050   6.960
 3908SOL    HW212624   0.659   2.179   6.983
 3909SOL     OW12625   6.136   6.279   5.216
 3909SOL    HW112626   6.058   6.325   5.174
 3909SOL    HW212627   6.193   6.238   5.144
 3910SOL     OW12628   3.116   3.765   2.744
 3910SOL    HW112629   3.082   3.791   2.654
 3910SOL    HW212630   3.097   3.668   2.761
 3911SOL     OW12631   5.438   1.826   5.523
 3911SOL    HW112632   5.421   1.831   5.621
 3911SOL    HW212633   5.352   1.822   5.474
 3912SOL     OW12634   5.176   0.833   5.406
 3912SOL    HW112635   5.218   0.764   5.465
 3912SOL    HW212636   5.238   0.911   5.398
 3913SOL     OW12637   2.462   6.594   5.596
 3913SOL    HW112638   2.548   6.624   5.638
 3913SOL    HW212639   2.410   6.675   5.567
 3914SOL     OW12640   2.820   0.849   1.832
 3914SOL    HW112641   2.830   0.947   1.850
 3914SOL    HW212642   2.833   0.832   1.734
 3915SOL     OW12643   5.009   5.365   0.998
 3915SOL    HW112644   4.960   5.424   1.063
 3915SOL    HW212645   4.943   5.317   0.940
 3916SOL     OW12646   1.107   6.916   4.044
 3916SOL    HW112647   1.020   6.963   4.063
 3916SOL    HW212648   1.170   6.931   4.119
 3917SOL     OW12649   6.686   6.011   0.211
 3917SOL    HW112650   6.621   6.071   0.256
 3917SOL    HW212651   6.656   5.916   0.220
 3918SOL     OW12652   5.548   5.536   1.675
 3918SOL    HW112653   5.595   5.496   1.596
 3918SOL    HW212654   5.612   5.592   1.728
 3919SOL     OW12655   3.978   6.784   0.432
 3919SOL    HW112656   3.952   6.863   0.375
 3919SOL    HW212657   3.897   6.729   0.450
 3920SOL     OW12658   3.350   3.261   0.619
 3920SOL    HW112659   3.346   3.339   0.556
 3920SOL    HW212660   3.363   3.177   0.568
 3921SOL     OW12661   0.298   3.631   1.740
 3921SOL    HW112662   0.285   3.555   1.676
 3921SOL    HW212663   0.233   3.704   1.718
 3922SOL     OW12664   6.610   3.490   2.248
 3922SOL    HW112665   6.521   3.534   2.251
 3922SOL    HW212666   6.664   3.519   2.327
 3923SOL     OW12667   6.806   1.051   0.357
 3923SOL    HW112668   6.814   0.952   0.363
 3923SOL    HW212669   6.886   1.094   0.398
 3924SOL     OW12670   6.193   5.175   3.476
 3924SOL    HW112671   6.169   5.269   3.454
 3924SOL    HW212672   6.281   5.152   3.434
 3925SOL     OW12673   2.303   5.541   1.350
 3925SOL    HW112674   2.389   5.515   1.393
 3925SOL    HW212675   2.245   5.588   1.416
 3926SOL     OW12676   6.581   5.177   2.885
 3926SOL    HW112677   6.681   5.180   2.883
 3926SOL    HW212678   6.544   5.210   2.798
 3927SOL     OW12679   6.564   2.714   4.457
 3927SOL    HW112680   6.535   2.808   4.440
 3927SOL    HW212681   6.636   2.689   4.392
 3928SOL     OW12682   3.964   5.866   6.256
 3928SOL    HW112683   3.957   5.773   6.218
 3928SOL    HW212684   4.057   5.900   6.246
 3929SOL     OW12685   0.043   0.857   5.099
 3929SOL    HW112686   7.000   0.846   5.171
 3929SOL    HW212687   0.133   0.838   5.136
 3930SOL     OW12688   2.830   1.986   3.561
 3930SOL    HW112689   2.839   1.985   3.661
 3930SOL    HW212690   2.905   2.041   3.522
 3931SOL     OW12691   1.645   0.875   1.343
 3931SOL    HW112692   1.741   0.858   1.321
 3931SOL    HW212693   1.587   0.824   1.280
 3932SOL     OW12694   2.100   4.583   3.158
 3932SOL    HW112695   2.097   4.484   3.166
 3932SOL    HW212696   2.102   4.609   3.061
 3933SOL     OW12697   1.982   6.220   6.712
 3933SOL    HW112698   1.965   6.151   6.641
 3933SOL    HW212699   2.060   6.191   6.767
 3934SOL     OW12700   6.772   1.426   6.667
 3934SOL    HW112701   6.728   1.348   6.624
 3934SOL    HW212702   6.815   1.483   6.596
 3935SOL     OW12703   2.786   6.485   6.898
 3935SOL    HW112704   2.694   6.519   6.876
 3935SOL    HW212705   2.783   6.436   6.985
 3936SOL     OW12706   0.266   5.086   5.381
 3936SOL    HW112707   0.210   5.154   5.334
 3936SOL    HW212708   0.260   5.100   5.480
 3937SOL     OW12709   6.739   1.914   3.367
 3937SOL    HW112710   6.759   1.906   3.269
 3937SOL    HW212711   6.673   1.842   3.393
 3938SOL     OW12712   0.333   2.397   4.118
 3938SOL    HW112713   0.421   2.442   4.104
 3938SOL    HW212714   0.302   2.412   4.212
 3939SOL     OW12715   2.415   2.629   2.505
 3939SOL    HW112716   2.502   2.674   2.522
 3939SOL    HW212717   2.432   2.537   2.470
 3940SOL     OW12718   5.169   4.786   1.020
 3940SOL    HW112719   5.084   4.804   1.069
 3940SOL    HW212720   5.168   4.836   0.933
 3941SOL     OW12721   5.010   3.268   5.785
 3941SOL    HW112722   4.982   3.269   5.881
 3941SOL    HW212723   4.943   3.215   5.732
 3942SOL     OW12724   0.489   6.902   6.408
 3942SOL    HW112725   0.411   6.893   6.470
 3942SOL    HW212726   0.480   6.988   6.357
 3943SOL     OW12727   0.026   2.856   3.076
 3943SOL    HW112728   6.957   2.858   3.107
 3943SOL    HW212729   0.086   2.844   3.155
 3944SOL     OW12730   4.519   2.616   5.033
 3944SOL    HW112731   4.526   2.558   4.952
 3944SOL    HW212732   4.424   2.641   5.049
 3945SOL     OW12733   0.698   1.371   0.351
 3945SOL    HW112734   0.767   1.310   0.312
 3945SOL    HW212735   0.687   1.451   0.292
 3946SOL     OW12736   5.762   5.204   4.990
 3946SOL    HW112737   5.861   5.218   4.994
 3946SOL    HW212738   5.718   5.262   5.059
 3947SOL     OW12739   5.224   6.347   0.698
 3947SOL    HW112740   5.219   6.330   0.796
 3947SOL    HW212741   5.318   6.368   0.672
 3948SOL     OW12742   0.521   4.925   2.278
 3948SOL    HW112743   0.496   4.829   2.292
 3948SOL    HW212744   0.620   4.936   2.287
 3949SOL     OW12745   4.990   0.301   3.120
 3949SOL    HW112746   5.007   0.396   3.143
 3949SOL    HW212747   4.903   0.271   3.161
 3950SOL     OW12748   1.570   4.412   0.803
 3950SOL    HW112749   1.582   4.431   0.705
 3950SOL    HW212750   1.611   4.324   0.825
 3951SOL     OW12751   4.801   6.775   1.383
 3951SOL    HW112752   4.737   6.803   1.455
 3951SOL    HW212753   4.894   6.799   1.410
 3952SOL     OW12754   6.649   2.524   2.332
 3952SOL    HW112755   6.564   2.495   2.377
 3952SOL    HW212756   6.699   2.586   2.392
 3953SOL     OW12757   3.466   4.850   1.513
 3953SOL    HW112758   3.405   4.781   1.476
 3953SOL    HW212759   3.425   4.941   1.501
 3954SOL     OW12760   4.186   5.196   4.947
 3954SOL    HW112761   4.275   5.164   4.916
 3954SOL    HW212762   4.194   5.287   4.987
 3955SOL     OW12763   3.006   6.726   6.193
 3955SOL    HW112764   3.034   6.647   6.138
 3955SOL    HW212765   3.086   6.782   6.215
 3956SOL     OW12766   1.027   0.621   2.652
 3956SOL    HW112767   0.952   0.647   2.713
 3956SOL    HW212768   1.005   0.536   2.604
 3957SOL     OW12769   4.637   6.563   3.987
 3957SOL    HW112770   4.694   6.516   4.054
 3957SOL    HW212771   4.602   6.496   3.921
 3958SOL     OW12772   5.498   1.324   4.785
 3958SOL    HW112773   5.473   1.390   4.715
 3958SOL    HW212774   5.584   1.280   4.760
 3959SOL     OW12775   3.931   6.942   0.752
 3959SOL    HW112776   3.895   7.015   0.810
 3959SOL    HW212777   3.953   6.862   0.808
 3960SOL     OW12778   4.875   1.882   6.296
 3960SOL    HW112779   4.958   1.905   6.244
 3960SOL    HW212780   4.797   1.878   6.234
 3961SOL     OW12781   5.607   1.377   2.757
 3961SOL    HW112782   5.590   1.404   2.852
 3961SOL    HW212783   5.541   1.424   2.697
 3962SOL     OW12784   2.774   4.016   6.954
 3962SOL    HW112785   2.705   3.968   6.901
 3962SOL    HW212786   2.801   3.960   0.007
 3963SOL     OW12787   5.222   5.522   3.233
 3963SOL    HW112788   5.124   5.507   3.248
 3963SOL    HW212789   5.254   5.461   3.160
 3964SOL     OW12790   4.776   5.297   3.815
 3964SOL    HW112791   4.727   5.375   3.775
 3964SOL    HW212792   4.809   5.321   3.906
 3965SOL     OW12793   5.137   2.723   4.784
 3965SOL    HW112794   5.060   2.761   4.735
 3965SOL    HW212795   5.209   2.696   4.720
 3966SOL     OW12796   4.761   6.160   6.244
 3966SOL    HW112797   4.850   6.177   6.203
 3966SOL    HW212798   4.765   6.179   6.342
 3967SOL     OW12799   2.115   3.732   2.454
 3967SOL    HW112800   2.102   3.735   2.553
 3967SOL    HW212801   2.098   3.638   2.421
 3968SOL     OW12802   4.390   0.259   1.354
 3968SOL    HW112803   4.304   0.207   1.360
 3968SOL    HW212804   4.427   0.272   1.446
 3969SOL     OW12805   1.162   4.185   2.402
 3969SOL    HW112806   1.254   4.190   2.364
 3969SOL    HW212807   1.156   4.106   2.464
 3970SOL     OW12808   6.161   6.278   3.336
 3970SOL    HW112809   6.167   6.378   3.330
 3970SOL    HW212810   6.065   6.251   3.327
 3971SOL     OW12811   3.381   5.468   3.557
 3971SOL    HW112812   3.371   5.385   3.501
 3971SOL    HW212813   3.309   5.533   3.532
 3972SOL     OW12814   1.341   3.715   0.703
 3972SOL    HW112815   1.405   3.728   0.627
 3972SOL    HW212816   1.356   3.625   0.744
 3973SOL     OW12817   1.457   5.769   6.534
 3973SOL    HW112818   1.389   5.705   6.498
 3973SOL    HW212819   1.496   5.822   6.458
 3974SOL     OW12820   2.195   0.294   5.536
 3974SOL    HW112821   2.159   0.203   5.558
 3974SOL    HW212822   2.237   0.293   5.445
 3975SOL     OW12823   4.762   1.747   5.397
 3975SOL    HW112824   4.801   1.656   5.386
 3975SOL    HW212825   4.719   1.754   5.487
 3976SOL     OW12826   1.269   6.219   1.753
 3976SOL    HW112827   1.317   6.168   1.824
 3976SOL    HW212828   1.331   6.236   1.676
 3977SOL     OW12829   2.292   3.660   5.899
 3977SOL    HW112830   2.336   3.749   5.901
 3977SOL    HW212831   2.196   3.670   5.872
 3978SOL     OW12832   6.023   5.221   4.385
 3978SOL    HW112833   6.062   5.307   4.350
 3978SOL    HW212834   5.941   5.240   4.438
 3979SOL     OW12835   3.211   0.380   0.152
 3979SOL    HW112836   3.213   0.426   0.063
 3979SOL    HW212837   3.304   0.357   0.179
 3980SOL     OW12838   5.725   6.329   0.293
 3980SOL    HW112839   5.698   6.315   0.388
 3980SOL    HW212840   5.644   6.341   0.236
 3981SOL     OW12841   3.502   0.160   0.560
 3981SOL    HW112842   3.480   0.255   0.541
 3981SOL    HW212843   3.501   0.144   0.659
 3982SOL     OW12844   2.705   6.868   3.491
 3982SOL    HW112845   2.637   6.862   3.418
 3982SOL    HW212846   2.766   6.788   3.485
 3983SOL     OW12847   4.957   5.048   4.020
 3983SOL    HW112848   4.861   5.056   3.995
 3983SOL    HW212849   4.975   5.101   4.103
 3984SOL     OW12850   6.569   0.941   2.508
 3984SOL    HW112851   6.589   0.913   2.414
 3984SOL    HW212852   6.564   0.859   2.566
 3985SOL     OW12853   2.375   4.857   6.691
 3985SOL    HW112854   2.406   4.805   6.611
 3985SOL    HW212855   2.422   4.823   6.773
 3986SOL     OW12856   5.200   1.589   2.567
 3986SOL    HW112857   5.111   1.618   2.531
 3986SOL    HW212858   5.188   1.542   2.654
 3987SOL     OW12859   3.900   4.906   2.960
 3987SOL    HW112860   3.961   4.914   2.882
 3987SOL    HW212861   3.810   4.940   2.936
 3988SOL     OW12862   3.148   5.060   0.072
 3988SOL    HW112863   3.111   4.968   0.083
 3988SOL    HW212864   3.240   5.065   0.109
 3989SOL     OW12865   0.043   2.919   6.910
 3989SOL    HW112866   7.003   2.932   6.836
 3989SOL    HW212867   0.004   2.859   6.979
 3990SOL     OW12868   4.348   2.006   2.930
 3990SOL    HW112869   4.316   1.997   2.835
 3990SOL    HW212870   4.276   2.050   2.984
 3991SOL     OW12871   6.532   1.194   2.594
 3991SOL    HW112872   6.533   1.256   2.515
 3991SOL    HW212873   6.561   1.103   2.565
 3992SOL     OW12874   3.095   1.732   0.141
 3992SOL    HW112875   3.134   1.715   0.051
 3992SOL    HW212876   3.079   1.646   0.188
 3993SOL     OW12877   1.375   2.380   2.118
 3993SOL    HW112878   1.297   2.442   2.123
 3993SOL    HW212879   1.342   2.285   2.118
 3994SOL     OW12880   1.311   0.123   6.265
 3994SOL    HW112881   1.307   0.185   6.187
 3994SOL    HW212882   1.349   0.172   6.344
 3995SOL     OW12883   2.325   3.487   6.119
 3995SOL    HW112884   2.253   3.488   6.049
 3995SOL    HW212885   2.374   3.574   6.118
 3996SOL     OW12886   0.696   6.665   4.664
 3996SOL    HW112887   0.661   6.695   4.753
 3996SOL    HW212888   0.643   6.586   4.633
 3997SOL     OW12889   5.580   1.433   3.046
 3997SOL    HW112890   5.670   1.429   3.089
 3997SOL    HW212891   5.511   1.457   3.114
 3998SOL     OW12892   3.884   1.006   3.755
 3998SOL    HW112893   3.904   0.967   3.845
 3998SOL    HW212894   3.961   0.991   3.694
 3999SOL     OW12895   5.229   3.007   4.038
 3999SOL    HW112896   5.144   2.984   3.991
 3999SOL    HW212897   5.251   2.937   4.105
 4000SOL     OW12898   3.399   6.881   3.603
 4000SOL    HW112899   3.436   6.962   3.559
 4000SOL    HW212900   3.300   6.879   3.590
 4001SOL     OW12901   2.772   1.584   3.533
 4001SOL    HW112902   2.684   1.612   3.494
 4001SOL    HW212903   2.766   1.586   3.633
 4002SOL     OW12904   3.141   4.356   0.553
 4002SOL    HW112905   3.142   4.380   0.456
 4002SOL    HW212906   3.190   4.270   0.566
 4003SOL     OW12907   3.677   6.937   4.036
 4003SOL    HW112908   3.578   6.930   4.028
 4003SOL    HW212909   3.703   0.006   4.053
 4004SOL     OW12910   5.645   1.906   3.814
 4004SOL    HW112911   5.558   1.862   3.788
 4004SOL    HW212912   5.698   1.844   3.871
 4005SOL     OW12913   4.993   5.621   6.949
 4005SOL    HW112914   4.998   5.524   6.928
 4005SOL    HW212915   5.044   5.640   0.007
 4006SOL     OW12916   4.526   5.294   2.466
 4006SOL    HW112917   4.521   5.342   2.553
 4006SOL    HW212918   4.621   5.267   2.448
 4007SOL     OW12919   0.064   2.570   6.884
 4007SOL    HW112920   0.152   2.617   6.882
 4007SOL    HW212921   0.005   2.611   6.953
 4008SOL     OW12922   2.797   1.783   4.842
 4008SOL    HW112923   2.834   1.733   4.764
 4008SOL    HW212924   2.698   1.773   4.845
 4009SOL     OW12925   4.447   3.508   1.183
 4009SOL    HW112926   4.452   3.416   1.223
 4009SOL    HW212927   4.454   3.577   1.255
 4010SOL     OW12928   2.438   2.724   1.197
 4010SOL    HW112929   2.345   2.758   1.211
 4010SOL    HW212930   2.475   2.690   1.284
 4011SOL     OW12931   0.320   1.146   1.996
 4011SOL    HW112932   0.381   1.071   1.971
 4011SOL    HW212933   0.358   1.232   1.965
 4012SOL     OW12934   6.506   4.637   1.723
 4012SOL    HW112935   6.540   4.731   1.715
 4012SOL    HW212936   6.544   4.595   1.806
 4013SOL     OW12937   3.292   1.397   4.908
 4013SOL    HW112938   3.209   1.453   4.914
 4013SOL    HW212939   3.321   1.391   4.812
 4014SOL     OW12940   5.172   6.227   2.361
 4014SOL    HW112941   5.234   6.216   2.283
 4014SOL    HW212942   5.225   6.231   2.446
 4015SOL     OW12943   4.682   4.988   6.252
 4015SOL    HW112944   4.759   5.044   6.222
 4015SOL    HW212945   4.597   5.039   6.240
 4016SOL     OW12946   2.709   6.266   6.010
 4016SOL    HW112947   2.756   6.346   5.974
 4016SOL    HW212948   2.683   6.283   6.105
 4017SOL     OW12949   6.724   5.980   0.638
 4017SOL    HW112950   6.775   5.949   0.557
 4017SOL    HW212951   6.783   5.974   0.719
 4018SOL     OW12952   3.750   5.621   2.503
 4018SOL    HW112953   3.795   5.698   2.457
 4018SOL    HW212954   3.695   5.571   2.437
 4019SOL     OW12955   5.100   4.556   3.458
 4019SOL    HW112956   5.049   4.498   3.395
 4019SOL    HW212957   5.198   4.538   3.449
 4020SOL     OW12958   4.658   1.965   4.687
 4020SOL    HW112959   4.649   1.865   4.685
 4020SOL    HW212960   4.738   1.990   4.741
 4021SOL     OW12961   3.625   5.086   6.051
 4021SOL    HW112962   3.530   5.060   6.035
 4021SOL    HW212963   3.679   5.072   5.968
 4022SOL     OW12964   5.231   1.739   6.829
 4022SOL    HW112965   5.257   1.677   6.755
 4022SOL    HW212966   5.293   1.727   6.907
 4023SOL     OW12967   6.340   2.014   4.651
 4023SOL    HW112968   6.328   2.023   4.552
 4023SOL    HW212969   6.380   1.925   4.671
 4024SOL     OW12970   3.396   6.634   4.156
 4024SOL    HW112971   3.345   6.702   4.103
 4024SOL    HW212972   3.435   6.566   4.094
 4025SOL     OW12973   0.593   3.681   2.844
 4025SOL    HW112974   0.616   3.600   2.789
 4025SOL    HW212975   0.545   3.747   2.786
 4026SOL     OW12976   5.864   5.866   4.175
 4026SOL    HW112977   5.905   5.791   4.227
 4026SOL    HW212978   5.781   5.834   4.129
 4027SOL     OW12979   3.796   4.051   2.395
 4027SOL    HW112980   3.756   4.092   2.476
 4027SOL    HW212981   3.737   4.067   2.316
 4028SOL     OW12982   1.732   1.955   4.600
 4028SOL    HW112983   1.678   1.876   4.570
 4028SOL    HW212984   1.817   1.958   4.549
 4029SOL     OW12985   2.720   3.987   5.661
 4029SOL    HW112986   2.797   4.014   5.717
 4029SOL    HW212987   2.730   4.025   5.569
 4030SOL     OW12988   0.880   2.098   5.663
 4030SOL    HW112989   0.879   2.016   5.605
 4030SOL    HW212990   0.972   2.137   5.663
 4031SOL     OW12991   4.672   5.713   3.458
 4031SOL    HW112992   4.681   5.632   3.399
 4031SOL    HW212993   4.646   5.792   3.403
 4032SOL     OW12994   6.366   6.681   3.993
 4032SOL    HW112995   6.374   6.778   3.971
 4032SOL    HW212996   6.404   6.626   3.918
 4033SOL     OW12997   3.286   4.009   4.479
 4033SOL    HW112998   3.371   3.979   4.436
 4033SOL    HW212999   3.209   3.992   4.417
 4034SOL     OW13000   6.286   1.410   4.480
 4034SOL    HW113001   6.283   1.510   4.487
 4034SOL    HW213002   6.381   1.381   4.468
 4035SOL     OW13003   0.233   4.662   6.508
 4035SOL    HW113004   0.234   4.563   6.515
 4035SOL    HW213005   0.242   4.688   6.411
 4036SOL     OW13006   6.320   5.930   2.814
 4036SOL    HW113007   6.340   6.003   2.748
 4036SOL    HW213008   6.226   5.899   2.801
 4037SOL     OW13009   1.555   3.776   6.421
 4037SOL    HW113010   1.488   3.739   6.356
 4037SOL    HW213011   1.620   3.835   6.372
 4038SOL     OW13012   5.190   4.335   3.017
 4038SOL    HW113013   5.280   4.375   2.997
 4038SOL    HW213014   5.202   4.256   3.078
 4039SOL     OW13015   5.476   6.092   0.745
 4039SOL    HW113016   5.503   6.010   0.795
 4039SOL    HW213017   5.482   6.172   0.805
 4040SOL     OW13018   2.938   0.293   1.424
 4040SOL    HW113019   2.938   0.293   1.324
 4040SOL    HW213020   2.922   0.386   1.458
 4041SOL     OW13021   1.327   6.458   3.260
 4041SOL    HW113022   1.297   6.539   3.210
 4041SOL    HW213023   1.277   6.451   3.346
 4042SOL     OW13024   5.786   5.463   1.846
 4042SOL    HW113025   5.883   5.451   1.822
 4042SOL    HW213026   5.779   5.512   1.933
 4043SOL     OW13027   5.044   1.902   2.784
 4043SOL    HW113028   5.138   1.873   2.766
 4043SOL    HW213029   5.043   2.000   2.806
 4044SOL     OW13030   5.862   0.119   3.317
 4044SOL    HW113031   5.883   0.035   3.265
 4044SOL    HW213032   5.765   0.140   3.308
 4045SOL     OW13033   2.057   5.224   6.742
 4045SOL    HW113034   2.004   5.159   6.688
 4045SOL    HW213035   1.997   5.270   6.807
 4046SOL     OW13036   0.843   2.260   1.525
 4046SOL    HW113037   0.883   2.200   1.594
 4046SOL    HW213038   0.750   2.230   1.505
 4047SOL     OW13039   3.158   3.590   1.763
 4047SOL    HW113040   3.238   3.596   1.822
 4047SOL    HW213041   3.184   3.606   1.668
 4048SOL     OW13042   5.487   0.917   0.806
 4048SOL    HW113043   5.571   0.903   0.753
 4048SOL    HW213044   5.453   0.829   0.838
 4049SOL     OW13045   5.541   6.926   5.830
 4049SOL    HW113046   5.639   6.940   5.815
 4049SOL    HW213047   5.522   6.828   5.833
 4050SOL     OW13048   1.698   6.319   0.525
 4050SOL    HW113049   1.618   6.274   0.565
 4050SOL    HW213050   1.715   6.283   0.434
 4051SOL     OW13051   3.044   4.931   0.594
 4051SOL    HW113052   3.035   4.875   0.677
 4051SOL    HW213053   2.954   4.960   0.563
 4052SOL     OW13054   0.570   0.599   6.818
 4052SOL    HW113055   0.570   0.577   6.916
 4052SOL    HW213056   0.475   0.608   6.786
 4053SOL     OW13057   3.243   4.929   3.903
 4053SOL    HW113058   3.321   4.923   3.841
 4053SOL    HW213059   3.160   4.896   3.856
 4054SOL     OW13060   3.262   2.446   0.744
 4054SOL    HW113061   3.238   2.391   0.824
 4054SOL    HW213062   3.298   2.534   0.773
 4055SOL     OW13063   3.064   2.571   6.520
 4055SOL    HW113064   3.052   2.540   6.425
 4055SOL    HW213065   3.116   2.503   6.571
 4056SOL     OW13066   3.509   2.754   6.773
 4056SOL    HW113067   3.532   2.706   6.859
 4056SOL    HW213068   3.413   2.779   6.774
 4057SOL     OW13069   4.729   3.268   6.319
 4057SOL    HW113070   4.637   3.238   6.294
 4057SOL    HW213071   4.749   3.355   6.275
 4058SOL     OW13072   2.327   1.062   5.467
 4058SOL    HW113073   2.236   1.046   5.430
 4058SOL    HW213074   2.334   1.157   5.497
 4059SOL     OW13075   1.690   1.752   4.969
 4059SOL    HW113076   1.622   1.742   4.896
 4059SOL    HW213077   1.752   1.828   4.947
 4060SOL     OW13078   4.050   4.832   4.067
 4060SOL    HW113079   4.048   4.815   3.969
 4060SOL    HW213080   4.144   4.844   4.098
 4061SOL     OW13081   3.541   4.279   1.729
 4061SOL    HW113082   3.549   4.353   1.796
 4061SOL    HW213083   3.452   4.235   1.739
 4062SOL     OW13084   3.470   1.108   2.510
 4062SOL    HW113085   3.508   1.041   2.446
 4062SOL    HW213086   3.370   1.097   2.514
 4063SOL     OW13087   3.502   5.642   6.045
 4063SOL    HW113088   3.445   5.632   5.964
 4063SOL    HW213089   3.464   5.713   6.104
 4064SOL     OW13090   0.614   0.387   3.392
 4064SOL    HW113091   0.713   0.389   3.374
 4064SOL    HW213092   0.567   0.442   3.324
 4065SOL     OW13093   6.553   6.719   0.830
 4065SOL    HW113094   6.566   6.811   0.793
 4065SOL    HW213095   6.545   6.724   0.929
 4066SOL     OW13096   5.358   4.233   1.707
 4066SOL    HW113097   5.330   4.251   1.613
 4066SOL    HW213098   5.296   4.280   1.770
 4067SOL     OW13099   6.263   1.116   2.669
 4067SOL    HW113100   6.353   1.124   2.624
 4067SOL    HW213101   6.275   1.075   2.759
 4068SOL     OW13102   5.666   0.683   3.921
 4068SOL    HW113103   5.599   0.738   3.970
 4068SOL    HW213104   5.745   0.666   3.980
 4069SOL     OW13105   5.538   5.371   0.831
 4069SOL    HW113106   5.464   5.333   0.775
 4069SOL    HW213107   5.520   5.352   0.927
 4070SOL     OW13108   1.849   3.847   3.256
 4070SOL    HW113109   1.846   3.793   3.339
 4070SOL    HW213110   1.943   3.871   3.234
 4071SOL     OW13111   1.888   0.490   4.080
 4071SOL    HW113112   1.972   0.537   4.107
 4071SOL    HW213113   1.900   0.391   4.092
 4072SOL     OW13114   1.579   0.110   4.368
 4072SOL    HW113115   1.667   0.156   4.378
 4072SOL    HW213116   1.546   0.079   4.457
 4073SOL     OW13117   2.795   6.026   6.801
 4073SOL    HW113118   2.728   6.098   6.819
 4073SOL    HW213119   2.774   5.946   6.858
 4074SOL     OW13120   1.256   2.246   0.907
 4074SOL    HW113121   1.188   2.227   0.978
 4074SOL    HW213122   1.210   2.251   0.818
 4075SOL     OW13123   5.067   1.110   3.251
 4075SOL    HW113124   5.116   1.102   3.164
 4075SOL    HW213125   5.041   1.019   3.283
 4076SOL     OW13126   1.597   3.540   4.330
 4076SOL    HW113127   1.625   3.532   4.426
 4076SOL    HW213128   1.678   3.554   4.273
 4077SOL     OW13129   3.308   0.915   0.623
 4077SOL    HW113130   3.230   0.958   0.668
 4077SOL    HW213131   3.381   0.982   0.612
 4078SOL     OW13132   6.198   4.066   1.335
 4078SOL    HW113133   6.131   4.014   1.389
 4078SOL    HW213134   6.286   4.063   1.381
 4079SOL     OW13135   0.819   0.968   3.985
 4079SOL    HW113136   0.866   1.001   3.903
 4079SOL    HW213137   0.808   1.044   4.049
 4080SOL     OW13138   3.479   3.646   1.527
 4080SOL    HW113139   3.477   3.723   1.463
 4080SOL    HW213140   3.573   3.613   1.537
 4081SOL     OW13141   1.803   2.019   5.606
 4081SOL    HW113142   1.791   1.962   5.687
 4081SOL    HW213143   1.887   1.993   5.559
 4082SOL     OW13144   0.949   2.950   5.119
 4082SOL    HW113145   0.870   2.956   5.057
 4082SOL    HW213146   1.033   2.955   5.065
 4083SOL     OW13147   5.878   4.954   3.498
 4083SOL    HW113148   5.937   4.990   3.426
 4083SOL    HW213149   5.788   4.932   3.460
 4084SOL     OW13150   4.099   1.008   3.586
 4084SOL    HW113151   4.127   1.086   3.642
 4084SOL    HW213152   4.096   1.036   3.490
 4085SOL     OW13153   2.774   5.254   2.129
 4085SOL    HW113154   2.675   5.259   2.111
 4085SOL    HW213155   2.790   5.200   2.211
 4086SOL     OW13156   6.650   5.878   6.430
 4086SOL    HW113157   6.589   5.805   6.460
 4086SOL    HW213158   6.601   5.965   6.429
 4087SOL     OW13159   2.195   0.197   2.648
 4087SOL    HW113160   2.265   0.128   2.630
 4087SOL    HW213161   2.159   0.186   2.741
 4088SOL     OW13162   0.061   1.105   5.726
 4088SOL    HW113163   7.011   1.112   5.792
 4088SOL    HW213164   0.132   1.171   5.751
 4089SOL     OW13165   0.199   6.803   3.482
 4089SOL    HW113166   0.154   6.848   3.405
 4089SOL    HW213167   0.285   6.849   3.501
 4090SOL     OW13168   2.564   0.135   5.410
 4090SOL    HW113169   2.507   0.115   5.330
 4090SOL    HW213170   2.656   0.162   5.380
 4091SOL     OW13171   2.016   5.587   1.075
 4091SOL    HW113172   1.955   5.592   1.154
 4091SOL    HW213173   1.997   5.504   1.023
 4092SOL     OW13174   4.924   3.225   4.382
 4092SOL    HW113175   5.022   3.223   4.365
 4092SOL    HW213176   4.878   3.161   4.322
 4093SOL     OW13177   5.270   5.901   3.147
 4093SOL    HW113178   5.311   5.810   3.157
 4093SOL    HW213179   5.191   5.895   3.086
 4094SOL     OW13180   6.936   5.648   0.001
 4094SOL    HW113181   6.998   5.615   6.955
 4094SOL    HW213182   6.990   5.680   0.079
 4095SOL     OW13183   0.045   4.954   0.139
 4095SOL    HW113184   0.072   5.023   0.207
 4095SOL    HW213185   0.125   4.898   0.116
 4096SOL     OW13186   2.033   2.156   6.695
 4096SOL    HW113187   1.994   2.064   6.697
 4096SOL    HW213188   2.124   2.154   6.735
 4097SOL     OW13189   0.073   4.614   4.945
 4097SOL    HW113190   0.109   4.586   4.856
 4097SOL    HW213191   0.047   4.533   4.997
 4098SOL     OW13192   1.949   5.049   3.117
 4098SOL    HW113193   2.033   5.038   3.063
 4098SOL    HW213194   1.894   4.966   3.110
 4099SOL     OW13195   4.515   4.532   5.957
 4099SOL    HW113196   4.591   4.572   5.906
 4099SOL    HW213197   4.432   4.585   5.940
 4100SOL     OW13198   1.828   0.912   3.731
 4100SOL    HW113199   1.794   1.005   3.721
 4100SOL    HW213200   1.797   0.874   3.818
 4101SOL     OW13201   6.039   0.800   6.758
 4101SOL    HW113202   6.023   0.784   6.661
 4101SOL    HW213203   5.988   0.881   6.787
 4102SOL     OW13204   1.835   0.605   0.118
 4102SOL    HW113205   1.929   0.609   0.082
 4102SOL    HW213206   1.772   0.585   0.043
 4103SOL     OW13207   1.569   6.753   1.823
 4103SOL    HW113208   1.495   6.708   1.873
 4103SOL    HW213209   1.556   6.852   1.824
 4104SOL     OW13210   0.823   5.648   3.873
 4104SOL    HW113211   0.742   5.674   3.926
 4104SOL    HW213212   0.830   5.707   3.793
 4105SOL     OW13213   4.363   1.071   0.937
 4105SOL    HW113214   4.319   0.982   0.927
 4105SOL    HW213215   4.462   1.059   0.938
 4106SOL     OW13216   0.154   2.144   3.732
 4106SOL    HW113217   0.058   2.138   3.761
 4106SOL    HW213218   0.171   2.234   3.692
 4107SOL     OW13219   0.158   6.350   6.250
 4107SOL    HW113220   0.249   6.333   6.287
 4107SOL    HW213221   0.098   6.274   6.275
 4108SOL     OW13222   7.000   5.307   3.979
 4108SOL    HW113223   6.953   5.250   3.911
 4108SOL    HW213224   6.974   5.403   3.965
 4109SOL     OW13225   6.327   6.224   2.997
 4109SOL    HW113226   6.418   6.247   2.962
 4109SOL    HW213227   6.329   6.225   3.097
 4110SOL     OW13228   4.745   3.785   0.063
 4110SOL    HW113229   4.699   3.704   0.100
 4110SOL    HW213230   4.719   3.866   0.116
 4111SOL     OW13231   6.803   4.102   4.759
 4111SOL    HW113232   6.768   4.092   4.853
 4111SOL    HW213233   6.893   4.059   4.752
 4112SOL     OW13234   4.590   0.136   5.254
 4112SOL    HW113235   4.589   0.049   5.205
 4112SOL    HW213236   4.639   0.204   5.201
 4113SOL     OW13237   4.728   4.426   4.768
 4113SOL    HW113238   4.765   4.338   4.740
 4113SOL    HW213239   4.777   4.499   4.720
 4114SOL     OW13240   6.765   1.429   2.682
 4114SOL    HW113241   6.786   1.430   2.584
 4114SOL    HW213242   6.791   1.341   2.721
 4115SOL     OW13243   3.069   5.113   3.658
 4115SOL    HW113244   3.040   5.022   3.686
 4115SOL    HW213245   3.120   5.156   3.733
 4116SOL     OW13246   5.127   2.635   3.429
 4116SOL    HW113247   5.104   2.540   3.450
 4116SOL    HW213248   5.154   2.643   3.333
 4117SOL     OW13249   1.454   2.552   2.870
 4117SOL    HW113250   1.459   2.453   2.879
 4117SOL    HW213251   1.479   2.594   2.958
 4118SOL     OW13252   6.673   6.578   6.370
 4118SOL    HW113253   6.635   6.617   6.286
 4118SOL    HW213254   6.773   6.577   6.363
 4119SOL     OW13255   2.338   1.004   3.753
 4119SOL    HW113256   2.415   1.003   3.816
 4119SOL    HW213257   2.353   1.072   3.682
 4120SOL     OW13258   2.199   1.178   6.532
 4120SOL    HW113259   2.194   1.258   6.471
 4120SOL    HW213260   2.125   1.115   6.509
 4121SOL     OW13261   6.718   6.946   1.837
 4121SOL    HW113262   6.670   6.877   1.783
 4121SOL    HW213263   6.685   6.943   1.932
 4122SOL     OW13264   0.035   4.566   4.231
 4122SOL    HW113265   0.082   4.596   4.315
 4122SOL    HW213266   0.098   4.574   4.154
 4123SOL     OW13267   3.704   4.927   2.496
 4123SOL    HW113268   3.611   4.927   2.534
 4123SOL    HW213269   3.699   4.930   2.396
 4124SOL     OW13270   6.541   5.770   0.724
 4124SOL    HW113271   6.506   5.790   0.816
 4124SOL    HW213272   6.562   5.856   0.677
 4125SOL     OW13273   5.853   2.193   2.078
 4125SOL    HW113274   5.934   2.135   2.070
 4125SOL    HW213275   5.846   2.228   2.172
 4126SOL     OW13276   0.925   2.849   2.298
 4126SOL    HW113277   0.880   2.842   2.387
 4126SOL    HW213278   1.017   2.885   2.310
 4127SOL     OW13279   4.047   1.833   4.080
 4127SOL    HW113280   3.959   1.818   4.125
 4127SOL    HW213281   4.108   1.884   4.140
 4128SOL     OW13282   0.446   3.492   1.169
 4128SOL    HW113283   0.437   3.438   1.253
 4128SOL    HW213284   0.498   3.575   1.190
 4129SOL     OW13285   2.630   2.824   0.563
 4129SOL    HW113286   2.689   2.790   0.490
 4129SOL    HW213287   2.673   2.808   0.652
 4130SOL     OW13288   6.135   3.163   1.317
 4130SOL    HW113289   6.082   3.171   1.233
 4130SOL    HW213290   6.208   3.096   1.304
 4131SOL     OW13291   4.853   0.921   2.226
 4131SOL    HW113292   4.803   0.903   2.310
 4131SOL    HW213293   4.831   0.851   2.158
 4132SOL     OW13294   7.015   4.073   4.282
 4132SOL    HW113295   6.933   4.018   4.264
 4132SOL    HW213296   0.041   4.032   4.358
 4133SOL     OW13297   5.797   6.789   1.920
 4133SOL    HW113298   5.782   6.888   1.914
 4133SOL    HW213299   5.896   6.770   1.918
 4134SOL     OW13300   2.212   2.968   1.482
 4134SOL    HW113301   2.206   2.914   1.566
 4134SOL    HW213302   2.301   3.014   1.479
 4135SOL     OW13303   6.761   1.341   2.412
 4135SOL    HW113304   6.814   1.346   2.327
 4135SOL    HW213305   6.675   1.392   2.401
 4136SOL     OW13306   1.458   4.458   2.171
 4136SOL    HW113307   1.379   4.464   2.232
 4136SOL    HW213308   1.531   4.407   2.217
 4137SOL     OW13309   1.614   3.256   0.260
 4137SOL    HW113310   1.644   3.219   0.172
 4137SOL    HW213311   1.549   3.193   0.302
 4138SOL     OW13312   4.197   6.345   0.654
 4138SOL    HW113313   4.147   6.318   0.572
 4138SOL    HW213314   4.133   6.385   0.720
 4139SOL     OW13315   2.063   2.259   2.967
 4139SOL    HW113316   2.076   2.357   2.975
 4139SOL    HW213317   2.139   2.211   3.013
 4140SOL     OW13318   2.534   2.340   4.682
 4140SOL    HW113319   2.492   2.398   4.750
 4140SOL    HW213320   2.631   2.365   4.671
 4141SOL     OW13321   4.537   0.240   0.005
 4141SOL    HW113322   4.511   0.303   6.957
 4141SOL    HW213323   4.455   0.213   0.056
 4142SOL     OW13324   0.063   4.699   2.868
 4142SOL    HW113325   0.129   4.700   2.943
 4142SOL    HW213326   7.018   4.767   2.886
 4143SOL     OW13327   6.103   2.828   0.819
 4143SOL    HW113328   6.051   2.763   0.874
 4143SOL    HW213329   6.115   2.913   0.870
 4144SOL     OW13330   5.631   2.026   0.468
 4144SOL    HW113331   5.593   2.111   0.432
 4144SOL    HW213332   5.584   1.949   0.426
 4145SOL     OW13333   7.004   6.805   1.245
 4145SOL    HW113334   6.934   6.742   1.211
 4145SOL    HW213335   0.062   6.754   1.265
 4146SOL     OW13336   5.537   6.695   3.898
 4146SOL    HW113337   5.631   6.673   3.872
 4146SOL    HW213338   5.513   6.648   3.983
 4147SOL     OW13339   5.052   4.092   5.206
 4147SOL    HW113340   4.971   4.150   5.198
 4147SOL    HW213341   5.072   4.050   5.117
 4148SOL     OW13342   3.033   1.326   5.704
 4148SOL    HW113343   3.129   1.300   5.695
 4148SOL    HW213344   3.027   1.424   5.727
 4149SOL     OW13345   1.842   3.066   0.692
 4149SOL    HW113346   1.787   2.996   0.647
 4149SOL    HW213347   1.804   3.087   0.782
 4150SOL     OW13348   6.031   2.667   6.374
 4150SOL    HW113349   6.098   2.690   6.304
 4150SOL    HW213350   5.965   2.742   6.383
 4151SOL     OW13351   2.400   6.648   4.817
 4151SOL    HW113352   2.434   6.733   4.776
 4151SOL    HW213353   2.383   6.581   4.744
 4152SOL     OW13354   3.055   5.673   1.882
 4152SOL    HW113355   3.000   5.591   1.866
 4152SOL    HW213356   2.996   5.747   1.915
 4153SOL     OW13357   6.686   4.898   1.798
 4153SOL    HW113358   6.761   4.933   1.742
 4153SOL    HW213359   6.604   4.952   1.781
 4154SOL     OW13360   0.764   5.735   4.684
 4154SOL    HW113361   0.859   5.721   4.711
 4154SOL    HW213362   0.704   5.682   4.744
 4155SOL     OW13363   1.044   1.989   1.698
 4155SOL    HW113364   1.049   1.932   1.616
 4155SOL    HW213365   0.986   1.944   1.767
 4156SOL     OW13366   6.837   4.758   5.199
 4156SOL    HW113367   6.856   4.661   5.213
 4156SOL    HW213368   6.872   4.787   5.110
 4157SOL     OW13369   6.791   6.318   1.813
 4157SOL    HW113370   6.786   6.221   1.837
 4157SOL    HW213371   6.886   6.344   1.797
 4158SOL     OW13372   1.737   2.631   1.941
 4158SOL    HW113373   1.736   2.655   2.038
 4158SOL    HW213374   1.762   2.534   1.930
 4159SOL     OW13375   2.571   1.366   2.934
 4159SOL    HW113376   2.601   1.358   3.029
 4159SOL    HW213377   2.486   1.315   2.921
 4160SOL     OW13378   6.666   0.051   6.765
 4160SOL    HW113379   6.756   0.033   6.805
 4160SOL    HW213380   6.597   7.020   6.811
 4161SOL     OW13381   2.080   2.082   1.272
 4161SOL    HW113382   2.130   2.158   1.232
 4161SOL    HW213383   2.074   2.008   1.205
 4162SOL     OW13384   6.475   5.960   1.401
 4162SOL    HW113385   6.404   6.029   1.391
 4162SOL    HW213386   6.433   5.869   1.406
 4163SOL     OW13387   4.026   6.347   1.014
 4163SOL    HW113388   3.983   6.257   1.025
 4163SOL    HW213389   4.103   6.355   1.078
 4164SOL     OW13390   0.163   6.682   4.937
 4164SOL    HW113391   0.141   6.591   4.902
 4164SOL    HW213392   0.245   6.716   4.892
 4165SOL     OW13393   4.072   1.167   5.414
 4165SOL    HW113394   4.155   1.119   5.442
 4165SOL    HW213395   4.000   1.150   5.481
 4166SOL     OW13396   6.002   0.666   2.456
 4166SOL    HW113397   5.930   0.597   2.461
 4166SOL    HW213398   5.984   0.739   2.521
 4167SOL     OW13399   3.521   5.155   5.669
 4167SOL    HW113400   3.434   5.203   5.673
 4167SOL    HW213401   3.596   5.222   5.670
 4168SOL     OW13402   6.381   4.355   0.147
 4168SOL    HW113403   6.385   4.356   0.047
 4168SOL    HW213404   6.374   4.449   0.180
 4169SOL     OW13405   5.107   3.980   4.946
 4169SOL    HW113406   5.058   3.915   4.889
 4169SOL    HW213407   5.169   3.931   5.008
 4170SOL     OW13408   5.319   3.175   4.712
 4170SOL    HW113409   5.253   3.124   4.768
 4170SOL    HW213410   5.397   3.116   4.692
 4171SOL     OW13411   1.412   3.853   1.167
 4171SOL    HW113412   1.477   3.929   1.172
 4171SOL    HW213413   1.433   3.787   1.239
 4172SOL     OW13414   3.423   3.670   0.857
 4172SOL    HW113415   3.369   3.627   0.930
 4172SOL    HW213416   3.520   3.667   0.881
 4173SOL     OW13417   4.538   2.929   5.230
 4173SOL    HW113418   4.573   2.889   5.145
 4173SOL    HW213419   4.472   2.866   5.272
 4174SOL     OW13420   4.744   0.179   4.332
 4174SOL    HW113421   4.718   0.233   4.412
 4174SOL    HW213422   4.676   0.191   4.260
 4175SOL     OW13423   1.428   4.375   6.637
 4175SOL    HW113424   1.476   4.457   6.606
 4175SOL    HW213425   1.454   4.297   6.580
 4176SOL     OW13426   4.845   6.796   0.140
 4176SOL    HW113427   4.937   6.827   0.164
 4176SOL    HW213428   4.778   6.846   0.195
 4177SOL     OW13429   4.942   4.886   4.690
 4177SOL    HW113430   4.875   4.918   4.757
 4177SOL    HW213431   4.917   4.922   4.599
 4178SOL     OW13432   3.131   5.733   2.137
 4178SOL    HW113433   3.158   5.676   2.215
 4178SOL    HW213434   3.095   5.674   2.065
 4179SOL     OW13435   5.185   3.220   4.225
 4179SOL    HW113436   5.117   3.271   4.172
 4179SOL    HW213437   5.240   3.165   4.162
 4180SOL     OW13438   5.652   3.282   0.965
 4180SOL    HW113439   5.565   3.272   0.916
 4180SOL    HW213440   5.671   3.379   0.980
 4181SOL     OW13441   4.986   0.411   5.424
 4181SOL    HW113442   4.961   0.421   5.521
 4181SOL    HW213443   5.021   0.319   5.408
 4182SOL     OW13444   0.410   6.140   3.939
 4182SOL    HW113445   0.499   6.143   3.984
 4182SOL    HW213446   0.343   6.187   3.996
 4183SOL     OW13447   2.255   1.031   2.091
 4183SOL    HW113448   2.185   1.003   2.026
 4183SOL    HW213449   2.235   0.990   2.181
 4184SOL     OW13450   3.030   6.330   2.760
 4184SOL    HW113451   2.988   6.333   2.851
 4184SOL    HW213452   3.127   6.311   2.768
 4185SOL     OW13453   0.070   3.743   3.232
 4185SOL    HW113454   0.075   3.671   3.162
 4185SOL    HW213455   0.110   3.710   3.317
 4186SOL     OW13456   1.682   5.889   6.667
 4186SOL    HW113457   1.764   5.834   6.677
 4186SOL    HW213458   1.614   5.838   6.613
 4187SOL     OW13459   2.325   3.543   6.903
 4187SOL    HW113460   2.376   3.473   6.953
 4187SOL    HW213461   2.293   3.505   6.816
 4188SOL     OW13462   4.985   0.241   6.229
 4188SOL    HW113463   5.049   0.198   6.292
 4188SOL    HW213464   5.034   0.278   6.150
 4189SOL     OW13465   4.904   5.600   3.052
 4189SOL    HW113466   4.910   5.676   3.118
 4189SOL    HW213467   4.995   5.575   3.022
 4190SOL     OW13468   6.869   6.593   1.129
 4190SOL    HW113469   6.783   6.571   1.084
 4190SOL    HW213470   6.906   6.510   1.172
 4191SOL     OW13471   5.015   3.712   5.852
 4191SOL    HW113472   5.054   3.652   5.922
 4191SOL    HW213473   4.917   3.693   5.841
 4192SOL     OW13474   1.204   1.596   2.395
 4192SOL    HW113475   1.276   1.537   2.359
 4192SOL    HW213476   1.224   1.692   2.373
 4193SOL     OW13477   5.728   0.481   0.608
 4193SOL    HW113478   5.776   0.441   0.686
 4193SOL    HW213479   5.740   0.421   0.528
 4194SOL     OW13480   4.091   0.864   5.479
 4194SOL    HW113481   4.184   0.880   5.445
 4194SOL    HW213482   4.034   0.828   5.405
 4195SOL     OW13483   4.700   6.483   2.056
 4195SOL    HW113484   4.738   6.572   2.079
 4195SOL    HW213485   4.759   6.437   1.990
 4196SOL     OW13486   6.786   2.595   4.020
 4196SOL    HW113487   6.735   2.673   3.984
 4196SOL    HW213488   6.817   2.537   3.945
 4197SOL     OW13489   3.795   5.998   5.964
 4197SOL    HW113490   3.853   5.977   6.042
 4197SOL    HW213491   3.699   5.984   5.989
 4198SOL     OW13492   6.481   0.552   2.079
 4198SOL    HW113493   6.479   0.471   2.137
 4198SOL    HW213494   6.389   0.573   2.047
 4199SOL     OW13495   1.824   4.231   6.446
 4199SOL    HW113496   1.827   4.143   6.493
 4199SOL    HW213497   1.728   4.259   6.434
 4200SOL     OW13498   4.112   0.791   5.075
 4200SOL    HW113499   4.062   0.871   5.041
 4200SOL    HW213500   4.112   0.719   5.005
 4201SOL     OW13501   6.472   6.964   3.527
 4201SOL    HW113502   6.380   6.982   3.561
 4201SOL    HW213503   6.538   7.020   3.577
 4202SOL     OW13504   3.589   5.679   6.994
 4202SOL    HW113505   3.504   5.728   7.011
 4202SOL    HW213506   3.596   5.602   0.031
 4203SOL     OW13507   5.326   5.314   0.397
 4203SOL    HW113508   5.402   5.369   0.431
 4203SOL    HW213509   5.358   5.254   0.323
 4204SOL     OW13510   3.524   3.266   5.891
 4204SOL    HW113511   3.438   3.282   5.842
 4204SOL    HW213512   3.522   3.314   5.979
 4205SOL     OW13513   3.694   5.616   4.703
 4205SOL    HW113514   3.611   5.609   4.758
 4205SOL    HW213515   3.669   5.623   4.606
 4206SOL     OW13516   1.353   1.535   4.912
 4206SOL    HW113517   1.408   1.452   4.904
 4206SOL    HW213518   1.307   1.536   5.001
 4207SOL     OW13519   1.853   2.225   1.150
 4207SOL    HW113520   1.769   2.170   1.150
 4207SOL    HW213521   1.920   2.183   1.211
 4208SOL     OW13522   1.709   4.220   5.471
 4208SOL    HW113523   1.631   4.277   5.500
 4208SOL    HW213524   1.702   4.202   5.373
 4209SOL     OW13525   0.071   5.877   2.686
 4209SOL    HW113526   0.008   5.913   2.618
 4209SOL    HW213527   0.020   5.840   2.763
 4210SOL     OW13528   3.999   3.270   4.769
 4210SOL    HW113529   3.923   3.326   4.802
 4210SOL    HW213530   4.009   3.189   4.826
 4211SOL     OW13531   3.969   1.984   5.077
 4211SOL    HW113532   4.015   1.973   4.989
 4211SOL    HW213533   4.026   1.944   5.149
 4212SOL     OW13534   0.197   1.135   3.436
 4212SOL    HW113535   0.195   1.041   3.470
 4212SOL    HW213536   0.112   1.154   3.385
 4213SOL     OW13537   3.025   0.976   3.098
 4213SOL    HW113538   3.058   1.053   3.152
 4213SOL    HW213539   2.966   1.009   3.025
 4214SOL     OW13540   0.789   5.231   4.340
 4214SOL    HW113541   0.875   5.244   4.388
 4214SOL    HW213542   0.718   5.202   4.404
 4215SOL     OW13543   4.835   6.564   5.391
 4215SOL    HW113544   4.738   6.572   5.370
 4215SOL    HW213545   4.886   6.546   5.307
 4216SOL     OW13546   1.388   0.739   2.896
 4216SOL    HW113547   1.485   0.765   2.898
 4216SOL    HW213548   1.372   0.668   2.964
 4217SOL     OW13549   0.847   0.220   1.900
 4217SOL    HW113550   0.874   0.125   1.882
 4217SOL    HW213551   0.748   0.228   1.891
 4218SOL     OW13552   3.613   1.436   1.275
 4218SOL    HW113553   3.698   1.428   1.224
 4218SOL    HW213554   3.560   1.514   1.241
 4219SOL     OW13555   4.219   6.402   4.541
 4219SOL    HW113556   4.158   6.481   4.540
 4219SOL    HW213557   4.257   6.388   4.450
 4220SOL     OW13558   5.413   2.188   1.781
 4220SOL    HW113559   5.467   2.254   1.833
 4220SOL    HW213560   5.467   2.156   1.703
 4221SOL     OW13561   6.422   5.385   6.767
 4221SOL    HW113562   6.352   5.318   6.742
 4221SOL    HW213563   6.444   5.375   6.864
 4222SOL     OW13564   5.804   2.125   3.255
 4222SOL    HW113565   5.853   2.079   3.181
 4222SOL    HW213566   5.781   2.218   3.226
 4223SOL     OW13567   4.264   4.157   0.881
 4223SOL    HW113568   4.187   4.196   0.930
 4223SOL    HW213569   4.274   4.060   0.906
 4224SOL     OW13570   5.283   4.285   4.919
 4224SOL    HW113571   5.340   4.233   4.982
 4224SOL    HW213572   5.278   4.238   4.831
 4225SOL     OW13573   1.322   2.167   5.427
 4225SOL    HW113574   1.229   2.159   5.464
 4225SOL    HW213575   1.388   2.137   5.496
 4226SOL     OW13576   0.534   5.941   4.424
 4226SOL    HW113577   0.549   5.934   4.522
 4226SOL    HW213578   0.536   6.038   4.397
 4227SOL     OW13579   4.935   5.664   1.898
 4227SOL    HW113580   4.954   5.761   1.914
 4227SOL    HW213581   4.920   5.649   1.800
 4228SOL     OW13582   1.060   5.929   4.940
 4228SOL    HW113583   0.965   5.931   4.972
 4228SOL    HW213584   1.101   5.841   4.960
 4229SOL     OW13585   5.585   5.850   5.689
 4229SOL    HW113586   5.508   5.863   5.627
 4229SOL    HW213587   5.624   5.939   5.714
 4230SOL     OW13588   1.083   0.134   2.704
 4230SOL    HW113589   1.091   0.172   2.612
 4230SOL    HW213590   0.987   0.112   2.723
 4231SOL     OW13591   4.975   0.998   5.518
 4231SOL    HW113592   5.022   0.937   5.454
 4231SOL    HW213593   4.992   0.968   5.611
 4232SOL     OW13594   2.323   5.505   3.591
 4232SOL    HW113595   2.404   5.554   3.622
 4232SOL    HW213596   2.248   5.521   3.654
 4233SOL     OW13597   0.219   7.019   4.206
 4233SOL    HW113598   0.175   0.004   4.294
 4233SOL    HW213599   0.249   6.924   4.195
 4234SOL     OW13600   1.901   5.381   5.477
 4234SOL    HW113601   1.857   5.353   5.392
 4234SOL    HW213602   2.000   5.385   5.463
 4235SOL     OW13603   6.710   5.134   5.665
 4235SOL    HW113604   6.771   5.164   5.739
 4235SOL    HW213605   6.649   5.063   5.699
 4236SOL     OW13606   0.410   5.551   2.443
 4236SOL    HW113607   0.337   5.605   2.486
 4236SOL    HW213608   0.417   5.463   2.489
 4237SOL     OW13609   6.694   4.313   4.088
 4237SOL    HW113610   6.774   4.362   4.122
 4237SOL    HW213611   6.612   4.367   4.105
 4238SOL     OW13612   1.794   0.944   3.281
 4238SOL    HW113613   1.724   1.014   3.269
 4238SOL    HW213614   1.883   0.981   3.254
 4239SOL     OW13615   4.328   0.888   3.216
 4239SOL    HW113616   4.319   0.870   3.118
 4239SOL    HW213617   4.387   0.968   3.230
 4240SOL     OW13618   1.970   5.442   0.142
 4240SOL    HW113619   2.023   5.510   0.091
 4240SOL    HW213620   1.906   5.397   0.080
 4241SOL     OW13621   6.623   1.688   0.595
 4241SOL    HW113622   6.615   1.713   0.691
 4241SOL    HW213623   6.534   1.695   0.550
 4242SOL     OW13624   2.536   2.169   3.983
 4242SOL    HW113625   2.446   2.153   3.943
 4242SOL    HW213626   2.604   2.112   3.937
 4243SOL     OW13627   5.135   1.412   2.762
 4243SOL    HW113628   5.158   1.436   2.856
 4243SOL    HW213629   5.211   1.361   2.721
 4244SOL     OW13630   3.846   3.532   2.087
 4244SOL    HW113631   3.794   3.455   2.052
 4244SOL    HW213632   3.856   3.601   2.015
 4245SOL     OW13633   6.671   1.975   6.369
 4245SOL    HW113634   6.688   1.882   6.402
 4245SOL    HW213635   6.757   2.026   6.368
 4246SOL     OW13636   6.902   4.481   3.124
 4246SOL    HW113637   6.835   4.540   3.079
 4246SOL    HW213638   6.862   4.443   3.208
 4247SOL     OW13639   0.305   6.436   4.343
 4247SOL    HW113640   0.355   6.487   4.412
 4247SOL    HW213641   0.225   6.489   4.314
 4248SOL     OW13642   1.949   1.825   5.046
 4248SOL    HW113643   1.999   1.747   5.009
 4248SOL    HW213644   1.970   1.906   4.993
 4249SOL     OW13645   6.553   2.844   5.453
 4249SOL    HW113646   6.526   2.834   5.549
 4249SOL    HW213647   6.627   2.779   5.433
 4250SOL     OW13648   7.004   4.788   3.317
 4250SOL    HW113649   6.923   4.801   3.375
 4250SOL    HW213650   0.035   4.715   3.356
 4251SOL     OW13651   6.351   4.593   0.510
 4251SOL    HW113652   6.260   4.562   0.538
 4251SOL    HW213653   6.419   4.561   0.576
 4252SOL     OW13654   6.780   6.014   5.079
 4252SOL    HW113655   6.855   6.071   5.045
 4252SOL    HW213656   6.693   6.061   5.065
 4253SOL     OW13657   3.486   0.271   2.450
 4253SOL    HW113658   3.478   0.202   2.522
 4253SOL    HW213659   3.418   0.252   2.378
 4254SOL     OW13660   1.175   2.886   1.344
 4254SOL    HW113661   1.104   2.821   1.316
 4254SOL    HW213662   1.265   2.842   1.335
 4255SOL     OW13663   6.028   2.402   3.528
 4255SOL    HW113664   6.080   2.393   3.614
 4255SOL    HW213665   5.970   2.321   3.516
 4256SOL     OW13666   1.532   6.559   0.679
 4256SOL    HW113667   1.467   6.580   0.751
 4256SOL    HW213668   1.492   6.494   0.614
 4257SOL     OW13669   3.349   0.900   5.507
 4257SOL    HW113670   3.277   0.839   5.475
 4257SOL    HW213671   3.436   0.851   5.510
 4258SOL     OW13672   5.988   6.671   2.227
 4258SOL    HW113673   5.968   6.723   2.310
 4258SOL    HW213674   6.075   6.703   2.188
 4259SOL     OW13675   2.158   1.020   6.876
 4259SOL    HW113676   2.096   1.073   6.934
 4259SOL    HW213677   2.233   1.078   6.846
 4260SOL     OW13678   4.395   5.924   3.807
 4260SOL    HW113679   4.382   5.894   3.713
 4260SOL    HW213680   4.492   5.942   3.824
 4261SOL     OW13681   2.388   0.287   2.124
 4261SOL    HW113682   2.389   0.378   2.083
 4261SOL    HW213683   2.428   0.221   2.060
 4262SOL     OW13684   1.420   4.964   5.725
 4262SOL    HW113685   1.452   4.925   5.812
 4262SOL    HW213686   1.322   4.948   5.716
 4263SOL     OW13687   2.612   6.622   4.543
 4263SOL    HW113688   2.579   6.540   4.497
 4263SOL    HW213689   2.664   6.678   4.479
 4264SOL     OW13690   0.145   1.626   1.511
 4264SOL    HW113691   0.048   1.628   1.534
 4264SOL    HW213692   0.161   1.555   1.442
 4265SOL     OW13693   6.117   1.865   0.017
 4265SOL    HW113694   6.171   1.789   0.053
 4265SOL    HW213695   6.034   1.830   6.999
 4266SOL     OW13696   2.703   5.546   0.388
 4266SOL    HW113697   2.656   5.496   0.461
 4266SOL    HW213698   2.637   5.577   0.320
 4267SOL     OW13699   2.180   3.716   4.946
 4267SOL    HW113700   2.182   3.783   5.020
 4267SOL    HW213701   2.166   3.763   4.859
 4268SOL     OW13702   1.641   6.597   0.230
 4268SOL    HW113703   1.710   6.606   0.302
 4268SOL    HW213704   1.573   6.670   0.239
 4269SOL     OW13705   2.122   1.842   0.392
 4269SOL    HW113706   2.115   1.793   0.305
 4269SOL    HW213707   2.108   1.778   0.467
 4270SOL     OW13708   4.123   3.348   4.442
 4270SOL    HW113709   4.202   3.366   4.501
 4270SOL    HW213710   4.055   3.295   4.492
 4271SOL     OW13711   0.292   0.564   5.330
 4271SOL    HW113712   0.282   0.576   5.429
 4271SOL    HW213713   0.214   0.512   5.295
 4272SOL     OW13714   7.012   5.135   4.586
 4272SOL    HW113715   0.023   5.065   4.525
 4272SOL    HW213716   6.958   5.092   4.658
 4273SOL     OW13717   4.428   6.443   4.352
 4273SOL    HW113718   4.504   6.503   4.326
 4273SOL    HW213719   4.357   6.447   4.282
 4274SOL     OW13720   0.788   6.963   3.270
 4274SOL    HW113721   0.720   7.013   3.216
 4274SOL    HW213722   0.757   6.870   3.285
 4275SOL     OW13723   6.662   1.069   6.268
 4275SOL    HW113724   6.644   1.016   6.185
 4275SOL    HW213725   6.579   1.121   6.292
 4276SOL     OW13726   1.492   5.200   2.749
 4276SOL    HW113727   1.548   5.194   2.831
 4276SOL    HW213728   1.404   5.241   2.771
 4277SOL     OW13729   0.148   4.569   3.949
 4277SOL    HW113730   0.217   4.502   3.976
 4277SOL    HW213731   0.109   4.544   3.861
 4278SOL     OW13732   6.633   0.420   5.114
 4278SOL    HW113733   6.598   0.372   5.193
 4278SOL    HW213734   6.686   0.500   5.143
 4279SOL     OW13735   3.639   6.282   5.336
 4279SOL    HW113736   3.683   6.195   5.353
 4279SOL    HW213737   3.637   6.336   5.420
 4280SOL     OW13738   5.716   1.491   5.257
 4280SOL    HW113739   5.650   1.456   5.324
 4280SOL    HW213740   5.807   1.492   5.298
 4281SOL     OW13741   1.808   4.528   4.600
 4281SOL    HW113742   1.898   4.512   4.641
 4281SOL    HW213743   1.737   4.492   4.659
 4282SOL     OW13744   2.352   2.211   0.190
 4282SOL    HW113745   2.350   2.159   0.276
 4282SOL    HW213746   2.259   2.243   0.170
 4283SOL     OW13747   1.541   0.414   3.986
 4283SOL    HW113748   1.533   0.450   3.893
 4283SOL    HW213749   1.628   0.365   3.996
 4284SOL     OW13750   5.265   6.967   2.420
 4284SOL    HW113751   5.270   6.997   2.325
 4284SOL    HW213752   5.186   7.009   2.465
 4285SOL     OW13753   0.378   7.001   6.048
 4285SOL    HW113754   0.335   6.966   5.965
 4285SOL    HW213755   0.477   6.999   6.037
 4286SOL     OW13756   5.219   5.722   6.525
 4286SOL    HW113757   5.252   5.658   6.456
 4286SOL    HW213758   5.198   5.810   6.481
 4287SOL     OW13759   5.605   0.656   5.356
 4287SOL    HW113760   5.668   0.707   5.415
 4287SOL    HW213761   5.539   0.720   5.316
 4288SOL     OW13762   0.859   6.666   3.316
 4288SOL    HW113763   0.870   6.584   3.260
 4288SOL    HW213764   0.765   6.671   3.351
 4289SOL     OW13765   5.595   2.410   2.206
 4289SOL    HW113766   5.653   2.483   2.241
 4289SOL    HW213767   5.523   2.390   2.272
 4290SOL     OW13768   2.489   6.693   1.227
 4290SOL    HW113769   2.433   6.638   1.288
 4290SOL    HW213770   2.584   6.692   1.258
 4291SOL     OW13771   4.845   3.325   1.600
 4291SOL    HW113772   4.869   3.324   1.697
 4291SOL    HW213773   4.889   3.403   1.555
 4292SOL     OW13774   6.286   4.529   5.379
 4292SOL    HW113775   6.266   4.581   5.461
 4292SOL    HW213776   6.201   4.493   5.340
 4293SOL     OW13777   6.370   4.005   6.415
 4293SOL    HW113778   6.440   4.003   6.486
 4293SOL    HW213779   6.297   4.069   6.441
 4294SOL     OW13780   4.778   3.047   6.494
 4294SOL    HW113781   4.780   3.120   6.425
 4294SOL    HW213782   4.746   3.085   6.581
 4295SOL     OW13783   3.837   0.146   5.053
 4295SOL    HW113784   3.928   0.173   5.024
 4295SOL    HW213785   3.818   0.183   5.144
 4296SOL     OW13786   2.607   2.009   0.299
 4296SOL    HW113787   2.607   2.093   0.353
 4296SOL    HW213788   2.691   1.957   0.317
 4297SOL     OW13789   5.137   6.944   5.361
 4297SOL    HW113790   5.229   6.964   5.327
 4297SOL    HW213791   5.132   6.848   5.389
 4298SOL     OW13792   1.541   5.286   6.704
 4298SOL    HW113793   1.606   5.214   6.678
 4298SOL    HW213794   1.494   5.260   6.787
 4299SOL     OW13795   1.582   3.117   6.663
 4299SOL    HW113796   1.555   3.101   6.568
 4299SOL    HW213797   1.661   3.061   6.685
 4300SOL     OW13798   2.871   1.737   6.230
 4300SOL    HW113799   2.884   1.644   6.264
 4300SOL    HW213800   2.865   1.800   6.307
 4301SOL     OW13801   2.742   1.406   0.273
 4301SOL    HW113802   2.765   1.349   0.194
 4301SOL    HW213803   2.741   1.349   0.355
 4302SOL     OW13804   1.346   6.397   5.882
 4302SOL    HW113805   1.286   6.440   5.949
 4302SOL    HW213806   1.390   6.317   5.923
 4303SOL     OW13807   6.289   4.398   3.231
 4303SOL    HW113808   6.221   4.338   3.273
 4303SOL    HW213809   6.346   4.346   3.168
 4304SOL     OW13810   3.275   3.771   4.294
 4304SOL    HW113811   3.348   3.753   4.360
 4304SOL    HW213812   3.235   3.685   4.264
 4305SOL     OW13813   6.347   1.795   3.645
 4305SOL    HW113814   6.446   1.781   3.650
 4305SOL    HW213815   6.301   1.722   3.695
 4306SOL     OW13816   0.111   3.954   6.936
 4306SOL    HW113817   0.151   4.045   6.922
 4306SOL    HW213818   0.127   3.898   6.855
 4307SOL     OW13819   4.956   4.657   5.634
 4307SOL    HW113820   4.901   4.585   5.677
 4307SOL    HW213821   4.927   4.746   5.668
 4308SOL     OW13822   5.429   5.751   6.113
 4308SOL    HW113823   5.512   5.733   6.062
 4308SOL    HW213824   5.374   5.820   6.065
 4309SOL     OW13825   0.562   6.801   0.058
 4309SOL    HW113826   0.605   6.818   6.995
 4309SOL    HW213827   0.491   6.732   0.048
 4310SOL     OW13828   2.134   2.599   3.847
 4310SOL    HW113829   2.065   2.531   3.825
 4310SOL    HW213830   2.107   2.648   3.930
 4311SOL     OW13831   1.295   5.922   3.065
 4311SOL    HW113832   1.301   5.885   3.158
 4311SOL    HW213833   1.342   6.010   3.062
 4312SOL     OW13834   1.170   5.717   1.442
 4312SOL    HW113835   1.131   5.754   1.358
 4312SOL    HW213836   1.105   5.727   1.517
 4313SOL     OW13837   6.029   1.590   1.735
 4313SOL    HW113838   6.015   1.592   1.834
 4313SOL    HW213839   5.987   1.671   1.694
 4314SOL     OW13840   4.837   3.292   3.415
 4314SOL    HW113841   4.860   3.247   3.502
 4314SOL    HW213842   4.799   3.224   3.352
 4315SOL     OW13843   1.999   0.619   2.847
 4315SOL    HW113844   2.039   0.565   2.773
 4315SOL    HW213845   1.915   0.575   2.879
 4316SOL     OW13846   4.837   0.253   1.042
 4316SOL    HW113847   4.810   0.298   1.128
 4316SOL    HW213848   4.846   0.322   0.970
 4317SOL     OW13849   3.132   0.983   4.757
 4317SOL    HW113850   3.213   0.940   4.719
 4317SOL    HW213851   3.158   1.045   4.831
 4318SOL     OW13852   0.396   3.698   3.309
 4318SOL    HW113853   0.393   3.616   3.251
 4318SOL    HW213854   0.491   3.726   3.322
 4319SOL     OW13855   2.840   2.998   0.288
 4319SOL    HW113856   2.750   3.041   0.296
 4319SOL    HW213857   2.840   2.913   0.341
 4320SOL     OW13858   1.462   6.427   2.071
 4320SOL    HW113859   1.413   6.502   2.114
 4320SOL    HW213860   1.465   6.441   1.972
 4321SOL     OW13861   6.548   0.628   4.439
 4321SOL    HW113862   6.555   0.535   4.474
 4321SOL    HW213863   6.611   0.687   4.489
 4322SOL     OW13864   6.197   1.476   6.704
 4322SOL    HW113865   6.288   1.505   6.676
 4322SOL    HW213866   6.191   1.475   6.804
 4323SOL     OW13867   5.340   3.427   1.999
 4323SOL    HW113868   5.284   3.464   1.924
 4323SOL    HW213869   5.423   3.482   2.008
 4324SOL     OW13870   5.757   4.675   6.936
 4324SOL    HW113871   5.796   4.760   6.972
 4324SOL    HW213872   5.662   4.668   6.964
 4325SOL     OW13873   1.051   0.747   0.276
 4325SOL    HW113874   0.969   0.800   0.301
 4325SOL    HW213875   1.094   0.788   0.195
 4326SOL     OW13876   6.991   3.089   5.038
 4326SOL    HW113877   6.945   3.154   5.098
 4326SOL    HW213878   0.057   3.071   5.073
 4327SOL     OW13879   6.054   5.670   2.146
 4327SOL    HW113880   6.054   5.740   2.074
 4327SOL    HW213881   6.030   5.712   2.233
 4328SOL     OW13882   4.729   4.660   5.851
 4328SOL    HW113883   4.668   4.739   5.851
 4328SOL    HW213884   4.808   4.679   5.909
 4329SOL     OW13885   3.064   1.946   6.294
 4329SOL    HW113886   3.143   1.982   6.245
 4329SOL    HW213887   3.002   1.902   6.229
 4330SOL     OW13888   2.737   0.658   5.835
 4330SOL    HW113889   2.788   0.575   5.814
 4330SOL    HW213890   2.756   0.727   5.764
 4331SOL     OW13891   5.324   3.386   1.512
 4331SOL    HW113892   5.422   3.365   1.505
 4331SOL    HW213893   5.297   3.444   1.435
 4332SOL     OW13894   5.433   3.834   2.340
 4332SOL    HW113895   5.450   3.926   2.375
 4332SOL    HW213896   5.346   3.801   2.376
 4333SOL     OW13897   4.720   1.737   4.923
 4333SOL    HW113898   4.711   1.710   4.827
 4333SOL    HW213899   4.640   1.789   4.951
 4334SOL     OW13900   2.605   1.820   2.067
 4334SOL    HW113901   2.668   1.864   2.131
 4334SOL    HW213902   2.558   1.745   2.113
 4335SOL     OW13903   3.128   3.721   3.670
 4335SOL    HW113904   3.190   3.756   3.599
 4335SOL    HW213905   3.164   3.745   3.760
 4336SOL     OW13906   0.908   6.833   5.476
 4336SOL    HW113907   0.916   6.760   5.543
 4336SOL    HW213908   0.906   6.794   5.384
 4337SOL     OW13909   0.955   4.678   0.276
 4337SOL    HW113910   0.926   4.691   0.371
 4337SOL    HW213911   1.025   4.607   0.272
 4338SOL     OW13912   4.895   5.679   4.680
 4338SOL    HW113913   4.804   5.703   4.713
 4338SOL    HW213914   4.962   5.689   4.753
 4339SOL     OW13915   5.980   2.852   5.559
 4339SOL    HW113916   6.014   2.870   5.467
 4339SOL    HW213917   5.929   2.931   5.592
 4340SOL     OW13918   6.183   3.724   2.547
 4340SOL    HW113919   6.162   3.821   2.544
 4340SOL    HW213920   6.102   3.671   2.525
 4341SOL     OW13921   0.984   3.808   1.671
 4341SOL    HW113922   0.902   3.856   1.703
 4341SOL    HW213923   0.991   3.815   1.572
 4342SOL     OW13924   6.778   3.125   3.915
 4342SOL    HW113925   6.750   3.029   3.908
 4342SOL    HW213926   6.699   3.184   3.896
 4343SOL     OW13927   2.856   0.022   6.842
 4343SOL    HW113928   2.920   6.979   6.876
 4343SOL    HW213929   2.907   0.097   6.800
 4344SOL     OW13930   1.807   5.297   3.528
 4344SOL    HW113931   1.873   5.247   3.584
 4344SOL    HW213932   1.816   5.395   3.547
 4345SOL     OW13933   1.569   3.508   5.501
 4345SOL    HW113934   1.546   3.451   5.580
 4345SOL    HW213935   1.668   3.506   5.486
 4346SOL     OW13936   2.104   2.932   1.776
 4346SOL    HW113937   2.170   2.892   1.839
 4346SOL    HW213938   2.017   2.883   1.783
 4347SOL     OW13939   6.849   1.132   1.471
 4347SOL    HW113940   6.802   1.071   1.535
 4347SOL    HW213941   6.876   1.080   1.389
 4348SOL     OW13942   0.083   2.995   2.703
 4348SOL    HW113943   0.072   2.903   2.665
 4348SOL    HW213944   0.080   2.989   2.803
 4349SOL     OW13945   0.284   1.824   2.922
 4349SOL    HW113946   0.292   1.865   3.013
 4349SOL    HW213947   0.198   1.774   2.916
 4350SOL     OW13948   4.731   2.284   4.092
 4350SOL    HW113949   4.695   2.369   4.131
 4350SOL    HW213950   4.816   2.259   4.137
 4351SOL     OW13951   2.395   6.512   1.438
 4351SOL    HW113952   2.471   6.485   1.497
 4351SOL    HW213953   2.318   6.542   1.494
 4352SOL     OW13954   0.560   2.029   1.322
 4352SOL    HW113955   0.494   1.992   1.257
 4352SOL    HW213956   0.622   1.956   1.352
 4353SOL     OW13957   3.063   5.122   0.884
 4353SOL    HW113958   2.967   5.150   0.876
 4353SOL    HW213959   3.121   5.203   0.886
 4354SOL     OW13960   2.030   6.315   5.701
 4354SOL    HW113961   1.943   6.365   5.702
 4354SOL    HW213962   2.097   6.366   5.647
 4355SOL     OW13963   3.723   0.201   1.807
 4355SOL    HW113964   3.797   0.217   1.742
 4355SOL    HW213965   3.645   0.259   1.784
 4356SOL     OW13966   4.538   4.393   1.657
 4356SOL    HW113967   4.485   4.473   1.630
 4356SOL    HW213968   4.481   4.333   1.713
 4357SOL     OW13969   6.028   0.011   6.828
 4357SOL    HW113970   6.092   0.079   6.863
 4357SOL    HW213971   6.015   0.025   6.729
 4358SOL     OW13972   6.490   6.135   0.661
 4358SOL    HW113973   6.576   6.085   0.649
 4358SOL    HW213974   6.506   6.216   0.718
 4359SOL     OW13975   1.365   2.259   4.743
 4359SOL    HW113976   1.395   2.217   4.657
 4359SOL    HW213977   1.439   2.255   4.810
 4360SOL     OW13978   1.731   3.644   2.562
 4360SOL    HW113979   1.708   3.553   2.527
 4360SOL    HW213980   1.780   3.695   2.491
 4361SOL     OW13981   3.016   2.643   1.681
 4361SOL    HW113982   2.984   2.589   1.759
 4361SOL    HW213983   2.993   2.595   1.596
 4362SOL     OW13984   6.174   4.055   5.590
 4362SOL    HW113985   6.075   4.057   5.604
 4362SOL    HW213986   6.207   4.147   5.572
 4363SOL     OW13987   5.248   1.959   5.785
 4363SOL    HW113988   5.304   2.035   5.821
 4363SOL    HW213989   5.229   1.894   5.858
 4364SOL     OW13990   3.005   3.717   5.564
 4364SOL    HW113991   3.032   3.678   5.476
 4364SOL    HW213992   3.061   3.797   5.584
 4365SOL     OW13993   3.195   1.479   2.314
 4365SOL    HW113994   3.108   1.527   2.303
 4365SOL    HW213995   3.180   1.380   2.307
 4366SOL     OW13996   5.663   6.650   1.121
 4366SOL    HW113997   5.617   6.693   1.043
 4366SOL    HW213998   5.603   6.580   1.160
 4367SOL     OW13999   1.169   4.935   5.451
 4367SOL    HW114000   1.208   5.021   5.485
 4367SOL    HW214001   1.231   4.895   5.383
 4368SOL     OW14002   4.007   5.219   1.156
 4368SOL    HW114003   3.932   5.240   1.093
 4368SOL    HW214004   3.994   5.127   1.193
 4369SOL     OW14005   4.732   5.556   2.356
 4369SOL    HW114006   4.786   5.608   2.289
 4369SOL    HW214007   4.758   5.584   2.448
 4370SOL     OW14008   5.442   4.418   2.917
 4370SOL    HW114009   5.443   4.518   2.920
 4370SOL    HW214010   5.534   4.383   2.932
 4371SOL     OW14011   6.270   0.349   1.243
 4371SOL    HW114012   6.325   0.423   1.203
 4371SOL    HW214013   6.185   0.388   1.280
 4372SOL     OW14014   4.446   1.198   2.619
 4372SOL    HW114015   4.353   1.231   2.602
 4372SOL    HW214016   4.493   1.262   2.680
 4373SOL     OW14017   0.156   3.135   6.665
 4373SOL    HW114018   0.170   3.119   6.567
 4373SOL    HW214019   0.182   3.053   6.716
 4374SOL     OW14020   1.325   2.101   1.552
 4374SOL    HW114021   1.270   2.018   1.563
 4374SOL    HW214022   1.422   2.079   1.561
 4375SOL     OW14023   2.492   0.029   3.948
 4375SOL    HW114024   2.470   0.070   4.037
 4375SOL    HW214025   2.591   0.018   3.940
 4376SOL     OW14026   6.956   0.229   2.239
 4376SOL    HW114027   6.894   0.156   2.210
 4376SOL    HW214028   6.920   0.273   2.321
 4377SOL     OW14029   5.232   3.764   0.690
 4377SOL    HW114030   5.142   3.739   0.654
 4377SOL    HW214031   5.303   3.728   0.629
 4378SOL     OW14032   2.076   0.775   3.086
 4378SOL    HW114033   2.034   0.857   3.048
 4378SOL    HW214034   2.089   0.707   3.014
 4379SOL     OW14035   2.689   1.356   4.410
 4379SOL    HW114036   2.704   1.428   4.342
 4379SOL    HW214037   2.593   1.329   4.409
 4380SOL     OW14038   1.560   0.875   1.601
 4380SOL    HW114039   1.596   0.960   1.640
 4380SOL    HW214040   1.569   0.877   1.501
 4381SOL     OW14041   1.762   5.229   4.970
 4381SOL    HW114042   1.817   5.285   4.909
 4381SOL    HW214043   1.665   5.245   4.952
 4382SOL     OW14044   6.629   3.237   6.106
 4382SOL    HW114045   6.596   3.207   6.016
 4382SOL    HW214046   6.716   3.285   6.095
 4383SOL     OW14047   5.854   3.873   6.434
 4383SOL    HW114048   5.804   3.911   6.357
 4383SOL    HW214049   5.902   3.946   6.482
 4384SOL     OW14050   6.415   0.761   3.436
 4384SOL    HW114051   6.427   0.712   3.350
 4384SOL    HW214052   6.337   0.723   3.486
 4385SOL     OW14053   4.499   2.416   4.865
 4385SOL    HW114054   4.408   2.423   4.907
 4385SOL    HW214055   4.522   2.319   4.851
 4386SOL     OW14056   1.367   3.868   5.517
 4386SOL    HW114057   1.432   3.933   5.478
 4386SOL    HW214058   1.377   3.866   5.617
 4387SOL     OW14059   6.749   2.580   1.574
 4387SOL    HW114060   6.817   2.635   1.622
 4387SOL    HW214061   6.671   2.565   1.635
 4388SOL     OW14062   5.219   2.241   6.087
 4388SOL    HW114063   5.281   2.316   6.112
 4388SOL    HW214064   5.211   2.236   5.988
 4389SOL     OW14065   6.929   3.737   1.536
 4389SOL    HW114066   6.906   3.784   1.451
 4389SOL    HW214067   7.024   3.755   1.560
 4390SOL     OW14068   5.373   6.594   0.821
 4390SOL    HW114069   5.273   6.599   0.831
 4390SOL    HW214070   5.413   6.679   0.853
 4391SOL     OW14071   1.805   5.046   6.389
 4391SOL    HW114072   1.783   5.137   6.354
 4391SOL    HW214073   1.791   4.978   6.317
 4392SOL     OW14074   0.586   1.798   4.011
 4392SOL    HW114075   0.651   1.729   4.045
 4392SOL    HW214076   0.500   1.790   4.062
 4393SOL     OW14077   6.374   0.517   1.790
 4393SOL    HW114078   6.401   0.422   1.804
 4393SOL    HW214079   6.453   0.570   1.759
 4394SOL     OW14080   1.030   6.944   1.574
 4394SOL    HW114081   1.038   6.942   1.474
 4394SOL    HW214082   1.074   0.001   1.609
 4395SOL     OW14083   1.976   0.394   1.790
 4395SOL    HW114084   1.907   0.322   1.790
 4395SOL    HW214085   1.989   0.428   1.697
 4396SOL     OW14086   1.717   1.610   4.053
 4396SOL    HW114087   1.768   1.546   3.995
 4396SOL    HW214088   1.619   1.603   4.032
 4397SOL     OW14089   2.036   3.187   4.081
 4397SOL    HW114090   2.119   3.223   4.039
 4397SOL    HW214091   2.039   3.087   4.078
 4398SOL     OW14092   2.037   3.767   6.223
 4398SOL    HW114093   2.069   3.779   6.129
 4398SOL    HW214094   1.997   3.676   6.233
 4399SOL     OW14095   1.761   5.827   1.709
 4399SOL    HW114096   1.733   5.740   1.668
 4399SOL    HW214097   1.838   5.812   1.771
 4400SOL     OW14098   1.818   6.754   3.645
 4400SOL    HW114099   1.745   6.774   3.710
 4400SOL    HW214100   1.877   6.683   3.682
 4401SOL     OW14101   4.007   6.336   5.110
 4401SOL    HW114102   3.909   6.324   5.095
 4401SOL    HW214103   4.053   6.347   5.022
 4402SOL     OW14104   1.201   0.560   2.138
 4402SOL    HW114105   1.135   0.488   2.113
 4402SOL    HW214106   1.198   0.633   2.070
 4403SOL     OW14107   0.659   5.883   0.960
 4403SOL    HW114108   0.688   5.979   0.957
 4403SOL    HW214109   0.650   5.848   0.867
 4404SOL     OW14110   1.383   5.622   5.411
 4404SOL    HW114111   1.434   5.575   5.338
 4404SOL    HW214112   1.425   5.602   5.499
 4405SOL     OW14113   2.584   5.340   3.412
 4405SOL    HW114114   2.519   5.264   3.420
 4405SOL    HW214115   2.667   5.308   3.366
 4406SOL     OW14116   6.710   3.285   1.521
 4406SOL    HW114117   6.802   3.283   1.561
 4406SOL    HW214118   6.690   3.378   1.490
 4407SOL     OW14119   0.194   5.555   1.459
 4407SOL    HW114120   0.125   5.559   1.387
 4407SOL    HW214121   0.229   5.461   1.466
 4408SOL     OW14122   3.058   6.183   0.015
 4408SOL    HW114123   3.055   6.140   6.950
 4408SOL    HW214124   3.023   6.119   0.083
 4409SOL     OW14125   4.162   0.859   1.811
 4409SOL    HW114126   4.231   0.824   1.874
 4409SOL    HW214127   4.206   0.892   1.728
 4410SOL     OW14128   6.912   6.441   0.613
 4410SOL    HW114129   6.849   6.424   0.537
 4410SOL    HW214130   6.988   6.376   0.609
 4411SOL     OW14131   3.516   4.881   5.575
 4411SOL    HW114132   3.497   4.970   5.616
 4411SOL    HW214133   3.547   4.817   5.645
 4412SOL     OW14134   5.066   6.856   4.489
 4412SOL    HW114135   5.040   6.766   4.525
 4412SOL    HW214136   4.991   6.921   4.507
 4413SOL     OW14137   4.202   6.423   4.183
 4413SOL    HW114138   4.234   6.505   4.136
 4413SOL    HW214139   4.112   6.397   4.147
 4414SOL     OW14140   4.475   5.383   1.779
 4414SOL    HW114141   4.422   5.416   1.858
 4414SOL    HW214142   4.413   5.365   1.703
 4415SOL     OW14143   3.508   3.887   1.028
 4415SOL    HW114144   3.509   3.985   1.006
 4415SOL    HW214145   3.474   3.836   0.949
 4416SOL     OW14146   3.981   1.404   4.383
 4416SOL    HW114147   4.033   1.329   4.342
 4416SOL    HW214148   4.039   1.454   4.447
 4417SOL     OW14149   6.382   2.822   4.106
 4417SOL    HW114150   6.303   2.861   4.058
 4417SOL    HW214151   6.407   2.882   4.182
 4418SOL     OW14152   6.296   2.054   2.037
 4418SOL    HW114153   6.348   1.976   2.001
 4418SOL    HW214154   6.198   2.035   2.028
 4419SOL     OW14155   6.088   6.178   5.731
 4419SOL    HW114156   6.034   6.123   5.795
 4419SOL    HW214157   6.184   6.149   5.734
 4420SOL     OW14158   3.745   1.922   1.316
 4420SOL    HW114159   3.647   1.908   1.302
 4420SOL    HW214160   3.773   1.874   1.400
 4421SOL     OW14161   1.419   3.388   5.281
 4421SOL    HW114162   1.391   3.296   5.308
 4421SOL    HW214163   1.457   3.436   5.360
 4422SOL     OW14164   0.799   5.106   0.043
 4422SOL    HW114165   0.822   5.079   0.136
 4422SOL    HW214166   0.728   5.046   0.006
 4423SOL     OW14167   6.408   4.656   5.868
 4423SOL    HW114168   6.398   4.573   5.921
 4423SOL    HW214169   6.418   4.633   5.771
 4424SOL     OW14170   5.209   5.574   4.133
 4424SOL    HW114171   5.183   5.654   4.188
 4424SOL    HW214172   5.183   5.589   4.038
 4425SOL     OW14173   1.978   5.298   0.802
 4425SOL    HW114174   2.028   5.383   0.789
 4425SOL    HW214175   1.967   5.280   0.899
 4426SOL     OW14176   1.327   0.503   4.128
 4426SOL    HW114177   1.250   0.443   4.149
 4426SOL    HW214178   1.389   0.457   4.064
 4427SOL     OW14179   3.938   6.299   2.538
 4427SOL    HW114180   3.876   6.325   2.464
 4427SOL    HW214181   3.896   6.227   2.593
 4428SOL     OW14182   5.238   0.980   4.803
 4428SOL    HW114183   5.337   0.966   4.807
 4428SOL    HW214184   5.199   0.922   4.732
 4429SOL     OW14185   2.948   6.405   3.023
 4429SOL    HW114186   2.941   6.503   3.037
 4429SOL    HW214187   2.969   6.360   3.110
 4430SOL     OW14188   5.812   4.804   4.362
 4430SOL    HW114189   5.834   4.886   4.308
 4430SOL    HW214190   5.887   4.787   4.427
 4431SOL     OW14191   3.284   0.737   3.620
 4431SOL    HW114192   3.374   0.696   3.631
 4431SOL    HW214193   3.294   0.829   3.580
 4432SOL     OW14194   2.588   3.733   6.596
 4432SOL    HW114195   2.532   3.781   6.528
 4432SOL    HW214196   2.578   3.634   6.583
 4433SOL     OW14197   0.793   1.963   4.811
 4433SOL    HW114198   0.783   1.870   4.776
 4433SOL    HW214199   0.758   1.967   4.905
 4434SOL     OW14200   6.513   1.088   1.781
 4434SOL    HW114201   6.429   1.067   1.731
 4434SOL    HW214202   6.558   1.167   1.739
 4435SOL     OW14203   3.453   4.170   0.999
 4435SOL    HW114204   3.386   4.244   0.990
 4435SOL    HW214205   3.524   4.182   0.930
 4436SOL     OW14206   4.304   1.794   1.568
 4436SOL    HW114207   4.311   1.858   1.492
 4436SOL    HW214208   4.365   1.822   1.642
 4437SOL     OW14209   0.198   3.200   2.530
 4437SOL    HW114210   0.168   3.291   2.558
 4437SOL    HW214211   0.146   3.131   2.580
 4438SOL     OW14212   4.432   6.918   5.538
 4438SOL    HW114213   4.429   6.831   5.586
 4438SOL    HW214214   4.374   6.984   5.587
 4439SOL     OW14215   1.009   6.106   3.003
 4439SOL    HW114216   1.066   6.162   2.944
 4439SOL    HW214217   1.047   6.106   3.096
 4440SOL     OW14218   2.699   4.764   1.061
 4440SOL    HW114219   2.734   4.753   0.968
 4440SOL    HW214220   2.621   4.704   1.074
 4441SOL     OW14221   0.929   1.465   0.736
 4441SOL    HW114222   0.969   1.455   0.826
 4441SOL    HW214223   0.839   1.509   0.744
 4442SOL     OW14224   1.048   4.993   5.861
 4442SOL    HW114225   1.078   4.921   5.798
 4442SOL    HW214226   1.057   4.960   5.955
 4443SOL     OW14227   0.693   4.791   6.748
 4443SOL    HW114228   0.776   4.841   6.775
 4443SOL    HW214229   0.613   4.850   6.762
 4444SOL     OW14230   4.477   4.225   0.463
 4444SOL    HW114231   4.512   4.169   0.538
 4444SOL    HW214232   4.387   4.191   0.436
 4445SOL     OW14233   0.793   5.584   6.871
 4445SOL    HW114234   0.802   5.488   6.897
 4445SOL    HW214235   0.883   5.622   6.850
 4446SOL     OW14236   5.300   1.745   0.085
 4446SOL    HW114237   5.245   1.788   0.156
 4446SOL    HW214238   5.300   1.646   0.099
 4447SOL     OW14239   5.380   4.500   5.245
 4447SOL    HW114240   5.301   4.439   5.252
 4447SOL    HW214241   5.378   4.549   5.158
 4448SOL     OW14242   2.846   6.625   1.444
 4448SOL    HW114243   2.832   6.620   1.543
 4448SOL    HW214244   2.888   6.539   1.413
 4449SOL     OW14245   4.471   1.027   6.313
 4449SOL    HW114246   4.478   1.114   6.360
 4449SOL    HW214247   4.464   1.042   6.214
 4450SOL     OW14248   3.380   1.252   0.058
 4450SOL    HW114249   3.345   1.272   0.150
 4450SOL    HW214250   3.477   1.229   0.063
 4451SOL     OW14251   4.953   4.645   3.827
 4451SOL    HW114252   4.899   4.699   3.891
 4451SOL    HW214253   5.001   4.707   3.764
 4452SOL     OW14254   5.842   5.921   4.686
 4452SOL    HW114255   5.799   5.862   4.618
 4452SOL    HW214256   5.804   5.901   4.776
 4453SOL     OW14257   0.432   2.905   2.018
 4453SOL    HW114258   0.388   2.903   1.928
 4453SOL    HW214259   0.531   2.894   2.007
 4454SOL     OW14260   0.307   1.184   6.872
 4454SOL    HW114261   0.258   1.096   6.876
 4454SOL    HW214262   0.245   1.254   6.837
 4455SOL     OW14263   6.161   5.717   5.021
 4455SOL    HW114264   6.253   5.756   5.031
 4455SOL    HW214265   6.121   5.748   4.935
 4456SOL     OW14266   2.218   6.291   3.507
 4456SOL    HW114267   2.276   6.271   3.586
 4456SOL    HW214268   2.125   6.311   3.538
 4457SOL     OW14269   1.785   2.015   4.876
 4457SOL    HW114270   1.873   2.054   4.904
 4457SOL    HW214271   1.786   1.996   4.778
 4458SOL     OW14272   2.067   3.522   1.781
 4458SOL    HW114273   2.027   3.450   1.724
 4458SOL    HW214274   2.166   3.506   1.790
 4459SOL     OW14275   2.140   1.568   5.066
 4459SOL    HW114276   2.057   1.512   5.068
 4459SOL    HW214277   2.207   1.530   5.130
 4460SOL     OW14278   0.285   3.296   4.199
 4460SOL    HW114279   0.255   3.200   4.197
 4460SOL    HW214280   0.207   3.355   4.181
 4461SOL     OW14281   2.137   0.673   1.412
 4461SOL    HW114282   2.187   0.746   1.458
 4461SOL    HW214283   2.168   0.585   1.447
 4462SOL     OW14284   6.011   3.821   1.982
 4462SOL    HW114285   5.925   3.771   1.983
 4462SOL    HW214286   6.078   3.775   2.041
 4463SOL     OW14287   5.393   1.167   0.736
 4463SOL    HW114288   5.419   1.076   0.769
 4463SOL    HW214289   5.476   1.218   0.710
 4464SOL     OW14290   0.502   5.338   0.543
 4464SOL    HW114291   0.565   5.263   0.521
 4464SOL    HW214292   0.445   5.311   0.622
 4465SOL     OW14293   2.603   5.633   0.148
 4465SOL    HW114294   2.577   5.589   0.062
 4465SOL    HW214295   2.524   5.682   0.186
 4466SOL     OW14296   2.405   1.910   3.629
 4466SOL    HW114297   2.471   1.926   3.555
 4466SOL    HW214298   2.339   1.841   3.599
 4467SOL     OW14299   2.447   5.912   4.231
 4467SOL    HW114300   2.491   5.871   4.311
 4467SOL    HW214301   2.515   5.926   4.159
 4468SOL     OW14302   0.973   3.235   0.399
 4468SOL    HW114303   0.899   3.190   0.449
 4468SOL    HW214304   0.950   3.331   0.383
 4469SOL     OW14305   2.715   0.191   1.664
 4469SOL    HW114306   2.754   0.237   1.585
 4469SOL    HW214307   2.672   0.105   1.636
 4470SOL     OW14308   0.613   0.802   2.256
 4470SOL    HW114309   0.519   0.806   2.223
 4470SOL    HW214310   0.625   0.723   2.315
 4471SOL     OW14311   2.133   2.991   6.349
 4471SOL    HW114312   2.207   3.057   6.333
 4471SOL    HW214313   2.151   2.940   6.432
 4472SOL     OW14314   1.684   2.879   1.259
 4472SOL    HW114315   1.733   2.862   1.345
 4472SOL    HW214316   1.639   2.968   1.263
 4473SOL     OW14317   6.642   3.139   4.199
 4473SOL    HW114318   6.715   3.184   4.250
 4473SOL    HW214319   6.674   3.118   4.107
 4474SOL     OW14320   2.981   0.937   2.160
 4474SOL    HW114321   2.883   0.955   2.156
 4474SOL    HW214322   2.996   0.839   2.178
 4475SOL     OW14323   0.845   3.485   2.226
 4475SOL    HW114324   0.760   3.537   2.221
 4475SOL    HW214325   0.922   3.545   2.206
 4476SOL     OW14326   5.845   1.215   3.957
 4476SOL    HW114327   5.868   1.257   4.045
 4476SOL    HW214328   5.858   1.282   3.884
 4477SOL     OW14329   1.839   0.377   5.210
 4477SOL    HW114330   1.887   0.464   5.214
 4477SOL    HW214331   1.749   0.387   5.254
 4478SOL     OW14332   0.997   0.268   1.387
 4478SOL    HW114333   1.000   0.347   1.325
 4478SOL    HW214334   1.086   0.258   1.431
 4479SOL     OW14335   1.271   1.731   0.188
 4479SOL    HW114336   1.298   1.707   0.095
 4479SOL    HW214337   1.311   1.820   0.211
 4480SOL     OW14338   0.143   4.631   4.485
 4480SOL    HW114339   0.213   4.678   4.539
 4480SOL    HW214340   0.069   4.603   4.545
 4481SOL     OW14341   2.588   5.208   5.151
 4481SOL    HW114342   2.518   5.275   5.129
 4481SOL    HW214343   2.637   5.236   5.234
 4482SOL     OW14344   2.952   4.026   6.114
 4482SOL    HW114345   2.901   3.989   6.191
 4482SOL    HW214346   2.906   4.002   6.028
 4483SOL     OW14347   0.818   2.729   1.945
 4483SOL    HW114348   0.788   2.719   1.850
 4483SOL    HW214349   0.803   2.823   1.975
 4484SOL     OW14350   2.603   3.102   0.627
 4484SOL    HW114351   2.626   3.008   0.601
 4484SOL    HW214352   2.582   3.105   0.725
 4485SOL     OW14353   4.853   2.561   4.798
 4485SOL    HW114354   4.828   2.520   4.886
 4485SOL    HW214355   4.948   2.538   4.776
 4486SOL     OW14356   5.845   4.602   5.450
 4486SOL    HW114357   5.921   4.554   5.406
 4486SOL    HW214358   5.759   4.557   5.427
 4487SOL     OW14359   2.021   3.155   6.900
 4487SOL    HW114360   2.047   3.065   6.933
 4487SOL    HW214361   2.000   3.215   6.977
 4488SOL     OW14362   0.805   3.883   3.557
 4488SOL    HW114363   0.863   3.964   3.563
 4488SOL    HW214364   0.857   3.802   3.582
 4489SOL     OW14365   4.964   5.349   4.969
 4489SOL    HW114366   5.061   5.373   4.969
 4489SOL    HW214367   4.909   5.433   4.977
 4490SOL     OW14368   5.312   1.970   0.986
 4490SOL    HW114369   5.388   2.029   1.012
 4490SOL    HW214370   5.337   1.875   1.000
 4491SOL     OW14371   0.576   3.280   3.103
 4491SOL    HW114372   0.610   3.349   3.168
 4491SOL    HW214373   0.506   3.224   3.148
 4492SOL     OW14374   5.961   0.690   1.390
 4492SOL    HW114375   6.038   0.713   1.330
 4492SOL    HW214376   5.890   0.761   1.381
 4493SOL     OW14377   5.294   6.749   4.878
 4493SOL    HW114378   5.373   6.810   4.883
 4493SOL    HW214379   5.323   6.655   4.893
 4494SOL     OW14380   0.840   0.546   5.773
 4494SOL    HW114381   0.924   0.493   5.783
 4494SOL    HW214382   0.784   0.535   5.856
 4495SOL     OW14383   3.348   5.849   2.385
 4495SOL    HW114384   3.308   5.898   2.462
 4495SOL    HW214385   3.341   5.750   2.401
 4496SOL     OW14386   4.323   6.167   6.379
 4496SOL    HW114387   4.396   6.196   6.317
 4496SOL    HW214388   4.362   6.148   6.469
 4497SOL     OW14389   3.656   2.283   0.006
 4497SOL    HW114390   3.705   2.236   0.080
 4497SOL    HW214391   3.666   2.382   0.018
 4498SOL     OW14392   6.874   5.359   6.407
 4498SOL    HW114393   6.857   5.435   6.344
 4498SOL    HW214394   6.926   5.392   6.486
 4499SOL     OW14395   6.818   1.609   2.849
 4499SOL    HW114396   6.768   1.695   2.835
 4499SOL    HW214397   6.787   1.541   2.783
 4500SOL     OW14398   4.194   5.117   0.031
 4500SOL    HW114399   4.131   5.194   0.018
 4500SOL    HW214400   4.163   5.039   7.001
 4501SOL     OW14401   6.044   1.994   1.991
 4501SOL    HW114402   6.049   2.009   1.892
 4501SOL    HW214403   5.981   1.919   2.010
 4502SOL     OW14404   1.027   3.606   6.671
 4502SOL    HW114405   1.012   3.518   6.625
 4502SOL    HW214406   0.944   3.662   6.663
 4503SOL     OW14407   2.844   0.073   2.205
 4503SOL    HW114408   2.896   7.015   2.223
 4503SOL    HW214409   2.791   0.062   2.121
 4504SOL     OW14410   6.773   2.148   3.494
 4504SOL    HW114411   6.756   2.063   3.444
 4504SOL    HW214412   6.686   2.186   3.525
 4505SOL     OW14413   6.666   4.588   2.510
 4505SOL    HW114414   6.753   4.589   2.461
 4505SOL    HW214415   6.600   4.646   2.462
 4506SOL     OW14416   4.937   2.958   4.272
 4506SOL    HW114417   4.918   2.950   4.174
 4506SOL    HW214418   5.036   2.960   4.287
 4507SOL     OW14419   6.746   3.379   2.946
 4507SOL    HW114420   6.671   3.313   2.944
 4507SOL    HW214421   6.762   3.408   3.041
 4508SOL     OW14422   0.635   4.391   0.593
 4508SOL    HW114423   0.545   4.358   0.619
 4508SOL    HW214424   0.700   4.315   0.593
 4509SOL     OW14425   4.637   2.271   2.572
 4509SOL    HW114426   4.594   2.181   2.583
 4509SOL    HW214427   4.565   2.341   2.560
 4510SOL     OW14428   4.296   1.551   3.800
 4510SOL    HW114429   4.219   1.498   3.834
 4510SOL    HW214430   4.367   1.555   3.871
 4511SOL     OW14431   6.680   3.950   0.820
 4511SOL    HW114432   6.762   3.900   0.849
 4511SOL    HW214433   6.684   4.043   0.857
 4512SOL     OW14434   3.469   2.134   5.666
 4512SOL    HW114435   3.518   2.067   5.611
 4512SOL    HW214436   3.412   2.190   5.607
 4513SOL     OW14437   0.662   5.957   6.609
 4513SOL    HW114438   0.745   5.995   6.649
 4513SOL    HW214439   0.644   5.867   6.647
 4514SOL     OW14440   3.489   3.300   6.706
 4514SOL    HW114441   3.414   3.333   6.763
 4514SOL    HW214442   3.526   3.216   6.746
 4515SOL     OW14443   5.748   0.695   4.479
 4515SOL    HW114444   5.695   0.760   4.534
 4515SOL    HW214445   5.784   0.623   4.539
 4516SOL     OW14446   2.996   1.590   5.832
 4516SOL    HW114447   2.971   1.652   5.757
 4516SOL    HW214448   2.923   1.591   5.901
 4517SOL     OW14449   4.470   0.147   6.484
 4517SOL    HW114450   4.475   0.169   6.582
 4517SOL    HW214451   4.490   0.050   6.471
 4518SOL     OW14452   1.634   6.806   0.677
 4518SOL    HW114453   1.562   6.870   0.705
 4518SOL    HW214454   1.594   6.715   0.667
 4519SOL     OW14455   5.275   6.861   0.380
 4519SOL    HW114456   5.267   6.942   0.439
 4519SOL    HW214457   5.358   6.811   0.404
 4520SOL     OW14458   4.185   5.801   5.224
 4520SOL    HW114459   4.175   5.706   5.253
 4520SOL    HW214460   4.262   5.808   5.160
 4521SOL     OW14461   4.884   2.050   4.833
 4521SOL    HW114462   4.894   2.122   4.902
 4521SOL    HW214463   4.947   1.975   4.854
 4522SOL     OW14464   5.661   3.977   3.918
 4522SOL    HW114465   5.677   3.976   4.016
 4522SOL    HW214466   5.713   3.902   3.875
 4523SOL     OW14467   0.748   3.655   6.619
 4523SOL    HW114468   0.704   3.715   6.685
 4523SOL    HW214469   0.700   3.567   6.616
 4524SOL     OW14470   0.446   3.538   3.044
 4524SOL    HW114471   0.493   3.453   3.021
 4524SOL    HW214472   0.482   3.612   2.987
 4525SOL     OW14473   1.915   2.851   5.782
 4525SOL    HW114474   1.962   2.821   5.698
 4525SOL    HW214475   1.878   2.771   5.829
 4526SOL     OW14476   0.615   0.367   6.677
 4526SOL    HW114477   0.698   0.387   6.624
 4526SOL    HW214478   0.599   0.440   6.743
 4527SOL     OW14479   6.678   6.981   2.668
 4527SOL    HW114480   6.731   7.015   2.746
 4527SOL    HW214481   6.605   0.019   2.647
 4528SOL     OW14482   4.101   0.451   5.815
 4528SOL    HW114483   4.049   0.446   5.901
 4528SOL    HW214484   4.045   0.417   5.740
 4529SOL     OW14485   2.725   1.036   6.065
 4529SOL    HW114486   2.735   1.023   5.966
 4529SOL    HW214487   2.721   1.134   6.085
 4530SOL     OW14488   2.407   6.407   4.982
 4530SOL    HW114489   2.433   6.320   4.940
 4530SOL    HW214490   2.402   6.478   4.912
 4531SOL     OW14491   1.095   4.581   6.731
 4531SOL    HW114492   1.135   4.589   6.822
 4531SOL    HW214493   0.998   4.606   6.736
 4532SOL     OW14494   4.886   0.913   2.856
 4532SOL    HW114495   4.863   0.819   2.832
 4532SOL    HW214496   4.976   0.936   2.820
 4533SOL     OW14497   1.638   0.802   2.951
 4533SOL    HW114498   1.641   0.827   3.048
 4533SOL    HW214499   1.718   0.838   2.904
 4534SOL     OW14500   4.545   1.720   4.328
 4534SOL    HW114501   4.629   1.681   4.290
 4534SOL    HW214502   4.526   1.808   4.285
 4535SOL     OW14503   3.639   1.875   0.605
 4535SOL    HW114504   3.696   1.922   0.672
 4535SOL    HW214505   3.609   1.788   0.642
 4536SOL     OW14506   2.183   2.101   5.701
 4536SOL    HW114507   2.265   2.132   5.653
 4536SOL    HW214508   2.114   2.073   5.635
 4537SOL     OW14509   3.609   3.798   3.335
 4537SOL    HW114510   3.691   3.824   3.386
 4537SOL    HW214511   3.616   3.833   3.241
 4538SOL     OW14512   0.740   2.646   2.196
 4538SOL    HW114513   0.755   2.719   2.262
 4538SOL    HW214514   0.778   2.673   2.107
 4539SOL     OW14515   2.349   5.147   4.835
 4539SOL    HW114516   2.344   5.047   4.827
 4539SOL    HW214517   2.307   5.175   4.921
 4540SOL     OW14518   0.461   0.791   0.475
 4540SOL    HW114519   0.449   0.890   0.485
 4540SOL    HW214520   0.558   0.770   0.464
 4541SOL     OW14521   4.194   1.444   6.905
 4541SOL    HW114522   4.273   1.451   6.844
 4541SOL    HW214523   4.125   1.384   6.866
 4542SOL     OW14524   6.890   2.460   0.863
 4542SOL    HW114525   6.829   2.532   0.828
 4542SOL    HW214526   6.971   2.503   0.903
 4543SOL     OW14527   4.459   2.104   0.849
 4543SOL    HW114528   4.530   2.174   0.859
 4543SOL    HW214529   4.496   2.015   0.874
 4544SOL     OW14530   4.912   4.483   0.547
 4544SOL    HW114531   4.899   4.561   0.608
 4544SOL    HW214532   4.903   4.398   0.598
 4545SOL     OW14533   0.944   4.486   4.909
 4545SOL    HW114534   1.001   4.445   4.838
 4545SOL    HW214535   0.902   4.414   4.965
 4546SOL     OW14536   2.754   1.334   5.973
 4546SOL    HW114537   2.711   1.408   6.026
 4546SOL    HW214538   2.771   1.365   5.880
 4547SOL     OW14539   6.413   0.817   6.998
 4547SOL    HW114540   6.497   0.861   0.003
 4547SOL    HW214541   6.431   0.719   6.982
 4548SOL     OW14542   2.447   2.563   3.062
 4548SOL    HW114543   2.382   2.611   3.121
 4548SOL    HW214544   2.446   2.603   2.971
 4549SOL     OW14545   5.203   4.292   2.563
 4549SOL    HW114546   5.301   4.292   2.584
 4549SOL    HW214547   5.169   4.386   2.563
 4550SOL     OW14548   0.686   4.664   3.389
 4550SOL    HW114549   0.715   4.620   3.474
 4550SOL    HW214550   0.737   4.626   3.312
 4551SOL     OW14551   1.369   3.641   4.855
 4551SOL    HW114552   1.450   3.590   4.884
 4551SOL    HW214553   1.397   3.715   4.793
 4552SOL     OW14554   6.318   1.443   1.442
 4552SOL    HW114555   6.310   1.504   1.521
 4552SOL    HW214556   6.313   1.348   1.472
 4553SOL     OW14557   5.220   4.757   6.385
 4553SOL    HW114558   5.262   4.771   6.474
 4553SOL    HW214559   5.290   4.763   6.314
 4554SOL     OW14560   0.164   6.379   1.301
 4554SOL    HW114561   0.211   6.310   1.356
 4554SOL    HW214562   0.171   6.468   1.346
 4555SOL     OW14563   1.390   1.412   6.817
 4555SOL    HW114564   1.298   1.449   6.824
 4555SOL    HW214565   1.386   1.312   6.817
 4556SOL     OW14566   6.446   3.075   5.853
 4556SOL    HW114567   6.358   3.049   5.812
 4556SOL    HW214568   6.515   3.082   5.782
 4557SOL     OW14569   6.138   5.002   4.531
 4557SOL    HW114570   6.103   4.950   4.610
 4557SOL    HW214571   6.072   5.074   4.508
 4558SOL     OW14572   6.434   2.966   4.939
 4558SOL    HW114573   6.351   2.926   4.900
 4558SOL    HW214574   6.502   2.894   4.954
 4559SOL     OW14575   0.580   2.669   3.182
 4559SOL    HW114576   0.554   2.753   3.230
 4559SOL    HW214577   0.548   2.673   3.087
 4560SOL     OW14578   6.818   4.296   1.925
 4560SOL    HW114579   6.735   4.246   1.949
 4560SOL    HW214580   6.883   4.235   1.880
 4561SOL     OW14581   3.330   2.114   4.346
 4561SOL    HW114582   3.336   2.118   4.446
 4561SOL    HW214583   3.418   2.086   4.308
 4562SOL     OW14584   2.212   6.399   0.479
 4562SOL    HW114585   2.278   6.474   0.484
 4562SOL    HW214586   2.144   6.419   0.409
 4563SOL     OW14587   7.025   2.975   1.934
 4563SOL    HW114588   0.097   2.971   1.914
 4563SOL    HW214589   7.010   3.031   2.015
 4564SOL     OW14590   0.158   4.266   2.057
 4564SOL    HW114591   0.105   4.349   2.073
 4564SOL    HW214592   0.256   4.287   2.064
 4565SOL     OW14593   1.992   0.052   4.739
 4565SOL    HW114594   2.058   0.030   4.811
 4565SOL    HW214595   1.971   0.150   4.743
 4566SOL     OW14596   0.229   4.033   0.915
 4566SOL    HW114597   0.217   4.115   0.859
 4566SOL    HW214598   0.199   3.953   0.863
 4567SOL     OW14599   6.753   0.151   6.247
 4567SOL    HW114600   6.784   0.241   6.280
 4567SOL    HW214601   6.753   0.086   6.324
 4568SOL     OW14602   0.922   4.137   3.937
 4568SOL    HW114603   0.920   4.037   3.930
 4568SOL    HW214604   1.015   4.168   3.953
 4569SOL     OW14605   3.272   0.877   3.090
 4569SOL    HW114606   3.287   0.879   3.189
 4569SOL    HW214607   3.177   0.900   3.071
 4570SOL     OW14608   6.174   5.540   1.542
 4570SOL    HW114609   6.077   5.520   1.528
 4570SOL    HW214610   6.229   5.461   1.513
 4571SOL     OW14611   4.582   2.850   6.461
 4571SOL    HW114612   4.645   2.926   6.477
 4571SOL    HW214613   4.597   2.778   6.529
 4572SOL     OW14614   2.518   2.443   6.557
 4572SOL    HW114615   2.617   2.457   6.562
 4572SOL    HW214616   2.488   2.451   6.462
 4573SOL     OW14617   0.772   6.321   0.723
 4573SOL    HW114618   0.828   6.276   0.653
 4573SOL    HW214619   0.813   6.409   0.747
 4574SOL     OW14620   5.838   3.737   0.042
 4574SOL    HW114621   5.883   3.659   0.086
 4574SOL    HW214622   5.791   3.707   6.985
 4575SOL     OW14623   6.122   1.086   4.375
 4575SOL    HW114624   6.174   1.070   4.459
 4575SOL    HW214625   6.043   1.024   4.373
 4576SOL     OW14626   3.042   4.856   5.022
 4576SOL    HW114627   2.966   4.795   4.999
 4576SOL    HW214628   3.066   4.845   5.118
 4577SOL     OW14629   1.351   2.004   3.017
 4577SOL    HW114630   1.441   2.012   3.059
 4577SOL    HW214631   1.282   1.986   3.088
 4578SOL     OW14632   1.159   0.862   2.613
 4578SOL    HW114633   1.104   0.780   2.624
 4578SOL    HW214634   1.150   0.896   2.519
 4579SOL     OW14635   4.627   0.507   2.131
 4579SOL    HW114636   4.564   0.436   2.100
 4579SOL    HW214637   4.583   0.562   2.202
 4580SOL     OW14638   5.613   3.656   0.282
 4580SOL    HW114639   5.553   3.685   0.357
 4580SOL    HW214640   5.703   3.698   0.292
 4581SOL     OW14641   2.885   6.685   2.269
 4581SOL    HW114642   2.946   6.761   2.245
 4581SOL    HW214643   2.917   6.642   2.354
 4582SOL     OW14644   5.174   0.695   2.741
 4582SOL    HW114645   5.217   0.695   2.651
 4582SOL    HW214646   5.171   0.601   2.776
 4583SOL     OW14647   1.903   0.732   6.445
 4583SOL    HW114648   1.906   0.667   6.369
 4583SOL    HW214649   1.808   0.745   6.474
 4584SOL     OW14650   1.614   0.057   6.156
 4584SOL    HW114651   1.667   0.024   6.234
 4584SOL    HW214652   1.523   0.015   6.158
 4585SOL     OW14653   1.897   3.516   3.178
 4585SOL    HW114654   1.991   3.492   3.202
 4585SOL    HW214655   1.889   3.615   3.166
 4586SOL     OW14656   4.980   4.286   0.319
 4586SOL    HW114657   5.019   4.366   0.366
 4586SOL    HW214658   4.897   4.257   0.366
 4587SOL     OW14659   3.088   3.599   5.044
 4587SOL    HW114660   3.083   3.540   5.125
 4587SOL    HW214661   3.006   3.656   5.039
 4588SOL     OW14662   3.157   3.405   6.125
 4588SOL    HW114663   3.182   3.388   6.030
 4588SOL    HW214664   3.095   3.483   6.130
 4589SOL     OW14665   5.369   5.782   1.990
 4589SOL    HW114666   5.288   5.840   1.999
 4589SOL    HW214667   5.343   5.686   1.992
 4590SOL     OW14668   3.480   5.720   1.746
 4590SOL    HW114669   3.452   5.634   1.703
 4590SOL    HW214670   3.402   5.758   1.796
 4591SOL     OW14671   2.561   0.390   5.894
 4591SOL    HW114672   2.543   0.360   5.800
 4591SOL    HW214673   2.574   0.309   5.952
 4592SOL     OW14674   2.680   1.618   4.151
 4592SOL    HW114675   2.653   1.712   4.168
 4592SOL    HW214676   2.762   1.616   4.093
 4593SOL     OW14677   6.927   5.723   2.921
 4593SOL    HW114678   7.021   5.689   2.913
 4593SOL    HW214679   6.907   5.747   3.016
 4594SOL     OW14680   2.716   6.877   2.995
 4594SOL    HW114681   2.717   6.972   3.025
 4594SOL    HW214682   2.776   6.866   2.916
 4595SOL     OW14683   4.719   1.897   6.024
 4595SOL    HW114684   4.620   1.903   6.011
 4595SOL    HW214685   4.752   1.811   5.985
 4596SOL     OW14686   0.743   0.535   1.803
 4596SOL    HW114687   0.742   0.564   1.898
 4596SOL    HW214688   0.650   0.531   1.768
 4597SOL     OW14689   2.564   5.318   0.143
 4597SOL    HW114690   2.519   5.389   0.196
 4597SOL    HW214691   2.496   5.257   0.104
 4598SOL     OW14692   2.311   5.385   0.235
 4598SOL    HW114693   2.277   5.314   0.174
 4598SOL    HW214694   2.320   5.348   0.328
 4599SOL     OW14695   2.135   3.306   2.794
 4599SOL    HW114696   2.159   3.216   2.757
 4599SOL    HW214697   2.061   3.346   2.740
 4600SOL     OW14698   0.227   6.671   5.946
 4600SOL    HW114699   0.193   6.577   5.951
 4600SOL    HW214700   0.295   6.686   6.018
 4601SOL     OW14701   0.728   0.873   4.308
 4601SOL    HW114702   0.813   0.838   4.270
 4601SOL    HW214703   0.655   0.807   4.292
 4602SOL     OW14704   2.431   0.352   6.481
 4602SOL    HW114705   2.364   0.404   6.428
 4602SOL    HW214706   2.486   0.415   6.536
 4603SOL     OW14707   4.252   5.788   1.131
 4603SOL    HW114708   4.332   5.753   1.082
 4603SOL    HW214709   4.255   5.888   1.131
 4604SOL     OW14710   4.776   6.897   6.141
 4604SOL    HW114711   4.720   6.940   6.070
 4604SOL    HW214712   4.766   6.948   6.227
 4605SOL     OW14713   2.363   6.828   1.890
 4605SOL    HW114714   2.389   6.732   1.877
 4605SOL    HW214715   2.288   6.835   1.955
 4606SOL     OW14716   0.479   6.588   2.851
 4606SOL    HW114717   0.522   6.611   2.938
 4606SOL    HW214718   0.549   6.552   2.788
 4607SOL     OW14719   1.858   3.800   2.931
 4607SOL    HW114720   1.787   3.866   2.906
 4607SOL    HW214721   1.817   3.710   2.946
 4608SOL     OW14722   0.429   3.189   4.929
 4608SOL    HW114723   0.528   3.182   4.935
 4608SOL    HW214724   0.402   3.286   4.923
 4609SOL     OW14725   4.142   6.058   6.176
 4609SOL    HW114726   4.202   6.090   6.250
 4609SOL    HW214727   4.069   6.125   6.161
 4610SOL     OW14728   5.304   2.386   6.744
 4610SOL    HW114729   5.375   2.392   6.673
 4610SOL    HW214730   5.339   2.334   6.821
 4611SOL     OW14731   0.268   1.137   6.098
 4611SOL    HW114732   0.358   1.169   6.070
 4611SOL    HW214733   0.238   1.064   6.036
 4612SOL     OW14734   2.207   6.185   2.413
 4612SOL    HW114735   2.152   6.142   2.341
 4612SOL    HW214736   2.198   6.132   2.498
 4613SOL     OW14737   2.038   4.468   2.391
 4613SOL    HW114738   1.998   4.444   2.302
 4613SOL    HW214739   2.017   4.564   2.412
 4614SOL     OW14740   6.131   3.246   4.010
 4614SOL    HW114741   6.190   3.323   3.986
 4614SOL    HW214742   6.051   3.245   3.950
 4615SOL     OW14743   0.758   1.060   1.137
 4615SOL    HW114744   0.822   1.121   1.090
 4615SOL    HW214745   0.707   1.007   1.069
 4616SOL     OW14746   6.384   2.562   5.297
 4616SOL    HW114747   6.359   2.577   5.392
 4616SOL    HW214748   6.453   2.490   5.291
 4617SOL     OW14749   0.509   2.518   2.099
 4617SOL    HW114750   0.586   2.564   2.143
 4617SOL    HW214751   0.531   2.501   2.003
 4618SOL     OW14752   2.778   3.722   5.445
 4618SOL    HW114753   2.767   3.779   5.363
 4618SOL    HW214754   2.862   3.748   5.492
 4619SOL     OW14755   3.588   6.095   3.757
 4619SOL    HW114756   3.556   6.039   3.682
 4619SOL    HW214757   3.543   6.067   3.842
 4620SOL     OW14758   0.703   5.669   1.409
 4620SOL    HW114759   0.752   5.688   1.324
 4620SOL    HW214760   0.608   5.645   1.389
 4621SOL     OW14761   4.778   0.263   2.400
 4621SOL    HW114762   4.792   0.316   2.484
 4621SOL    HW214763   4.697   0.206   2.409
 4622SOL     OW14764   4.427   5.476   0.670
 4622SOL    HW114765   4.415   5.393   0.724
 4622SOL    HW214766   4.494   5.460   0.598
 4623SOL     OW14767   3.749   5.166   1.037
 4623SOL    HW114768   3.773   5.125   0.949
 4623SOL    HW214769   3.695   5.100   1.090
 4624SOL     OW14770   3.550   1.518   3.297
 4624SOL    HW114771   3.479   1.512   3.367
 4624SOL    HW214772   3.637   1.486   3.334
 4625SOL     OW14773   1.690   5.586   1.921
 4625SOL    HW114774   1.610   5.618   1.971
 4625SOL    HW214775   1.667   5.575   1.825
 4626SOL     OW14776   4.105   3.855   1.901
 4626SOL    HW114777   4.156   3.887   1.821
 4626SOL    HW214778   4.154   3.881   1.985
 4627SOL     OW14779   0.356   5.852   4.861
 4627SOL    HW114780   0.270   5.823   4.819
 4627SOL    HW214781   0.415   5.893   4.791
 4628SOL     OW14782   4.728   4.830   3.554
 4628SOL    HW114783   4.756   4.791   3.642
 4628SOL    HW214784   4.704   4.756   3.492
 4629SOL     OW14785   2.221   5.659   6.511
 4629SOL    HW114786   2.160   5.581   6.499
 4629SOL    HW214787   2.282   5.667   6.432
 4630SOL     OW14788   0.896   5.564   2.259
 4630SOL    HW114789   0.817   5.536   2.312
 4630SOL    HW214790   0.959   5.615   2.317
 4631SOL     OW14791   0.647   0.610   3.967
 4631SOL    HW114792   0.657   0.643   4.060
 4631SOL    HW214793   0.612   0.516   3.968
 4632SOL     OW14794   2.996   5.495   2.714
 4632SOL    HW114795   2.931   5.476   2.641
 4632SOL    HW214796   3.023   5.410   2.759
 4633SOL     OW14797   5.251   1.503   3.965
 4633SOL    HW114798   5.197   1.528   3.884
 4633SOL    HW214799   5.235   1.407   3.988
 4634SOL     OW14800   2.875   3.779   5.021
 4634SOL    HW114801   2.937   3.856   5.008
 4634SOL    HW214802   2.806   3.804   5.090
 4635SOL     OW14803   4.432   5.316   0.882
 4635SOL    HW114804   4.484   5.369   0.949
 4635SOL    HW214805   4.349   5.280   0.925
 4636SOL     OW14806   1.486   5.467   1.028
 4636SOL    HW114807   1.517   5.481   0.935
 4636SOL    HW214808   1.441   5.378   1.035
 4637SOL     OW14809   1.700   6.924   1.112
 4637SOL    HW114810   1.732   6.880   1.196
 4637SOL    HW214811   1.777   6.937   1.050
 4638SOL     OW14812   3.901   5.515   0.329
 4638SOL    HW114813   3.959   5.575   0.275
 4638SOL    HW214814   3.919   5.529   0.426
 4639SOL     OW14815   2.442   2.472   0.193
 4639SOL    HW114816   2.488   2.400   0.141
 4639SOL    HW214817   2.380   2.523   0.133
 4640SOL     OW14818   5.980   2.870   5.289
 4640SOL    HW114819   5.900   2.866   5.229
 4640SOL    HW214820   6.060   2.837   5.240
 4641SOL     OW14821   1.336   6.508   3.782
 4641SOL    HW114822   1.434   6.492   3.770
 4641SOL    HW214823   1.315   6.514   3.879
 4642SOL     OW14824   1.921   1.894   4.126
 4642SOL    HW114825   1.855   1.906   4.052
 4642SOL    HW214826   1.962   1.803   4.119
 4643SOL     OW14827   6.693   2.268   0.274
 4643SOL    HW114828   6.733   2.360   0.269
 4643SOL    HW214829   6.751   2.204   0.223
 4644SOL     OW14830   0.737   1.102   6.365
 4644SOL    HW114831   0.813   1.167   6.373
 4644SOL    HW214832   0.770   1.017   6.325
 4645SOL     OW14833   1.737   0.921   4.074
 4645SOL    HW114834   1.736   0.850   4.004
 4645SOL    HW214835   1.666   0.902   4.142
 4646SOL     OW14836   2.290   5.204   4.326
 4646SOL    HW114837   2.326   5.190   4.418
 4646SOL    HW214838   2.299   5.299   4.299
 4647SOL     OW14839   1.711   6.282   2.903
 4647SOL    HW114840   1.706   6.356   2.971
 4647SOL    HW214841   1.643   6.299   2.832
 4648SOL     OW14842   3.155   0.742   3.975
 4648SOL    HW114843   3.193   0.653   3.949
 4648SOL    HW214844   3.223   0.793   4.028
 4649SOL     OW14845   6.032   1.243   0.776
 4649SOL    HW114846   6.129   1.237   0.753
 4649SOL    HW214847   6.018   1.217   0.872
 4650SOL     OW14848   4.929   6.019   1.678
 4650SOL    HW114849   4.832   6.019   1.657
 4650SOL    HW214850   4.980   5.982   1.600
 4651SOL     OW14851   6.335   3.771   5.945
 4651SOL    HW114852   6.410   3.708   5.925
 4651SOL    HW214853   6.314   3.768   6.043
 4652SOL     OW14854   0.118   5.515   4.428
 4652SOL    HW114855   0.119   5.422   4.464
 4652SOL    HW214856   0.138   5.513   4.330
 4653SOL     OW14857   4.836   6.123   0.386
 4653SOL    HW114858   4.801   6.044   0.436
 4653SOL    HW214859   4.936   6.123   0.389
 4654SOL     OW14860   6.742   6.909   4.920
 4654SOL    HW114861   6.833   6.889   4.882
 4654SOL    HW214862   6.752   6.938   5.015
 4655SOL     OW14863   5.320   2.997   1.842
 4655SOL    HW114864   5.242   2.972   1.899
 4655SOL    HW214865   5.292   3.064   1.774
 4656SOL     OW14866   0.557   0.411   1.446
 4656SOL    HW114867   0.568   0.463   1.361
 4656SOL    HW214868   0.647   0.383   1.480
 4657SOL     OW14869   5.297   6.909   1.831
 4657SOL    HW114870   5.297   6.908   1.931
 4657SOL    HW214871   5.287   6.815   1.796
 4658SOL     OW14872   2.498   2.770   5.554
 4658SOL    HW114873   2.446   2.855   5.567
 4658SOL    HW214874   2.509   2.724   5.642
 4659SOL     OW14875   3.563   4.285   1.240
 4659SOL    HW114876   3.474   4.319   1.269
 4659SOL    HW214877   3.555   4.243   1.149
 4660SOL     OW14878   1.466   6.820   3.744
 4660SOL    HW114879   1.368   6.824   3.763
 4660SOL    HW214880   1.503   6.912   3.742
 4661SOL     OW14881   2.448   3.942   5.585
 4661SOL    HW114882   2.540   3.978   5.598
 4661SOL    HW214883   2.438   3.857   5.636
 4662SOL     OW14884   3.135   0.193   5.185
 4662SOL    HW114885   3.079   0.244   5.120
 4662SOL    HW214886   3.083   0.177   5.269
 4663SOL     OW14887   1.004   6.882   0.147
 4663SOL    HW114888   1.061   6.960   0.171
 4663SOL    HW214889   0.931   6.871   0.214
 4664SOL     OW14890   6.238   6.733   0.728
 4664SOL    HW114891   6.256   6.787   0.811
 4664SOL    HW214892   6.155   6.680   0.740
 4665SOL     OW14893   1.999   1.083   5.616
 4665SOL    HW114894   1.981   1.023   5.694
 4665SOL    HW214895   2.067   1.151   5.643
 4666SOL     OW14896   2.018   2.776   6.810
 4666SOL    HW114897   1.993   2.682   6.835
 4666SOL    HW214898   2.001   2.790   6.713
 4667SOL     OW14899   6.495   3.814   1.633
 4667SOL    HW114900   6.581   3.837   1.679
 4667SOL    HW214901   6.418   3.851   1.685
 4668SOL     OW14902   4.208   2.186   5.098
 4668SOL    HW114903   4.135   2.139   5.047
 4668SOL    HW214904   4.238   2.266   5.046
 4669SOL     OW14905   5.004   0.334   0.285
 4669SOL    HW114906   4.964   0.397   0.352
 4669SOL    HW214907   5.083   0.378   0.241
 4670SOL     OW14908   1.629   3.530   0.188
 4670SOL    HW114909   1.556   3.584   0.147
 4670SOL    HW214910   1.600   3.435   0.197
 4671SOL     OW14911   0.727   3.273   7.010
 4671SOL    HW114912   0.808   3.280   6.951
 4671SOL    HW214913   0.734   3.341   0.057
 4672SOL     OW14914   3.723   4.615   5.384
 4672SOL    HW114915   3.764   4.550   5.448
 4672SOL    HW214916   3.674   4.686   5.434
 4673SOL     OW14917   5.231   0.350   6.931
 4673SOL    HW114918   5.144   0.392   6.903
 4673SOL    HW214919   5.213   0.286   7.006
 4674SOL     OW14920   6.692   1.247   0.525
 4674SOL    HW114921   6.726   1.160   0.489
 4674SOL    HW214922   6.753   1.281   0.596
 4675SOL     OW14923   3.339   6.435   6.346
 4675SOL    HW114924   3.312   6.364   6.281
 4675SOL    HW214925   3.366   6.393   6.432
 4676SOL     OW14926   0.909   6.366   5.055
 4676SOL    HW114927   0.825   6.400   5.098
 4676SOL    HW214928   0.982   6.433   5.065
 4677SOL     OW14929   3.094   0.183   6.747
 4677SOL    HW114930   3.029   0.255   6.774
 4677SOL    HW214931   3.184   0.205   6.783
 4678SOL     OW14932   1.904   5.481   1.578
 4678SOL    HW114933   1.899   5.401   1.638
 4678SOL    HW214934   1.955   5.458   1.495
 4679SOL     OW14935   2.722   1.298   6.313
 4679SOL    HW114936   2.798   1.360   6.297
 4679SOL    HW214937   2.690   1.306   6.407
 4680SOL     OW14938   1.982   5.302   1.373
 4680SOL    HW114939   2.058   5.309   1.309
 4680SOL    HW214940   1.934   5.215   1.360
 4681SOL     OW14941   0.198   5.606   5.265
 4681SOL    HW114942   0.203   5.650   5.176
 4681SOL    HW214943   0.234   5.667   5.335
 4682SOL     OW14944   4.024   6.163   0.134
 4682SOL    HW114945   4.036   6.083   0.193
 4682SOL    HW214946   3.942   6.213   0.161
 4683SOL     OW14947   6.187   3.731   2.176
 4683SOL    HW114948   6.242   3.796   2.229
 4683SOL    HW214949   6.095   3.726   2.216
 4684SOL     OW14950   1.486   2.499   4.165
 4684SOL    HW114951   1.446   2.416   4.204
 4684SOL    HW214952   1.575   2.516   4.206
 4685SOL     OW14953   6.358   5.457   4.467
 4685SOL    HW114954   6.330   5.401   4.545
 4685SOL    HW214955   6.364   5.400   4.385
 4686SOL     OW14956   5.110   6.134   0.088
 4686SOL    HW114957   5.053   6.062   0.129
 4686SOL    HW214958   5.051   6.202   0.045
 4687SOL     OW14959   6.720   3.929   4.531
 4687SOL    HW114960   6.714   3.972   4.440
 4687SOL    HW214961   6.745   3.998   4.598
 4688SOL     OW14962   0.674   3.511   6.335
 4688SOL    HW114963   0.737   3.463   6.275
 4688SOL    HW214964   0.649   3.452   6.412
 4689SOL     OW14965   6.817   0.186   5.767
 4689SOL    HW114966   6.888   0.133   5.722
 4689SOL    HW214967   6.855   0.231   5.848
 4690SOL     OW14968   1.478   1.074   0.110
 4690SOL    HW114969   1.510   1.169   0.104
 4690SOL    HW214970   1.500   1.026   0.025
 4691SOL     OW14971   2.580   4.165   1.201
 4691SOL    HW114972   2.629   4.247   1.231
 4691SOL    HW214973   2.587   4.093   1.270
 4692SOL     OW14974   0.253   5.118   3.103
 4692SOL    HW114975   0.187   5.044   3.118
 4692SOL    HW214976   0.342   5.090   3.141
 4693SOL     OW14977   0.404   1.281   4.461
 4693SOL    HW114978   0.500   1.305   4.449
 4693SOL    HW214979   0.379   1.289   4.558
 4694SOL     OW14980   2.884   0.826   0.438
 4694SOL    HW114981   2.966   0.877   0.414
 4694SOL    HW214982   2.884   0.738   0.391
 4695SOL     OW14983   4.057   2.997   1.784
 4695SOL    HW114984   4.009   2.981   1.699
 4695SOL    HW214985   4.149   2.956   1.780
 4696SOL     OW14986   0.903   3.697   6.359
 4696SOL    HW114987   0.924   3.613   6.309
 4696SOL    HW214988   0.871   3.674   6.450
 4697SOL     OW14989   1.800   3.434   0.621
 4697SOL    HW114990   1.764   3.356   0.570
 4697SOL    HW214991   1.810   3.513   0.561
 4698SOL     OW14992   5.382   4.958   1.631
 4698SOL    HW114993   5.380   5.023   1.556
 4698SOL    HW214994   5.301   4.970   1.689
 4699SOL     OW14995   0.016   6.718   2.140
 4699SOL    HW114996   0.014   6.787   2.213
 4699SOL    HW214997   6.965   6.655   2.152
 4700SOL     OW14998   5.440   1.820   1.367
 4700SOL    HW114999   5.448   1.820   1.467
 4700SOL    HW215000   5.387   1.899   1.337
 4701SOL     OW15001   0.757   1.079   6.736
 4701SOL    HW115002   0.785   1.010   6.804
 4701SOL    HW215003   0.833   1.142   6.720
 4702SOL     OW15004   4.451   3.683   6.775
 4702SOL    HW115005   4.472   3.621   6.851
 4702SOL    HW215006   4.436   3.775   6.811
 4703SOL     OW15007   1.384   1.498   3.583
 4703SOL    HW115008   1.456   1.477   3.650
 4703SOL    HW215009   1.393   1.594   3.554
 4704SOL     OW15010   6.618   6.156   0.971
 4704SOL    HW115011   6.591   6.249   0.996
 4704SOL    HW215012   6.537   6.098   0.965
 4705SOL     OW15013   3.700   3.009   4.379
 4705SOL    HW115014   3.668   3.092   4.425
 4705SOL    HW215015   3.622   2.959   4.342
 4706SOL     OW15016   3.840   5.798   6.606
 4706SOL    HW115017   3.882   5.878   6.563
 4706SOL    HW215018   3.844   5.806   6.705
 4707SOL     OW15019   1.784   5.657   0.933
 4707SOL    HW115020   1.871   5.654   0.884
 4707SOL    HW215021   1.794   5.611   1.022
 4708SOL     OW15022   3.323   2.444   0.477
 4708SOL    HW115023   3.350   2.539   0.463
 4708SOL    HW215024   3.308   2.427   0.574
 4709SOL     OW15025   3.785   4.980   5.117
 4709SOL    HW115026   3.838   4.984   5.032
 4709SOL    HW215027   3.809   4.897   5.167
 4710SOL     OW15028   4.937   1.946   6.729
 4710SOL    HW115029   4.875   1.907   6.661
 4710SOL    HW215030   4.922   1.902   6.817
 4711SOL     OW15031   3.308   6.913   2.365
 4711SOL    HW115032   3.400   6.916   2.404
 4711SOL    HW215033   3.277   7.007   2.347
 4712SOL     OW15034   1.966   4.818   1.313
 4712SOL    HW115035   1.926   4.779   1.230
 4712SOL    HW215036   1.921   4.779   1.393
 4713SOL     OW15037   2.681   5.151   1.481
 4713SOL    HW115038   2.675   5.199   1.393
 4713SOL    HW215039   2.617   5.193   1.545
 4714SOL     OW15040   2.431   1.407   1.340
 4714SOL    HW115041   2.357   1.374   1.398
 4714SOL    HW215042   2.514   1.353   1.358
 4715SOL     OW15043   6.852   2.937   2.810
 4715SOL    HW115044   6.912   2.877   2.757
 4715SOL    HW215045   6.821   2.889   2.892
 4716SOL     OW15046   3.769   5.033   6.430
 4716SOL    HW115047   3.739   5.124   6.404
 4716SOL    HW215048   3.754   4.970   6.354
 4717SOL     OW15049   0.793   5.866   2.245
 4717SOL    HW115050   0.778   5.769   2.224
 4717SOL    HW215051   0.827   5.913   2.163
 4718SOL     OW15052   5.403   1.985   6.555
 4718SOL    HW115053   5.318   1.992   6.606
 4718SOL    HW215054   5.477   1.959   6.617
 4719SOL     OW15055   5.499   3.623   3.055
 4719SOL    HW115056   5.410   3.583   3.031
 4719SOL    HW215057   5.569   3.589   2.992
 4720SOL     OW15058   2.317   6.831   5.562
 4720SOL    HW115059   2.237   6.817   5.503
 4720SOL    HW215060   2.287   6.839   5.657
 4721SOL     OW15061   0.983   1.995   0.776
 4721SOL    HW115062   0.958   2.076   0.723
 4721SOL    HW215063   0.927   1.991   0.859
 4722SOL     OW15064   1.763   6.581   0.476
 4722SOL    HW115065   1.716   6.499   0.509
 4722SOL    HW215066   1.732   6.660   0.529
 4723SOL     OW15067   2.347   6.503   6.197
 4723SOL    HW115068   2.315   6.457   6.281
 4723SOL    HW215069   2.287   6.479   6.121
 4724SOL     OW15070   4.006   6.627   2.388
 4724SOL    HW115071   4.060   6.546   2.369
 4724SOL    HW215072   4.052   6.683   2.457
 4725SOL     OW15073   5.193   6.533   3.171
 4725SOL    HW115074   5.258   6.603   3.141
 4725SOL    HW215075   5.143   6.567   3.250
 4726SOL     OW15076   1.042   4.062   6.749
 4726SOL    HW115077   0.972   4.059   6.678
 4726SOL    HW215078   1.100   4.143   6.735
 4727SOL     OW15079   6.706   5.776   0.385
 4727SOL    HW115080   6.624   5.827   0.410
 4727SOL    HW215081   6.696   5.681   0.412
 4728SOL     OW15082   6.091   1.446   0.455
 4728SOL    HW115083   6.028   1.369   0.457
 4728SOL    HW215084   6.041   1.529   0.432
 4729SOL     OW15085   2.118   0.471   2.651
 4729SOL    HW115086   2.131   0.510   2.560
 4729SOL    HW215087   2.150   0.377   2.652
 4730SOL     OW15088   2.439   5.936   5.441
 4730SOL    HW115089   2.455   5.837   5.445
 4730SOL    HW215090   2.526   5.984   5.446
 4731SOL     OW15091   5.700   0.926   5.284
 4731SOL    HW115092   5.800   0.927   5.281
 4731SOL    HW215093   5.664   0.905   5.193
 4732SOL     OW15094   6.822   3.849   6.743
 4732SOL    HW115095   6.837   3.852   6.841
 4732SOL    HW215096   6.775   3.764   6.719
 4733SOL     OW15097   0.152   3.372   2.864
 4733SOL    HW115098   0.131   3.403   2.771
 4733SOL    HW215099   0.080   3.308   2.893
 4734SOL     OW15100   5.149   3.224   6.922
 4734SOL    HW115101   5.063   3.275   6.932
 4734SOL    HW215102   5.128   3.126   6.913
 4735SOL     OW15103   1.011   4.067   4.243
 4735SOL    HW115104   0.990   4.165   4.235
 4735SOL    HW215105   0.944   4.015   4.190
 4736SOL     OW15106   0.144   1.091   6.609
 4736SOL    HW115107   0.215   1.110   6.541
 4736SOL    HW215108   0.091   1.174   6.626
 4737SOL     OW15109   2.609   4.711   1.855
 4737SOL    HW115110   2.690   4.692   1.910
 4737SOL    HW215111   2.535   4.649   1.882
 4738SOL     OW15112   6.532   6.335   1.551
 4738SOL    HW115113   6.538   6.411   1.615
 4738SOL    HW215114   6.609   6.338   1.488
 4739SOL     OW15115   4.077   0.593   2.045
 4739SOL    HW115116   4.026   0.627   1.965
 4739SOL    HW215117   4.036   0.630   2.128
 4740SOL     OW15118   1.022   2.061   2.468
 4740SOL    HW115119   1.048   2.057   2.565
 4740SOL    HW215120   0.954   2.134   2.455
 4741SOL     OW15121   4.216   2.389   1.764
 4741SOL    HW115122   4.203   2.462   1.697
 4741SOL    HW215123   4.294   2.411   1.822
 4742SOL     OW15124   2.899   6.642   0.138
 4742SOL    HW115125   2.800   6.642   0.151
 4742SOL    HW215126   2.920   6.611   0.045
 4743SOL     OW15127   1.633   3.980   2.025
 4743SOL    HW115128   1.712   3.940   1.979
 4743SOL    HW215129   1.555   3.918   2.018
 4744SOL     OW15130   2.011   6.148   0.860
 4744SOL    HW115131   2.109   6.131   0.868
 4744SOL    HW215132   1.993   6.196   0.774
 4745SOL     OW15133   2.546   4.014   0.504
 4745SOL    HW115134   2.531   3.927   0.457
 4745SOL    HW215135   2.461   4.043   0.549
 4746SOL     OW15136   4.570   5.029   4.410
 4746SOL    HW115137   4.617   4.959   4.464
 4746SOL    HW215138   4.497   5.069   4.465
 4747SOL     OW15139   1.669   3.026   0.928
 4747SOL    HW115140   1.708   3.044   1.018
 4747SOL    HW215141   1.671   2.928   0.910
 4748SOL     OW15142   1.618   6.332   2.288
 4748SOL    HW115143   1.617   6.389   2.370
 4748SOL    HW215144   1.561   6.374   2.218
 4749SOL     OW15145   2.184   6.681   0.368
 4749SOL    HW115146   2.116   6.737   0.321
 4749SOL    HW215147   2.233   6.625   0.302
 4750SOL     OW15148   6.228   3.231   4.966
 4750SOL    HW115149   6.265   3.306   4.911
 4750SOL    HW215150   6.227   3.147   4.912
 4751SOL     OW15151   4.415   1.258   2.340
 4751SOL    HW115152   4.472   1.335   2.313
 4751SOL    HW215153   4.418   1.246   2.439
 4752SOL     OW15154   4.788   2.169   0.321
 4752SOL    HW115155   4.773   2.142   0.416
 4752SOL    HW215156   4.735   2.109   0.261
 4753SOL     OW15157   1.677   6.668   5.235
 4753SOL    HW115158   1.710   6.574   5.225
 4753SOL    HW215159   1.654   6.705   5.145
 4754SOL     OW15160   3.893   3.806   6.446
 4754SOL    HW115161   3.798   3.828   6.468
 4754SOL    HW215162   3.930   3.874   6.384
 4755SOL     OW15163   1.497   0.373   1.673
 4755SOL    HW115164   1.494   0.321   1.587
 4755SOL    HW215165   1.408   0.416   1.688
 4756SOL     OW15166   5.984   4.532   6.951
 4756SOL    HW115167   5.903   4.587   6.933
 4756SOL    HW215168   5.962   4.462   7.019
 4757SOL     OW15169   1.533   3.043   1.591
 4757SOL    HW115170   1.581   3.126   1.561
 4757SOL    HW215171   1.572   2.964   1.544
 4758SOL     OW15172   1.645   0.172   3.013
 4758SOL    HW115173   1.577   0.140   2.947
 4758SOL    HW215174   1.727   0.202   2.964
 4759SOL     OW15175   0.826   5.059   0.821
 4759SOL    HW115176   0.874   4.974   0.838
 4759SOL    HW215177   0.859   5.100   0.736
 4760SOL     OW15178   1.386   6.994   0.490
 4760SOL    HW115179   1.422   0.020   0.567
 4760SOL    HW215180   1.311   6.936   0.521
 4761SOL     OW15181   0.398   6.881   0.578
 4761SOL    HW115182   0.367   6.790   0.606
 4761SOL    HW215183   0.363   6.902   0.487
 4762SOL     OW15184   1.730   5.397   2.629
 4762SOL    HW115185   1.632   5.377   2.625
 4762SOL    HW215186   1.743   5.496   2.630
 4763SOL     OW15187   4.658   5.665   1.684
 4763SOL    HW115188   4.636   5.581   1.735
 4763SOL    HW215189   4.753   5.662   1.655
 4764SOL     OW15190   4.726   3.897   5.726
 4764SOL    HW115191   4.754   3.937   5.813
 4764SOL    HW215192   4.768   3.947   5.650
 4765SOL     OW15193   3.833   1.651   5.283
 4765SOL    HW115194   3.894   1.730   5.271
 4765SOL    HW215195   3.839   1.593   5.202
 4766SOL     OW15196   6.506   6.602   4.217
 4766SOL    HW115197   6.590   6.650   4.192
 4766SOL    HW215198   6.440   6.607   4.142
 4767SOL     OW15199   2.071   4.997   4.466
 4767SOL    HW115200   2.133   5.027   4.394
 4767SOL    HW215201   2.123   4.954   4.540
 4768SOL     OW15202   4.880   2.786   6.501
 4768SOL    HW115203   4.867   2.885   6.491
 4768SOL    HW215204   4.976   2.763   6.483
 4769SOL     OW15205   3.396   5.720   1.403
 4769SOL    HW115206   3.310   5.707   1.452
 4769SOL    HW215207   3.386   5.795   1.337
 4770SOL     OW15208   6.910   2.005   5.369
 4770SOL    HW115209   6.930   2.088   5.318
 4770SOL    HW215210   6.890   1.930   5.306
 4771SOL     OW15211   2.853   0.224   5.349
 4771SOL    HW115212   2.813   0.249   5.261
 4771SOL    HW215213   2.897   0.134   5.342
 4772SOL     OW15214   2.752   5.474   0.903
 4772SOL    HW115215   2.701   5.553   0.868
 4772SOL    HW215216   2.840   5.468   0.856
 4773SOL     OW15217   2.574   5.579   4.924
 4773SOL    HW115218   2.587   5.668   4.881
 4773SOL    HW215219   2.501   5.529   4.878
 4774SOL     OW15220   1.547   3.935   0.380
 4774SOL    HW115221   1.585   3.960   0.291
 4774SOL    HW215222   1.620   3.934   0.448
 4775SOL     OW15223   5.644   6.449   4.806
 4775SOL    HW115224   5.625   6.362   4.761
 4775SOL    HW215225   5.743   6.462   4.812
 4776SOL     OW15226   1.330   0.965   5.929
 4776SOL    HW115227   1.325   0.867   5.948
 4776SOL    HW215228   1.352   0.978   5.832
 4777SOL     OW15229   0.860   5.969   0.671
 4777SOL    HW115230   0.769   5.926   0.670
 4777SOL    HW215231   0.852   6.064   0.643
 4778SOL     OW15232   0.605   2.211   4.727
 4778SOL    HW115233   0.611   2.228   4.826
 4778SOL    HW215234   0.672   2.141   4.702
 4779SOL     OW15235   6.445   1.294   3.329
 4779SOL    HW115236   6.446   1.206   3.378
 4779SOL    HW215237   6.534   1.311   3.288
 4780SOL     OW15238   5.359   2.557   5.631
 4780SOL    HW115239   5.384   2.652   5.613
 4780SOL    HW215240   5.340   2.545   5.728
 4781SOL     OW15241   1.272   5.782   2.182
 4781SOL    HW115242   1.274   5.878   2.152
 4781SOL    HW215243   1.182   5.761   2.220
 4782SOL     OW15244   5.700   5.369   5.201
 4782SOL    HW115245   5.608   5.334   5.221
 4782SOL    HW215246   5.699   5.469   5.205
 4783SOL     OW15247   6.213   3.336   1.031
 4783SOL    HW115248   6.114   3.336   1.045
 4783SOL    HW215249   6.241   3.424   0.993
 4784SOL     OW15250   5.601   3.080   6.494
 4784SOL    HW115251   5.565   3.021   6.566
 4784SOL    HW215252   5.526   3.110   6.434
 4785SOL     OW15253   0.752   5.843   3.682
 4785SOL    HW115254   0.771   5.915   3.614
 4785SOL    HW215255   0.675   5.871   3.739
 4786SOL     OW15256   2.801   6.844   0.927
 4786SOL    HW115257   2.778   6.842   1.024
 4786SOL    HW215258   2.856   6.764   0.904
 4787SOL     OW15259   4.137   1.757   4.426
 4787SOL    HW115260   4.037   1.762   4.434
 4787SOL    HW215261   4.166   1.810   4.346
 4788SOL     OW15262   6.499   6.237   0.348
 4788SOL    HW115263   6.413   6.240   0.297
 4788SOL    HW215264   6.481   6.246   0.445
 4789SOL     OW15265   5.145   0.978   2.243
 4789SOL    HW115266   5.160   1.006   2.338
 4789SOL    HW215267   5.051   0.946   2.231
 4790SOL     OW15268   5.610   1.532   5.000
 4790SOL    HW115269   5.666   1.501   5.076
 4790SOL    HW215270   5.616   1.466   4.925
 4791SOL     OW15271   0.225   2.759   0.880
 4791SOL    HW115272   0.165   2.802   0.813
 4791SOL    HW215273   0.189   2.669   0.906
 4792SOL     OW15274   2.191   3.845   4.219
 4792SOL    HW115275   2.252   3.848   4.140
 4792SOL    HW215276   2.172   3.749   4.243
 4793SOL     OW15277   1.232   4.135   6.441
 4793SOL    HW115278   1.147   4.082   6.440
 4793SOL    HW215279   1.289   4.105   6.517
 4794SOL     OW15280   5.230   1.083   4.265
 4794SOL    HW115281   5.171   1.003   4.280
 4794SOL    HW215282   5.294   1.064   4.191
 4795SOL     OW15283   0.544   0.660   4.257
 4795SOL    HW115284   0.523   0.565   4.281
 4795SOL    HW215285   0.463   0.704   4.219
 4796SOL     OW15286   3.588   1.328   5.712
 4796SOL    HW115287   3.688   1.330   5.713
 4796SOL    HW215288   3.555   1.405   5.658
 4797SOL     OW15289   0.687   5.412   4.791
 4797SOL    HW115290   0.654   5.435   4.700
 4797SOL    HW215291   0.643   5.473   4.858
 4798SOL     OW15292   5.089   5.044   6.082
 4798SOL    HW115293   5.098   5.009   6.175
 4798SOL    HW215294   5.121   4.976   6.017
 4799SOL     OW15295   3.587   2.491   6.665
 4799SOL    HW115296   3.682   2.472   6.638
 4799SOL    HW215297   3.575   2.590   6.677
 4800SOL     OW15298   1.477   4.945   6.971
 4800SOL    HW115299   1.526   4.897   6.898
 4800SOL    HW215300   1.479   4.889   0.028
 4801SOL     OW15301   5.065   2.518   1.767
 4801SOL    HW115302   5.122   2.474   1.697
 4801SOL    HW215303   5.022   2.600   1.728
 4802SOL     OW15304   0.194   6.165   2.529
 4802SOL    HW115305   0.224   6.085   2.477
 4802SOL    HW215306   0.187   6.244   2.468
 4803SOL     OW15307   5.150   4.243   6.902
 4803SOL    HW115308   5.180   4.245   6.998
 4803SOL    HW215309   5.177   4.156   6.861
 4804SOL     OW15310   5.003   2.172   0.137
 4804SOL    HW115311   5.015   2.271   0.144
 4804SOL    HW215312   4.932   2.144   0.202
 4805SOL     OW15313   6.223   2.131   1.054
 4805SOL    HW115314   6.307   2.164   1.010
 4805SOL    HW215315   6.243   2.047   1.105
 4806SOL     OW15316   1.529   2.968   3.154
 4806SOL    HW115317   1.537   2.969   3.253
 4806SOL    HW215318   1.615   2.937   3.113
 4807SOL     OW15319   1.084   2.918   6.630
 4807SOL    HW115320   1.029   2.999   6.649
 4807SOL    HW215321   1.160   2.914   6.694
 4808SOL     OW15322   3.901   5.908   0.873
 4808SOL    HW115323   3.862   5.941   0.786
 4808SOL    HW215324   3.892   5.980   0.942
 4809SOL     OW15325   3.333   4.914   1.828
 4809SOL    HW115326   3.250   4.944   1.874
 4809SOL    HW215327   3.315   4.904   1.730
 4810SOL     OW15328   1.373   4.041   3.674
 4810SOL    HW115329   1.436   4.038   3.597
 4810SOL    HW215330   1.279   4.033   3.641
 4811SOL     OW15331   3.324   3.975   4.772
 4811SOL    HW115332   3.303   4.007   4.680
 4811SOL    HW215333   3.398   3.909   4.769
 4812SOL     OW15334   0.473   6.608   2.177
 4812SOL    HW115335   0.514   6.565   2.096
 4812SOL    HW215336   0.412   6.681   2.148
 4813SOL     OW15337   6.222   1.657   0.160
 4813SOL    HW115338   6.306   1.608   0.135
 4813SOL    HW215339   6.184   1.617   0.243
 4814SOL     OW15340   0.019   4.125   1.846
 4814SOL    HW115341   0.095   4.137   1.911
 4814SOL    HW215342   0.054   4.134   1.752
 4815SOL     OW15343   5.593   5.171   2.178
 4815SOL    HW115344   5.692   5.173   2.188
 4815SOL    HW215345   5.566   5.089   2.128
 4816SOL     OW15346   1.290   6.572   2.215
 4816SOL    HW115347   1.210   6.565   2.155
 4816SOL    HW215348   1.262   6.559   2.310
 4817SOL     OW15349   3.730   1.497   1.773
 4817SOL    HW115350   3.667   1.419   1.765
 4817SOL    HW215351   3.778   1.492   1.860
 4818SOL     OW15352   2.899   0.479   4.811
 4818SOL    HW115353   2.960   0.558   4.806
 4818SOL    HW215354   2.954   0.395   4.811
 4819SOL     OW15355   2.816   1.447   1.225
 4819SOL    HW115356   2.789   1.365   1.276
 4819SOL    HW215357   2.915   1.450   1.217
 4820SOL     OW15358   0.096   4.016   2.641
 4820SOL    HW115359   0.063   3.945   2.703
 4820SOL    HW215360   0.021   4.077   2.617
 4821SOL     OW15361   6.713   5.497   1.612
 4821SOL    HW115362   6.704   5.568   1.542
 4821SOL    HW215363   6.706   5.538   1.703
 4822SOL     OW15364   2.004   4.249   3.699
 4822SOL    HW115365   1.915   4.203   3.698
 4822SOL    HW215366   1.989   4.348   3.711
 4823SOL     OW15367   0.970   0.177   4.351
 4823SOL    HW115368   0.935   0.111   4.284
 4823SOL    HW215369   0.978   0.132   4.440
 4824SOL     OW15370   5.338   2.121   2.603
 4824SOL    HW115371   5.355   2.187   2.530
 4824SOL    HW215372   5.412   2.125   2.670
 4825SOL     OW15373   1.861   3.470   4.220
 4825SOL    HW115374   1.907   3.525   4.150
 4825SOL    HW215375   1.929   3.421   4.274
 4826SOL     OW15376   0.333   6.628   0.687
 4826SOL    HW115377   0.395   6.550   0.690
 4826SOL    HW215378   0.243   6.600   0.720
 4827SOL     OW15379   4.382   1.064   1.233
 4827SOL    HW115380   4.389   1.033   1.138
 4827SOL    HW215381   4.364   0.986   1.293
 4828SOL     OW15382   5.655   3.368   1.830
 4828SOL    HW115383   5.639   3.443   1.765
 4828SOL    HW215384   5.673   3.406   1.920
 4829SOL     OW15385   3.101   0.730   6.079
 4829SOL    HW115386   3.074   0.684   5.994
 4829SOL    HW215387   3.109   0.662   6.152
 4830SOL     OW15388   4.870   6.108   3.375
 4830SOL    HW115389   4.820   6.052   3.309
 4830SOL    HW215390   4.808   6.177   3.413
 4831SOL     OW15391   6.631   4.338   5.195
 4831SOL    HW115392   6.550   4.392   5.174
 4831SOL    HW215393   6.634   4.319   5.293
 4832SOL     OW15394   3.482   2.983   5.915
 4832SOL    HW115395   3.499   3.077   5.944
 4832SOL    HW215396   3.431   2.984   5.828
 4833SOL     OW15397   4.086   1.405   3.279
 4833SOL    HW115398   4.031   1.436   3.200
 4833SOL    HW215399   4.140   1.326   3.252
 4834SOL     OW15400   4.317   0.793   0.937
 4834SOL    HW115401   4.276   0.724   0.877
 4834SOL    HW215402   4.256   0.809   1.015
 4835SOL     OW15403   1.706   7.003   6.390
 4835SOL    HW115404   1.686   0.046   6.460
 4835SOL    HW215405   1.689   6.912   6.427
 4836SOL     OW15406   5.193   1.563   4.250
 4836SOL    HW115407   5.264   1.582   4.318
 4836SOL    HW215408   5.236   1.553   4.160
 4837SOL     OW15409   2.940   3.010   1.369
 4837SOL    HW115410   2.935   3.015   1.469
 4837SOL    HW215411   3.035   2.995   1.342
 4838SOL     OW15412   3.815   4.906   2.077
 4838SOL    HW115413   3.738   4.847   2.053
 4838SOL    HW215414   3.886   4.899   2.008
 4839SOL     OW15415   0.290   5.108   5.665
 4839SOL    HW115416   0.319   5.196   5.703
 4839SOL    HW215417   0.217   5.070   5.722
 4840SOL     OW15418   5.904   6.456   0.537
 4840SOL    HW115419   5.822   6.401   0.550
 4840SOL    HW215420   5.900   6.503   0.449
 4841SOL     OW15421   3.163   5.834   1.616
 4841SOL    HW115422   3.130   5.778   1.692
 4841SOL    HW215423   3.201   5.920   1.652
 4842SOL     OW15424   3.723   5.782   1.895
 4842SOL    HW115425   3.647   5.751   1.838
 4842SOL    HW215426   3.808   5.742   1.862
 4843SOL     OW15427   0.284   4.007   0.360
 4843SOL    HW115428   0.351   4.081   0.363
 4843SOL    HW215429   0.192   4.045   0.358
 4844SOL     OW15430   6.318   3.777   0.245
 4844SOL    HW115431   6.372   3.844   0.196
 4844SOL    HW215432   6.359   3.686   0.232
 4845SOL     OW15433   6.266   5.602   4.140
 4845SOL    HW115434   6.187   5.647   4.182
 4845SOL    HW215435   6.347   5.660   4.149
 4846SOL     OW15436   0.978   2.940   0.546
 4846SOL    HW115437   0.903   3.003   0.568
 4846SOL    HW215438   0.967   2.909   0.452
 4847SOL     OW15439   3.953   2.191   4.673
 4847SOL    HW115440   3.991   2.202   4.582
 4847SOL    HW215441   3.866   2.240   4.680
 4848SOL     OW15442   2.035   1.186   3.688
 4848SOL    HW115443   2.022   1.114   3.756
 4848SOL    HW215444   1.956   1.189   3.627
 4849SOL     OW15445   1.531   6.908   0.001
 4849SOL    HW115446   1.441   6.949   7.010
 4849SOL    HW215447   1.597   6.946   6.963
 4850SOL     OW15448   3.729   0.528   2.243
 4850SOL    HW115449   3.741   0.437   2.203
 4850SOL    HW215450   3.816   0.577   2.240
 4851SOL     OW15451   4.481   5.886   5.476
 4851SOL    HW115452   4.537   5.829   5.535
 4851SOL    HW215453   4.410   5.931   5.531
 4852SOL     OW15454   1.540   0.943   6.915
 4852SOL    HW115455   1.637   0.928   6.896
 4852SOL    HW215456   1.494   0.855   6.923
 4853SOL     OW15457   3.432   1.496   2.665
 4853SOL    HW115458   3.352   1.468   2.719
 4853SOL    HW215459   3.486   1.415   2.642
 4854SOL     OW15460   4.430   5.307   2.085
 4854SOL    HW115461   4.486   5.344   2.160
 4854SOL    HW215462   4.482   5.311   2.000
 4855SOL     OW15463   5.971   1.833   2.212
 4855SOL    HW115464   5.871   1.822   2.216
 4855SOL    HW215465   5.995   1.926   2.241
 4856SOL     OW15466   3.007   4.842   3.746
 4856SOL    HW115467   2.944   4.806   3.677
 4856SOL    HW215468   2.966   4.833   3.837
 4857SOL     OW15469   0.719   2.168   5.873
 4857SOL    HW115470   0.715   2.089   5.933
 4857SOL    HW215471   0.752   2.140   5.783
 4858SOL     OW15472   2.173   1.807   4.706
 4858SOL    HW115473   2.256   1.795   4.760
 4858SOL    HW215474   2.180   1.891   4.652
 4859SOL     OW15475   1.718   5.724   4.875
 4859SOL    HW115476   1.771   5.685   4.950
 4859SOL    HW215477   1.621   5.704   4.888
 4860SOL     OW15478   4.276   5.283   1.618
 4860SOL    HW115479   4.218   5.316   1.543
 4860SOL    HW215480   4.218   5.249   1.692
 4861SOL     OW15481   5.354   5.439   0.006
 4861SOL    HW115482   5.422   5.504   6.998
 4861SOL    HW215483   5.337   5.368   6.963
 4862SOL     OW15484   1.306   5.204   3.447
 4862SOL    HW115485   1.307   5.260   3.530
 4862SOL    HW215486   1.317   5.263   3.367
 4863SOL     OW15487   5.683   4.279   0.688
 4863SOL    HW115488   5.616   4.301   0.759
 4863SOL    HW215489   5.757   4.223   0.728
 4864SOL     OW15490   3.101   0.841   3.391
 4864SOL    HW115491   3.177   0.890   3.349
 4864SOL    HW215492   3.044   0.800   3.320
 4865SOL     OW15493   2.222   6.903   4.457
 4865SOL    HW115494   2.168   6.985   4.474
 4865SOL    HW215495   2.239   6.894   4.359
 4866SOL     OW15496   6.727   3.552   1.464
 4866SOL    HW115497   6.778   3.547   1.377
 4866SOL    HW215498   6.772   3.617   1.525
 4867SOL     OW15499   4.450   5.716   2.091
 4867SOL    HW115500   4.468   5.782   2.164
 4867SOL    HW215501   4.444   5.624   2.130
 4868SOL     OW15502   6.603   4.506   1.947
 4868SOL    HW115503   6.631   4.579   2.011
 4868SOL    HW215504   6.682   4.449   1.927
 4869SOL     OW15505   1.610   1.425   0.759
 4869SOL    HW115506   1.632   1.458   0.667
 4869SOL    HW215507   1.519   1.456   0.785
 4870SOL     OW15508   0.458   6.511   1.586
 4870SOL    HW115509   0.536   6.522   1.648
 4870SOL    HW215510   0.444   6.414   1.565
 4871SOL     OW15511   1.402   0.749   4.871
 4871SOL    HW115512   1.323   0.750   4.810
 4871SOL    HW215513   1.370   0.741   4.966
 4872SOL     OW15514   0.035   6.546   2.982
 4872SOL    HW115515   0.112   6.556   2.919
 4872SOL    HW215516   0.066   6.504   3.067
 4873SOL     OW15517   7.025   5.407   4.874
 4873SOL    HW115518   0.084   5.365   4.841
 4873SOL    HW215519   0.020   5.480   4.938
 4874SOL     OW15520   4.913   2.298   2.920
 4874SOL    HW115521   4.833   2.316   2.976
 4874SOL    HW215522   4.887   2.298   2.823
 4875SOL     OW15523   5.091   6.918   0.187
 4875SOL    HW115524   5.028   6.985   0.226
 4875SOL    HW215525   5.182   6.930   0.227
 4876SOL     OW15526   0.468   1.512   3.350
 4876SOL    HW115527   0.435   1.559   3.432
 4876SOL    HW215528   0.529   1.438   3.376
 4877SOL     OW15529   0.531   2.126   5.288
 4877SOL    HW115530   0.473   2.207   5.279
 4877SOL    HW215531   0.624   2.155   5.312
 4878SOL     OW15532   6.949   1.587   1.925
 4878SOL    HW115533   6.990   1.543   1.845
 4878SOL    HW215534   6.853   1.558   1.933
 4879SOL     OW15535   4.867   1.935   2.549
 4879SOL    HW115536   4.788   1.986   2.582
 4879SOL    HW215537   4.931   1.919   2.624
 4880SOL     OW15538   6.730   3.285   0.087
 4880SOL    HW115539   6.804   3.238   0.135
 4880SOL    HW215540   6.757   3.303   7.018
 4881SOL     OW15541   1.928   2.482   1.053
 4881SOL    HW115542   1.898   2.396   1.096
 4881SOL    HW215543   1.957   2.546   1.124
 4882SOL     OW15544   4.425   2.328   5.309
 4882SOL    HW115545   4.476   2.414   5.317
 4882SOL    HW215546   4.483   2.258   5.268
 4883SOL     OW15547   4.779   3.907   1.862
 4883SOL    HW115548   4.717   3.982   1.886
 4883SOL    HW215549   4.797   3.852   1.944
 4884SOL     OW15550   2.345   5.596   0.776
 4884SOL    HW115551   2.408   5.644   0.715
 4884SOL    HW215552   2.296   5.662   0.832
 4885SOL     OW15553   2.362   4.603   1.871
 4885SOL    HW115554   2.284   4.616   1.932
 4885SOL    HW215555   2.363   4.509   1.837
 4886SOL     OW15556   2.762   6.845   1.816
 4886SOL    HW115557   2.726   6.754   1.797
 4886SOL    HW215558   2.853   6.838   1.857
 4887SOL     OW15559   0.971   6.366   1.348
 4887SOL    HW115560   0.935   6.355   1.256
 4887SOL    HW215561   1.039   6.441   1.349
 4888SOL     OW15562   2.569   6.407   2.833
 4888SOL    HW115563   2.657   6.361   2.846
 4888SOL    HW215564   2.573   6.499   2.870
 4889SOL     OW15565   6.810   1.786   4.893
 4889SOL    HW115566   6.769   1.827   4.812
 4889SOL    HW215567   6.909   1.789   4.886
 4890SOL     OW15568   0.949   1.866   5.516
 4890SOL    HW115569   0.903   1.809   5.448
 4890SOL    HW215570   1.046   1.873   5.494
 4891SOL     OW15571   2.380   5.187   6.331
 4891SOL    HW115572   2.455   5.208   6.270
 4891SOL    HW215573   2.416   5.161   6.421
 4892SOL     OW15574   5.477   6.497   1.973
 4892SOL    HW115575   5.505   6.455   1.886
 4892SOL    HW215576   5.530   6.581   1.987
 4893SOL     OW15577   0.410   3.178   2.080
 4893SOL    HW115578   0.418   3.230   1.995
 4893SOL    HW215579   0.424   3.081   2.060
 4894SOL     OW15580   3.343   0.186   1.961
 4894SOL    HW115581   3.265   0.182   1.899
 4894SOL    HW215582   3.383   0.278   1.959
 4895SOL     OW15583   0.761   4.589   3.627
 4895SOL    HW115584   0.736   4.674   3.674
 4895SOL    HW215585   0.766   4.514   3.692
 4896SOL     OW15586   2.221   4.693   3.380
 4896SOL    HW115587   2.175   4.654   3.300
 4896SOL    HW215588   2.226   4.623   3.452
 4897SOL     OW15589   1.823   5.615   5.099
 4897SOL    HW115590   1.916   5.580   5.090
 4897SOL    HW215591   1.792   5.604   5.193
 4898SOL     OW15592   4.294   1.055   4.962
 4898SOL    HW115593   4.274   1.090   4.871
 4898SOL    HW215594   4.306   0.956   4.957
 4899SOL     OW15595   6.003   5.406   2.366
 4899SOL    HW115596   6.001   5.369   2.273
 4899SOL    HW215597   5.973   5.501   2.365
 4900SOL     OW15598   4.679   5.715   5.618
 4900SOL    HW115599   4.704   5.684   5.526
 4900SOL    HW215600   4.760   5.713   5.677
 4901SOL     OW15601   1.561   2.136   5.247
 4901SOL    HW115602   1.479   2.134   5.305
 4901SOL    HW215603   1.544   2.083   5.164
 4902SOL     OW15604   1.857   0.495   6.314
 4902SOL    HW115605   1.773   0.478   6.367
 4902SOL    HW215606   1.859   0.435   6.234
 4903SOL     OW15607   4.266   5.607   0.836
 4903SOL    HW115608   4.316   5.551   0.770
 4903SOL    HW215609   4.324   5.624   0.916
 4904SOL     OW15610   2.270   0.752   5.793
 4904SOL    HW115611   2.322   0.704   5.863
 4904SOL    HW215612   2.219   0.687   5.737
 4905SOL     OW15613   2.938   0.258   2.912
 4905SOL    HW115614   2.856   0.210   2.946
 4905SOL    HW215615   2.946   0.244   2.814
 4906SOL     OW15616   4.981   3.098   5.090
 4906SOL    HW115617   5.070   3.121   5.128
 4906SOL    HW215618   4.938   3.027   5.146
 4907SOL     OW15619   4.872   1.379   0.436
 4907SOL    HW115620   4.920   1.385   0.524
 4907SOL    HW215621   4.908   1.448   0.374
 4908SOL     OW15622   4.739   0.472   0.918
 4908SOL    HW115623   4.815   0.483   0.981
 4908SOL    HW215624   4.666   0.537   0.941
 4909SOL     OW15625   6.519   4.240   3.646
 4909SOL    HW115626   6.597   4.187   3.612
 4909SOL    HW215627   6.460   4.180   3.700
 4910SOL     OW15628   5.781   1.321   4.475
 4910SOL    HW115629   5.877   1.320   4.501
 4910SOL    HW215630   5.748   1.415   4.472
 4911SOL     OW15631   1.913   2.770   2.822
 4911SOL    HW115632   1.843   2.817   2.768
 4911SOL    HW215633   1.871   2.697   2.875
 4912SOL     OW15634   5.082   2.157   5.650
 4912SOL    HW115635   5.153   2.101   5.692
 4912SOL    HW215636   5.033   2.104   5.582
 4913SOL     OW15637   5.827   3.070   5.978
 4913SOL    HW115638   5.821   3.008   6.055
 4913SOL    HW215639   5.762   3.146   5.991
 4914SOL     OW15640   4.518   0.203   5.509
 4914SOL    HW115641   4.556   0.171   5.423
 4914SOL    HW215642   4.546   0.298   5.525
 4915SOL     OW15643   2.902   5.921   5.442
 4915SOL    HW115644   2.804   5.920   5.422
 4915SOL    HW215645   2.916   5.919   5.541
 4916SOL     OW15646   6.921   0.569   4.236
 4916SOL    HW115647   7.020   0.578   4.233
 4916SOL    HW215648   6.879   0.660   4.226
 4917SOL     OW15649   3.506   5.800   1.018
 4917SOL    HW115650   3.442   5.795   0.941
 4917SOL    HW215651   3.594   5.761   0.990
 4918SOL     OW15652   6.415   5.765   1.890
 4918SOL    HW115653   6.403   5.705   1.969
 4918SOL    HW215654   6.403   5.860   1.917
 4919SOL     OW15655   3.530   2.806   2.129
 4919SOL    HW115656   3.542   2.710   2.156
 4919SOL    HW215657   3.530   2.864   2.211
 4920SOL     OW15658   5.692   0.404   5.247
 4920SOL    HW115659   5.700   0.334   5.318
 4920SOL    HW215660   5.652   0.487   5.287
 4921SOL     OW15661   0.888   5.593   0.353
 4921SOL    HW115662   0.882   5.494   0.341
 4921SOL    HW215663   0.967   5.628   0.302
 4922SOL     OW15664   3.385   2.164   5.268
 4922SOL    HW115665   3.466   2.219   5.288
 4922SOL    HW215666   3.317   2.220   5.221
 4923SOL     OW15667   2.883   1.888   2.957
 4923SOL    HW115668   2.940   1.940   3.020
 4923SOL    HW215669   2.815   1.949   2.916
 4924SOL     OW15670   2.361   1.703   5.829
 4924SOL    HW115671   2.325   1.698   5.735
 4924SOL    HW215672   2.323   1.784   5.874
 4925SOL     OW15673   4.332   0.389   2.950
 4925SOL    HW115674   4.377   0.467   2.993
 4925SOL    HW215675   4.390   0.354   2.876
 4926SOL     OW15676   5.711   1.618   1.751
 4926SOL    HW115677   5.729   1.620   1.652
 4926SOL    HW215678   5.788   1.661   1.799
 4927SOL     OW15679   3.451   2.678   6.411
 4927SOL    HW115680   3.445   2.612   6.337
 4927SOL    HW215681   3.366   2.731   6.417
 4928SOL     OW15682   1.155   0.917   0.598
 4928SOL    HW115683   1.110   1.005   0.616
 4928SOL    HW215684   1.247   0.933   0.563
 4929SOL     OW15685   0.057   6.964   3.292
 4929SOL    HW115686   0.055   0.035   3.266
 4929SOL    HW215687   0.103   6.911   3.220
 4930SOL     OW15688   6.099   0.061   2.028
 4930SOL    HW115689   6.001   0.047   2.015
 4930SOL    HW215690   6.123   0.044   2.124
 4931SOL     OW15691   6.126   6.185   1.957
 4931SOL    HW115692   6.219   6.148   1.957
 4931SOL    HW215693   6.081   6.162   2.043
 4932SOL     OW15694   3.298   3.829   3.486
 4932SOL    HW115695   3.366   3.830   3.412
 4932SOL    HW215696   3.307   3.912   3.540
 4933SOL     OW15697   2.464   6.140   4.453
 4933SOL    HW115698   2.522   6.161   4.532
 4933SOL    HW215699   2.380   6.195   4.458
 4934SOL     OW15700   3.809   6.085   2.655
 4934SOL    HW115701   3.830   6.079   2.557
 4934SOL    HW215702   3.833   5.998   2.699
 4935SOL     OW15703   1.330   1.950   6.813
 4935SOL    HW115704   1.284   2.036   6.834
 4935SOL    HW215705   1.375   1.957   6.724
 4936SOL     OW15706   2.502   4.774   0.762
 4936SOL    HW115707   2.566   4.842   0.797
 4936SOL    HW215708   2.552   4.704   0.711
 4937SOL     OW15709   5.190   3.178   5.253
 4937SOL    HW115710   5.212   3.265   5.298
 4937SOL    HW215711   5.274   3.126   5.237
 4938SOL     OW15712   3.567   5.735   5.096
 4938SOL    HW115713   3.531   5.773   5.011
 4938SOL    HW215714   3.666   5.742   5.097
 4939SOL     OW15715   4.889   2.879   5.209
 4939SOL    HW115716   4.811   2.866   5.148
 4939SOL    HW215717   4.863   2.851   5.302
 4940SOL     OW15718   1.775   0.718   4.954
 4940SOL    HW115719   1.738   0.809   4.936
 4940SOL    HW215720   1.702   0.650   4.946
 4941SOL     OW15721   4.251   1.694   0.004
 4941SOL    HW115722   4.213   1.626   6.968
 4941SOL    HW215723   4.217   1.785   7.005
 4942SOL     OW15724   5.018   3.645   5.400
 4942SOL    HW115725   4.989   3.612   5.490
 4942SOL    HW215726   4.981   3.586   5.329
 4943SOL     OW15727   4.665   2.316   0.832
 4943SOL    HW115728   4.650   2.347   0.738
 4943SOL    HW215729   4.652   2.392   0.895
 4944SOL     OW15730   2.212   3.979   2.825
 4944SOL    HW115731   2.220   3.931   2.737
 4944SOL    HW215732   2.180   3.915   2.895
 4945SOL     OW15733   1.404   0.130   3.969
 4945SOL    HW115734   1.329   0.149   3.905
 4945SOL    HW215735   1.389   0.179   4.054
 4946SOL     OW15736   1.310   2.793   1.903
 4946SOL    HW115737   1.237   2.726   1.889
 4946SOL    HW215738   1.396   2.756   1.867
 4947SOL     OW15739   0.827   0.051   0.550
 4947SOL    HW115740   0.815   7.003   0.483
 4947SOL    HW215741   0.738   0.092   0.570
 4948SOL     OW15742   2.350   0.787   2.694
 4948SOL    HW115743   2.336   0.715   2.625
 4948SOL    HW215744   2.293   0.866   2.672
 4949SOL     OW15745   5.031   0.646   5.257
 4949SOL    HW115746   5.101   0.709   5.290
 4949SOL    HW215747   5.014   0.575   5.325
 4950SOL     OW15748   2.808   6.232   4.415
 4950SOL    HW115749   2.819   6.150   4.471
 4950SOL    HW215750   2.780   6.207   4.323
 4951SOL     OW15751   4.583   1.422   4.222
 4951SOL    HW115752   4.574   1.450   4.127
 4951SOL    HW215753   4.551   1.496   4.282
 4952SOL     OW15754   0.229   6.139   4.888
 4952SOL    HW115755   0.130   6.130   4.891
 4952SOL    HW215756   0.260   6.146   4.793
 4953SOL     OW15757   2.240   5.389   0.920
 4953SOL    HW115758   2.235   5.435   1.009
 4953SOL    HW215759   2.287   5.448   0.855
 4954SOL     OW15760   5.327   4.649   0.254
 4954SOL    HW115761   5.360   4.555   0.248
 4954SOL    HW215762   5.233   4.649   0.288
 4955SOL     OW15763   1.408   6.379   0.517
 4955SOL    HW115764   1.460   6.339   0.442
 4955SOL    HW215765   1.311   6.359   0.504
 4956SOL     OW15766   3.886   6.935   5.696
 4956SOL    HW115767   3.788   6.942   5.714
 4956SOL    HW215768   3.928   7.025   5.705
 4957SOL     OW15769   0.150   1.556   4.138
 4957SOL    HW115770   0.186   1.463   4.133
 4957SOL    HW215771   0.054   1.556   4.109
 4958SOL     OW15772   0.624   6.352   6.210
 4958SOL    HW115773   0.684   6.432   6.205
 4958SOL    HW215774   0.608   6.317   6.118
 4959SOL     OW15775   1.086   0.811   7.004
 4959SOL    HW115776   1.136   0.725   6.996
 4959SOL    HW215777   1.119   0.876   6.935
 4960SOL     OW15778   4.045   6.702   4.119
 4960SOL    HW115779   3.957   6.681   4.077
 4960SOL    HW215780   4.062   6.800   4.114
 4961SOL     OW15781   5.883   0.458   4.578
 4961SOL    HW115782   5.837   0.439   4.492
 4961SOL    HW215783   5.959   0.393   4.589
 4962SOL     OW15784   5.824   2.409   1.905
 4962SOL    HW115785   5.825   2.320   1.950
 4962SOL    HW215786   5.731   2.430   1.874
 4963SOL     OW15787   0.445   5.610   1.355
 4963SOL    HW115788   0.453   5.592   1.257
 4963SOL    HW215789   0.349   5.613   1.381
 4964SOL     OW15790   3.499   5.666   3.426
 4964SOL    HW115791   3.463   5.607   3.353
 4964SOL    HW215792   3.522   5.609   3.505
 4965SOL     OW15793   0.315   6.834   4.724
 4965SOL    HW115794   0.335   6.930   4.704
 4965SOL    HW215795   0.226   6.810   4.685
 4966SOL     OW15796   3.025   5.982   4.652
 4966SOL    HW115797   3.083   6.060   4.627
 4966SOL    HW215798   3.081   5.914   4.701
 4967SOL     OW15799   4.267   2.696   6.826
 4967SOL    HW115800   4.195   2.713   6.894
 4967SOL    HW215801   4.356   2.700   6.871
 4968SOL     OW15802   4.917   2.797   3.588
 4968SOL    HW115803   5.002   2.760   3.551
 4968SOL    HW215804   4.839   2.765   3.533
 4969SOL     OW15805   1.651   1.116   1.660
 4969SOL    HW115806   1.627   1.200   1.709
 4969SOL    HW215807   1.656   1.134   1.562
 4970SOL     OW15808   1.153   2.124   4.680
 4970SOL    HW115809   1.228   2.175   4.724
 4970SOL    HW215810   1.180   2.028   4.671
 4971SOL     OW15811   6.343   5.824   3.081
 4971SOL    HW115812   6.256   5.790   3.117
 4971SOL    HW215813   6.326   5.890   3.008
 4972SOL     OW15814   2.083   3.524   1.040
 4972SOL    HW115815   2.180   3.498   1.036
 4972SOL    HW215816   2.035   3.484   0.961
 4973SOL     OW15817   6.047   5.956   2.318
 4973SOL    HW115818   6.140   5.919   2.312
 4973SOL    HW215819   6.006   5.959   2.226
 4974SOL     OW15820   5.549   6.139   2.553
 4974SOL    HW115821   5.611   6.144   2.631
 4974SOL    HW215822   5.474   6.204   2.566
 4975SOL     OW15823   5.793   6.201   0.545
 4975SOL    HW115824   5.748   6.120   0.506
 4975SOL    HW215825   5.799   6.190   0.645
 4976SOL     OW15826   3.482   0.187   4.717
 4976SOL    HW115827   3.440   0.145   4.797
 4976SOL    HW215828   3.411   0.224   4.657
 4977SOL     OW15829   4.378   3.694   0.621
 4977SOL    HW115830   4.441   3.757   0.666
 4977SOL    HW215831   4.422   3.653   0.541
 4978SOL     OW15832   5.893   3.838   5.481
 4978SOL    HW115833   5.941   3.866   5.564
 4978SOL    HW215834   5.836   3.913   5.448
 4979SOL     OW15835   0.441   0.904   5.608
 4979SOL    HW115836   0.508   0.949   5.549
 4979SOL    HW215837   0.358   0.959   5.612
 4980SOL     OW15838   3.660   5.237   2.463
 4980SOL    HW115839   3.705   5.310   2.412
 4980SOL    HW215840   3.684   5.149   2.421
 4981SOL     OW15841   4.554   6.873   5.855
 4981SOL    HW115842   4.474   6.912   5.900
 4981SOL    HW215843   4.611   6.946   5.820
 4982SOL     OW15844   2.094   2.227   0.018
 4982SOL    HW115845   2.153   2.211   6.964
 4982SOL    HW215846   2.095   2.147   0.077
 4983SOL     OW15847   5.412   2.931   3.794
 4983SOL    HW115848   5.401   2.860   3.863
 4983SOL    HW215849   5.508   2.935   3.765
 4984SOL     OW15850   4.955   3.721   4.548
 4984SOL    HW115851   4.955   3.621   4.537
 4984SOL    HW215852   4.963   3.764   4.458
 4985SOL     OW15853   5.402   5.685   3.495
 4985SOL    HW115854   5.338   5.761   3.498
 4985SOL    HW215855   5.469   5.700   3.423
 4986SOL     OW15856   6.222   4.555   2.419
 4986SOL    HW115857   6.149   4.525   2.359
 4986SOL    HW215858   6.265   4.475   2.462
 4987SOL     OW15859   6.997   3.545   0.969
 4987SOL    HW115860   0.058   3.550   1.018
 4987SOL    HW215861   7.003   3.477   0.896
 4988SOL     OW15862   0.471   1.721   4.444
 4988SOL    HW115863   0.387   1.713   4.498
 4988SOL    HW215864   0.452   1.692   4.350
 4989SOL     OW15865   6.412   1.335   0.841
 4989SOL    HW115866   6.509   1.328   0.862
 4989SOL    HW215867   6.362   1.364   0.923
 4990SOL     OW15868   0.767   2.858   5.369
 4990SOL    HW115869   0.827   2.877   5.291
 4990SOL    HW215870   0.822   2.856   5.453
 4991SOL     OW15871   0.576   3.298   4.115
 4991SOL    HW115872   0.610   3.389   4.094
 4991SOL    HW215873   0.476   3.298   4.113
 4992SOL     OW15874   3.563   0.547   5.277
 4992SOL    HW115875   3.579   0.509   5.185
 4992SOL    HW215876   3.627   0.622   5.293
 4993SOL     OW15877   3.009   5.681   3.651
 4993SOL    HW115878   3.071   5.675   3.573
 4993SOL    HW215879   2.993   5.590   3.689
 4994SOL     OW15880   0.794   6.591   2.780
 4994SOL    HW115881   0.793   6.691   2.767
 4994SOL    HW215882   0.722   6.550   2.725
 4995SOL     OW15883   6.839   2.919   6.446
 4995SOL    HW115884   6.761   2.977   6.423
 4995SOL    HW215885   6.813   2.823   6.435
 4996SOL     OW15886   0.797   2.355   1.953
 4996SOL    HW115887   0.818   2.358   2.050
 4996SOL    HW215888   0.726   2.423   1.932
 4997SOL     OW15889   6.776   2.104   2.796
 4997SOL    HW115890   6.719   2.173   2.752
 4997SOL    HW215891   6.851   2.079   2.735
 4998SOL     OW15892   1.759   4.965   4.711
 4998SOL    HW115893   1.720   5.025   4.641
 4998SOL    HW215894   1.832   5.014   4.760
 4999SOL     OW15895   4.876   5.729   0.791
 4999SOL    HW115896   4.930   5.648   0.769
 4999SOL    HW215897   4.894   5.801   0.723
 5000SOL     OW15898   0.928   0.092   5.215
 5000SOL    HW115899   0.991   0.167   5.193
 5000SOL    HW215900   0.843   0.130   5.253
 5001SOL     OW15901   2.358   3.996   6.061
 5001SOL    HW115902   2.265   3.959   6.062
 5001SOL    HW215903   2.364   4.068   5.992
 5002SOL     OW15904   2.007   1.332   2.729
 5002SOL    HW115905   2.106   1.328   2.738
 5002SOL    HW215906   1.980   1.296   2.639
 5003SOL     OW15907   0.214   6.346   2.773
 5003SOL    HW115908   0.197   6.442   2.751
 5003SOL    HW215909   0.218   6.293   2.689
 5004SOL     OW15910   2.410   5.662   6.312
 5004SOL    HW115911   2.489   5.604   6.334
 5004SOL    HW215912   2.384   5.646   6.217
 5005SOL     OW15913   4.327   3.034   0.354
 5005SOL    HW115914   4.371   3.114   0.395
 5005SOL    HW215915   4.328   2.958   0.419
 5006SOL     OW15916   5.356   0.017   5.212
 5006SOL    HW115917   5.377   6.995   5.126
 5006SOL    HW215918   5.282   0.082   5.196
 5007SOL     OW15919   4.056   1.012   5.970
 5007SOL    HW115920   4.077   0.919   5.939
 5007SOL    HW215921   4.140   1.066   5.974
 5008SOL     OW15922   5.846   1.126   3.436
 5008SOL    HW115923   5.798   1.147   3.350
 5008SOL    HW215924   5.783   1.083   3.500
 5009SOL     OW15925   0.723   6.258   1.854
 5009SOL    HW115926   0.816   6.262   1.820
 5009SOL    HW215927   0.714   6.182   1.919
 5010SOL     OW15928   3.587   4.176   3.826
 5010SOL    HW115929   3.602   4.265   3.869
 5010SOL    HW215930   3.658   4.112   3.857
 5011SOL     OW15931   0.724   2.951   2.099
 5011SOL    HW115932   0.795   2.929   2.166
 5011SOL    HW215933   0.728   3.048   2.076
 5012SOL     OW15934   6.811   2.968   6.129
 5012SOL    HW115935   6.752   2.951   6.208
 5012SOL    HW215936   6.878   3.038   6.153
 5013SOL     OW15937   3.881   0.989   6.439
 5013SOL    HW115938   3.976   0.956   6.441
 5013SOL    HW215939   3.820   0.917   6.472
 5014SOL     OW15940   6.182   5.817   0.444
 5014SOL    HW115941   6.129   5.829   0.360
 5014SOL    HW215942   6.167   5.725   0.481
 5015SOL     OW15943   4.253   2.067   3.755
 5015SOL    HW115944   4.230   1.986   3.810
 5015SOL    HW215945   4.175   2.129   3.752
 5016SOL     OW15946   1.820   0.305   2.812
 5016SOL    HW115947   1.739   0.364   2.819
 5016SOL    HW215948   1.825   0.267   2.720
 5017SOL     OW15949   2.603   2.192   0.542
 5017SOL    HW115950   2.663   2.143   0.605
 5017SOL    HW215951   2.522   2.224   0.592
 5018SOL     OW15952   6.971   4.281   2.919
 5018SOL    HW115953   6.902   4.250   2.853
 5018SOL    HW215954   6.936   4.361   2.968
 5019SOL     OW15955   2.565   4.082   0.941
 5019SOL    HW115956   2.563   4.121   1.033
 5019SOL    HW215957   2.544   3.985   0.946
 5020SOL     OW15958   4.935   5.410   6.263
 5020SOL    HW115959   4.851   5.358   6.248
 5020SOL    HW215960   4.941   5.438   6.359
 5021SOL     OW15961   1.972   4.757   5.722
 5021SOL    HW115962   1.984   4.658   5.727
 5021SOL    HW215963   2.038   4.802   5.782
 5022SOL     OW15964   2.008   6.314   0.633
 5022SOL    HW115965   2.075   6.364   0.578
 5022SOL    HW215966   1.916   6.329   0.596
 5023SOL     OW15967   6.381   2.729   0.765
 5023SOL    HW115968   6.327   2.724   0.850
 5023SOL    HW215969   6.330   2.686   0.691
 5024SOL     OW15970   6.566   4.105   3.135
 5024SOL    HW115971   6.511   4.168   3.080
 5024SOL    HW215972   6.519   4.087   3.222
 5025SOL     OW15973   5.288   1.266   3.352
 5025SOL    HW115974   5.201   1.220   3.334
 5025SOL    HW215975   5.299   1.341   3.287
 5026SOL     OW15976   5.863   5.538   4.662
 5026SOL    HW115977   5.904   5.571   4.747
 5026SOL    HW215978   5.878   5.440   4.653
 5027SOL     OW15979   0.237   6.567   3.184
 5027SOL    HW115980   0.305   6.607   3.246
 5027SOL    HW215981   0.274   6.484   3.143
 5028SOL     OW15982   0.378   6.322   2.278
 5028SOL    HW115983   0.458   6.289   2.229
 5028SOL    HW215984   0.398   6.412   2.318
 5029SOL     OW15985   0.294   2.806   1.500
 5029SOL    HW115986   0.194   2.804   1.497
 5029SOL    HW215987   0.329   2.713   1.488
 5030SOL     OW15988   6.563   0.299   6.700
 5030SOL    HW115989   6.634   0.366   6.723
 5030SOL    HW215990   6.600   0.207   6.710
 5031SOL     OW15991   5.871   0.740   4.114
 5031SOL    HW115992   5.952   0.736   4.173
 5031SOL    HW215993   5.804   0.803   4.152
 5032SOL     OW15994   1.704   5.187   0.779
 5032SOL    HW115995   1.762   5.269   0.782
 5032SOL    HW215996   1.738   5.121   0.846
 5033SOL     OW15997   2.603   4.526   5.637
 5033SOL    HW115998   2.555   4.516   5.724
 5033SOL    HW215999   2.537   4.539   5.563
 5034SOL     OW16000   6.412   2.195   2.253
 5034SOL    HW116001   6.356   2.270   2.287
 5034SOL    HW216002   6.364   2.150   2.177
 5035SOL     OW16003   4.590   5.397   0.491
 5035SOL    HW116004   4.684   5.375   0.516
 5035SOL    HW216005   4.589   5.437   0.399
 5036SOL     OW16006   0.914   6.177   0.509
 5036SOL    HW116007   0.974   6.104   0.477
 5036SOL    HW216008   0.836   6.188   0.447
 5037SOL     OW16009   3.925   1.631   3.497
 5037SOL    HW116010   3.997   1.699   3.504
 5037SOL    HW216011   3.894   1.605   3.588
 5038SOL     OW16012   1.411   5.958   5.820
 5038SOL    HW116013   1.495   5.944   5.768
 5038SOL    HW216014   1.351   5.879   5.809
 5039SOL     OW16015   2.261   2.996   5.445
 5039SOL    HW116016   2.325   3.010   5.521
 5039SOL    HW216017   2.312   2.982   5.361
 5040SOL     OW16018   2.920   3.454   6.567
 5040SOL    HW116019   2.946   3.411   6.653
 5040SOL    HW216020   3.002   3.467   6.510
 5041SOL     OW16021   0.981   3.547   1.598
 5041SOL    HW116022   0.888   3.531   1.564
 5041SOL    HW216023   0.992   3.643   1.623
 5042SOL     OW16024   5.539   3.694   6.465
 5042SOL    HW116025   5.609   3.628   6.436
 5042SOL    HW216026   5.517   3.678   6.561
 5043SOL     OW16027   3.533   0.848   3.890
 5043SOL    HW116028   3.532   0.778   3.818
 5043SOL    HW216029   3.541   0.938   3.848
 5044SOL     OW16030   6.218   5.972   3.849
 5044SOL    HW116031   6.132   5.930   3.878
 5044SOL    HW216032   6.283   5.973   3.925
 5045SOL     OW16033   6.029   3.616   0.243
 5045SOL    HW116034   5.963   3.670   0.296
 5045SOL    HW216035   6.122   3.644   0.267
 5046SOL     OW16036   3.557   3.033   5.141
 5046SOL    HW116037   3.649   3.043   5.103
 5046SOL    HW216038   3.561   3.042   5.241
 5047SOL     OW16039   6.110   0.232   2.846
 5047SOL    HW116040   6.106   0.201   2.941
 5047SOL    HW216041   6.163   0.167   2.791
 5048SOL     OW16042   0.020   2.268   1.952
 5048SOL    HW116043   0.045   2.333   2.024
 5048SOL    HW216044   6.947   2.267   1.941
 5049SOL     OW16045   1.241   1.893   1.914
 5049SOL    HW116046   1.203   1.925   1.827
 5049SOL    HW216047   1.167   1.854   1.970
 5050SOL     OW16048   0.574   2.203   1.542
 5050SOL    HW116049   0.560   2.130   1.475
 5050SOL    HW216050   0.498   2.268   1.536
 5051SOL     OW16051   2.916   4.123   1.062
 5051SOL    HW116052   2.946   4.028   1.050
 5051SOL    HW216053   2.822   4.123   1.097
 5052SOL     OW16054   4.216   5.058   0.708
 5052SOL    HW116055   4.222   5.119   0.629
 5052SOL    HW216056   4.305   5.015   0.724
 5053SOL     OW16057   2.564   4.126   1.662
 5053SOL    HW116058   2.478   4.132   1.713
 5053SOL    HW216059   2.607   4.216   1.659
 5054SOL     OW16060   3.486   6.122   4.676
 5054SOL    HW116061   3.566   6.142   4.621
 5054SOL    HW216062   3.443   6.037   4.644
 5055SOL     OW16063   0.980   2.164   4.898
 5055SOL    HW116064   0.892   2.118   4.884
 5055SOL    HW216065   1.034   2.159   4.814
 5056SOL     OW16066   0.309   3.863   5.782
 5056SOL    HW116067   0.345   3.887   5.692
 5056SOL    HW216068   0.379   3.814   5.834
 5057SOL     OW16069   0.895   6.187   3.724
 5057SOL    HW116070   0.876   6.282   3.701
 5057SOL    HW216071   0.867   6.128   3.648
 5058SOL     OW16072   4.208   4.010   6.548
 5058SOL    HW116073   4.112   4.031   6.564
 5058SOL    HW216074   4.222   3.911   6.548
 5059SOL     OW16075   3.731   2.061   5.307
 5059SOL    HW116076   3.668   1.995   5.347
 5059SOL    HW216077   3.724   2.059   5.207
 5060SOL     OW16078   0.493   3.540   5.237
 5060SOL    HW116079   0.487   3.529   5.138
 5060SOL    HW216080   0.586   3.518   5.268
 5061SOL     OW16081   3.473   3.703   4.618
 5061SOL    HW116082   3.502   3.729   4.711
 5061SOL    HW216083   3.519   3.762   4.552
 5062SOL     OW16084   4.925   1.205   2.800
 5062SOL    HW116085   4.912   1.291   2.850
 5062SOL    HW216086   4.966   1.137   2.862
 5063SOL     OW16087   1.225   6.225   2.334
 5063SOL    HW116088   1.202   6.228   2.237
 5063SOL    HW216089   1.204   6.314   2.376
 5064SOL     OW16090   4.608   5.680   0.644
 5064SOL    HW116091   4.654   5.656   0.730
 5064SOL    HW216092   4.519   5.634   0.640
 5065SOL     OW16093   2.378   6.774   3.270
 5065SOL    HW116094   2.326   6.786   3.185
 5065SOL    HW216095   2.469   6.738   3.249
 5066SOL     OW16096   1.949   4.808   1.890
 5066SOL    HW116097   1.866   4.781   1.938
 5066SOL    HW216098   1.990   4.887   1.936
 5067SOL     OW16099   4.303   2.167   1.638
 5067SOL    HW116100   4.254   2.240   1.686
 5067SOL    HW216101   4.346   2.107   1.706
 5068SOL     OW16102   3.673   6.121   0.512
 5068SOL    HW116103   3.654   6.067   0.595
 5068SOL    HW216104   3.704   6.060   0.439
 5069SOL     OW16105   2.927   4.285   6.512
 5069SOL    HW116106   2.960   4.310   6.422
 5069SOL    HW216107   2.976   4.338   6.582
 5070SOL     OW16108   5.662   3.167   4.071
 5070SOL    HW116109   5.600   3.089   4.060
 5070SOL    HW216110   5.755   3.134   4.088
 5071SOL     OW16111   3.654   1.320   3.598
 5071SOL    HW116112   3.630   1.396   3.659
 5071SOL    HW216113   3.698   1.356   3.516
 5072SOL     OW16114   1.500   1.091   1.233
 5072SOL    HW116115   1.405   1.081   1.265
 5072SOL    HW216116   1.553   1.011   1.262
 5073SOL     OW16117   2.929   6.509   2.541
 5073SOL    HW116118   2.846   6.457   2.522
 5073SOL    HW216119   2.975   6.469   2.621
 5074SOL     OW16120   3.963   2.070   1.630
 5074SOL    HW116121   3.997   1.976   1.633
 5074SOL    HW216122   3.978   2.113   1.719
 5075SOL     OW16123   1.821   3.498   6.893
 5075SOL    HW116124   1.764   3.417   6.902
 5075SOL    HW216125   1.905   3.486   6.945
 5076SOL     OW16126   5.292   1.170   0.447
 5076SOL    HW116127   5.258   1.181   0.540
 5076SOL    HW216128   5.259   1.246   0.390
 5077SOL     OW16129   1.406   4.632   4.562
 5077SOL    HW116130   1.478   4.639   4.631
 5077SOL    HW216131   1.425   4.694   4.487
 5078SOL     OW16132   0.495   1.189   4.020
 5078SOL    HW116133   0.552   1.184   3.938
 5078SOL    HW216134   0.542   1.241   4.091
 5079SOL     OW16135   1.871   2.622   5.915
 5079SOL    HW116136   1.871   2.567   5.999
 5079SOL    HW216137   1.852   2.564   5.836
 5080SOL     OW16138   6.240   5.340   6.140
 5080SOL    HW116139   6.163   5.300   6.191
 5080SOL    HW216140   6.271   5.275   6.071
 5081SOL     OW16141   3.715   6.311   5.077
 5081SOL    HW116142   3.641   6.263   5.029
 5081SOL    HW216143   3.695   6.314   5.175
 5082SOL     OW16144   4.926   6.451   0.871
 5082SOL    HW116145   4.989   6.389   0.918
 5082SOL    HW216146   4.847   6.400   0.840
 5083SOL     OW16147   2.590   0.529   2.496
 5083SOL    HW116148   2.657   0.601   2.478
 5083SOL    HW216149   2.636   0.450   2.535
 5084SOL     OW16150   0.813   5.185   5.237
 5084SOL    HW116151   0.839   5.119   5.165
 5084SOL    HW216152   0.787   5.271   5.194
 5085SOL     OW16153   1.409   3.686   6.205
 5085SOL    HW116154   1.346   3.763   6.201
 5085SOL    HW216155   1.486   3.701   6.143
 5086SOL     OW16156   1.004   4.796   2.357
 5086SOL    HW116157   1.070   4.726   2.385
 5086SOL    HW216158   0.955   4.765   2.276
 5087SOL     OW16159   6.754   5.624   2.396
 5087SOL    HW116160   6.771   5.539   2.446
 5087SOL    HW216161   6.672   5.668   2.433
 5088SOL     OW16162   4.271   6.144   2.085
 5088SOL    HW116163   4.249   6.168   1.990
 5088SOL    HW216164   4.370   6.132   2.093
 5089SOL     OW16165   5.453   3.808   4.508
 5089SOL    HW116166   5.440   3.868   4.428
 5089SOL    HW216167   5.452   3.713   4.478
 5090SOL     OW16168   1.639   0.227   3.293
 5090SOL    HW116169   1.543   0.244   3.317
 5090SOL    HW216170   1.645   0.197   3.198
 5091SOL     OW16171   6.549   6.998   0.235
 5091SOL    HW116172   6.552   0.039   0.309
 5091SOL    HW216173   6.529   6.908   0.272
 5092SOL     OW16174   3.543   3.873   4.401
 5092SOL    HW116175   3.598   3.955   4.415
 5092SOL    HW216176   3.549   3.844   4.306
 5093SOL     OW16177   1.831   1.203   2.930
 5093SOL    HW116178   1.733   1.201   2.911
 5093SOL    HW216179   1.877   1.259   2.860
 5094SOL     OW16180   2.643   5.512   6.341
 5094SOL    HW116181   2.740   5.536   6.342
 5094SOL    HW216182   2.631   5.420   6.303
 5095SOL     OW16183   0.481   1.208   3.453
 5095SOL    HW116184   0.385   1.195   3.431
 5095SOL    HW216185   0.491   1.276   3.525
 5096SOL     OW16186   5.274   3.974   5.955
 5096SOL    HW116187   5.268   4.073   5.942
 5096SOL    HW216188   5.214   3.947   6.030
 5097SOL     OW16189   6.381   0.073   6.265
 5097SOL    HW116190   6.448   0.117   6.205
 5097SOL    HW216191   6.427   0.040   6.348
 5098SOL     OW16192   3.707   1.914   2.016
 5098SOL    HW116193   3.712   1.899   2.115
 5098SOL    HW216194   3.692   2.012   1.998
 5099SOL     OW16195   0.566   5.995   1.381
 5099SOL    HW116196   0.496   6.059   1.350
 5099SOL    HW216197   0.526   5.903   1.389
 5100SOL     OW16198   5.076   4.753   2.861
 5100SOL    HW116199   5.084   4.731   2.958
 5100SOL    HW216200   5.000   4.702   2.821
 5101SOL     OW16201   4.005   0.161   5.726
 5101SOL    HW116202   3.935   0.226   5.695
 5101SOL    HW216203   4.092   0.182   5.681
 5102SOL     OW16204   4.825   5.336   4.074
 5102SOL    HW116205   4.764   5.305   4.146
 5102SOL    HW216206   4.910   5.370   4.115
 5103SOL     OW16207   0.949   0.822   5.167
 5103SOL    HW116208   0.968   0.921   5.169
 5103SOL    HW216209   0.855   0.807   5.138
 5104SOL     OW16210   3.541   5.976   1.990
 5104SOL    HW116211   3.562   6.073   1.995
 5104SOL    HW216212   3.619   5.926   1.952
 5105SOL     OW16213   3.527   3.453   6.965
 5105SOL    HW116214   3.528   3.431   0.037
 5105SOL    HW216215   3.432   3.462   6.935
 5106SOL     OW16216   4.178   2.426   0.671
 5106SOL    HW116217   4.109   2.369   0.715
 5106SOL    HW216218   4.141   2.517   0.655
 5107SOL     OW16219   5.196   2.557   1.385
 5107SOL    HW116220   5.193   2.653   1.414
 5107SOL    HW216221   5.103   2.520   1.384
 5108SOL     OW16222   4.577   4.047   6.190
 5108SOL    HW116223   4.643   4.066   6.262
 5108SOL    HW216224   4.485   4.072   6.221
 5109SOL     OW16225   1.971   3.083   1.419
 5109SOL    HW116226   1.976   3.179   1.391
 5109SOL    HW216227   2.063   3.046   1.428
 5110SOL     OW16228   6.015   6.955   6.324
 5110SOL    HW116229   6.078   6.980   6.250
 5110SOL    HW216230   5.948   6.889   6.289
 5111SOL     OW16231   1.370   5.947   5.021
 5111SOL    HW116232   1.442   5.887   5.058
 5111SOL    HW216233   1.284   5.897   5.017
 5112SOL     OW16234   0.622   0.236   3.000
 5112SOL    HW116235   0.690   0.307   3.016
 5112SOL    HW216236   0.561   0.229   3.079
 5113SOL     OW16237   1.899   4.987   0.882
 5113SOL    HW116238   1.877   4.893   0.855
 5113SOL    HW216239   1.997   4.997   0.892
 5114SOL     OW16240   4.046   0.123   0.555
 5114SOL    HW116241   4.019   0.047   0.615
 5114SOL    HW216242   4.111   0.182   0.602
 5115SOL     OW16243   2.025   3.774   1.680
 5115SOL    HW116244   2.112   3.820   1.662
 5115SOL    HW216245   2.043   3.681   1.714
 5116SOL     OW16246   2.847   6.938   6.480
 5116SOL    HW116247   2.835   6.862   6.543
 5116SOL    HW216248   2.797   6.920   6.395
 5117SOL     OW16249   0.947   2.898   4.082
 5117SOL    HW116250   0.985   2.933   4.168
 5117SOL    HW216251   0.981   2.805   4.067
 5118SOL     OW16252   5.965   0.521   0.183
 5118SOL    HW116253   5.910   0.485   0.258
 5118SOL    HW216254   6.050   0.468   0.176
 5119SOL     OW16255   5.417   2.106   0.240
 5119SOL    HW116256   5.362   2.092   0.322
 5119SOL    HW216257   5.358   2.111   0.160
 5120SOL     OW16258   5.333   0.723   5.079
 5120SOL    HW116259   5.404   0.731   5.009
 5120SOL    HW216260   5.322   0.627   5.105
 5121SOL     OW16261   3.135   3.914   0.042
 5121SOL    HW116262   3.228   3.894   0.072
 5121SOL    HW216263   3.081   3.946   0.121
 5122SOL     OW16264   4.037   5.538   2.941
 5122SOL    HW116265   4.048   5.523   2.843
 5122SOL    HW216266   3.946   5.507   2.970
 5123SOL     OW16267   5.428   1.924   2.291
 5123SOL    HW116268   5.391   1.841   2.250
 5123SOL    HW216269   5.388   2.004   2.246
 5124SOL     OW16270   1.785   6.558   4.078
 5124SOL    HW116271   1.700   6.611   4.075
 5124SOL    HW216272   1.839   6.587   4.158
 5125SOL     OW16273   0.544   2.016   3.843
 5125SOL    HW116274   0.601   1.962   3.904
 5125SOL    HW216275   0.459   2.041   3.890
 5126SOL     OW16276   1.751   7.007   0.534
 5126SOL    HW116277   1.770   6.955   0.451
 5126SOL    HW216278   1.706   6.947   0.601
 5127SOL     OW16279   2.062   5.587   0.465
 5127SOL    HW116280   1.969   5.558   0.442
 5127SOL    HW216281   2.080   5.677   0.424
 5128SOL     OW16282   6.956   5.994   1.239
 5128SOL    HW116283   6.857   6.009   1.242
 5128SOL    HW216284   6.986   5.955   1.326
 5129SOL     OW16285   4.548   5.889   1.332
 5129SOL    HW116286   4.486   5.874   1.256
 5129SOL    HW216287   4.501   5.942   1.403
 5130SOL     OW16288   6.570   4.742   2.730
 5130SOL    HW116289   6.486   4.795   2.718
 5130SOL    HW216290   6.577   4.674   2.657
 5131SOL     OW16291   0.640   3.003   3.372
 5131SOL    HW116292   0.585   2.933   3.326
 5131SOL    HW216293   0.736   2.975   3.373
 5132SOL     OW16294   3.708   4.385   6.370
 5132SOL    HW116295   3.720   4.288   6.391
 5132SOL    HW216296   3.669   4.431   6.450
 5133SOL     OW16297   3.432   5.460   6.763
 5133SOL    HW116298   3.498   5.536   6.768
 5133SOL    HW216299   3.475   5.377   6.799
 5134SOL     OW16300   0.454   3.074   1.122
 5134SOL    HW116301   0.442   2.985   1.077
 5134SOL    HW216302   0.549   3.084   1.150
 5135SOL     OW16303   7.004   2.325   5.477
 5135SOL    HW116304   0.050   2.256   5.479
 5135SOL    HW216305   7.023   2.396   5.545
 5136SOL     OW16306   5.311   0.437   4.679
 5136SOL    HW116307   5.317   0.339   4.662
 5136SOL    HW216308   5.366   0.461   4.760
 5137SOL     OW16309   5.262   3.765   6.390
 5137SOL    HW116310   5.359   3.755   6.410
 5137SOL    HW216311   5.244   3.737   6.295
 5138SOL     OW16312   3.789   3.240   6.564
 5138SOL    HW116313   3.721   3.224   6.493
 5138SOL    HW216314   3.814   3.153   6.607
 5139SOL     OW16315   1.871   6.925   4.138
 5139SOL    HW116316   1.903   6.875   4.218
 5139SOL    HW216317   1.800   6.990   4.166
 5140SOL     OW16318   2.962   1.827   0.518
 5140SOL    HW116319   3.004   1.917   0.521
 5140SOL    HW216320   2.864   1.834   0.538
 5141SOL     OW16321   5.527   3.951   1.412
 5141SOL    HW116322   5.528   3.979   1.508
 5141SOL    HW216323   5.456   3.883   1.397
 5142SOL     OW16324   5.963   2.986   4.554
 5142SOL    HW116325   6.062   2.985   4.545
 5142SOL    HW216326   5.929   2.893   4.565
 5143SOL     OW16327   1.115   4.776   4.132
 5143SOL    HW116328   1.111   4.854   4.194
 5143SOL    HW216329   1.153   4.805   4.044
 5144SOL     OW16330   1.442   6.640   6.455
 5144SOL    HW116331   1.414   6.633   6.551
 5144SOL    HW216332   1.540   6.660   6.450
 5145SOL     OW16333   2.044   5.439   6.576
 5145SOL    HW116334   1.950   5.469   6.558
 5145SOL    HW216335   2.057   5.425   6.674
 5146SOL     OW16336   3.618   3.838   6.542
 5146SOL    HW116337   3.595   3.741   6.536
 5146SOL    HW216338   3.545   3.892   6.503
 5147SOL     OW16339   6.842   4.664   1.095
 5147SOL    HW116340   6.844   4.594   1.166
 5147SOL    HW216341   6.934   4.702   1.083
 5148SOL     OW16342   0.164   5.996   1.092
 5148SOL    HW116343   0.079   5.985   1.145
 5148SOL    HW216344   0.237   6.025   1.153
 5149SOL     OW16345   6.438   0.423   3.419
 5149SOL    HW116346   6.447   0.462   3.327
 5149SOL    HW216347   6.345   0.390   3.432
 5150SOL     OW16348   1.954   5.780   4.036
 5150SOL    HW116349   1.939   5.799   4.133
 5150SOL    HW216350   2.046   5.809   4.011
 5151SOL     OW16351   5.363   1.555   6.612
 5151SOL    HW116352   5.421   1.478   6.639
 5151SOL    HW216353   5.420   1.628   6.574
 5152SOL     OW16354   1.725   5.013   0.304
 5152SOL    HW116355   1.776   5.003   0.390
 5152SOL    HW216356   1.635   5.051   0.324
 5153SOL     OW16357   2.011   2.297   0.530
 5153SOL    HW116358   2.083   2.365   0.523
 5153SOL    HW216359   2.043   2.220   0.586
 5154SOL     OW16360   1.867   3.483   6.163
 5154SOL    HW116361   1.777   3.484   6.208
 5154SOL    HW216362   1.930   3.426   6.215
 5155SOL     OW16363   3.947   5.903   2.078
 5155SOL    HW116364   3.910   5.881   2.168
 5155SOL    HW216365   4.002   5.827   2.044
 5156SOL     OW16366   6.653   2.355   6.361
 5156SOL    HW116367   6.661   2.258   6.337
 5156SOL    HW216368   6.582   2.397   6.305
 5157SOL     OW16369   4.765   2.927   3.753
 5157SOL    HW116370   4.846   2.896   3.704
 5157SOL    HW216371   4.701   2.850   3.764
 5158SOL     OW16372   3.257   1.782   1.199
 5158SOL    HW116373   3.158   1.797   1.210
 5158SOL    HW216374   3.306   1.834   1.268
 5159SOL     OW16375   0.374   3.136   3.887
 5159SOL    HW116376   0.404   3.095   3.800
 5159SOL    HW216377   0.342   3.229   3.871
 5160SOL     OW16378   1.363   3.645   4.276
 5160SOL    HW116379   1.351   3.653   4.177
 5160SOL    HW216380   1.451   3.601   4.295
 5161SOL     OW16381   1.281   4.285   5.636
 5161SOL    HW116382   1.292   4.232   5.552
 5161SOL    HW216383   1.267   4.223   5.713
 5162SOL     OW16384   6.789   4.990   4.171
 5162SOL    HW116385   6.776   5.085   4.199
 5162SOL    HW216386   6.887   4.970   4.167
 5163SOL     OW16387   4.879   5.101   1.132
 5163SOL    HW116388   4.790   5.145   1.144
 5163SOL    HW216389   4.869   5.002   1.148
 5164SOL     OW16390   5.389   2.562   5.244
 5164SOL    HW116391   5.336   2.636   5.287
 5164SOL    HW216392   5.486   2.584   5.249
 5165SOL     OW16393   6.028   4.604   5.076
 5165SOL    HW116394   6.048   4.517   5.031
 5165SOL    HW216395   6.102   4.668   5.058
 5166SOL     OW16396   1.640   4.928   1.789
 5166SOL    HW116397   1.547   4.962   1.777
 5166SOL    HW216398   1.701   4.972   1.723
 5167SOL     OW16399   6.294   6.514   5.593
 5167SOL    HW116400   6.323   6.586   5.530
 5167SOL    HW216401   6.357   6.511   5.671
 5168SOL     OW16402   4.289   2.275   3.268
 5168SOL    HW116403   4.374   2.289   3.319
 5168SOL    HW216404   4.281   2.347   3.198
 5169SOL     OW16405   3.404   3.971   6.457
 5169SOL    HW116406   3.420   4.045   6.391
 5169SOL    HW216407   3.325   3.993   6.513
 5170SOL     OW16408   6.817   4.206   5.035
 5170SOL    HW116409   6.749   4.248   5.096
 5170SOL    HW216410   6.891   4.271   5.018
 5171SOL     OW16411   2.530   4.560   4.553
 5171SOL    HW116412   2.528   4.470   4.509
 5171SOL    HW216413   2.524   4.548   4.652
 5172SOL     OW16414   0.545   3.143   1.794
 5172SOL    HW116415   0.627   3.189   1.828
 5172SOL    HW216416   0.465   3.200   1.814
 5173SOL     OW16417   5.488   4.522   6.108
 5173SOL    HW116418   5.430   4.454   6.154
 5173SOL    HW216419   5.576   4.528   6.157
 5174SOL     OW16420   1.933   5.019   5.024
 5174SOL    HW116421   1.875   5.098   5.005
 5174SOL    HW216422   2.029   5.048   5.029
 5175SOL     OW16423   2.040   4.220   6.940
 5175SOL    HW116424   1.950   4.232   6.899
 5175SOL    HW216425   2.102   4.178   6.874
 5176SOL     OW16426   4.419   3.256   0.472
 5176SOL    HW116427   4.339   3.301   0.511
 5176SOL    HW216428   4.485   3.325   0.443
 5177SOL     OW16429   4.735   6.931   5.516
 5177SOL    HW116430   4.813   6.883   5.557
 5177SOL    HW216431   4.678   6.969   5.588
 5178SOL     OW16432   2.316   2.689   1.488
 5178SOL    HW116433   2.366   2.604   1.472
 5178SOL    HW216434   2.378   2.759   1.522
 5179SOL     OW16435   4.560   6.554   5.392
 5179SOL    HW116436   4.471   6.578   5.352
 5179SOL    HW216437   4.586   6.623   5.459
 5180SOL     OW16438   3.444   2.450   0.031
 5180SOL    HW116439   3.487   2.541   0.028
 5180SOL    HW216440   3.514   2.380   0.023
 5181SOL     OW16441   3.603   0.348   2.762
 5181SOL    HW116442   3.547   0.423   2.726
 5181SOL    HW216443   3.563   0.260   2.733
 5182SOL     OW16444   5.669   4.818   1.640
 5182SOL    HW116445   5.573   4.792   1.651
 5182SOL    HW216446   5.728   4.747   1.679
 5183SOL     OW16447   4.402   0.019   1.873
 5183SOL    HW116448   4.367   6.952   1.859
 5183SOL    HW216449   4.485   0.015   1.927
 5184SOL     OW16450   0.904   1.280   3.280
 5184SOL    HW116451   0.893   1.181   3.271
 5184SOL    HW216452   0.881   1.308   3.373
 5185SOL     OW16453   3.769   6.754   2.382
 5185SOL    HW116454   3.857   6.707   2.388
 5185SOL    HW216455   3.755   6.788   2.289
 5186SOL     OW16456   6.405   3.534   1.280
 5186SOL    HW116457   6.426   3.618   1.229
 5186SOL    HW216458   6.453   3.457   1.237
 5187SOL     OW16459   6.807   1.842   3.107
 5187SOL    HW116460   6.757   1.845   3.020
 5187SOL    HW216461   6.898   1.881   3.094
 5188SOL     OW16462   0.229   5.274   7.014
 5188SOL    HW116463   0.328   5.289   7.022
 5188SOL    HW216464   0.183   5.308   0.070
 5189SOL     OW16465   5.067   5.002   6.440
 5189SOL    HW116466   5.121   4.921   6.463
 5189SOL    HW216467   5.122   5.084   6.452
 5190SOL     OW16468   0.735   2.139   4.194
 5190SOL    HW116469   0.774   2.079   4.124
 5190SOL    HW216470   0.657   2.094   4.237
 5191SOL     OW16471   3.413   1.656   2.306
 5191SOL    HW116472   3.331   1.598   2.302
 5191SOL    HW216473   3.467   1.643   2.223
 5192SOL     OW16474   5.393   5.657   2.763
 5192SOL    HW116475   5.346   5.741   2.789
 5192SOL    HW216476   5.488   5.660   2.794
 5193SOL     OW16477   4.789   4.494   3.627
 5193SOL    HW116478   4.714   4.534   3.680
 5193SOL    HW216479   4.875   4.535   3.655
 5194SOL     OW16480   4.792   1.219   5.890
 5194SOL    HW116481   4.705   1.261   5.865
 5194SOL    HW216482   4.798   1.128   5.849
 5195SOL     OW16483   6.470   6.855   4.866
 5195SOL    HW116484   6.458   6.759   4.840
 5195SOL    HW216485   6.564   6.869   4.897
 5196SOL     OW16486   0.851   4.323   1.887
 5196SOL    HW116487   0.868   4.260   1.962
 5196SOL    HW216488   0.835   4.415   1.923
 5197SOL     OW16489   1.944   6.582   4.968
 5197SOL    HW116490   1.987   6.538   5.047
 5197SOL    HW216491   1.989   6.550   4.884
 5198SOL     OW16492   3.015   6.469   5.112
 5198SOL    HW116493   2.967   6.428   5.034
 5198SOL    HW216494   2.991   6.566   5.118
 5199SOL     OW16495   1.993   5.729   1.499
 5199SOL    HW116496   1.907   5.773   1.472
 5199SOL    HW216497   1.973   5.645   1.549
 5200SOL     OW16498   0.825   1.682   4.747
 5200SOL    HW116499   0.893   1.653   4.814
 5200SOL    HW216500   0.871   1.707   4.661
 5201SOL     OW16501   5.558   4.949   3.969
 5201SOL    HW116502   5.612   4.890   4.029
 5201SOL    HW216503   5.509   4.892   3.903
 5202SOL     OW16504   4.892   3.348   6.894
 5202SOL    HW116505   4.829   3.271   6.898
 5202SOL    HW216506   4.843   3.429   6.861
 5203SOL     OW16507   1.435   0.288   0.399
 5203SOL    HW116508   1.385   0.375   0.398
 5203SOL    HW216509   1.468   0.268   0.306
 5204SOL     OW16510   3.610   0.040   6.460
 5204SOL    HW116511   3.513   0.015   6.453
 5204SOL    HW216512   3.627   0.123   6.408
 5205SOL     OW16513   6.440   5.828   0.962
 5205SOL    HW116514   6.401   5.917   0.939
 5205SOL    HW216515   6.365   5.763   0.981
 5206SOL     OW16516   0.334   4.550   4.829
 5206SOL    HW116517   0.387   4.467   4.842
 5206SOL    HW216518   0.328   4.599   4.916
 5207SOL     OW16519   0.112   0.034   4.460
 5207SOL    HW116520   0.146   0.101   4.526
 5207SOL    HW216521   0.012   0.043   4.451
 5208SOL     OW16522   4.927   2.430   0.270
 5208SOL    HW116523   4.869   2.354   0.299
 5208SOL    HW216524   4.889   2.470   0.186
 5209SOL     OW16525   5.039   6.573   3.380
 5209SOL    HW116526   4.946   6.609   3.377
 5209SOL    HW216527   5.081   6.596   3.467
 5210SOL     OW16528   5.272   4.540   1.081
 5210SOL    HW116529   5.245   4.635   1.070
 5210SOL    HW216530   5.364   4.535   1.120
 5211SOL     OW16531   4.859   1.968   4.092
 5211SOL    HW116532   4.790   1.989   4.162
 5211SOL    HW216533   4.947   2.004   4.121
 5212SOL     OW16534   1.259   2.686   0.674
 5212SOL    HW116535   1.246   2.763   0.737
 5212SOL    HW216536   1.332   2.627   0.709
 5213SOL     OW16537   4.088   3.206   2.898
 5213SOL    HW116538   3.996   3.231   2.869
 5213SOL    HW216539   4.097   3.106   2.896
 5214SOL     OW16540   5.319   4.423   6.474
 5214SOL    HW116541   5.237   4.399   6.526
 5214SOL    HW216542   5.307   4.396   6.378
 5215SOL     OW16543   6.772   3.325   4.536
 5215SOL    HW116544   6.848   3.309   4.473
 5215SOL    HW216545   6.804   3.311   4.630
 5216SOL     OW16546   5.707   4.684   1.063
 5216SOL    HW116547   5.767   4.730   1.129
 5216SOL    HW216548   5.616   4.724   1.067
 5217SOL     OW16549   4.259   5.660   3.841
 5217SOL    HW116550   4.280   5.756   3.823
 5217SOL    HW216551   4.327   5.622   3.904
 5218SOL     OW16552   0.908   0.449   0.876
 5218SOL    HW116553   0.809   0.442   0.866
 5218SOL    HW216554   0.953   0.376   0.824
 5219SOL     OW16555   2.302   2.156   5.062
 5219SOL    HW116556   2.360   2.223   5.108
 5219SOL    HW216557   2.354   2.110   4.991
 5220SOL     OW16558   2.563   5.089   2.977
 5220SOL    HW116559   2.575   5.127   2.885
 5220SOL    HW216560   2.483   5.130   3.020
 5221SOL     OW16561   6.881   0.357   1.604
 5221SOL    HW116562   6.969   0.396   1.578
 5221SOL    HW216563   6.885   0.257   1.598
 5222SOL     OW16564   4.080   4.625   1.295
 5222SOL    HW116565   4.072   4.717   1.334
 5222SOL    HW216566   4.167   4.584   1.323
 5223SOL     OW16567   0.435   2.911   0.814
 5223SOL    HW116568   0.382   2.833   0.848
 5223SOL    HW216569   0.404   2.935   0.722
 5224SOL     OW16570   0.746   1.620   4.377
 5224SOL    HW116571   0.669   1.615   4.440
 5224SOL    HW216572   0.803   1.699   4.400
 5225SOL     OW16573   6.682   1.386   5.008
 5225SOL    HW116574   6.660   1.386   4.910
 5225SOL    HW216575   6.781   1.376   5.019
 5226SOL     OW16576   0.515   5.745   3.765
 5226SOL    HW116577   0.536   5.648   3.779
 5226SOL    HW216578   0.527   5.768   3.669
 5227SOL     OW16579   6.865   3.249   5.200
 5227SOL    HW116580   6.823   3.326   5.150
 5227SOL    HW216581   6.932   3.285   5.265
 5228SOL     OW16582   1.599   2.851   5.486
 5228SOL    HW116583   1.627   2.940   5.450
 5228SOL    HW216584   1.607   2.852   5.586
 5229SOL     OW16585   3.223   0.244   6.361
 5229SOL    HW116586   3.151   0.176   6.347
 5229SOL    HW216587   3.205   0.294   6.445
 5230SOL     OW16588   6.678   0.366   1.770
 5230SOL    HW116589   6.767   0.401   1.740
 5230SOL    HW216590   6.657   0.282   1.720
 5231SOL     OW16591   5.628   1.894   2.749
 5231SOL    HW116592   5.714   1.885   2.698
 5231SOL    HW216593   5.629   1.833   2.828
 5232SOL     OW16594   2.119   3.873   5.975
 5232SOL    HW116595   2.055   3.819   5.919
 5232SOL    HW216596   2.087   3.968   5.980
 5233SOL     OW16597   3.025   0.275   2.649
 5233SOL    HW116598   3.014   0.177   2.631
 5233SOL    HW216599   3.116   0.305   2.620
 5234SOL     OW16600   1.841   2.103   0.827
 5234SOL    HW116601   1.917   2.094   0.762
 5234SOL    HW216602   1.876   2.140   0.913
 5235SOL     OW16603   2.314   1.568   1.107
 5235SOL    HW116604   2.374   1.525   1.174
 5235SOL    HW216605   2.307   1.666   1.126
 5236SOL     OW16606   3.540   5.252   2.057
 5236SOL    HW116607   3.498   5.329   2.105
 5236SOL    HW216608   3.489   5.168   2.078
 5237SOL     OW16609   1.939   2.454   4.609
 5237SOL    HW116610   2.009   2.425   4.675
 5237SOL    HW216611   1.888   2.531   4.646
 5238SOL     OW16612   1.246   5.369   2.712
 5238SOL    HW116613   1.209   5.365   2.619
 5238SOL    HW216614   1.190   5.312   2.773
 5239SOL     OW16615   2.896   3.712   1.801
 5239SOL    HW116616   2.982   3.672   1.771
 5239SOL    HW216617   2.913   3.776   1.876
 5240SOL     OW16618   2.828   2.831   6.127
 5240SOL    HW116619   2.829   2.744   6.078
 5240SOL    HW216620   2.862   2.818   6.220
 5241SOL     OW16621   0.921   5.968   2.475
 5241SOL    HW116622   0.884   5.924   2.557
 5241SOL    HW216623   0.867   5.939   2.396
 5242SOL     OW16624   4.732   0.866   0.660
 5242SOL    HW116625   4.656   0.829   0.607
 5242SOL    HW216626   4.752   0.959   0.629
 5243SOL     OW16627   1.875   6.062   1.583
 5243SOL    HW116628   1.843   5.983   1.635
 5243SOL    HW216629   1.953   6.036   1.526
 5244SOL     OW16630   4.820   3.901   0.518
 5244SOL    HW116631   4.754   3.857   0.459
 5244SOL    HW216632   4.884   3.833   0.554
 5245SOL     OW16633   4.179   4.192   6.887
 5245SOL    HW116634   4.193   4.286   6.916
 5245SOL    HW216635   4.263   4.156   6.847
 5246SOL     OW16636   6.881   2.663   1.351
 5246SOL    HW116637   6.814   2.641   1.422
 5246SOL    HW216638   6.874   2.760   1.326
 5247SOL     OW16639   3.852   1.770   5.917
 5247SOL    HW116640   3.852   1.735   6.010
 5247SOL    HW216641   3.791   1.714   5.860
 5248SOL     OW16642   6.516   1.826   2.652
 5248SOL    HW116643   6.587   1.788   2.592
 5248SOL    HW216644   6.475   1.906   2.608
 5249SOL     OW16645   0.707   4.703   0.175
 5249SOL    HW116646   0.805   4.687   0.187
 5249SOL    HW216647   0.657   4.621   0.199
 5250SOL     OW16648   1.983   5.744   0.118
 5250SOL    HW116649   1.994   5.778   0.212
 5250SOL    HW216650   1.900   5.689   0.112
 5251SOL     OW16651   0.782   3.972   1.030
 5251SOL    HW116652   0.775   3.889   0.975
 5251SOL    HW216653   0.696   4.023   1.025
 5252SOL     OW16654   3.471   6.478   2.254
 5252SOL    HW116655   3.446   6.453   2.348
 5252SOL    HW216656   3.390   6.513   2.207
 5253SOL     OW16657   5.636   4.708   4.689
 5253SOL    HW116658   5.612   4.733   4.782
 5253SOL    HW216659   5.679   4.618   4.688
 5254SOL     OW16660   6.062   6.886   2.934
 5254SOL    HW116661   6.127   6.811   2.926
 5254SOL    HW216662   5.969   6.849   2.931
 5255SOL     OW16663   5.781   1.873   4.931
 5255SOL    HW116664   5.868   1.918   4.950
 5255SOL    HW216665   5.709   1.942   4.925
 5256SOL     OW16666   5.070   0.551   3.214
 5256SOL    HW116667   5.077   0.525   3.310
 5256SOL    HW216668   5.162   0.560   3.176
 5257SOL     OW16669   3.940   0.616   6.662
 5257SOL    HW116670   4.002   0.537   6.665
 5257SOL    HW216671   3.846   0.584   6.672
 5258SOL     OW16672   5.311   1.235   2.645
 5258SOL    HW116673   5.357   1.156   2.685
 5258SOL    HW216674   5.374   1.284   2.585
 5259SOL     OW16675   5.011   5.183   2.984
 5259SOL    HW116676   4.930   5.239   3.001
 5259SOL    HW216677   5.008   5.149   2.890
 5260SOL     OW16678   2.550   6.402   0.320
 5260SOL    HW116679   2.519   6.426   0.228
 5260SOL    HW216680   2.524   6.474   0.384
 5261SOL     OW16681   6.650   4.844   0.677
 5261SOL    HW116682   6.663   4.792   0.593
 5261SOL    HW216683   6.605   4.931   0.656
 5262SOL     OW16684   2.002   0.137   2.431
 5262SOL    HW116685   2.083   0.160   2.484
 5262SOL    HW216686   1.970   0.218   2.382
 5263SOL     OW16687   1.736   1.204   3.614
 5263SOL    HW116688   1.659   1.140   3.625
 5263SOL    HW216689   1.712   1.273   3.545
 5264SOL     OW16690   0.271   2.022   1.539
 5264SOL    HW116691   0.189   1.968   1.519
 5264SOL    HW216692   0.339   1.965   1.583
 5265SOL     OW16693   5.441   2.877   4.578
 5265SOL    HW116694   5.521   2.901   4.632
 5265SOL    HW216695   5.447   2.920   4.488
 5266SOL     OW16696   2.426   6.551   0.563
 5266SOL    HW116697   2.360   6.614   0.603
 5266SOL    HW216698   2.469   6.497   0.635
 5267SOL     OW16699   4.456   2.451   4.322
 5267SOL    HW116700   4.543   2.453   4.273
 5267SOL    HW216701   4.472   2.476   4.418
 5268SOL     OW16702   5.556   1.302   6.655
 5268SOL    HW116703   5.579   1.205   6.644
 5268SOL    HW216704   5.602   1.355   6.584
 5269SOL     OW16705   0.324   6.528   2.481
 5269SOL    HW116706   0.334   6.623   2.453
 5269SOL    HW216707   0.352   6.518   2.576
 5270SOL     OW16708   6.855   2.079   0.168
 5270SOL    HW116709   6.894   2.118   0.085
 5270SOL    HW216710   6.790   2.007   0.145
 5271SOL     OW16711   6.126   5.643   4.553
 5271SOL    HW116712   6.214   5.595   4.558
 5271SOL    HW216713   6.058   5.592   4.605
 5272SOL     OW16714   3.939   0.033   0.322
 5272SOL    HW116715   3.998   0.055   0.400
 5272SOL    HW216716   3.973   0.081   0.241
 5273SOL     OW16717   1.259   3.281   2.889
 5273SOL    HW116718   1.213   3.192   2.883
 5273SOL    HW216719   1.351   3.269   2.924
 5274SOL     OW16720   5.055   5.915   2.538
 5274SOL    HW116721   5.010   5.942   2.623
 5274SOL    HW216722   5.001   5.844   2.493
 5275SOL     OW16723   3.149   0.593   0.800
 5275SOL    HW116724   3.140   0.583   0.701
 5275SOL    HW216725   3.247   0.595   0.823
 5276SOL     OW16726   2.735   6.569   1.687
 5276SOL    HW116727   2.667   6.534   1.623
 5276SOL    HW216728   2.749   6.502   1.760
 5277SOL     OW16729   1.953   1.237   2.485
 5277SOL    HW116730   1.914   1.304   2.422
 5277SOL    HW216731   2.036   1.198   2.445
 5278SOL     OW16732   4.188   5.115   2.009
 5278SOL    HW116733   4.273   5.110   1.956
 5278SOL    HW216734   4.210   5.132   2.105
 5279SOL     OW16735   2.323   5.745   1.158
 5279SOL    HW116736   2.298   5.664   1.212
 5279SOL    HW216737   2.251   5.764   1.091
 5280SOL     OW16738   3.456   6.245   4.932
 5280SOL    HW116739   3.459   6.217   4.836
 5280SOL    HW216740   3.362   6.238   4.966
 5281SOL     OW16741   0.374   1.946   2.545
 5281SOL    HW116742   0.433   2.024   2.564
 5281SOL    HW216743   0.430   1.869   2.514
 5282SOL     OW16744   2.532   2.024   3.206
 5282SOL    HW116745   2.440   2.012   3.170
 5282SOL    HW216746   2.569   2.112   3.175
 5283SOL     OW16747   5.241   5.673   0.519
 5283SOL    HW116748   5.289   5.670   0.607
 5283SOL    HW216749   5.160   5.732   0.527
 5284SOL     OW16750   5.387   3.886   3.063
 5284SOL    HW116751   5.432   3.797   3.047
 5284SOL    HW216752   5.290   3.871   3.080
 5285SOL     OW16753   2.977   5.107   3.966
 5285SOL    HW116754   3.072   5.080   3.976
 5285SOL    HW216755   2.953   5.176   4.034
 5286SOL     OW16756   1.495   4.117   1.399
 5286SOL    HW116757   1.437   4.160   1.330
 5286SOL    HW216758   1.440   4.058   1.457
 5287SOL     OW16759   2.447   1.298   0.503
 5287SOL    HW116760   2.517   1.228   0.493
 5287SOL    HW216761   2.356   1.255   0.501
 5288SOL     OW16762   2.941   0.288   1.159
 5288SOL    HW116763   2.903   0.217   1.100
 5288SOL    HW216764   3.024   0.325   1.118
 5289SOL     OW16765   1.083   5.255   0.915
 5289SOL    HW116766   1.012   5.184   0.918
 5289SOL    HW216767   1.045   5.342   0.947
 5290SOL     OW16768   3.411   5.598   0.294
 5290SOL    HW116769   3.357   5.524   0.335
 5290SOL    HW216770   3.417   5.674   0.358
 5291SOL     OW16771   2.169   5.112   5.547
 5291SOL    HW116772   2.071   5.092   5.554
 5291SOL    HW216773   2.214   5.038   5.498
 5292SOL     OW16774   5.086   3.234   6.221
 5292SOL    HW116775   5.091   3.165   6.294
 5292SOL    HW216776   5.064   3.323   6.261
 5293SOL     OW16777   0.550   0.298   3.998
 5293SOL    HW116778   0.551   0.231   4.072
 5293SOL    HW216779   0.462   0.344   3.995
 5294SOL     OW16780   6.071   3.113   6.251
 5294SOL    HW116781   6.037   3.058   6.327
 5294SOL    HW216782   6.071   3.210   6.277
 5295SOL     OW16783   6.120   0.593   3.076
 5295SOL    HW116784   6.113   0.588   2.976
 5295SOL    HW216785   6.088   0.508   3.116
 5296SOL     OW16786   1.082   4.499   0.788
 5296SOL    HW116787   1.043   4.547   0.867
 5296SOL    HW216788   1.050   4.404   0.788
 5297SOL     OW16789   1.974   1.362   1.557
 5297SOL    HW116790   1.958   1.265   1.572
 5297SOL    HW216791   1.943   1.414   1.637
 5298SOL     OW16792   6.819   5.147   1.025
 5298SOL    HW116793   6.785   5.074   0.966
 5298SOL    HW216794   6.811   5.120   1.121
 5299SOL     OW16795   3.066   0.658   2.157
 5299SOL    HW116796   3.027   0.579   2.110
 5299SOL    HW216797   3.128   0.627   2.228
 5300SOL     OW16798   0.036   5.797   3.705
 5300SOL    HW116799   0.087   5.838   3.780
 5300SOL    HW216800   0.096   5.738   3.652
 5301SOL     OW16801   4.371   1.465   6.653
 5301SOL    HW116802   4.307   1.483   6.579
 5301SOL    HW216803   4.393   1.367   6.656
 5302SOL     OW16804   6.333   4.362   2.597
 5302SOL    HW116805   6.318   4.419   2.678
 5302SOL    HW216806   6.432   4.354   2.580
 5303SOL     OW16807   6.082   4.293   3.650
 5303SOL    HW116808   6.028   4.367   3.691
 5303SOL    HW216809   6.058   4.206   3.694
 5304SOL     OW16810   4.985   1.698   5.658
 5304SOL    HW116811   5.077   1.688   5.696
 5304SOL    HW216812   4.976   1.788   5.616
 5305SOL     OW16813   2.686   0.785   3.312
 5305SOL    HW116814   2.761   0.729   3.277
 5305SOL    HW216815   2.605   0.727   3.324
 5306SOL     OW16816   3.236   6.759   5.920
 5306SOL    HW116817   3.311   6.701   5.889
 5306SOL    HW216818   3.151   6.707   5.923
 5307SOL     OW16819   4.513   6.891   6.552
 5307SOL    HW116820   4.464   6.896   6.639
 5307SOL    HW216821   4.497   6.801   6.510
 5308SOL     OW16822   6.949   1.451   3.313
 5308SOL    HW116823   6.941   1.450   3.213
 5308SOL    HW216824   7.018   1.384   3.341
 5309SOL     OW16825   3.464   4.199   3.475
 5309SOL    HW116826   3.473   4.284   3.528
 5309SOL    HW216827   3.476   4.121   3.537
 5310SOL     OW16828   5.222   1.972   1.281
 5310SOL    HW116829   5.129   1.954   1.313
 5310SOL    HW216830   5.229   2.068   1.255
 5311SOL     OW16831   2.051   5.513   6.832
 5311SOL    HW116832   1.965   5.468   6.857
 5311SOL    HW216833   2.114   5.510   6.909
 5312SOL     OW16834   0.773   3.955   3.206
 5312SOL    HW116835   0.700   3.961   3.137
 5312SOL    HW216836   0.814   4.045   3.218
 5313SOL     OW16837   0.882   5.726   6.480
 5313SOL    HW116838   0.932   5.812   6.476
 5313SOL    HW216839   0.792   5.738   6.440
 5314SOL     OW16840   3.958   5.250   0.359
 5314SOL    HW116841   3.922   5.338   0.328
 5314SOL    HW216842   3.936   5.179   0.292
 5315SOL     OW16843   6.024   2.854   1.917
 5315SOL    HW116844   6.015   2.784   1.845
 5315SOL    HW216845   6.059   2.939   1.877
 5316SOL     OW16846   6.790   4.608   3.895
 5316SOL    HW116847   6.842   4.555   3.828
 5316SOL    HW216848   6.692   4.602   3.873
 5317SOL     OW16849   5.427   6.590   2.741
 5317SOL    HW116850   5.336   6.606   2.780
 5317SOL    HW216851   5.444   6.656   2.668
 5318SOL     OW16852   0.737   2.628   4.210
 5318SOL    HW116853   0.717   2.547   4.265
 5318SOL    HW216854   0.712   2.710   4.261
 5319SOL     OW16855   4.967   0.568   0.441
 5319SOL    HW116856   4.931   0.632   0.373
 5319SOL    HW216857   4.912   0.575   0.524
 5320SOL     OW16858   5.866   3.586   6.411
 5320SOL    HW116859   5.913   3.674   6.422
 5320SOL    HW216860   5.775   3.601   6.372
 5321SOL     OW16861   1.838   5.339   6.015
 5321SOL    HW116862   1.820   5.353   6.113
 5321SOL    HW216863   1.923   5.287   6.004
 5322SOL     OW16864   3.240   5.893   6.637
 5322SOL    HW116865   3.197   5.802   6.629
 5322SOL    HW216866   3.316   5.888   6.701
 5323SOL     OW16867   5.019   2.174   0.823
 5323SOL    HW116868   5.053   2.267   0.834
 5323SOL    HW216869   5.072   2.112   0.882
 5324SOL     OW16870   3.757   2.870   1.669
 5324SOL    HW116871   3.824   2.905   1.604
 5324SOL    HW216872   3.801   2.858   1.758
 5325SOL     OW16873   5.722   6.255   2.708
 5325SOL    HW116874   5.704   6.259   2.806
 5325SOL    HW216875   5.819   6.270   2.691
 5326SOL     OW16876   6.692   6.048   1.248
 5326SOL    HW116877   6.677   6.055   1.149
 5326SOL    HW216878   6.607   6.020   1.293
 5327SOL     OW16879   6.494   0.023   4.159
 5327SOL    HW116880   6.432   7.013   4.089
 5327SOL    HW216881   6.507   0.121   4.145
 5328SOL     OW16882   3.788   4.307   0.230
 5328SOL    HW116883   3.882   4.341   0.226
 5328SOL    HW216884   3.755   4.313   0.324
 5329SOL     OW16885   0.279   4.397   0.217
 5329SOL    HW116886   0.193   4.428   0.176
 5329SOL    HW216887   0.277   4.416   0.315
 5330SOL     OW16888   4.283   4.104   1.227
 5330SOL    HW116889   4.229   4.020   1.235
 5330SOL    HW216890   4.236   4.179   1.274
 5331SOL     OW16891   4.733   2.873   0.232
 5331SOL    HW116892   4.831   2.879   0.250
 5331SOL    HW216893   4.692   2.964   0.242
 5332SOL     OW16894   5.908   3.840   0.732
 5332SOL    HW116895   5.823   3.870   0.774
 5332SOL    HW216896   5.986   3.874   0.785
 5333SOL     OW16897   2.580   1.032   3.859
 5333SOL    HW116898   2.671   0.992   3.864
 5333SOL    HW216899   2.570   1.102   3.930
 5334SOL     OW16900   4.409   4.655   2.561
 5334SOL    HW116901   4.344   4.705   2.503
 5334SOL    HW216902   4.478   4.611   2.503
 5335SOL     OW16903   0.076   4.599   1.827
 5335SOL    HW116904   0.129   4.678   1.794
 5335SOL    HW216905   0.129   4.516   1.813
 5336SOL     OW16906   1.522   2.305   4.379
 5336SOL    HW116907   1.493   2.230   4.438
 5336SOL    HW216908   1.528   2.389   4.433
 5337SOL     OW16909   6.947   4.194   1.090
 5337SOL    HW116910   6.978   4.285   1.060
 5337SOL    HW216911   6.993   4.169   1.175
 5338SOL     OW16912   6.751   3.305   0.775
 5338SOL    HW116913   6.846   3.330   0.789
 5338SOL    HW216914   6.744   3.205   0.765
 5339SOL     OW16915   5.977   2.955   2.880
 5339SOL    HW116916   5.989   2.856   2.872
 5339SOL    HW216917   5.904   2.975   2.945
 5340SOL     OW16918   5.551   2.822   2.445
 5340SOL    HW116919   5.461   2.848   2.410
 5340SOL    HW216920   5.545   2.808   2.544
 5341SOL     OW16921   4.509   5.216   3.302
 5341SOL    HW116922   4.493   5.174   3.213
 5341SOL    HW216923   4.577   5.162   3.353
 5342SOL     OW16924   5.965   6.665   4.323
 5342SOL    HW116925   6.034   6.622   4.264
 5342SOL    HW216926   5.955   6.611   4.406
 5343SOL     OW16927   4.070   3.643   5.769
 5343SOL    HW116928   4.100   3.735   5.794
 5343SOL    HW216929   4.071   3.634   5.670
 5344SOL     OW16930   0.847   1.665   6.203
 5344SOL    HW116931   0.918   1.708   6.258
 5344SOL    HW216932   0.780   1.621   6.263
 5345SOL     OW16933   5.733   2.010   6.925
 5345SOL    HW116934   5.815   2.058   6.957
 5345SOL    HW216935   5.674   1.989   7.003
 5346SOL     OW16936   3.008   5.419   3.750
 5346SOL    HW116937   3.098   5.390   3.782
 5346SOL    HW216938   2.982   5.365   3.670
 5347SOL     OW16939   6.184   1.929   4.153
 5347SOL    HW116940   6.217   1.942   4.060
 5347SOL    HW216941   6.152   1.835   4.165
 5348SOL     OW16942   5.406   1.563   3.606
 5348SOL    HW116943   5.471   1.516   3.665
 5348SOL    HW216944   5.402   1.660   3.631
 5349SOL     OW16945   0.103   3.464   2.591
 5349SOL    HW116946   0.021   3.491   2.540
 5349SOL    HW216947   0.179   3.523   2.565
 5350SOL     OW16948   2.021   6.324   6.251
 5350SOL    HW116949   1.965   6.406   6.236
 5350SOL    HW216950   2.083   6.341   6.328
 5351SOL     OW16951   0.115   5.106   1.842
 5351SOL    HW116952   0.212   5.082   1.844
 5351SOL    HW216953   0.075   5.092   1.933
 5352SOL     OW16954   2.185   3.595   4.333
 5352SOL    HW116955   2.138   3.507   4.344
 5352SOL    HW216956   2.204   3.634   4.424
 5353SOL     OW16957   4.386   5.797   3.235
 5353SOL    HW116958   4.347   5.789   3.143
 5353SOL    HW216959   4.366   5.715   3.287
 5354SOL     OW16960   3.823   5.798   0.587
 5354SOL    HW116961   3.864   5.716   0.549
 5354SOL    HW216962   3.859   5.879   0.540
 5355SOL     OW16963   5.146   4.865   5.190
 5355SOL    HW116964   5.104   4.951   5.160
 5355SOL    HW216965   5.085   4.819   5.255
 5356SOL     OW16966   6.882   5.074   1.714
 5356SOL    HW116967   6.862   5.136   1.638
 5356SOL    HW216968   6.980   5.075   1.733
 5357SOL     OW16969   5.225   4.101   2.322
 5357SOL    HW116970   5.323   4.117   2.314
 5357SOL    HW216971   5.186   4.165   2.388
 5358SOL     OW16972   4.781   2.074   0.752
 5358SOL    HW116973   4.742   2.162   0.780
 5358SOL    HW216974   4.878   2.072   0.774
 5359SOL     OW16975   2.411   1.845   6.186
 5359SOL    HW116976   2.434   1.749   6.171
 5359SOL    HW216977   2.483   1.903   6.147
 5360SOL     OW16978   5.102   4.661   3.118
 5360SOL    HW116979   5.121   4.565   3.138
 5360SOL    HW216980   5.010   4.684   3.150
 5361SOL     OW16981   2.488   5.943   2.390
 5361SOL    HW116982   2.580   5.951   2.351
 5361SOL    HW216983   2.423   5.917   2.318
 5362SOL     OW16984   6.057   0.501   1.941
 5362SOL    HW116985   6.129   0.559   1.903
 5362SOL    HW216986   6.060   0.506   2.041
 5363SOL     OW16987   5.844   5.238   4.600
 5363SOL    HW116988   5.792   5.152   4.598
 5363SOL    HW216989   5.894   5.245   4.686
 5364SOL     OW16990   4.829   1.270   2.456
 5364SOL    HW116991   4.850   1.174   2.473
 5364SOL    HW216992   4.822   1.318   2.544
 5365SOL     OW16993   3.450   2.916   4.290
 5365SOL    HW116994   3.367   2.971   4.284
 5365SOL    HW216995   3.476   2.884   4.199
 5366SOL     OW16996   6.297   6.414   2.164
 5366SOL    HW116997   6.244   6.399   2.081
 5366SOL    HW216998   6.348   6.331   2.187
 5367SOL     OW16999   6.185   6.023   1.661
 5367SOL    HW117000   6.177   5.984   1.569
 5367SOL    HW217001   6.109   6.086   1.677
 5368SOL     OW17002   6.671   5.630   3.927
 5368SOL    HW117003   6.765   5.610   3.898
 5368SOL    HW217004   6.623   5.677   3.853
 5369SOL     OW17005   2.470   6.100   2.065
 5369SOL    HW117006   2.427   6.137   1.983
 5369SOL    HW217007   2.408   6.034   2.108
 5370SOL     OW17008   2.665   3.663   1.689
 5370SOL    HW117009   2.755   3.667   1.734
 5370SOL    HW217010   2.650   3.571   1.653
 5371SOL     OW17011   6.010   5.337   4.805
 5371SOL    HW117012   6.028   5.286   4.889
 5371SOL    HW217013   5.967   5.424   4.827
 5372SOL     OW17014   0.629   0.533   2.967
 5372SOL    HW117015   0.558   0.525   3.037
 5372SOL    HW217016   0.673   0.622   2.974
 5373SOL     OW17017   3.182   0.542   6.956
 5373SOL    HW117018   3.232   0.564   6.872
 5373SOL    HW217019   3.146   0.626   6.996
 5374SOL     OW17020   2.603   4.933   2.035
 5374SOL    HW117021   2.682   4.921   1.975
 5374SOL    HW217022   2.523   4.893   1.992
 5375SOL     OW17023   1.157   5.078   4.620
 5375SOL    HW117024   1.143   5.174   4.643
 5375SOL    HW217025   1.250   5.051   4.644
 5376SOL     OW17026   6.823   1.303   6.390
 5376SOL    HW117027   6.922   1.302   6.378
 5376SOL    HW217028   6.785   1.216   6.357
 5377SOL     OW17029   2.404   0.554   3.109
 5377SOL    HW117030   2.473   0.619   3.076
 5377SOL    HW217031   2.363   0.506   3.031
 5378SOL     OW17032   5.861   0.833   2.161
 5378SOL    HW117033   5.901   0.925   2.161
 5378SOL    HW217034   5.847   0.803   2.255
 5379SOL     OW17035   1.499   2.702   6.038
 5379SOL    HW117036   1.502   2.751   5.951
 5379SOL    HW217037   1.567   2.741   6.100
 5380SOL     OW17038   4.681   6.859   1.154
 5380SOL    HW117039   4.718   6.805   1.229
 5380SOL    HW217040   4.646   6.946   1.189
 5381SOL     OW17041   4.539   6.294   3.715
 5381SOL    HW117042   4.605   6.265   3.785
 5381SOL    HW217043   4.446   6.281   3.749
 5382SOL     OW17044   4.411   2.020   1.851
 5382SOL    HW117045   4.319   1.995   1.880
 5382SOL    HW217046   4.453   2.079   1.920
 5383SOL     OW17047   2.299   2.554   4.411
 5383SOL    HW117048   2.388   2.534   4.370
 5383SOL    HW217049   2.312   2.609   4.493
 5384SOL     OW17050   5.589   5.365   4.790
 5384SOL    HW117051   5.501   5.318   4.799
 5384SOL    HW217052   5.661   5.308   4.829
 5385SOL     OW17053   4.599   2.709   5.916
 5385SOL    HW117054   4.633   2.668   5.831
 5385SOL    HW217055   4.676   2.746   5.968
 5386SOL     OW17056   6.023   4.191   4.021
 5386SOL    HW117057   6.050   4.101   4.054
 5386SOL    HW217058   5.998   4.249   4.098
 5387SOL     OW17059   1.440   1.373   2.613
 5387SOL    HW117060   1.402   1.291   2.570
 5387SOL    HW217061   1.375   1.409   2.679
 5388SOL     OW17062   1.069   6.798   1.815
 5388SOL    HW117063   1.123   6.715   1.808
 5388SOL    HW217064   1.058   6.840   1.725
 5389SOL     OW17065   4.093   1.468   3.993
 5389SOL    HW117066   4.070   1.540   4.059
 5389SOL    HW217067   4.074   1.379   4.034
 5390SOL     OW17068   0.214   2.737   4.024
 5390SOL    HW117069   0.243   2.719   4.117
 5390SOL    HW217070   0.279   2.698   3.959
 5391SOL     OW17071   2.301   3.393   0.745
 5391SOL    HW117072   2.317   3.334   0.825
 5391SOL    HW217073   2.317   3.341   0.661
 5392SOL     OW17074   5.851   2.213   3.520
 5392SOL    HW117075   5.902   2.143   3.569
 5392SOL    HW217076   5.855   2.194   3.421
 5393SOL     OW17077   3.602   1.861   5.494
 5393SOL    HW117078   3.543   1.869   5.413
 5393SOL    HW217079   3.664   1.784   5.481
 5394SOL     OW17080   1.404   0.957   0.988
 5394SOL    HW117081   1.498   0.941   1.016
 5394SOL    HW217082   1.346   0.964   1.069
 5395SOL     OW17083   6.236   1.488   1.041
 5395SOL    HW117084   6.154   1.533   1.006
 5395SOL    HW217085   6.264   1.532   1.126
 5396SOL     OW17086   5.159   5.558   2.926
 5396SOL    HW117087   5.233   5.622   2.907
 5396SOL    HW217088   5.195   5.465   2.929
 5397SOL     OW17089   0.055   1.013   2.440
 5397SOL    HW117090   6.984   1.033   2.457
 5397SOL    HW217091   0.087   1.066   2.362
 5398SOL     OW17092   5.055   1.766   3.353
 5398SOL    HW117093   5.067   1.833   3.427
 5398SOL    HW217094   5.140   1.758   3.301
 5399SOL     OW17095   2.685   0.499   6.165
 5399SOL    HW117096   2.625   0.559   6.218
 5399SOL    HW217097   2.633   0.451   6.095
 5400SOL     OW17098   4.223   3.261   1.530
 5400SOL    HW117099   4.174   3.347   1.544
 5400SOL    HW217100   4.273   3.237   1.614
 5401SOL     OW17101   5.843   4.014   1.686
 5401SOL    HW117102   5.864   4.037   1.781
 5401SOL    HW217103   5.745   3.993   1.679
 5402SOL     OW17104   1.205   6.697   1.162
 5402SOL    HW117105   1.154   6.762   1.219
 5402SOL    HW217106   1.289   6.741   1.130
 5403SOL     OW17107   5.208   2.822   6.964
 5403SOL    HW117108   5.282   2.756   6.977
 5403SOL    HW217109   5.121   2.773   6.956
 5404SOL     OW17110   6.825   0.878   0.898
 5404SOL    HW117111   6.835   0.877   0.799
 5404SOL    HW217112   6.859   0.965   0.934
 5405SOL     OW17113   5.394   5.976   6.738
 5405SOL    HW117114   5.473   5.936   6.692
 5405SOL    HW217115   5.310   5.940   6.697
 5406SOL     OW17116   3.087   0.303   3.893
 5406SOL    HW117117   2.998   0.269   3.923
 5406SOL    HW217118   3.127   0.238   3.828
 5407SOL     OW17119   1.709   6.728   2.308
 5407SOL    HW117120   1.751   6.819   2.306
 5407SOL    HW217121   1.730   6.679   2.223
 5408SOL     OW17122   3.633   1.808   4.450
 5408SOL    HW117123   3.585   1.729   4.412
 5408SOL    HW217124   3.605   1.821   4.545
 5409SOL     OW17125   1.143   2.978   0.755
 5409SOL    HW117126   1.104   2.947   0.668
 5409SOL    HW217127   1.233   3.017   0.740
 5410SOL     OW17128   1.160   2.127   0.297
 5410SOL    HW117129   1.223   2.140   0.220
 5410SOL    HW217130   1.074   2.174   0.277
 5411SOL     OW17131   3.664   4.802   6.598
 5411SOL    HW117132   3.666   4.856   6.682
 5411SOL    HW217133   3.693   4.858   6.521
 5412SOL     OW17134   0.074   2.272   5.929
 5412SOL    HW117135   0.145   2.334   5.962
 5412SOL    HW217136   7.019   2.279   5.987
 5413SOL     OW17137   0.091   6.781   4.557
 5413SOL    HW117138   0.002   6.742   4.583
 5413SOL    HW217139   0.078   6.871   4.517
 5414SOL     OW17140   5.589   3.569   4.998
 5414SOL    HW117141   5.547   3.580   5.089
 5414SOL    HW217142   5.568   3.478   4.963
 5415SOL     OW17143   3.639   0.276   6.927
 5415SOL    HW117144   3.666   0.323   6.843
 5415SOL    HW217145   3.714   0.217   6.957
 5416SOL     OW17146   3.314   5.577   6.343
 5416SOL    HW117147   3.353   5.498   6.389
 5416SOL    HW217148   3.368   5.658   6.365
 5417SOL     OW17149   4.945   5.942   3.640
 5417SOL    HW117150   4.968   5.984   3.552
 5417SOL    HW217151   4.993   5.989   3.713
 5418SOL     OW17152   6.550   3.632   4.440
 5418SOL    HW117153   6.562   3.542   4.398
 5418SOL    HW217154   6.612   3.698   4.396
 5419SOL     OW17155   4.273   6.749   6.348
 5419SOL    HW117156   4.371   6.735   6.358
 5419SOL    HW217157   4.233   6.773   6.436
 5420SOL     OW17158   0.721   0.884   1.690
 5420SOL    HW117159   0.755   0.846   1.776
 5420SOL    HW217160   0.743   0.822   1.615
 5421SOL     OW17161   3.638   5.033   2.253
 5421SOL    HW117162   3.544   5.041   2.220
 5421SOL    HW217163   3.698   5.005   2.178
 5422SOL     OW17164   2.555   5.940   3.988
 5422SOL    HW117165   2.561   5.843   3.965
 5422SOL    HW217166   2.605   5.994   3.921
 5423SOL     OW17167   5.614   5.849   1.895
 5423SOL    HW117168   5.522   5.834   1.930
 5423SOL    HW217169   5.647   5.939   1.925
 5424SOL     OW17170   4.479   3.729   5.622
 5424SOL    HW117171   4.545   3.754   5.551
 5424SOL    HW217172   4.478   3.798   5.694
 5425SOL     OW17173   1.046   4.043   5.934
 5425SOL    HW117174   0.965   4.091   5.967
 5425SOL    HW217175   1.042   4.036   5.834
 5426SOL     OW17176   5.250   5.231   1.908
 5426SOL    HW117177   5.337   5.258   1.866
 5426SOL    HW217178   5.267   5.200   2.002
 5427SOL     OW17179   4.767   2.650   6.294
 5427SOL    HW117180   4.675   2.611   6.299
 5427SOL    HW217181   4.804   2.657   6.387
 5428SOL     OW17182   6.176   5.447   3.469
 5428SOL    HW117183   6.269   5.479   3.448
 5428SOL    HW217184   6.150   5.478   3.561
 5429SOL     OW17185   3.418   0.006   4.378
 5429SOL    HW117186   3.508   0.023   4.418
 5429SOL    HW217187   3.426   7.024   4.279
 5430SOL     OW17188   2.967   3.955   5.813
 5430SOL    HW117189   2.973   3.859   5.842
 5430SOL    HW217190   2.982   3.960   5.715
 5431SOL     OW17191   3.420   4.809   6.393
 5431SOL    HW117192   3.393   4.722   6.436
 5431SOL    HW217193   3.365   4.883   6.431
 5432SOL     OW17194   5.546   5.113   6.995
 5432SOL    HW117195   5.447   5.105   6.984
 5432SOL    HW217196   5.590   5.113   6.905
 5433SOL     OW17197   1.932   0.353   1.400
 5433SOL    HW117198   1.856   0.409   1.433
 5433SOL    HW217199   1.965   0.389   1.313
 5434SOL     OW17200   5.601   0.272   4.647
 5434SOL    HW117201   5.655   0.290   4.565
 5434SOL    HW217202   5.609   0.349   4.710
 5435SOL     OW17203   6.934   4.112   0.795
 5435SOL    HW117204   6.943   4.013   0.796
 5435SOL    HW217205   6.945   4.148   0.887
 5436SOL     OW17206   1.155   4.462   3.004
 5436SOL    HW117207   1.149   4.466   3.104
 5436SOL    HW217208   1.109   4.379   2.971
 5437SOL     OW17209   3.573   5.974   1.652
 5437SOL    HW117210   3.531   5.888   1.682
 5437SOL    HW217211   3.608   6.023   1.732
 5438SOL     OW17212   5.090   4.820   2.451
 5438SOL    HW117213   5.114   4.780   2.363
 5438SOL    HW217214   5.124   4.761   2.525
 5439SOL     OW17215   1.268   5.175   1.388
 5439SOL    HW117216   1.300   5.230   1.465
 5439SOL    HW217217   1.198   5.226   1.338
 5440SOL     OW17218   6.473   6.226   3.632
 5440SOL    HW117219   6.462   6.247   3.535
 5440SOL    HW217220   6.562   6.259   3.664
 5441SOL     OW17221   4.812   3.012   3.289
 5441SOL    HW117222   4.779   2.921   3.314
 5441SOL    HW217223   4.837   3.014   3.192
 5442SOL     OW17224   4.324   6.292   5.589
 5442SOL    HW117225   4.244   6.352   5.591
 5442SOL    HW217226   4.380   6.309   5.671
 5443SOL     OW17227   4.168   0.565   4.126
 5443SOL    HW117228   4.151   0.524   4.036
 5443SOL    HW217229   4.205   0.657   4.114
 5444SOL     OW17230   5.749   1.218   4.738
 5444SOL    HW117231   5.824   1.263   4.787
 5444SOL    HW217232   5.760   1.233   4.640
 5445SOL     OW17233   5.908   5.099   5.669
 5445SOL    HW117234   5.812   5.125   5.656
 5445SOL    HW217235   5.929   5.022   5.610
 5446SOL     OW17236   0.393   4.366   6.174
 5446SOL    HW117237   0.398   4.268   6.193
 5446SOL    HW217238   0.304   4.387   6.135
 5447SOL     OW17239   1.385   1.622   0.656
 5447SOL    HW117240   1.302   1.674   0.679
 5447SOL    HW217241   1.435   1.671   0.585
 5448SOL     OW17242   4.388   5.346   2.879
 5448SOL    HW117243   4.337   5.432   2.884
 5448SOL    HW217244   4.464   5.356   2.815
 5449SOL     OW17245   2.621   1.594   1.335
 5449SOL    HW117246   2.536   1.542   1.340
 5449SOL    HW217247   2.686   1.547   1.275
 5450SOL     OW17248   4.220   5.614   1.610
 5450SOL    HW117249   4.315   5.639   1.596
 5450SOL    HW217250   4.188   5.558   1.533
 5451SOL     OW17251   0.445   6.981   3.456
 5451SOL    HW117252   0.512   6.949   3.522
 5451SOL    HW217253   0.491   7.006   3.371
 5452SOL     OW17254   2.180   4.568   2.099
 5452SOL    HW117255   2.203   4.636   2.169
 5452SOL    HW217256   2.088   4.532   2.115
 5453SOL     OW17257   5.738   4.022   2.980
 5453SOL    HW117258   5.661   4.052   2.924
 5453SOL    HW217259   5.819   4.012   2.922
 5454SOL     OW17260   5.451   5.676   3.190
 5454SOL    HW117261   5.536   5.642   3.228
 5454SOL    HW217262   5.374   5.625   3.229
 5455SOL     OW17263   1.146   1.383   3.685
 5455SOL    HW117264   1.216   1.440   3.642
 5455SOL    HW217265   1.089   1.440   3.744
 5456SOL     OW17266   6.248   1.032   6.921
 5456SOL    HW117267   6.323   1.078   6.874
 5456SOL    HW217268   6.277   0.940   6.948
 5457SOL     OW17269   6.017   2.833   6.851
 5457SOL    HW117270   5.962   2.777   6.912
 5457SOL    HW217271   6.049   2.776   6.774
 5458SOL     OW17272   5.993   4.188   0.553
 5458SOL    HW117273   5.951   4.199   0.643
 5458SOL    HW217274   5.925   4.204   0.482
 5459SOL     OW17275   2.400   3.697   5.654
 5459SOL    HW117276   2.350   3.681   5.738
 5459SOL    HW217277   2.361   3.642   5.580
 5460SOL     OW17278   1.709   0.504   0.658
 5460SOL    HW117279   1.664   0.468   0.739
 5460SOL    HW217280   1.748   0.429   0.604
 5461SOL     OW17281   6.382   1.059   5.637
 5461SOL    HW117282   6.436   1.024   5.713
 5461SOL    HW217283   6.308   1.117   5.673
 5462SOL     OW17284   5.197   5.378   6.693
 5462SOL    HW117285   5.255   5.459   6.704
 5462SOL    HW217286   5.118   5.386   6.753
 5463SOL     OW17287   0.631   3.322   6.538
 5463SOL    HW117288   0.604   3.247   6.476
 5463SOL    HW217289   0.602   3.300   6.631
 5464SOL     OW17290   6.983   6.462   4.965
 5464SOL    HW117291   6.958   6.469   5.062
 5464SOL    HW217292   6.900   6.458   4.909
 5465SOL     OW17293   6.779   5.960   3.753
 5465SOL    HW117294   6.874   5.927   3.753
 5465SOL    HW217295   6.718   5.885   3.725
 5466SOL     OW17296   6.103   2.715   5.966
 5466SOL    HW117297   6.140   2.790   5.912
 5466SOL    HW217298   6.003   2.719   5.966
 5467SOL     OW17299   5.280   3.544   3.926
 5467SOL    HW117300   5.241   3.494   4.003
 5467SOL    HW217301   5.379   3.531   3.924
 5468SOL     OW17302   0.451   1.237   1.768
 5468SOL    HW117303   0.523   1.279   1.714
 5468SOL    HW217304   0.404   1.308   1.821
 5469SOL     OW17305   2.490   0.426   5.343
 5469SOL    HW117306   2.568   0.459   5.397
 5469SOL    HW217307   2.523   0.368   5.269
 5470SOL     OW17308   4.020   5.382   3.988
 5470SOL    HW117309   3.987   5.476   3.984
 5470SOL    HW217310   3.967   5.331   4.057
 5471SOL     OW17311   4.775   0.867   3.189
 5471SOL    HW117312   4.743   0.962   3.191
 5471SOL    HW217313   4.875   0.866   3.183
 5472SOL     OW17314   2.450   2.028   6.745
 5472SOL    HW117315   2.524   1.990   6.800
 5472SOL    HW217316   2.488   2.076   6.666
 5473SOL     OW17317   2.671   3.791   1.133
 5473SOL    HW117318   2.700   3.801   1.228
 5473SOL    HW217319   2.747   3.814   1.072
 5474SOL     OW17320   0.830   5.418   3.712
 5474SOL    HW117321   0.756   5.352   3.723
 5474SOL    HW217322   0.828   5.483   3.788
 5475SOL     OW17323   6.764   2.474   5.378
 5475SOL    HW117324   6.829   2.415   5.424
 5475SOL    HW217325   6.753   2.444   5.283
 5476SOL     OW17326   2.486   6.797   5.889
 5476SOL    HW117327   2.534   6.882   5.908
 5476SOL    HW217328   2.387   6.812   5.894
 5477SOL     OW17329   2.073   5.036   4.052
 5477SOL    HW117330   2.064   4.996   3.961
 5477SOL    HW217331   2.159   5.088   4.057
 5478SOL     OW17332   5.545   5.064   5.853
 5478SOL    HW117333   5.576   5.098   5.765
 5478SOL    HW217334   5.621   5.066   5.918
 5479SOL     OW17335   3.667   1.941   5.047
 5479SOL    HW117336   3.625   1.911   4.961
 5479SOL    HW217337   3.764   1.915   5.048
 5480SOL     OW17338   6.796   3.674   4.671
 5480SOL    HW117339   6.711   3.655   4.622
 5480SOL    HW217340   6.845   3.749   4.625
 5481SOL     OW17341   4.447   1.175   6.669
 5481SOL    HW117342   4.536   1.132   6.686
 5481SOL    HW217343   4.375   1.119   6.710
 5482SOL     OW17344   4.414   3.195   1.735
 5482SOL    HW117345   4.462   3.283   1.733
 5482SOL    HW217346   4.457   3.135   1.802
 5483SOL     OW17347   6.823   3.777   6.263
 5483SOL    HW117348   6.805   3.707   6.332
 5483SOL    HW217349   6.904   3.830   6.289
 5484SOL     OW17350   6.905   6.455   4.326
 5484SOL    HW117351   6.825   6.417   4.374
 5484SOL    HW217352   6.921   6.402   4.243
 5485SOL     OW17353   3.656   6.711   5.474
 5485SOL    HW117354   3.576   6.731   5.530
 5485SOL    HW217355   3.699   6.796   5.446
 5486SOL     OW17356   1.188   1.005   3.077
 5486SOL    HW117357   1.230   1.005   2.986
 5486SOL    HW217358   1.223   0.927   3.129
 5487SOL     OW17359   6.366   4.607   0.243
 5487SOL    HW117360   6.348   4.597   0.341
 5487SOL    HW217361   6.455   4.651   0.230
 5488SOL     OW17362   5.120   1.981   6.168
 5488SOL    HW117363   5.145   1.981   6.265
 5488SOL    HW217364   5.138   2.071   6.129
 5489SOL     OW17365   1.732   4.501   2.744
 5489SOL    HW117366   1.707   4.426   2.682
 5489SOL    HW217367   1.711   4.475   2.838
 5490SOL     OW17368   2.571   1.228   0.759
 5490SOL    HW117369   2.507   1.153   0.746
 5490SOL    HW217370   2.554   1.299   0.691
 5491SOL     OW17371   1.480   5.119   0.377
 5491SOL    HW117372   1.463   5.093   0.473
 5491SOL    HW217373   1.393   5.117   0.327
 5492SOL     OW17374   0.843   2.269   6.234
 5492SOL    HW117375   0.910   2.216   6.183
 5492SOL    HW217376   0.885   2.353   6.268
 5493SOL     OW17377   3.758   3.175   6.193
 5493SOL    HW117378   3.714   3.211   6.111
 5493SOL    HW217379   3.708   3.207   6.274
 5494SOL     OW17380   6.144   3.639   1.727
 5494SOL    HW117381   6.209   3.593   1.666
 5494SOL    HW217382   6.191   3.713   1.775
 5495SOL     OW17383   4.125   3.486   2.899
 5495SOL    HW117384   4.131   3.387   2.893
 5495SOL    HW217385   4.164   3.517   2.986
 5496SOL     OW17386   3.304   5.881   1.890
 5496SOL    HW117387   3.218   5.887   1.941
 5496SOL    HW217388   3.378   5.919   1.946
 5497SOL     OW17389   0.076   1.346   2.888
 5497SOL    HW117390   0.139   1.318   2.960
 5497SOL    HW217391   0.110   1.314   2.800
 5498SOL     OW17392   4.513   1.782   5.860
 5498SOL    HW117393   4.496   1.881   5.868
 5498SOL    HW217394   4.447   1.733   5.917
 5499SOL     OW17395   0.033   1.977   3.118
 5499SOL    HW117396   0.054   2.018   3.029
 5499SOL    HW217397   0.118   1.956   3.166
 5500SOL     OW17398   1.972   6.053   0.450
 5500SOL    HW117399   1.997   6.020   0.541
 5500SOL    HW217400   1.928   6.142   0.457
 5501SOL     OW17401   2.782   0.349   2.270
 5501SOL    HW117402   2.684   0.370   2.271
 5501SOL    HW217403   2.795   0.252   2.248
 5502SOL     OW17404   6.258   4.370   5.782
 5502SOL    HW117405   6.307   4.285   5.764
 5502SOL    HW217406   6.167   4.366   5.741
 5503SOL     OW17407   1.079   4.488   3.262
 5503SOL    HW117408   1.090   4.391   3.285
 5503SOL    HW217409   1.161   4.538   3.287
 5504SOL     OW17410   3.565   1.791   4.707
 5504SOL    HW117411   3.483   1.809   4.762
 5504SOL    HW217412   3.619   1.718   4.750
 5505SOL     OW17413   3.372   5.621   5.214
 5505SOL    HW117414   3.285   5.651   5.176
 5505SOL    HW217415   3.446   5.675   5.174
 5506SOL     OW17416   6.582   0.680   5.269
 5506SOL    HW117417   6.663   0.707   5.219
 5506SOL    HW217418   6.503   0.734   5.238
 5507SOL     OW17419   2.715   6.800   4.102
 5507SOL    HW117420   2.728   6.851   4.017
 5507SOL    HW217421   2.677   6.710   4.080
 5508SOL     OW17422   2.401   0.073   6.314
 5508SOL    HW117423   2.436   0.103   6.402
 5508SOL    HW217424   2.336   7.024   6.327
 5509SOL     OW17425   5.973   0.138   0.571
 5509SOL    HW117426   5.935   0.067   0.512
 5509SOL    HW217427   6.073   0.136   0.565
 5510SOL     OW17428   4.481   0.475   5.860
 5510SOL    HW117429   4.525   0.469   5.950
 5510SOL    HW217430   4.416   0.400   5.850
 5511SOL     OW17431   0.396   0.517   2.112
 5511SOL    HW117432   0.469   0.463   2.154
 5511SOL    HW217433   0.341   0.458   2.053
 5512SOL     OW17434   0.914   1.349   6.619
 5512SOL    HW117435   0.955   1.297   6.544
 5512SOL    HW217436   0.950   1.443   6.617
 5513SOL     OW17437   4.656   4.287   4.443
 5513SOL    HW117438   4.747   4.269   4.480
 5513SOL    HW217439   4.595   4.211   4.464
 5514SOL     OW17440   5.343   5.136   2.583
 5514SOL    HW117441   5.273   5.203   2.558
 5514SOL    HW217442   5.300   5.050   2.609
 5515SOL     OW17443   6.808   2.401   2.096
 5515SOL    HW117444   6.805   2.304   2.122
 5515SOL    HW217445   6.727   2.448   2.133
 5516SOL     OW17446   1.395   3.604   6.802
 5516SOL    HW117447   1.317   3.667   6.803
 5516SOL    HW217448   1.478   3.654   6.824
 5517SOL     OW17449   3.141   1.858   0.828
 5517SOL    HW117450   3.220   1.920   0.822
 5517SOL    HW217451   3.057   1.912   0.828
 5518SOL     OW17452   6.052   5.257   5.876
 5518SOL    HW117453   6.092   5.348   5.866
 5518SOL    HW217454   6.003   5.232   5.793
 5519SOL     OW17455   5.497   3.373   3.912
 5519SOL    HW117456   5.582   3.414   3.879
 5519SOL    HW217457   5.517   3.289   3.962
 5520SOL     OW17458   1.255   3.765   2.346
 5520SOL    HW117459   1.182   3.755   2.279
 5520SOL    HW217460   1.226   3.724   2.433
 5521SOL     OW17461   5.691   6.385   1.845
 5521SOL    HW117462   5.767   6.383   1.780
 5521SOL    HW217463   5.721   6.426   1.931
 5522SOL     OW17464   2.448   3.276   1.700
 5522SOL    HW117465   2.409   3.338   1.768
 5522SOL    HW217466   2.513   3.326   1.642
 5523SOL     OW17467   3.130   6.821   2.693
 5523SOL    HW117468   3.197   6.798   2.763
 5523SOL    HW217469   3.163   6.789   2.604
 5524SOL     OW17470   1.305   4.785   5.278
 5524SOL    HW117471   1.378   4.846   5.245
 5524SOL    HW217472   1.256   4.748   5.199
 5525SOL     OW17473   6.610   5.179   6.690
 5525SOL    HW117474   6.532   5.233   6.720
 5525SOL    HW217475   6.695   5.221   6.723
 5526SOL     OW17476   6.063   3.342   3.499
 5526SOL    HW117477   6.065   3.327   3.400
 5526SOL    HW217478   6.155   3.332   3.536
 5527SOL     OW17479   1.446   2.796   1.477
 5527SOL    HW117480   1.475   2.772   1.569
 5527SOL    HW217481   1.440   2.713   1.421
 5528SOL     OW17482   0.383   2.545   4.874
 5528SOL    HW117483   0.447   2.607   4.827
 5528SOL    HW217484   0.370   2.463   4.819
 5529SOL     OW17485   2.235   0.803   4.620
 5529SOL    HW117486   2.208   0.710   4.646
 5529SOL    HW217487   2.217   0.865   4.696
 5530SOL     OW17488   0.567   2.107   0.419
 5530SOL    HW117489   0.649   2.048   0.419
 5530SOL    HW217490   0.486   2.049   0.410
 5531SOL     OW17491   4.155   3.414   5.152
 5531SOL    HW117492   4.159   3.398   5.053
 5531SOL    HW217493   4.082   3.358   5.192
 5532SOL     OW17494   1.668   1.438   0.499
 5532SOL    HW117495   1.601   1.371   0.469
 5532SOL    HW217496   1.758   1.414   0.463
 5533SOL     OW17497   3.449   0.585   2.727
 5533SOL    HW117498   3.479   0.656   2.663
 5533SOL    HW217499   3.434   0.625   2.817
 5534SOL     OW17500   1.263   3.691   6.463
 5534SOL    HW117501   1.283   3.698   6.366
 5534SOL    HW217502   1.329   3.747   6.514
 5535SOL     OW17503   6.428   2.915   3.239
 5535SOL    HW117504   6.356   2.873   3.293
 5535SOL    HW217505   6.387   2.966   3.163
 5536SOL     OW17506   2.241   0.569   4.218
 5536SOL    HW117507   2.182   0.644   4.249
 5536SOL    HW217508   2.237   0.494   4.285
 5537SOL     OW17509   3.913   0.392   5.200
 5537SOL    HW117510   4.012   0.382   5.194
 5537SOL    HW217511   3.877   0.332   5.271
 5538SOL     OW17512   4.004   1.140   5.702
 5538SOL    HW117513   4.100   1.120   5.683
 5538SOL    HW217514   3.966   1.069   5.761
 5539SOL     OW17515   1.182   0.779   1.958
 5539SOL    HW117516   1.086   0.794   1.935
 5539SOL    HW217517   1.236   0.777   1.874
 5540SOL     OW17518   5.361   3.258   0.843
 5540SOL    HW117519   5.334   3.162   0.852
 5540SOL    HW217520   5.280   3.316   0.858
 5541SOL     OW17521   5.300   3.578   5.840
 5541SOL    HW117522   5.254   3.592   5.927
 5541SOL    HW217523   5.279   3.653   5.778
 5542SOL     OW17524   5.511   5.174   6.384
 5542SOL    HW117525   5.424   5.142   6.422
 5542SOL    HW217526   5.503   5.181   6.284
 5543SOL     OW17527   1.921   6.068   0.120
 5543SOL    HW117528   1.910   5.970   0.105
 5543SOL    HW217529   1.978   6.082   0.201
 5544SOL     OW17530   4.340   5.205   5.982
 5544SOL    HW117531   4.256   5.151   5.981
 5544SOL    HW217532   4.394   5.184   5.900
 5545SOL     OW17533   4.199   1.306   2.629
 5545SOL    HW117534   4.221   1.401   2.650
 5545SOL    HW217535   4.115   1.302   2.576
 5546SOL     OW17536   1.037   6.063   4.708
 5546SOL    HW117537   1.036   6.029   4.802
 5546SOL    HW217538   1.100   6.141   4.701
 5547SOL     OW17539   4.426   1.941   5.539
 5547SOL    HW117540   4.467   1.862   5.584
 5547SOL    HW217541   4.491   2.017   5.539
 5548SOL     OW17542   0.028   3.813   5.800
 5548SOL    HW117543   7.026   3.849   5.711
 5548SOL    HW217544   0.128   3.804   5.802
 5549SOL     OW17545   4.119   3.417   2.004
 5549SOL    HW117546   4.041   3.470   2.035
 5549SOL    HW217547   4.173   3.472   1.940
 5550SOL     OW17548   2.298   4.246   2.693
 5550SOL    HW117549   2.336   4.154   2.698
 5550SOL    HW217550   2.320   4.296   2.778
 5551SOL     OW17551   1.720   5.139   2.990
 5551SOL    HW117552   1.773   5.166   3.070
 5551SOL    HW217553   1.782   5.115   2.915
 5552SOL     OW17554   6.229   0.003   5.850
 5552SOL    HW117555   6.142   0.050   5.834
 5552SOL    HW217556   6.249   0.005   5.948
 5553SOL     OW17557   4.502   0.175   6.753
 5553SOL    HW117558   4.554   0.123   6.821
 5553SOL    HW217559   4.406   0.180   6.780
 5554SOL     OW17560   5.226   3.199   1.695
 5554SOL    HW117561   5.264   3.278   1.648
 5554SOL    HW217562   5.174   3.143   1.631
 5555SOL     OW17563   0.803   3.556   2.974
 5555SOL    HW117564   0.801   3.578   3.072
 5555SOL    HW217565   0.715   3.580   2.933
 5556SOL     OW17566   6.097   1.334   4.301
 5556SOL    HW117567   6.167   1.376   4.359
 5556SOL    HW217568   6.083   1.239   4.328
 5557SOL     OW17569   3.072   5.920   1.383
 5557SOL    HW117570   2.976   5.946   1.375
 5557SOL    HW217571   3.090   5.885   1.475
 5558SOL     OW17572   3.364   3.843   0.621
 5558SOL    HW117573   3.458   3.832   0.653
 5558SOL    HW217574   3.302   3.849   0.699
 5559SOL     OW17575   1.156   0.216   2.450
 5559SOL    HW117576   1.255   0.225   2.455
 5559SOL    HW217577   1.130   0.183   2.359
 5560SOL     OW17578   6.524   5.717   2.804
 5560SOL    HW117579   6.465   5.797   2.797
 5560SOL    HW217580   6.618   5.747   2.824
 5561SOL     OW17581   3.252   0.517   4.864
 5561SOL    HW117582   3.181   0.583   4.842
 5561SOL    HW217583   3.342   0.560   4.853
 5562SOL     OW17584   4.287   4.463   6.918
 5562SOL    HW117585   4.387   4.469   6.914
 5562SOL    HW217586   4.250   4.551   6.949
 5563SOL     OW17587   3.054   5.273   2.917
 5563SOL    HW117588   2.983   5.206   2.937
 5563SOL    HW217589   3.073   5.328   2.999
 5564SOL     OW17590   4.906   6.956   6.821
 5564SOL    HW117591   4.854   6.999   6.895
 5564SOL    HW217592   5.003   6.957   6.843
 5565SOL     OW17593   4.471   2.785   7.022
 5565SOL    HW117594   4.519   2.734   0.067
 5565SOL    HW217595   4.395   2.835   0.037
 5566SOL     OW17596   1.876   4.269   0.636
 5566SOL    HW117597   1.789   4.315   0.619
 5566SOL    HW217598   1.948   4.338   0.644
 5567SOL     OW17599   0.259   3.752   2.003
 5567SOL    HW117600   0.170   3.797   1.989
 5567SOL    HW217601   0.282   3.699   1.921
 5568SOL     OW17602   4.252   0.252   3.194
 5568SOL    HW117603   4.270   0.290   3.103
 5568SOL    HW217604   4.314   0.294   3.260
 5569SOL     OW17605   2.473   1.767   2.910
 5569SOL    HW117606   2.513   1.778   2.819
 5569SOL    HW217607   2.545   1.779   2.979
 5570SOL     OW17608   6.361   3.455   3.195
 5570SOL    HW117609   6.264   3.433   3.198
 5570SOL    HW217610   6.406   3.418   3.277
 5571SOL     OW17611   6.844   5.049   2.017
 5571SOL    HW117612   6.807   5.104   1.942
 5571SOL    HW217613   6.878   4.962   1.982
 5572SOL     OW17614   1.681   4.087   4.776
 5572SOL    HW117615   1.740   4.113   4.700
 5572SOL    HW217616   1.731   4.023   4.836
 5573SOL     OW17617   1.475   5.249   5.052
 5573SOL    HW117618   1.379   5.255   5.078
 5573SOL    HW217619   1.484   5.270   4.954
 5574SOL     OW17620   0.428   3.018   6.880
 5574SOL    HW117621   0.499   2.980   6.939
 5574SOL    HW217622   0.344   3.032   6.933
 5575SOL     OW17623   6.984   6.946   0.744
 5575SOL    HW117624   0.008   6.917   0.826
 5575SOL    HW217625   6.959   6.865   0.691
 5576SOL     OW17626   1.318   3.961   2.833
 5576SOL    HW117627   1.332   4.039   2.894
 5576SOL    HW217628   1.407   3.924   2.806
 5577SOL     OW17629   2.357   3.248   0.485
 5577SOL    HW117630   2.410   3.180   0.535
 5577SOL    HW217631   2.294   3.203   0.422
 5578SOL     OW17632   3.663   4.088   2.640
 5578SOL    HW117633   3.652   4.115   2.736
 5578SOL    HW217634   3.628   3.995   2.628
 5579SOL     OW17635   0.677   3.465   0.988
 5579SOL    HW117636   0.746   3.412   1.038
 5579SOL    HW217637   0.587   3.449   1.030
 5580SOL     OW17638   4.384   2.227   6.133
 5580SOL    HW117639   4.336   2.189   6.212
 5580SOL    HW217640   4.326   2.293   6.087
 5581SOL     OW17641   1.018   1.303   1.198
 5581SOL    HW117642   1.051   1.278   1.289
 5581SOL    HW217643   1.095   1.335   1.143
 5582SOL     OW17644   2.868   3.913   0.191
 5582SOL    HW117645   2.848   3.984   0.258
 5582SOL    HW217646   2.880   3.826   0.237
 5583SOL     OW17647   4.032   0.965   2.346
 5583SOL    HW117648   3.968   0.946   2.420
 5583SOL    HW217649   3.987   1.023   2.278
 5584SOL     OW17650   6.376   3.632   4.152
 5584SOL    HW117651   6.424   3.708   4.197
 5584SOL    HW217652   6.442   3.570   4.110
 5585SOL     OW17653   4.972   5.084   3.462
 5585SOL    HW117654   5.017   5.004   3.423
 5585SOL    HW217655   4.995   5.092   3.558
 5586SOL     OW17656   7.017   3.484   5.793
 5586SOL    HW117657   6.919   3.467   5.800
 5586SOL    HW217658   0.014   3.568   5.843
 5587SOL     OW17659   4.203   0.310   0.724
 5587SOL    HW117660   4.225   0.284   0.818
 5587SOL    HW217661   4.287   0.337   0.677
 5588SOL     OW17662   2.455   6.526   2.582
 5588SOL    HW117663   2.492   6.619   2.577
 5588SOL    HW217664   2.499   6.477   2.657
 5589SOL     OW17665   5.963   4.627   6.653
 5589SOL    HW117666   5.983   4.604   6.748
 5589SOL    HW217667   5.864   4.634   6.641
 5590SOL     OW17668   6.259   6.425   3.708
 5590SOL    HW117669   6.160   6.423   3.694
 5590SOL    HW217670   6.295   6.332   3.711
 5591SOL     OW17671   0.389   1.942   1.103
 5591SOL    HW117672   0.344   2.031   1.101
 5591SOL    HW217673   0.436   1.926   1.016
 5592SOL     OW17674   1.796   5.424   3.869
 5592SOL    HW117675   1.733   5.355   3.834
 5592SOL    HW217676   1.850   5.461   3.794
 5593SOL     OW17677   0.294   2.731   6.819
 5593SOL    HW117678   0.260   2.743   6.725
 5593SOL    HW217679   0.265   2.808   6.875
 5594SOL     OW17680   5.160   0.899   4.502
 5594SOL    HW117681   5.092   0.924   4.570
 5594SOL    HW217682   5.200   0.810   4.525
 5595SOL     OW17683   1.121   1.274   4.558
 5595SOL    HW117684   1.152   1.281   4.653
 5595SOL    HW217685   1.054   1.346   4.540
 5596SOL     OW17686   4.715   6.453   2.538
 5596SOL    HW117687   4.728   6.354   2.545
 5596SOL    HW217688   4.627   6.478   2.578
 5597SOL     OW17689   4.952   2.283   4.233
 5597SOL    HW117690   4.954   2.349   4.308
 5597SOL    HW217691   5.044   2.275   4.194
 5598SOL     OW17692   5.251   3.400   4.527
 5598SOL    HW117693   5.314   3.462   4.574
 5598SOL    HW217694   5.251   3.311   4.574
 5599SOL     OW17695   1.095   1.054   4.311
 5599SOL    HW117696   1.095   1.103   4.225
 5599SOL    HW217697   1.171   0.989   4.314
 5600SOL     OW17698   0.453   1.309   2.227
 5600SOL    HW117699   0.452   1.218   2.269
 5600SOL    HW217700   0.360   1.334   2.200
 5601SOL     OW17701   2.893   0.078   5.845
 5601SOL    HW117702   2.988   0.101   5.824
 5601SOL    HW217703   2.864   0.128   5.927
 5602SOL     OW17704   0.005   1.399   0.403
 5602SOL    HW117705   0.018   1.303   0.427
 5602SOL    HW217706   7.019   1.453   0.487
 5603SOL     OW17707   5.605   2.621   6.372
 5603SOL    HW117708   5.666   2.558   6.324
 5603SOL    HW217709   5.553   2.675   6.306
 5604SOL     OW17710   6.495   2.284   5.274
 5604SOL    HW117711   6.464   2.201   5.228
 5604SOL    HW217712   6.521   2.262   5.368
 5605SOL     OW17713   0.889   0.524   4.667
 5605SOL    HW117714   0.862   0.489   4.577
 5605SOL    HW217715   0.859   0.620   4.675
 5606SOL     OW17716   4.875   6.963   0.727
 5606SOL    HW117717   4.970   6.950   0.756
 5606SOL    HW217718   4.815   6.910   0.787
 5607SOL     OW17719   5.542   0.392   2.875
 5607SOL    HW117720   5.528   0.487   2.846
 5607SOL    HW217721   5.633   0.361   2.845
 5608SOL     OW17722   4.663   0.149   4.899
 5608SOL    HW117723   4.684   0.090   4.822
 5608SOL    HW217724   4.742   0.154   4.960
 5609SOL     OW17725   2.321   5.073   1.098
 5609SOL    HW117726   2.267   4.994   1.130
 5609SOL    HW217727   2.416   5.060   1.125
 5610SOL     OW17728   4.701   6.797   0.899
 5610SOL    HW117729   4.700   6.796   0.999
 5610SOL    HW217730   4.640   6.869   0.866
 5611SOL     OW17731   1.123   5.371   2.453
 5611SOL    HW117732   1.080   5.298   2.400
 5611SOL    HW217733   1.168   5.435   2.390
 5612SOL     OW17734   3.904   2.225   6.858
 5612SOL    HW117735   3.816   2.190   6.889
 5612SOL    HW217736   3.957   2.149   6.819
 5613SOL     OW17737   5.341   3.981   3.377
 5613SOL    HW117738   5.343   3.927   3.461
 5613SOL    HW217739   5.277   3.940   3.313
 5614SOL     OW17740   4.673   2.537   4.170
 5614SOL    HW117741   4.764   2.533   4.129
 5614SOL    HW217742   4.661   2.626   4.215
 5615SOL     OW17743   0.603   0.972   5.391
 5615SOL    HW117744   0.649   0.921   5.318
 5615SOL    HW217745   0.567   1.058   5.355
 5616SOL     OW17746   2.187   1.280   4.928
 5616SOL    HW117747   2.089   1.274   4.905
 5616SOL    HW217748   2.232   1.341   4.863
 5617SOL     OW17749   2.208   6.564   6.473
 5617SOL    HW117750   2.169   6.623   6.403
 5617SOL    HW217751   2.134   6.525   6.528
 5618SOL     OW17752   6.233   3.501   3.881
 5618SOL    HW117753   6.293   3.567   3.926
 5618SOL    HW217754   6.275   3.470   3.796
 5619SOL     OW17755   3.103   3.828   6.334
 5619SOL    HW117756   3.152   3.910   6.305
 5619SOL    HW217757   3.005   3.849   6.341
 5620SOL     OW17758   3.761   3.445   0.985
 5620SOL    HW117759   3.727   3.431   1.078
 5620SOL    HW217760   3.693   3.413   0.920
 5621SOL     OW17761   1.201   2.441   6.107
 5621SOL    HW117762   1.182   2.450   6.205
 5621SOL    HW217763   1.143   2.503   6.055
 5622SOL     OW17764   4.516   0.126   5.947
 5622SOL    HW117765   4.498   0.137   6.044
 5622SOL    HW217766   4.612   0.147   5.928
 5623SOL     OW17767   2.303   6.090   6.207
 5623SOL    HW117768   2.220   6.107   6.261
 5623SOL    HW217769   2.328   6.172   6.157
 5624SOL     OW17770   0.838   4.525   3.196
 5624SOL    HW117771   0.852   4.557   3.102
 5624SOL    HW217772   0.927   4.518   3.242
 5625SOL     OW17773   6.044   1.826   4.474
 5625SOL    HW117774   6.045   1.923   4.450
 5625SOL    HW217775   6.138   1.791   4.474
 5626SOL     OW17776   2.924   6.901   4.734
 5626SOL    HW117777   2.873   6.855   4.661
 5626SOL    HW217778   2.973   6.833   4.789
 5627SOL     OW17779   0.843   6.102   0.165
 5627SOL    HW117780   0.871   6.030   0.229
 5627SOL    HW217781   0.822   6.062   0.076
 5628SOL     OW17782   1.326   2.701   5.804
 5628SOL    HW117783   1.272   2.781   5.826
 5628SOL    HW217784   1.371   2.666   5.886
 5629SOL     OW17785   3.470   3.609   2.489
 5629SOL    HW117786   3.518   3.593   2.402
 5629SOL    HW217787   3.395   3.544   2.498
 5630SOL     OW17788   1.231   5.083   0.275
 5630SOL    HW117789   1.205   4.992   0.242
 5630SOL    HW217790   1.210   5.150   0.204
 5631SOL     OW17791   4.599   1.774   6.902
 5631SOL    HW117792   4.552   1.797   6.817
 5631SOL    HW217793   4.605   1.675   6.911
 5632SOL     OW17794   4.077   2.530   5.794
 5632SOL    HW117795   4.048   2.621   5.822
 5632SOL    HW217796   4.019   2.498   5.719
 5633SOL     OW17797   5.791   2.768   4.044
 5633SOL    HW117798   5.857   2.825   4.092
 5633SOL    HW217799   5.830   2.677   4.029
 5634SOL     OW17800   2.209   6.070   5.387
 5634SOL    HW117801   2.160   6.003   5.332
 5634SOL    HW217802   2.304   6.040   5.399
 5635SOL     OW17803   2.206   3.792   5.259
 5635SOL    HW117804   2.248   3.727   5.323
 5635SOL    HW217805   2.278   3.838   5.206
 5636SOL     OW17806   3.296   6.345   2.447
 5636SOL    HW117807   3.223   6.283   2.478
 5636SOL    HW217808   3.384   6.313   2.483
 5637SOL     OW17809   5.011   0.123   3.855
 5637SOL    HW117810   5.056   0.088   3.937
 5637SOL    HW217811   4.947   0.196   3.880
 5638SOL     OW17812   5.610   3.650   1.729
 5638SOL    HW117813   5.528   3.705   1.716
 5638SOL    HW217814   5.657   3.640   1.641
 5639SOL     OW17815   0.206   0.635   0.234
 5639SOL    HW117816   0.183   0.732   0.230
 5639SOL    HW217817   0.305   0.624   0.231
 5640SOL     OW17818   2.786   0.581   3.527
 5640SOL    HW117819   2.883   0.558   3.530
 5640SOL    HW217820   2.775   0.680   3.532
 5641SOL     OW17821   0.932   4.819   5.414
 5641SOL    HW117822   1.010   4.879   5.429
 5641SOL    HW217823   0.924   4.798   5.317
 5642SOL     OW17824   2.006   6.612   0.058
 5642SOL    HW117825   2.081   6.632   7.021
 5642SOL    HW217826   1.930   6.571   0.009
 5643SOL     OW17827   4.516   1.484   4.936
 5643SOL    HW117828   4.491   1.465   4.841
 5643SOL    HW217829   4.615   1.480   4.946
 5644SOL     OW17830   3.036   0.004   5.412
 5644SOL    HW117831   3.078   0.007   5.503
 5644SOL    HW217832   2.972   6.952   5.408
 5645SOL     OW17833   6.347   4.032   3.766
 5645SOL    HW117834   6.351   4.062   3.861
 5645SOL    HW217835   6.376   3.936   3.760
 5646SOL     OW17836   2.005   5.308   3.003
 5646SOL    HW117837   2.010   5.222   3.055
 5646SOL    HW217838   2.019   5.385   3.066
 5647SOL     OW17839   5.425   6.445   1.694
 5647SOL    HW117840   5.488   6.493   1.633
 5647SOL    HW217841   5.381   6.371   1.644
 5648SOL     OW17842   2.356   5.788   2.886
 5648SOL    HW117843   2.428   5.853   2.909
 5648SOL    HW217844   2.331   5.735   2.968
 5649SOL     OW17845   1.045   6.448   3.909
 5649SOL    HW117846   0.993   6.532   3.893
 5649SOL    HW217847   1.076   6.447   4.004
 5650SOL     OW17848   0.928   4.808   0.788
 5650SOL    HW117849   1.024   4.833   0.776
 5650SOL    HW217850   0.922   4.732   0.853
 5651SOL     OW17851   1.457   0.594   0.603
 5651SOL    HW117852   1.551   0.564   0.616
 5651SOL    HW217853   1.425   0.641   0.685
 5652SOL     OW17854   0.053   5.364   1.734
 5652SOL    HW117855   7.004   5.336   1.674
 5652SOL    HW217856   0.060   5.300   1.811
 5653SOL     OW17857   0.277   5.855   0.346
 5653SOL    HW117858   0.199   5.818   0.297
 5653SOL    HW217859   0.361   5.832   0.298
 5654SOL     OW17860   1.572   5.587   4.284
 5654SOL    HW117861   1.586   5.678   4.321
 5654SOL    HW217862   1.474   5.565   4.284
 5655SOL     OW17863   6.648   2.871   3.943
 5655SOL    HW117864   6.584   2.842   4.013
 5655SOL    HW217865   6.609   2.852   3.853
 5656SOL     OW17866   6.588   3.932   6.223
 5656SOL    HW117867   6.536   3.929   6.308
 5656SOL    HW217868   6.662   3.866   6.226
 5657SOL     OW17869   4.604   4.342   4.994
 5657SOL    HW117870   4.508   4.364   4.976
 5657SOL    HW217871   4.661   4.380   4.921
 5658SOL     OW17872   3.044   3.224   6.310
 5658SOL    HW117873   2.971   3.162   6.280
 5658SOL    HW217874   3.088   3.265   6.230
 5659SOL     OW17875   3.504   3.860   5.938
 5659SOL    HW117876   3.406   3.867   5.954
 5659SOL    HW217877   3.533   3.765   5.944
 5660SOL     OW17878   4.804   0.284   6.625
 5660SOL    HW117879   4.817   0.328   6.536
 5660SOL    HW217880   4.783   0.187   6.612
 5661SOL     OW17881   1.219   5.220   5.892
 5661SOL    HW117882   1.191   5.278   5.815
 5661SOL    HW217883   1.177   5.129   5.882
 5662SOL     OW17884   2.343   6.781   2.799
 5662SOL    HW117885   2.386   6.776   2.708
 5662SOL    HW217886   2.300   6.871   2.810
 5663SOL     OW17887   1.192   2.377   0.377
 5663SOL    HW117888   1.287   2.405   0.368
 5663SOL    HW217889   1.184   2.280   0.355
 5664SOL     OW17890   5.897   3.852   4.602
 5664SOL    HW117891   5.969   3.806   4.550
 5664SOL    HW217892   5.843   3.785   4.652
 5665SOL     OW17893   1.193   5.947   6.974
 5665SOL    HW117894   1.098   5.920   6.963
 5665SOL    HW217895   1.250   5.891   6.913
 5666SOL     OW17896   6.307   1.033   3.764
 5666SOL    HW117897   6.271   1.027   3.671
 5666SOL    HW217898   6.244   0.988   3.827
 5667SOL     OW17899   1.866   4.806   4.185
 5667SOL    HW117900   1.861   4.801   4.284
 5667SOL    HW217901   1.960   4.789   4.155
 5668SOL     OW17902   6.368   2.758   2.553
 5668SOL    HW117903   6.314   2.747   2.470
 5668SOL    HW217904   6.361   2.853   2.584
 5669SOL     OW17905   6.642   4.629   0.188
 5669SOL    HW117906   6.595   4.626   0.100
 5669SOL    HW217907   6.713   4.699   0.187
 5670SOL     OW17908   1.918   3.128   3.077
 5670SOL    HW117909   1.882   3.197   3.013
 5670SOL    HW217910   1.870   3.042   3.062
 5671SOL     OW17911   6.265   5.873   5.314
 5671SOL    HW117912   6.275   5.895   5.216
 5671SOL    HW217913   6.303   5.783   5.332
 5672SOL     OW17914   4.827   3.931   5.436
 5672SOL    HW117915   4.751   3.874   5.405
 5672SOL    HW217916   4.798   4.027   5.436
 5673SOL     OW17917   1.140   6.581   1.398
 5673SOL    HW117918   1.165   6.603   1.304
 5673SOL    HW217919   1.204   6.626   1.461
 5674SOL     OW17920   2.285   4.726   4.363
 5674SOL    HW117921   2.382   4.698   4.361
 5674SOL    HW217922   2.275   4.804   4.424
 5675SOL     OW17923   4.025   1.487   0.093
 5675SOL    HW117924   4.096   1.482   0.022
 5675SOL    HW217925   4.029   1.405   0.150
 5676SOL     OW17926   2.783   2.048   1.708
 5676SOL    HW117927   2.814   2.131   1.756
 5676SOL    HW217928   2.758   2.072   1.614
 5677SOL     OW17929   6.859   0.952   0.646
 5677SOL    HW117930   6.922   0.899   0.589
 5677SOL    HW217931   6.765   0.927   0.623
 5678SOL     OW17932   3.832   1.194   2.265
 5678SOL    HW117933   3.805   1.290   2.275
 5678SOL    HW217934   3.773   1.151   2.197
 5679SOL     OW17935   5.998   2.093   4.967
 5679SOL    HW117936   6.046   2.157   5.027
 5679SOL    HW217937   5.918   2.138   4.926
 5680SOL     OW17938   1.703   4.740   5.944
 5680SOL    HW117939   1.766   4.796   5.891
 5680SOL    HW217940   1.687   4.653   5.897
 5681SOL     OW17941   0.513   4.002   3.023
 5681SOL    HW117942   0.430   4.057   3.027
 5681SOL    HW217943   0.522   3.963   2.931
 5682SOL     OW17944   3.042   5.698   2.869
 5682SOL    HW117945   3.034   5.626   2.800
 5682SOL    HW217946   3.122   5.681   2.925
 5683SOL     OW17947   4.131   2.551   6.647
 5683SOL    HW117948   4.109   2.593   6.560
 5683SOL    HW217949   4.182   2.616   6.703
 5684SOL     OW17950   2.454   3.842   6.390
 5684SOL    HW117951   2.357   3.868   6.381
 5684SOL    HW217952   2.489   3.817   6.300
 5685SOL     OW17953   1.876   2.017   3.733
 5685SOL    HW117954   1.942   2.090   3.745
 5685SOL    HW217955   1.827   2.002   3.819
 5686SOL     OW17956   3.228   1.123   5.650
 5686SOL    HW117957   3.153   1.124   5.716
 5686SOL    HW217958   3.257   1.029   5.634
 5687SOL     OW17959   0.191   6.310   5.765
 5687SOL    HW117960   0.124   6.253   5.718
 5687SOL    HW217961   0.150   6.350   5.847
 5688SOL     OW17962   2.361   2.608   3.468
 5688SOL    HW117963   2.322   2.671   3.535
 5688SOL    HW217964   2.349   2.645   3.376
 5689SOL     OW17965   2.190   0.571   2.040
 5689SOL    HW117966   2.271   0.552   1.986
 5689SOL    HW217967   2.210   0.641   2.108
 5690SOL     OW17968   0.813   5.306   6.875
 5690SOL    HW117969   0.864   5.268   6.798
 5690SOL    HW217970   0.817   5.243   6.952
 5691SOL     OW17971   3.548   0.940   2.332
 5691SOL    HW117972   3.466   0.889   2.306
 5691SOL    HW217973   3.618   0.930   2.261
 5692SOL     OW17974   4.652   5.094   0.774
 5692SOL    HW117975   4.602   5.024   0.723
 5692SOL    HW217976   4.604   5.181   0.767
 5693SOL     OW17977   3.931   0.649   1.518
 5693SOL    HW117978   4.022   0.620   1.489
 5693SOL    HW217979   3.867   0.573   1.508
 5694SOL     OW17980   0.608   6.976   2.538
 5694SOL    HW117981   0.646   7.012   2.623
 5694SOL    HW217982   0.679   6.922   2.491
 5695SOL     OW17983   1.070   0.719   2.362
 5695SOL    HW117984   0.989   0.673   2.397
 5695SOL    HW217985   1.114   0.663   2.292
 5696SOL     OW17986   1.615   0.855   4.302
 5696SOL    HW117987   1.687   0.904   4.352
 5696SOL    HW217988   1.636   0.757   4.300
 5697SOL     OW17989   6.468   2.046   1.657
 5697SOL    HW117990   6.437   2.104   1.580
 5697SOL    HW217991   6.513   2.103   1.725
 5698SOL     OW17992   1.753   3.679   3.471
 5698SOL    HW117993   1.832   3.618   3.478
 5698SOL    HW217994   1.733   3.718   3.561
 5699SOL     OW17995   2.362   2.066   2.924
 5699SOL    HW117996   2.347   2.096   3.018
 5699SOL    HW217997   2.297   1.993   2.901
 5700SOL     OW17998   6.738   0.030   2.350
 5700SOL    HW117999   6.730   7.007   2.263
 5700SOL    HW218000   6.724   6.992   2.425
 5701SOL     OW18001   0.019   1.552   0.881
 5701SOL    HW118002   7.007   1.573   0.971
 5701SOL    HW218003   0.015   1.453   0.866
 5702SOL     OW18004   2.032   6.475   4.737
 5702SOL    HW118005   1.933   6.466   4.743
 5702SOL    HW218006   2.062   6.453   4.644
 5703SOL     OW18007   0.063   4.336   6.394
 5703SOL    HW118008   0.138   4.384   6.439
 5703SOL    HW218009   0.069   4.352   6.295
 5704SOL     OW18010   5.502   4.562   3.609
 5704SOL    HW118011   5.579   4.499   3.618
 5704SOL    HW218012   5.477   4.571   3.512
 5705SOL     OW18013   6.027   6.101   6.384
 5705SOL    HW118014   5.976   6.026   6.343
 5705SOL    HW218015   6.008   6.185   6.334
 5706SOL     OW18016   5.535   2.810   0.924
 5706SOL    HW118017   5.611   2.865   0.889
 5706SOL    HW218018   5.546   2.797   1.022
 5707SOL     OW18019   5.082   0.270   1.662
 5707SOL    HW118020   5.114   0.363   1.681
 5707SOL    HW218021   5.109   0.245   1.568
 5708SOL     OW18022   5.235   6.263   3.120
 5708SOL    HW118023   5.249   6.212   3.204
 5708SOL    HW218024   5.196   6.352   3.141
 5709SOL     OW18025   0.331   0.893   2.430
 5709SOL    HW118026   0.358   0.875   2.335
 5709SOL    HW218027   0.253   0.955   2.432
 5710SOL     OW18028   3.142   2.652   0.970
 5710SOL    HW118029   3.195   2.714   0.912
 5710SOL    HW218030   3.066   2.613   0.919
 5711SOL     OW18031   5.103   0.691   1.920
 5711SOL    HW118032   5.103   0.632   2.001
 5711SOL    HW218033   5.045   0.771   1.937
 5712SOL     OW18034   6.341   6.078   0.940
 5712SOL    HW118035   6.335   6.177   0.955
 5712SOL    HW218036   6.257   6.047   0.895
 5713SOL     OW18037   2.902   5.324   0.547
 5713SOL    HW118038   2.901   5.238   0.597
 5713SOL    HW218039   2.929   5.398   0.609
 5714SOL     OW18040   6.600   6.491   1.784
 5714SOL    HW118041   6.674   6.427   1.805
 5714SOL    HW218042   6.637   6.583   1.772
 5715SOL     OW18043   0.561   6.624   1.147
 5715SOL    HW118044   0.594   6.549   1.204
 5715SOL    HW218045   0.494   6.589   1.081
 5716SOL     OW18046   1.141   5.177   6.157
 5716SOL    HW118047   1.106   5.084   6.148
 5716SOL    HW218048   1.195   5.200   6.076
 5717SOL     OW18049   2.117   4.876   2.621
 5717SOL    HW118050   2.215   4.867   2.641
 5717SOL    HW218051   2.095   4.973   2.608
 5718SOL     OW18052   0.820   2.926   0.276
 5718SOL    HW118053   0.917   2.912   0.255
 5718SOL    HW218054   0.787   3.007   0.227
 5719SOL     OW18055   2.676   3.086   1.326
 5719SOL    HW118056   2.653   3.042   1.240
 5719SOL    HW218057   2.763   3.050   1.360
 5720SOL     OW18058   1.976   6.025   5.564
 5720SOL    HW118059   1.993   5.938   5.610
 5720SOL    HW218060   2.057   6.052   5.512
 5721SOL     OW18061   5.550   4.461   1.098
 5721SOL    HW118062   5.523   4.412   1.015
 5721SOL    HW218063   5.634   4.512   1.080
 5722SOL     OW18064   0.379   1.213   5.031
 5722SOL    HW118065   0.436   1.223   4.950
 5722SOL    HW218066   0.368   1.302   5.075
 5723SOL     OW18067   3.754   3.350   6.842
 5723SOL    HW118068   3.752   3.369   6.744
 5723SOL    HW218069   3.666   3.374   6.883
 5724SOL     OW18070   6.215   2.825   3.358
 5724SOL    HW118071   6.207   2.742   3.305
 5724SOL    HW218072   6.169   2.813   3.446
 5725SOL     OW18073   5.922   5.179   2.835
 5725SOL    HW118074   5.951   5.221   2.749
 5725SOL    HW218075   5.909   5.250   2.904
 5726SOL     OW18076   5.342   4.211   3.531
 5726SOL    HW118077   5.410   4.192   3.602
 5726SOL    HW218078   5.332   4.130   3.472
 5727SOL     OW18079   0.172   2.491   4.636
 5727SOL    HW118080   0.185   2.466   4.539
 5727SOL    HW218081   0.238   2.440   4.692
 5728SOL     OW18082   4.915   5.884   5.480
 5728SOL    HW118083   4.927   5.907   5.384
 5728SOL    HW218084   4.936   5.787   5.494
 5729SOL     OW18085   2.255   2.129   6.100
 5729SOL    HW118086   2.186   2.202   6.091
 5729SOL    HW218087   2.290   2.129   6.194
 5730SOL     OW18088   0.083   4.236   5.821
 5730SOL    HW118089   0.037   4.325   5.825
 5730SOL    HW218090   0.061   4.183   5.903
 5731SOL     OW18091   6.698   0.204   1.393
 5731SOL    HW118092   6.672   0.157   1.477
 5731SOL    HW218093   6.745   0.289   1.416
 5732SOL     OW18094   1.415   6.208   4.189
 5732SOL    HW118095   1.413   6.171   4.096
 5732SOL    HW218096   1.329   6.255   4.209
 5733SOL     OW18097   4.155   6.628   5.208
 5733SOL    HW118098   4.234   6.661   5.156
 5733SOL    HW218099   4.094   6.577   5.147
 5734SOL     OW18100   1.709   6.216   5.014
 5734SOL    HW118101   1.781   6.232   4.947
 5734SOL    HW218102   1.622   6.203   4.967
 5735SOL     OW18103   2.917   1.717   1.984
 5735SOL    HW118104   2.893   1.734   2.080
 5735SOL    HW218105   2.918   1.803   1.935
 5736SOL     OW18106   0.548   4.925   0.123
 5736SOL    HW118107   0.605   4.855   0.166
 5736SOL    HW218108   0.556   4.918   0.024
 5737SOL     OW18109   5.593   6.185   6.407
 5737SOL    HW118110   5.614   6.132   6.489
 5737SOL    HW218111   5.499   6.219   6.413
 5738SOL     OW18112   1.988   3.542   6.527
 5738SOL    HW118113   2.087   3.549   6.529
 5738SOL    HW218114   1.948   3.612   6.587
 5739SOL     OW18115   1.432   0.988   0.576
 5739SOL    HW118116   1.413   1.065   0.637
 5739SOL    HW218117   1.528   0.962   0.585
 5740SOL     OW18118   4.267   6.148   0.003
 5740SOL    HW118119   4.185   6.193   0.038
 5740SOL    HW218120   4.281   6.062   0.052
 5741SOL     OW18121   6.614   5.544   4.986
 5741SOL    HW118122   6.672   5.622   4.963
 5741SOL    HW218123   6.598   5.489   4.904
 5742SOL     OW18124   6.265   6.518   2.465
 5742SOL    HW118125   6.211   6.490   2.386
 5742SOL    HW218126   6.203   6.545   2.539
 5743SOL     OW18127   2.613   0.103   4.964
 5743SOL    HW118128   2.706   0.068   4.955
 5743SOL    HW218129   2.557   0.039   5.017
 5744SOL     OW18130   5.414   1.519   0.254
 5744SOL    HW118131   5.385   1.483   0.166
 5744SOL    HW218132   5.391   1.454   0.326
 5745SOL     OW18133   1.484   1.772   4.530
 5745SOL    HW118134   1.399   1.775   4.477
 5745SOL    HW218135   1.549   1.711   4.484
 5746SOL     OW18136   5.203   2.001   6.780
 5746SOL    HW118137   5.217   1.902   6.785
 5746SOL    HW218138   5.107   2.020   6.757
 5747SOL     OW18139   0.077   5.286   2.966
 5747SOL    HW118140   0.131   5.363   2.933
 5747SOL    HW218141   0.128   5.238   3.038
 5748SOL     OW18142   2.283   4.891   1.807
 5748SOL    HW118143   2.271   4.796   1.834
 5748SOL    HW218144   2.229   4.950   1.867
 5749SOL     OW18145   2.147   1.927   3.280
 5749SOL    HW118146   2.058   1.953   3.316
 5749SOL    HW218147   2.136   1.856   3.211
 5750SOL     OW18148   6.354   4.783   4.616
 5750SOL    HW118149   6.427   4.849   4.595
 5750SOL    HW218150   6.274   4.804   4.559
 5751SOL     OW18151   2.064   3.402   5.350
 5751SOL    HW118152   2.147   3.433   5.398
 5751SOL    HW218153   2.089   3.350   5.269
 5752SOL     OW18154   6.693   6.555   5.894
 5752SOL    HW118155   6.705   6.458   5.913
 5752SOL    HW218156   6.781   6.595   5.868
 5753SOL     OW18157   3.556   3.022   6.769
 5753SOL    HW118158   3.654   3.041   6.775
 5753SOL    HW218159   3.541   2.923   6.769
 5754SOL     OW18160   5.347   5.513   2.016
 5754SOL    HW118161   5.429   5.520   2.074
 5754SOL    HW218162   5.361   5.442   1.947
 5755SOL     OW18163   3.539   3.722   6.895
 5755SOL    HW118164   3.559   3.625   6.909
 5755SOL    HW218165   3.452   3.731   6.846
 5756SOL     OW18166   0.072   5.247   3.671
 5756SOL    HW118167   0.040   5.246   3.576
 5756SOL    HW218168   7.025   5.214   3.731
 5757SOL     OW18169   6.310   5.592   0.929
 5757SOL    HW118170   6.372   5.514   0.922
 5757SOL    HW218171   6.268   5.593   1.020
 5758SOL     OW18172   2.028   2.105   4.988
 5758SOL    HW118173   1.988   2.189   5.026
 5758SOL    HW218174   2.124   2.099   5.016
 5759SOL     OW18175   5.097   1.353   6.296
 5759SOL    HW118176   5.094   1.307   6.207
 5759SOL    HW218177   5.013   1.406   6.308
 5760SOL     OW18178   1.315   5.058   2.373
 5760SOL    HW118179   1.352   4.971   2.339
 5760SOL    HW218180   1.235   5.040   2.430
 5761SOL     OW18181   4.704   6.409   4.827
 5761SOL    HW118182   4.641   6.473   4.869
 5761SOL    HW218183   4.656   6.324   4.804
 5762SOL     OW18184   5.611   6.598   1.538
 5762SOL    HW118185   5.622   6.697   1.549
 5762SOL    HW218186   5.696   6.558   1.505
 5763SOL     OW18187   1.402   0.292   0.969
 5763SOL    HW118188   1.390   0.275   0.871
 5763SOL    HW218189   1.488   0.251   1.000
 5764SOL     OW18190   5.800   4.273   5.218
 5764SOL    HW118191   5.774   4.333   5.143
 5764SOL    HW218192   5.865   4.204   5.185
 5765SOL     OW18193   6.251   4.427   6.887
 5765SOL    HW118194   6.295   4.343   6.855
 5765SOL    HW218195   6.152   4.414   6.887
 5766SOL     OW18196   3.030   1.815   2.270
 5766SOL    HW118197   3.106   1.826   2.206
 5766SOL    HW218198   3.061   1.837   2.362
 5767SOL     OW18199   0.098   6.558   0.795
 5767SOL    HW118200   0.100   6.502   0.878
 5767SOL    HW218201   0.008   6.550   0.751
 5768SOL     OW18202   6.454   1.099   3.018
 5768SOL    HW118203   6.404   1.174   3.062
 5768SOL    HW218204   6.392   1.048   2.959
 5769SOL     OW18205   2.715   6.391   3.917
 5769SOL    HW118206   2.645   6.450   3.958
 5769SOL    HW218207   2.750   6.434   3.833
 5770SOL     OW18208   6.340   0.079   1.246
 5770SOL    HW118209   6.309   0.173   1.237
 5770SOL    HW218210   6.440   0.076   1.239
 5771SOL     OW18211   1.351   0.580   1.362
 5771SOL    HW118212   1.445   0.548   1.355
 5771SOL    HW218213   1.294   0.532   1.296
 5772SOL     OW18214   5.936   3.311   1.011
 5772SOL    HW118215   5.923   3.402   1.050
 5772SOL    HW218216   5.847   3.274   0.982
 5773SOL     OW18217   5.275   6.419   3.894
 5773SOL    HW118218   5.181   6.386   3.895
 5773SOL    HW218219   5.277   6.515   3.923
 5774SOL     OW18220   2.018   4.977   3.791
 5774SOL    HW118221   1.943   4.928   3.747
 5774SOL    HW218222   2.016   5.073   3.763
 5775SOL     OW18223   6.813   6.917   6.412
 5775SOL    HW118224   6.736   6.890   6.355
 5775SOL    HW218225   6.894   6.864   6.386
 5776SOL     OW18226   4.798   0.184   5.998
 5776SOL    HW118227   4.844   0.152   6.081
 5776SOL    HW218228   4.787   0.283   6.003
 5777SOL     OW18229   6.914   1.194   4.373
 5777SOL    HW118230   6.928   1.253   4.453
 5777SOL    HW218231   7.003   1.165   4.337
 5778SOL     OW18232   1.145   6.627   3.123
 5778SOL    HW118233   1.122   6.685   3.045
 5778SOL    HW218234   1.141   6.680   3.207
 5779SOL     OW18235   4.089   1.117   1.586
 5779SOL    HW118236   4.051   1.041   1.532
 5779SOL    HW218237   4.038   1.200   1.567
 5780SOL     OW18238   0.097   4.156   1.588
 5780SOL    HW118239   0.033   4.154   1.511
 5780SOL    HW218240   0.189   4.175   1.554
 5781SOL     OW18241   2.167   5.024   5.170
 5781SOL    HW118242   2.147   4.936   5.128
 5781SOL    HW218243   2.220   5.010   5.254
 5782SOL     OW18244   2.324   0.880   1.495
 5782SOL    HW118245   2.298   0.935   1.416
 5782SOL    HW218246   2.306   0.932   1.579
 5783SOL     OW18247   1.296   0.114   1.192
 5783SOL    HW118248   1.393   0.108   1.170
 5783SOL    HW218249   1.267   0.210   1.188
 5784SOL     OW18250   0.400   6.121   0.393
 5784SOL    HW118251   0.383   6.025   0.373
 5784SOL    HW218252   0.493   6.145   0.363
 5785SOL     OW18253   2.071   1.674   0.176
 5785SOL    HW118254   1.986   1.648   0.131
 5785SOL    HW218255   2.148   1.635   0.126
 5786SOL     OW18256   1.594   3.074   1.858
 5786SOL    HW118257   1.685   3.055   1.896
 5786SOL    HW218258   1.592   3.045   1.762
 5787SOL     OW18259   5.890   2.512   4.941
 5787SOL    HW118260   5.975   2.557   4.912
 5787SOL    HW218261   5.888   2.419   4.905
 5788SOL     OW18262   2.674   1.066   2.148
 5788SOL    HW118263   2.631   1.026   2.067
 5788SOL    HW218264   2.628   1.153   2.171
 5789SOL     OW18265   4.366   4.061   6.780
 5789SOL    HW118266   4.454   4.090   6.741
 5789SOL    HW218267   4.301   4.043   6.706
 5790SOL     OW18268   5.426   5.733   4.568
 5790SOL    HW118269   5.460   5.686   4.486
 5790SOL    HW218270   5.438   5.832   4.556
 5791SOL     OW18271   3.962   0.981   2.636
 5791SOL    HW118272   3.958   1.081   2.639
 5791SOL    HW218273   3.972   0.945   2.728
 5792SOL     OW18274   5.120   3.904   3.182
 5792SOL    HW118275   5.078   3.825   3.227
 5792SOL    HW218276   5.096   3.903   3.085
 5793SOL     OW18277   5.059   2.082   5.299
 5793SOL    HW118278   5.053   2.175   5.336
 5793SOL    HW218279   5.134   2.077   5.234
 5794SOL     OW18280   3.603   6.653   6.310
 5794SOL    HW118281   3.520   6.652   6.254
 5794SOL    HW218282   3.641   6.745   6.313
 5795SOL     OW18283   1.244   5.446   1.544
 5795SOL    HW118284   1.225   5.544   1.537
 5795SOL    HW218285   1.306   5.430   1.621
 5796SOL     OW18286   4.249   1.917   6.867
 5796SOL    HW118287   4.340   1.892   6.834
 5796SOL    HW218288   4.202   1.972   6.798
 5797SOL     OW18289   5.194   2.607   0.206
 5797SOL    HW118290   5.115   2.593   0.266
 5797SOL    HW218291   5.181   2.557   0.120
 5798SOL     OW18292   1.681   3.914   5.589
 5798SOL    HW118293   1.675   4.013   5.580
 5798SOL    HW218294   1.605   3.881   5.645
 5799SOL     OW18295   1.477   6.661   2.945
 5799SOL    HW118296   1.397   6.624   2.898
 5799SOL    HW218297   1.544   6.693   2.877
 5800SOL     OW18298   0.490   6.389   0.715
 5800SOL    HW118299   0.470   6.389   0.617
 5800SOL    HW218300   0.580   6.346   0.730
 5801SOL     OW18301   2.174   1.929   2.376
 5801SOL    HW118302   2.267   1.953   2.349
 5801SOL    HW218303   2.161   1.951   2.472
 5802SOL     OW18304   6.936   1.392   2.167
 5802SOL    HW118305   6.978   1.451   2.098
 5802SOL    HW218306   6.949   1.296   2.142
 5803SOL     OW18307   1.100   4.933   3.910
 5803SOL    HW118308   1.033   4.996   3.949
 5803SOL    HW218309   1.054   4.875   3.842
 5804SOL     OW18310   6.575   0.863   3.630
 5804SOL    HW118311   6.538   0.831   3.718
 5804SOL    HW218312   6.509   0.845   3.558
 5805SOL     OW18313   2.166   2.813   1.265
 5805SOL    HW118314   2.136   2.892   1.212
 5805SOL    HW218315   2.184   2.841   1.359
 5806SOL     OW18316   0.380   3.261   2.872
 5806SOL    HW118317   0.414   3.240   2.964
 5806SOL    HW218318   0.301   3.321   2.879
 5807SOL     OW18319   1.017   7.000   0.720
 5807SOL    HW118320   0.942   0.003   0.662
 5807SOL    HW218321   0.984   6.989   0.814
 5808SOL     OW18322   5.997   0.662   4.742
 5808SOL    HW118323   5.937   0.740   4.762
 5808SOL    HW218324   5.942   0.588   4.703
 5809SOL     OW18325   0.434   2.160   6.099
 5809SOL    HW118326   0.494   2.222   6.149
 5809SOL    HW218327   0.489   2.101   6.039
 5810SOL     OW18328   4.178   0.038   5.223
 5810SOL    HW118329   4.188   0.137   5.237
 5810SOL    HW218330   4.252   0.005   5.165
 5811SOL     OW18331   2.973   3.706   5.923
 5811SOL    HW118332   2.968   3.680   6.019
 5811SOL    HW218333   3.032   3.642   5.874
 5812SOL     OW18334   5.731   2.442   0.611
 5812SOL    HW118335   5.646   2.485   0.580
 5812SOL    HW218336   5.798   2.443   0.537
 5813SOL     OW18337   4.397   6.329   1.316
 5813SOL    HW118338   4.308   6.374   1.318
 5813SOL    HW218339   4.458   6.371   1.383
 5814SOL     OW18340   5.697   1.860   2.171
 5814SOL    HW118341   5.668   1.941   2.118
 5814SOL    HW218342   5.617   1.815   2.210
 5815SOL     OW18343   6.629   1.811   3.726
 5815SOL    HW118344   6.717   1.792   3.682
 5815SOL    HW218345   6.583   1.725   3.747
 5816SOL     OW18346   6.706   3.974   2.952
 5816SOL    HW118347   6.647   4.008   3.025
 5816SOL    HW218348   6.796   3.951   2.990
 5817SOL     OW18349   5.815   4.369   3.379
 5817SOL    HW118350   5.740   4.331   3.325
 5817SOL    HW218351   5.830   4.312   3.460
 5818SOL     OW18352   2.164   0.486   5.732
 5818SOL    HW118353   2.169   0.417   5.661
 5818SOL    HW218354   2.156   0.442   5.822
 5819SOL     OW18355   4.336   5.159   0.278
 5819SOL    HW118356   4.417   5.213   0.255
 5819SOL    HW218357   4.276   5.154   0.199
 5820SOL     OW18358   5.835   5.116   2.114
 5820SOL    HW118359   5.811   5.100   2.018
 5820SOL    HW218360   5.916   5.173   2.119
 5821SOL     OW18361   6.176   0.803   1.251
 5821SOL    HW118362   6.219   0.804   1.161
 5821SOL    HW218363   6.246   0.795   1.322
 5822SOL     OW18364   2.192   3.093   2.662
 5822SOL    HW118365   2.228   3.003   2.687
 5822SOL    HW218366   2.158   3.090   2.568
 5823SOL     OW18367   2.044   6.588   4.295
 5823SOL    HW118368   2.135   6.601   4.334
 5823SOL    HW218369   2.037   6.494   4.260
 5824SOL     OW18370   0.685   6.950   1.311
 5824SOL    HW118371   0.677   6.865   1.260
 5824SOL    HW218372   0.609   7.010   1.288
 5825SOL     OW18373   6.304   0.519   4.373
 5825SOL    HW118374   6.379   0.583   4.356
 5825SOL    HW218375   6.284   0.517   4.471
 5826SOL     OW18376   0.592   6.851   4.827
 5826SOL    HW118377   0.492   6.854   4.832
 5826SOL    HW218378   0.630   6.892   4.910
 5827SOL     OW18379   2.191   4.600   5.229
 5827SOL    HW118380   2.112   4.629   5.282
 5827SOL    HW218381   2.184   4.502   5.210
 5828SOL     OW18382   4.070   6.879   4.734
 5828SOL    HW118383   4.164   6.913   4.729
 5828SOL    HW218384   4.021   6.904   4.651
 5829SOL     OW18385   2.874   0.999   3.852
 5829SOL    HW118386   2.919   0.923   3.805
 5829SOL    HW218387   2.917   1.085   3.824
 5830SOL     OW18388   3.717   5.564   4.409
 5830SOL    HW118389   3.682   5.470   4.405
 5830SOL    HW218390   3.753   5.590   4.320
 5831SOL     OW18391   1.672   1.647   5.223
 5831SOL    HW118392   1.705   1.708   5.294
 5831SOL    HW218393   1.672   1.694   5.135
 5832SOL     OW18394   2.595   5.268   0.976
 5832SOL    HW118395   2.650   5.351   0.962
 5832SOL    HW218396   2.518   5.268   0.911
 5833SOL     OW18397   4.414   3.609   6.350
 5833SOL    HW118398   4.464   3.564   6.276
 5833SOL    HW218399   4.317   3.586   6.343
 5834SOL     OW18400   5.560   3.957   6.415
 5834SOL    HW118401   5.547   3.857   6.414
 5834SOL    HW218402   5.591   3.985   6.506
 5835SOL     OW18403   5.451   0.992   2.447
 5835SOL    HW118404   5.434   1.082   2.407
 5835SOL    HW218405   5.534   0.952   2.407
 5836SOL     OW18406   4.031   6.845   2.201
 5836SOL    HW118407   4.037   6.803   2.111
 5836SOL    HW218408   4.032   6.774   2.271
 5837SOL     OW18409   3.246   4.367   6.877
 5837SOL    HW118410   3.313   4.433   6.911
 5837SOL    HW218411   3.284   4.274   6.887
 5838SOL     OW18412   3.177   1.658   0.606
 5838SOL    HW118413   3.168   1.707   0.693
 5838SOL    HW218414   3.110   1.693   0.541
 5839SOL     OW18415   1.398   1.735   1.318
 5839SOL    HW118416   1.490   1.734   1.278
 5839SOL    HW218417   1.356   1.645   1.308
 5840SOL     OW18418   1.303   3.358   3.282
 5840SOL    HW118419   1.248   3.441   3.270
 5840SOL    HW218420   1.325   3.319   3.193
 5841SOL     OW18421   5.316   2.338   0.697
 5841SOL    HW118422   5.375   2.274   0.746
 5841SOL    HW218423   5.269   2.289   0.623
 5842SOL     OW18424   2.833   1.619   0.652
 5842SOL    HW118425   2.900   1.667   0.595
 5842SOL    HW218426   2.880   1.554   0.712
 5843SOL     OW18427   1.908   3.386   1.417
 5843SOL    HW118428   1.865   3.466   1.460
 5843SOL    HW218429   2.007   3.392   1.428
 5844SOL     OW18430   0.879   0.397   4.896
 5844SOL    HW118431   0.910   0.454   4.820
 5844SOL    HW218432   0.891   0.300   4.873
 5845SOL     OW18433   1.013   6.282   1.768
 5845SOL    HW118434   0.980   6.355   1.708
 5845SOL    HW218435   1.111   6.267   1.752
 5846SOL     OW18436   6.402   4.027   6.019
 5846SOL    HW118437   6.353   3.963   5.960
 5846SOL    HW218438   6.456   3.976   6.086
 5847SOL     OW18439   2.978   3.158   0.745
 5847SOL    HW118440   2.907   3.228   0.741
 5847SOL    HW218441   2.936   3.068   0.754
 5848SOL     OW18442   2.469   5.424   2.914
 5848SOL    HW118443   2.562   5.408   2.948
 5848SOL    HW218444   2.468   5.507   2.858
 5849SOL     OW18445   2.913   6.208   5.244
 5849SOL    HW118446   2.970   6.131   5.216
 5849SOL    HW218447   2.947   6.292   5.201
 5850SOL     OW18448   0.908   1.518   2.115
 5850SOL    HW118449   0.878   1.465   2.037
 5850SOL    HW218450   0.850   1.600   2.124
 5851SOL     OW18451   6.345   3.425   4.840
 5851SOL    HW118452   6.397   3.464   4.765
 5851SOL    HW218453   6.331   3.495   4.911
 5852SOL     OW18454   5.028   5.116   2.714
 5852SOL    HW118455   4.964   5.069   2.653
 5852SOL    HW218456   5.112   5.062   2.723
 5853SOL     OW18457   3.488   4.502   5.388
 5853SOL    HW118458   3.432   4.576   5.351
 5853SOL    HW218459   3.584   4.527   5.381
 5854SOL     OW18460   3.199   5.163   6.120
 5854SOL    HW118461   3.247   5.170   6.208
 5854SOL    HW218462   3.132   5.089   6.125
 5855SOL     OW18463   2.283   2.929   3.892
 5855SOL    HW118464   2.374   2.931   3.933
 5855SOL    HW218465   2.220   2.884   3.955
 5856SOL     OW18466   1.495   6.906   3.085
 5856SOL    HW118467   1.572   6.906   3.148
 5856SOL    HW218468   1.490   6.818   3.037
 5857SOL     OW18469   7.012   4.034   6.358
 5857SOL    HW118470   0.048   3.980   6.300
 5857SOL    HW218471   0.021   4.127   6.366
 5858SOL     OW18472   2.370   0.546   3.653
 5858SOL    HW118473   2.292   0.602   3.624
 5858SOL    HW218474   2.358   0.520   3.749
 5859SOL     OW18475   5.691   6.880   2.291
 5859SOL    HW118476   5.778   6.842   2.324
 5859SOL    HW218477   5.679   6.972   2.329
 5860SOL     OW18478   0.198   3.036   4.117
 5860SOL    HW118479   0.213   2.938   4.123
 5860SOL    HW218480   0.246   3.073   4.037
 5861SOL     OW18481   4.803   0.821   4.827
 5861SOL    HW118482   4.800   0.916   4.860
 5861SOL    HW218483   4.711   0.790   4.807
 5862SOL     OW18484   7.001   5.135   3.401
 5862SOL    HW118485   0.031   5.191   3.340
 5862SOL    HW218486   7.025   5.039   3.388
 5863SOL     OW18487   3.786   6.971   5.344
 5863SOL    HW118488   3.714   6.939   5.283
 5863SOL    HW218489   3.861   6.906   5.344
 5864SOL     OW18490   3.011   3.866   2.510
 5864SOL    HW118491   2.973   3.804   2.441
 5864SOL    HW218492   3.046   3.948   2.464
 5865SOL     OW18493   6.050   1.137   5.382
 5865SOL    HW118494   6.042   1.225   5.334
 5865SOL    HW218495   6.110   1.148   5.461
 5866SOL     OW18496   3.742   3.201   2.718
 5866SOL    HW118497   3.758   3.172   2.812
 5866SOL    HW218498   3.708   3.124   2.664
 5867SOL     OW18499   3.064   2.083   1.429
 5867SOL    HW118500   3.013   2.143   1.490
 5867SOL    HW218501   3.161   2.086   1.452
 5868SOL     OW18502   1.004   1.178   6.433
 5868SOL    HW118503   1.001   1.085   6.470
 5868SOL    HW218504   1.098   1.200   6.406
 5869SOL     OW18505   1.538   4.837   4.424
 5869SOL    HW118506   1.481   4.894   4.365
 5869SOL    HW218507   1.627   4.823   4.382
 5870SOL     OW18508   4.516   4.585   4.789
 5870SOL    HW118509   4.590   4.525   4.759
 5870SOL    HW218510   4.472   4.545   4.869
 5871SOL     OW18511   3.305   3.310   3.198
 5871SOL    HW118512   3.404   3.300   3.204
 5871SOL    HW218513   3.281   3.345   3.107
 5872SOL     OW18514   3.541   6.048   2.314
 5872SOL    HW118515   3.459   5.994   2.332
 5872SOL    HW218516   3.522   6.112   2.239
 5873SOL     OW18517   4.037   4.867   2.260
 5873SOL    HW118518   4.047   4.965   2.272
 5873SOL    HW218519   3.953   4.848   2.209
 5874SOL     OW18520   2.863   4.926   5.740
 5874SOL    HW118521   2.783   4.870   5.716
 5874SOL    HW218522   2.858   4.951   5.837
 5875SOL     OW18523   2.759   1.190   0.558
 5875SOL    HW118524   2.775   1.237   0.645
 5875SOL    HW218525   2.803   1.101   0.559
 5876SOL     OW18526   3.820   3.473   2.375
 5876SOL    HW118527   3.813   3.373   2.372
 5876SOL    HW218528   3.857   3.505   2.288
 5877SOL     OW18529   5.857   4.465   1.364
 5877SOL    HW118530   5.802   4.389   1.400
 5877SOL    HW218531   5.914   4.431   1.289
 5878SOL     OW18532   2.237   4.729   2.345
 5878SOL    HW118533   2.193   4.802   2.397
 5878SOL    HW218534   2.321   4.701   2.392
 5879SOL     OW18535   7.012   4.230   6.751
 5879SOL    HW118536   6.973   4.196   6.836
 5879SOL    HW218537   6.978   4.174   6.675
 5880SOL     OW18538   2.755   6.201   1.305
 5880SOL    HW118539   2.669   6.162   1.271
 5880SOL    HW218540   2.806   6.242   1.229
 5881SOL     OW18541   0.429   5.102   4.068
 5881SOL    HW118542   0.463   5.011   4.090
 5881SOL    HW218543   0.383   5.101   3.979
 5882SOL     OW18544   4.955   0.531   1.376
 5882SOL    HW118545   4.917   0.620   1.401
 5882SOL    HW218546   5.054   0.538   1.368
 5883SOL     OW18547   0.151   3.142   0.013
 5883SOL    HW118548   0.105   3.072   6.984
 5883SOL    HW218549   0.100   3.228   0.005
 5884SOL     OW18550   0.831   1.308   2.611
 5884SOL    HW118551   0.795   1.316   2.518
 5884SOL    HW218552   0.918   1.356   2.617
 5885SOL     OW18553   5.880   6.428   1.423
 5885SOL    HW118554   5.873   6.487   1.343
 5885SOL    HW218555   5.969   6.441   1.466
 5886SOL     OW18556   0.300   1.928   5.549
 5886SOL    HW118557   0.356   1.964   5.624
 5886SOL    HW218558   0.208   1.965   5.555
 5887SOL     OW18559   3.272   0.895   4.167
 5887SOL    HW118560   3.263   0.994   4.156
 5887SOL    HW218561   3.369   0.870   4.164
 5888SOL     OW18562   1.988   6.416   3.565
 5888SOL    HW118563   1.986   6.486   3.494
 5888SOL    HW218564   1.979   6.459   3.655
 5889SOL     OW18565   2.473   0.129   1.159
 5889SOL    HW118566   2.374   0.124   1.161
 5889SOL    HW218567   2.503   0.154   1.066
 5890SOL     OW18568   2.217   5.353   5.427
 5890SOL    HW118569   2.290   5.400   5.477
 5890SOL    HW218570   2.208   5.259   5.461
 5891SOL     OW18571   3.896   2.997   0.548
 5891SOL    HW118572   3.825   3.029   0.486
 5891SOL    HW218573   3.961   2.940   0.497
 5892SOL     OW18574   0.347   6.112   1.286
 5892SOL    HW118575   0.410   6.180   1.249
 5892SOL    HW218576   0.317   6.140   1.377
 5893SOL     OW18577   1.251   1.723   3.877
 5893SOL    HW118578   1.266   1.810   3.925
 5893SOL    HW218579   1.311   1.719   3.797
 5894SOL     OW18580   1.499   3.786   3.342
 5894SOL    HW118581   1.588   3.773   3.386
 5894SOL    HW218582   1.427   3.745   3.398
 5895SOL     OW18583   5.701   3.217   4.564
 5895SOL    HW118584   5.645   3.234   4.483
 5895SOL    HW218585   5.797   3.225   4.540
 5896SOL     OW18586   4.042   1.942   0.005
 5896SOL    HW118587   4.117   1.938   6.964
 5896SOL    HW218588   4.066   2.004   0.079
 5897SOL     OW18589   3.866   0.941   0.688
 5897SOL    HW118590   3.881   0.845   0.710
 5897SOL    HW218591   3.841   0.991   0.771
 5898SOL     OW18592   1.875   6.971   2.272
 5898SOL    HW118593   1.954   6.933   2.225
 5898SOL    HW218594   1.904   0.009   2.343
 5899SOL     OW18595   5.949   6.398   4.617
 5899SOL    HW118596   5.864   6.427   4.573
 5899SOL    HW218597   5.962   6.300   4.604
 5900SOL     OW18598   4.820   4.753   3.170
 5900SOL    HW118599   4.764   4.738   3.089
 5900SOL    HW218600   4.790   4.693   3.244
 5901SOL     OW18601   2.442   6.515   6.855
 5901SOL    HW118602   2.442   6.555   6.764
 5901SOL    HW218603   2.477   6.421   6.850
 5902SOL     OW18604   0.003   2.509   0.325
 5902SOL    HW118605   0.025   2.413   0.342
 5902SOL    HW218606   6.941   2.515   0.278
 5903SOL     OW18607   5.779   3.914   6.817
 5903SOL    HW118608   5.761   3.973   6.896
 5903SOL    HW218609   5.869   3.934   6.780
 5904SOL     OW18610   0.332   3.728   2.266
 5904SOL    HW118611   0.269   3.779   2.324
 5904SOL    HW218612   0.317   3.753   2.170
 5905SOL     OW18613   6.870   6.485   2.549
 5905SOL    HW118614   6.866   6.500   2.648
 5905SOL    HW218615   6.964   6.466   2.522
 5906SOL     OW18616   6.138   1.103   3.520
 5906SOL    HW118617   6.232   1.085   3.493
 5906SOL    HW218618   6.129   1.199   3.548
 5907SOL     OW18619   0.265   6.246   1.522
 5907SOL    HW118620   0.334   6.185   1.560
 5907SOL    HW218621   0.191   6.259   1.588
 5908SOL     OW18622   0.458   2.597   5.146
 5908SOL    HW118623   0.558   2.600   5.141
 5908SOL    HW218624   0.422   2.553   5.064
 5909SOL     OW18625   0.345   6.056   0.703
 5909SOL    HW118626   0.294   6.129   0.748
 5909SOL    HW218627   0.344   6.071   0.604
 5910SOL     OW18628   1.609   2.318   3.499
 5910SOL    HW118629   1.572   2.383   3.433
 5910SOL    HW218630   1.696   2.282   3.466
 5911SOL     OW18631   6.663   5.538   6.693
 5911SOL    HW118632   6.655   5.621   6.638
 5911SOL    HW218633   6.572   5.496   6.703
 5912SOL     OW18634   6.462   1.779   4.683
 5912SOL    HW118635   6.546   1.817   4.644
 5912SOL    HW218636   6.483   1.740   4.773
 5913SOL     OW18637   5.592   2.707   0.386
 5913SOL    HW118638   5.577   2.780   0.453
 5913SOL    HW218639   5.509   2.650   0.382
 5914SOL     OW18640   0.894   6.257   6.457
 5914SOL    HW118641   0.988   6.281   6.433
 5914SOL    HW218642   0.837   6.340   6.457
 5915SOL     OW18643   3.467   0.321   6.683
 5915SOL    HW118644   3.430   0.292   6.595
 5915SOL    HW218645   3.420   0.273   6.757
 5916SOL     OW18646   1.796   6.607   2.077
 5916SOL    HW118647   1.864   6.541   2.109
 5916SOL    HW218648   1.824   6.644   1.989
 5917SOL     OW18649   3.057   4.242   0.008
 5917SOL    HW118650   3.040   4.146   7.013
 5917SOL    HW218651   3.108   4.284   6.959
 5918SOL     OW18652   2.796   6.528   5.927
 5918SOL    HW118653   2.769   6.548   5.833
 5918SOL    HW218654   2.730   6.568   5.991
 5919SOL     OW18655   3.708   2.901   3.349
 5919SOL    HW118656   3.696   2.813   3.304
 5919SOL    HW218657   3.677   2.975   3.289
 5920SOL     OW18658   6.555   0.198   6.085
 5920SOL    HW118659   6.625   0.200   6.157
 5920SOL    HW218660   6.596   0.226   5.998
 5921SOL     OW18661   3.245   4.556   6.446
 5921SOL    HW118662   3.234   4.458   6.432
 5921SOL    HW218663   3.210   4.582   6.536
 5922SOL     OW18664   6.129   3.534   3.065
 5922SOL    HW118665   6.172   3.576   2.985
 5922SOL    HW218666   6.066   3.600   3.107
 5923SOL     OW18667   6.381   0.780   1.453
 5923SOL    HW118668   6.437   0.818   1.379
 5923SOL    HW218669   6.429   0.705   1.497
 5924SOL     OW18670   5.792   0.050   2.508
 5924SOL    HW118671   5.821   0.119   2.441
 5924SOL    HW218672   5.759   0.096   2.591
 5925SOL     OW18673   4.595   5.467   1.072
 5925SOL    HW118674   4.651   5.542   1.036
 5925SOL    HW218675   4.565   5.489   1.164
 5926SOL     OW18676   3.945   4.788   2.534
 5926SOL    HW118677   3.855   4.830   2.545
 5926SOL    HW218678   3.979   4.808   2.442
 5927SOL     OW18679   1.299   3.960   1.491
 5927SOL    HW118680   1.229   4.008   1.438
 5927SOL    HW218681   1.280   3.862   1.491
 5928SOL     OW18682   4.180   0.469   1.319
 5928SOL    HW118683   4.118   0.479   1.242
 5928SOL    HW218684   4.262   0.420   1.290
 5929SOL     OW18685   0.067   0.694   5.875
 5929SOL    HW118686   0.071   0.689   5.775
 5929SOL    HW218687   6.999   0.713   5.904
 5930SOL     OW18688   1.782   3.399   1.859
 5930SOL    HW118689   1.843   3.357   1.791
 5930SOL    HW218690   1.770   3.496   1.837
 5931SOL     OW18691   5.917   6.011   3.195
 5931SOL    HW118692   5.950   6.033   3.103
 5931SOL    HW218693   5.842   6.072   3.219
 5932SOL     OW18694   2.909   0.546   6.315
 5932SOL    HW118695   2.830   0.532   6.256
 5932SOL    HW218696   2.886   0.522   6.409
 5933SOL     OW18697   6.359   5.252   4.295
 5933SOL    HW118698   6.357   5.264   4.196
 5933SOL    HW218699   6.266   5.233   4.328
 5934SOL     OW18700   3.395   3.591   5.723
 5934SOL    HW118701   3.460   3.594   5.799
 5934SOL    HW218702   3.309   3.551   5.754
 5935SOL     OW18703   0.540   6.058   5.020
 5935SOL    HW118704   0.537   6.118   4.940
 5935SOL    HW218705   0.505   5.968   4.994
 5936SOL     OW18706   3.676   3.346   3.459
 5936SOL    HW118707   3.604   3.358   3.527
 5936SOL    HW218708   3.644   3.376   3.370
 5937SOL     OW18709   6.933   3.139   2.155
 5937SOL    HW118710   6.861   3.146   2.224
 5937SOL    HW218711   7.023   3.139   2.199
 5938SOL     OW18712   6.208   4.846   5.385
 5938SOL    HW118713   6.287   4.869   5.329
 5938SOL    HW218714   6.228   4.766   5.441
 5939SOL     OW18715   3.727   6.820   4.533
 5939SOL    HW118716   3.692   6.794   4.443
 5939SOL    HW218717   3.689   6.909   4.558
 5940SOL     OW18718   4.990   5.506   2.702
 5940SOL    HW118719   5.033   5.538   2.787
 5940SOL    HW218720   5.010   5.571   2.628
 5941SOL     OW18721   6.413   1.756   1.954
 5941SOL    HW118722   6.503   1.756   1.912
 5941SOL    HW218723   6.355   1.689   1.908
 5942SOL     OW18724   6.502   3.561   6.484
 5942SOL    HW118725   6.415   3.533   6.524
 5942SOL    HW218726   6.513   3.518   6.394
 5943SOL     OW18727   3.974   3.591   0.653
 5943SOL    HW118728   3.982   3.527   0.730
 5943SOL    HW218729   3.895   3.566   0.597
 5944SOL     OW18730   0.899   3.368   6.562
 5944SOL    HW118731   0.805   3.338   6.543
 5944SOL    HW218732   0.963   3.311   6.510
 5945SOL     OW18733   0.749   5.567   5.473
 5945SOL    HW118734   0.684   5.491   5.476
 5945SOL    HW218735   0.803   5.568   5.557
 5946SOL     OW18736   3.700   4.707   6.894
 5946SOL    HW118737   3.777   4.644   6.903
 5946SOL    HW218738   3.714   4.785   6.956
 5947SOL     OW18739   3.180   3.316   4.631
 5947SOL    HW118740   3.226   3.386   4.576
 5947SOL    HW218741   3.246   3.245   4.655
 5948SOL     OW18742   5.142   3.692   2.242
 5948SOL    HW118743   5.148   3.593   2.230
 5948SOL    HW218744   5.171   3.738   2.158
 5949SOL     OW18745   6.140   5.958   1.150
 5949SOL    HW118746   6.200   6.037   1.141
 5949SOL    HW218747   6.099   5.937   1.061
 5950SOL     OW18748   5.589   2.533   5.859
 5950SOL    HW118749   5.553   2.623   5.882
 5950SOL    HW218750   5.562   2.467   5.928
 5951SOL     OW18751   1.029   4.198   5.513
 5951SOL    HW118752   1.061   4.271   5.574
 5951SOL    HW218753   1.107   4.162   5.462
 5952SOL     OW18754   3.992   4.926   1.686
 5952SOL    HW118755   3.901   4.885   1.677
 5952SOL    HW218756   4.025   4.912   1.780
 5953SOL     OW18757   6.086   2.439   5.390
 5953SOL    HW118758   6.141   2.483   5.462
 5953SOL    HW218759   6.023   2.506   5.352
 5954SOL     OW18760   0.573   5.954   4.689
 5954SOL    HW118761   0.612   6.045   4.700
 5954SOL    HW218762   0.641   5.885   4.713
 5955SOL     OW18763   5.068   4.526   1.302
 5955SOL    HW118764   5.133   4.487   1.236
 5955SOL    HW218765   5.092   4.621   1.319
 5956SOL     OW18766   4.944   2.571   4.392
 5956SOL    HW118767   4.876   2.526   4.451
 5956SOL    HW218768   4.904   2.652   4.350
 5957SOL     OW18769   1.071   1.169   2.818
 5957SOL    HW118770   1.130   1.092   2.843
 5957SOL    HW218771   1.117   1.225   2.749
 5958SOL     OW18772   4.138   6.739   2.678
 5958SOL    HW118773   4.179   6.809   2.620
 5958SOL    HW218774   4.065   6.778   2.733
 5959SOL     OW18775   4.958   2.258   4.650
 5959SOL    HW118776   4.910   2.177   4.683
 5959SOL    HW218777   4.999   2.306   4.728
 5960SOL     OW18778   3.658   6.420   5.564
 5960SOL    HW118779   3.563   6.422   5.596
 5960SOL    HW218780   3.706   6.501   5.597
 5961SOL     OW18781   3.886   1.891   2.767
 5961SOL    HW118782   3.811   1.878   2.832
 5961SOL    HW218783   3.863   1.847   2.680
 5962SOL     OW18784   5.574   6.412   0.084
 5962SOL    HW118785   5.502   6.462   0.132
 5962SOL    HW218786   5.551   6.405   7.013
 5963SOL     OW18787   3.926   4.779   6.715
 5963SOL    HW118788   3.912   4.812   6.621
 5963SOL    HW218789   3.838   4.752   6.754
 5964SOL     OW18790   1.796   6.291   2.611
 5964SOL    HW118791   1.804   6.230   2.691
 5964SOL    HW218792   1.793   6.235   2.528
 5965SOL     OW18793   1.725   6.991   6.863
 5965SOL    HW118794   1.789   6.916   6.848
 5965SOL    HW218795   1.775   0.044   6.899
 5966SOL     OW18796   2.139   0.559   5.388
 5966SOL    HW118797   2.224   0.610   5.403
 5966SOL    HW218798   2.141   0.475   5.441
 5967SOL     OW18799   2.483   2.116   4.863
 5967SOL    HW118800   2.509   2.171   4.784
 5967SOL    HW218801   2.479   2.019   4.837
 5968SOL     OW18802   5.694   2.274   0.167
 5968SOL    HW118803   5.710   2.318   0.079
 5968SOL    HW218804   5.595   2.267   0.183
 5969SOL     OW18805   5.307   1.043   6.573
 5969SOL    HW118806   5.238   0.971   6.584
 5969SOL    HW218807   5.265   1.125   6.536
 5970SOL     OW18808   0.773   3.128   0.588
 5970SOL    HW118809   0.694   3.080   0.550
 5970SOL    HW218810   0.743   3.195   0.655
 5971SOL     OW18811   6.245   6.805   3.246
 5971SOL    HW118812   6.265   6.769   3.154
 5971SOL    HW218813   6.292   6.750   3.314
 5972SOL     OW18814   5.093   5.225   0.514
 5972SOL    HW118815   5.178   5.207   0.464
 5972SOL    HW218816   5.061   5.140   0.555
 5973SOL     OW18817   1.767   3.142   2.666
 5973SOL    HW118818   1.821   3.059   2.681
 5973SOL    HW218819   1.773   3.169   2.570
 5974SOL     OW18820   3.655   0.745   6.523
 5974SOL    HW118821   3.595   0.789   6.456
 5974SOL    HW218822   3.629   0.649   6.533
 5975SOL     OW18823   5.404   4.358   0.215
 5975SOL    HW118824   5.328   4.294   0.200
 5975SOL    HW218825   5.463   4.322   0.287
 5976SOL     OW18826   3.583   3.591   5.920
 5976SOL    HW118827   3.547   3.510   5.965
 5976SOL    HW218828   3.683   3.594   5.931
 5977SOL     OW18829   0.368   4.972   0.469
 5977SOL    HW118830   0.282   5.020   0.451
 5977SOL    HW218831   0.439   5.006   0.408
 5978SOL     OW18832   3.187   5.456   6.899
 5978SOL    HW118833   3.195   5.469   6.998
 5978SOL    HW218834   3.277   5.438   6.860
 5979SOL     OW18835   6.538   0.570   1.553
 5979SOL    HW118836   6.565   0.559   1.458
 5979SOL    HW218837   6.555   0.485   1.603
 5980SOL     OW18838   3.550   2.708   1.709
 5980SOL    HW118839   3.619   2.773   1.678
 5980SOL    HW218840   3.591   2.618   1.718
 5981SOL     OW18841   4.664   2.841   0.720
 5981SOL    HW118842   4.623   2.828   0.630
 5981SOL    HW218843   4.654   2.757   0.774
 5982SOL     OW18844   6.143   2.003   2.553
 5982SOL    HW118845   6.171   1.919   2.598
 5982SOL    HW218846   6.131   2.076   2.621
 5983SOL     OW18847   0.086   0.953   4.352
 5983SOL    HW118848   0.151   0.934   4.279
 5983SOL    HW218849   0.125   0.925   4.440
 5984SOL     OW18850   6.389   6.665   3.406
 5984SOL    HW118851   6.425   6.640   3.316
 5984SOL    HW218852   6.464   6.679   3.470
 5985SOL     OW18853   6.276   2.011   3.484
 5985SOL    HW118854   6.329   2.007   3.399
 5985SOL    HW218855   6.302   1.934   3.542
 5986SOL     OW18856   4.344   3.823   5.263
 5986SOL    HW118857   4.311   3.913   5.293
 5986SOL    HW218858   4.302   3.752   5.319
 5987SOL     OW18859   6.820   0.672   4.738
 5987SOL    HW118860   6.781   0.746   4.793
 5987SOL    HW218861   6.893   0.627   4.788
 5988SOL     OW18862   2.981   1.440   6.994
 5988SOL    HW118863   2.986   1.375   0.043
 5988SOL    HW218864   3.068   1.489   6.986
 5989SOL     OW18865   0.673   5.980   7.001
 5989SOL    HW118866   0.585   5.944   6.970
 5989SOL    HW218867   0.676   6.079   6.984
 5990SOL     OW18868   3.634   4.520   1.508
 5990SOL    HW118869   3.659   4.440   1.563
 5990SOL    HW218870   3.682   4.600   1.543
 5991SOL     OW18871   5.001   6.102   0.954
 5991SOL    HW118872   4.995   6.097   0.855
 5991SOL    HW218873   4.909   6.110   0.993
 5992SOL     OW18874   3.132   0.011   1.767
 5992SOL    HW118875   3.069   7.023   1.691
 5992SOL    HW218876   3.082   0.046   1.846
 5993SOL     OW18877   6.139   2.996   0.598
 5993SOL    HW118878   6.167   3.065   0.664
 5993SOL    HW218879   6.119   2.910   0.646
 5994SOL     OW18880   0.085   2.950   1.128
 5994SOL    HW118881   0.168   2.905   1.098
 5994SOL    HW218882   0.108   3.024   1.191
 5995SOL     OW18883   5.152   3.570   1.336
 5995SOL    HW118884   5.146   3.538   1.242
 5995SOL    HW218885   5.065   3.554   1.383
 5996SOL     OW18886   2.764   5.664   1.386
 5996SOL    HW118887   2.773   5.762   1.405
 5996SOL    HW218888   2.799   5.644   1.294
 5997SOL     OW18889   6.517   6.598   2.903
 5997SOL    HW118890   6.513   6.646   2.815
 5997SOL    HW218891   6.550   6.504   2.888
 5998SOL     OW18892   6.222   0.975   2.201
 5998SOL    HW118893   6.245   0.881   2.226
 5998SOL    HW218894   6.122   0.986   2.201
 5999SOL     OW18895   3.860   4.048   0.803
 5999SOL    HW118896   3.878   4.006   0.892
 5999SOL    HW218897   3.938   4.032   0.743
 6000SOL     OW18898   0.195   5.406   0.592
 6000SOL    HW118899   0.253   5.382   0.515
 6000SOL    HW218900   0.108   5.443   0.559
 6001SOL     OW18901   5.198   6.256   5.371
 6001SOL    HW118902   5.106   6.260   5.332
 6001SOL    HW218903   5.210   6.332   5.435
 6002SOL     OW18904   7.017   0.071   4.725
 6002SOL    HW118905   0.085   0.086   4.755
 6002SOL    HW218906   6.981   7.013   4.766
 6003SOL     OW18907   6.255   2.764   4.412
 6003SOL    HW118908   6.247   2.842   4.350
 6003SOL    HW218909   6.352   2.743   4.427
 6004SOL     OW18910   5.057   2.299   3.521
 6004SOL    HW118911   5.093   2.282   3.430
 6004SOL    HW218912   5.017   2.215   3.558
 6005SOL     OW18913   4.730   4.209   5.424
 6005SOL    HW118914   4.639   4.193   5.464
 6005SOL    HW218915   4.728   4.188   5.326
 6006SOL     OW18916   3.292   6.763   5.168
 6006SOL    HW118917   3.366   6.818   5.207
 6006SOL    HW218918   3.330   6.688   5.116
 6007SOL     OW18919   0.313   4.177   5.440
 6007SOL    HW118920   0.311   4.188   5.340
 6007SOL    HW218921   0.296   4.266   5.483
 6008SOL     OW18922   2.186   4.298   5.297
 6008SOL    HW118923   2.233   4.312   5.209
 6008SOL    HW218924   2.231   4.225   5.347
 6009SOL     OW18925   4.657   5.534   3.236
 6009SOL    HW118926   4.663   5.490   3.147
 6009SOL    HW218927   4.653   5.464   3.308
 6010SOL     OW18928   0.474   4.354   4.559
 6010SOL    HW118929   0.464   4.316   4.651
 6010SOL    HW218930   0.530   4.437   4.563
 6011SOL     OW18931   5.214   1.567   2.980
 6011SOL    HW118932   5.273   1.648   2.982
 6011SOL    HW218933   5.125   1.590   3.018
 6012SOL     OW18934   5.970   0.577   6.892
 6012SOL    HW118935   5.972   0.589   6.991
 6012SOL    HW218936   6.005   0.659   6.847
 6013SOL     OW18937   5.153   1.060   2.508
 6013SOL    HW118938   5.214   1.106   2.572
 6013SOL    HW218939   5.058   1.072   2.537
 6014SOL     OW18940   3.155   3.039   4.739
 6014SOL    HW118941   3.234   3.010   4.684
 6014SOL    HW218942   3.082   3.071   4.678
 6015SOL     OW18943   6.477   2.466   4.390
 6015SOL    HW118944   6.452   2.409   4.469
 6015SOL    HW218945   6.511   2.554   4.421
 6016SOL     OW18946   5.053   1.715   4.604
 6016SOL    HW118947   5.017   1.791   4.552
 6016SOL    HW218948   5.096   1.749   4.688
 6017SOL     OW18949   6.810   3.485   5.071
 6017SOL    HW118950   6.821   3.582   5.095
 6017SOL    HW218951   6.858   3.466   4.986
 6018SOL     OW18952   3.231   1.127   4.970
 6018SOL    HW118953   3.237   1.223   4.941
 6018SOL    HW218954   3.319   1.099   5.009
 6019SOL     OW18955   0.687   4.141   6.283
 6019SOL    HW118956   0.710   4.201   6.206
 6019SOL    HW218957   0.726   4.050   6.266
 6020SOL     OW18958   1.207   5.096   0.572
 6020SOL    HW118959   1.211   5.080   0.473
 6020SOL    HW218960   1.298   5.121   0.605
 6021SOL     OW18961   4.096   0.470   2.425
 6021SOL    HW118962   4.148   0.431   2.501
 6021SOL    HW218963   4.007   0.425   2.419
 6022SOL     OW18964   6.218   0.983   2.925
 6022SOL    HW118965   6.229   0.891   2.963
 6022SOL    HW218966   6.172   1.041   2.992
 6023SOL     OW18967   4.832   0.779   1.424
 6023SOL    HW118968   4.754   0.768   1.362
 6023SOL    HW218969   4.827   0.869   1.468
 6024SOL     OW18970   0.355   4.576   1.050
 6024SOL    HW118971   0.412   4.658   1.057
 6024SOL    HW218972   0.411   4.495   1.065
 6025SOL     OW18973   2.795   1.357   4.103
 6025SOL    HW118974   2.842   1.269   4.103
 6025SOL    HW218975   2.852   1.425   4.058
 6026SOL     OW18976   6.378   4.038   4.061
 6026SOL    HW118977   6.467   4.052   4.018
 6026SOL    HW218978   6.389   4.039   4.161
 6027SOL     OW18979   5.572   4.059   6.165
 6027SOL    HW118980   5.669   4.072   6.145
 6027SOL    HW218981   5.561   4.031   6.260
 6028SOL     OW18982   5.345   4.944   0.327
 6028SOL    HW118983   5.440   4.968   0.346
 6028SOL    HW218984   5.335   4.844   0.324
 6029SOL     OW18985   2.756   0.111   3.097
 6029SOL    HW118986   2.755   0.103   3.197
 6029SOL    HW218987   2.676   0.163   3.067
 6030SOL     OW18988   4.962   3.756   4.841
 6030SOL    HW118989   4.920   3.751   4.750
 6030SOL    HW218990   4.912   3.696   4.904
 6031SOL     OW18991   0.712   5.898   4.056
 6031SOL    HW118992   0.649   5.821   4.064
 6031SOL    HW218993   0.792   5.881   4.114
 6032SOL     OW18994   3.418   6.395   4.003
 6032SOL    HW118995   3.332   6.345   4.014
 6032SOL    HW218996   3.417   6.443   3.915
 6033SOL     OW18997   2.392   2.368   2.421
 6033SOL    HW118998   2.447   2.336   2.343
 6033SOL    HW218999   2.305   2.404   2.388
 6034SOL     OW19000   1.470   0.262   6.609
 6034SOL    HW119001   1.562   0.249   6.573
 6034SOL    HW219002   1.442   0.181   6.660
 6035SOL     OW19003   0.852   1.022   2.623
 6035SOL    HW119004   0.929   0.986   2.572
 6035SOL    HW219005   0.862   1.121   2.635
 6036SOL     OW19006   6.029   4.619   1.030
 6036SOL    HW119007   6.088   4.593   0.954
 6036SOL    HW219008   5.952   4.555   1.035
 6037SOL     OW19009   4.131   1.468   1.013
 6037SOL    HW119010   4.202   1.416   1.059
 6037SOL    HW219011   4.149   1.566   1.024
 6038SOL     OW19012   1.211   2.279   6.643
 6038SOL    HW119013   1.227   2.258   6.740
 6038SOL    HW219014   1.149   2.356   6.635
 6039SOL     OW19015   3.824   3.988   3.909
 6039SOL    HW119016   3.750   3.920   3.905
 6039SOL    HW219017   3.888   3.963   3.982
 6040SOL     OW19018   1.673   1.724   6.906
 6040SOL    HW119019   1.620   1.799   6.945
 6040SOL    HW219020   1.743   1.695   6.971
 6041SOL     OW19021   2.751   2.582   5.449
 6041SOL    HW119022   2.768   2.548   5.356
 6041SOL    HW219023   2.820   2.546   5.511
 6042SOL     OW19024   3.821   6.577   3.197
 6042SOL    HW119025   3.787   6.536   3.112
 6042SOL    HW219026   3.794   6.673   3.201
 6043SOL     OW19027   2.108   0.978   3.895
 6043SOL    HW119028   2.073   0.889   3.865
 6043SOL    HW219029   2.193   0.998   3.846
 6044SOL     OW19030   1.743   1.657   1.621
 6044SOL    HW119031   1.706   1.735   1.671
 6044SOL    HW219032   1.835   1.638   1.654
 6045SOL     OW19033   5.148   3.331   3.589
 6045SOL    HW119034   5.062   3.280   3.580
 6045SOL    HW219035   5.202   3.291   3.663
 6046SOL     OW19036   3.703   2.473   1.672
 6046SOL    HW119037   3.791   2.448   1.632
 6046SOL    HW219038   3.690   2.423   1.758
 6047SOL     OW19039   5.766   1.906   0.659
 6047SOL    HW119040   5.782   1.810   0.636
 6047SOL    HW219041   5.715   1.950   0.584
 6048SOL     OW19042   5.488   5.075   4.811
 6048SOL    HW119043   5.405   5.131   4.801
 6048SOL    HW219044   5.535   5.070   4.723
 6049SOL     OW19045   5.332   4.926   5.947
 6049SOL    HW119046   5.298   4.859   5.881
 6049SOL    HW219047   5.402   4.983   5.903
 6050SOL     OW19048   2.995   5.498   0.775
 6050SOL    HW119049   3.067   5.450   0.825
 6050SOL    HW219050   3.032   5.530   0.687
 6051SOL     OW19051   0.744   1.630   2.712
 6051SOL    HW119052   0.689   1.552   2.742
 6051SOL    HW219053   0.821   1.642   2.776
 6052SOL     OW19054   5.252   0.265   1.410
 6052SOL    HW119055   5.256   0.363   1.394
 6052SOL    HW219056   5.191   0.222   1.343
 6053SOL     OW19057   4.400   1.037   6.046
 6053SOL    HW119058   4.473   0.995   5.992
 6053SOL    HW219059   4.343   1.094   5.987
 6054SOL     OW19060   3.698   5.477   0.675
 6054SOL    HW119061   3.794   5.481   0.647
 6054SOL    HW219062   3.654   5.398   0.632
 6055SOL     OW19063   3.330   5.152   6.352
 6055SOL    HW119064   3.386   5.224   6.394
 6055SOL    HW219065   3.289   5.096   6.424
 6056SOL     OW19066   5.670   3.076   4.988
 6056SOL    HW119067   5.767   3.098   4.976
 6056SOL    HW219068   5.660   3.010   5.061
 6057SOL     OW19069   4.880   0.257   2.868
 6057SOL    HW119070   4.952   0.276   2.935
 6057SOL    HW219071   4.919   0.261   2.776
 6058SOL     OW19072   6.088   3.259   0.499
 6058SOL    HW119073   6.092   3.160   0.509
 6058SOL    HW219074   6.067   3.282   0.404
 6059SOL     OW19075   5.304   4.256   5.574
 6059SOL    HW119076   5.229   4.315   5.606
 6059SOL    HW219077   5.389   4.284   5.617
 6060SOL     OW19078   3.674   3.098   0.419
 6060SOL    HW119079   3.581   3.092   0.456
 6060SOL    HW219080   3.675   3.159   0.340
 6061SOL     OW19081   3.827   5.036   0.502
 6061SOL    HW119082   3.893   5.100   0.465
 6061SOL    HW219083   3.810   4.963   0.435
 6062SOL     OW19084   2.826   2.045   6.842
 6062SOL    HW119085   2.752   1.981   6.865
 6062SOL    HW219086   2.855   2.093   6.925
 6063SOL     OW19087   4.092   4.141   5.708
 6063SOL    HW119088   4.048   4.097   5.630
 6063SOL    HW219089   4.130   4.229   5.679
 6064SOL     OW19090   6.956   0.423   0.390
 6064SOL    HW119091   0.012   0.421   0.332
 6064SOL    HW219092   6.969   0.363   0.469
 6065SOL     OW19093   1.242   5.161   2.141
 6065SOL    HW119094   1.248   5.144   2.239
 6065SOL    HW219095   1.329   5.136   2.098
 6066SOL     OW19096   5.616   1.249   3.317
 6066SOL    HW119097   5.628   1.340   3.358
 6066SOL    HW219098   5.524   1.216   3.337
 6067SOL     OW19099   6.047   0.176   5.230
 6067SOL    HW119100   6.130   0.138   5.188
 6067SOL    HW219101   5.967   0.124   5.199
 6068SOL     OW19102   5.119   1.500   4.785
 6068SOL    HW119103   5.050   1.555   4.738
 6068SOL    HW219104   5.107   1.404   4.760
 6069SOL     OW19105   0.063   3.134   5.584
 6069SOL    HW119106   0.101   3.223   5.606
 6069SOL    HW219107   0.136   3.072   5.554
 6070SOL     OW19108   3.646   2.108   1.694
 6070SOL    HW119109   3.664   2.172   1.769
 6070SOL    HW219110   3.728   2.053   1.678
 6071SOL     OW19111   0.055   6.274   4.652
 6071SOL    HW119112   0.106   6.340   4.707
 6071SOL    HW219113   0.117   6.201   4.622
 6072SOL     OW19114   0.695   1.589   0.753
 6072SOL    HW119115   0.607   1.546   0.771
 6072SOL    HW219116   0.687   1.688   0.767
 6073SOL     OW19117   4.944   3.169   1.254
 6073SOL    HW119118   5.000   3.206   1.179
 6073SOL    HW219119   4.863   3.226   1.266
 6074SOL     OW19120   1.104   6.504   2.416
 6074SOL    HW119121   1.093   6.604   2.417
 6074SOL    HW219122   1.056   6.465   2.495
 6075SOL     OW19123   4.512   6.622   6.426
 6075SOL    HW119124   4.498   6.575   6.339
 6075SOL    HW219125   4.470   6.568   6.499
 6076SOL     OW19126   2.484   4.991   3.892
 6076SOL    HW119127   2.470   5.018   3.797
 6076SOL    HW219128   2.431   5.051   3.952
 6077SOL     OW19129   5.454   6.557   1.283
 6077SOL    HW119130   5.502   6.582   1.367
 6077SOL    HW219131   5.362   6.595   1.285
 6078SOL     OW19132   4.238   4.553   0.342
 6078SOL    HW119133   4.317   4.609   0.317
 6078SOL    HW219134   4.248   4.521   0.436
 6079SOL     OW19135   4.497   4.516   6.652
 6079SOL    HW119136   4.558   4.582   6.608
 6079SOL    HW219137   4.513   4.516   6.750
 6080SOL     OW19138   1.273   4.674   1.343
 6080SOL    HW119139   1.191   4.723   1.315
 6080SOL    HW219140   1.247   4.583   1.378
 6081SOL     OW19141   0.551   3.972   5.199
 6081SOL    HW119142   0.633   4.002   5.150
 6081SOL    HW219143   0.480   4.042   5.193
 6082SOL     OW19144   4.324   0.432   1.703
 6082SOL    HW119145   4.332   0.343   1.658
 6082SOL    HW219146   4.228   0.451   1.722
 6083SOL     OW19147   5.449   6.996   7.014
 6083SOL    HW119148   5.448   0.065   0.022
 6083SOL    HW219149   5.456   6.934   0.066
 6084SOL     OW19150   0.605   6.486   1.974
 6084SOL    HW119151   0.618   6.412   1.908
 6084SOL    HW219152   0.693   6.530   1.992
 6085SOL     OW19153   5.959   6.535   6.760
 6085SOL    HW119154   6.017   6.467   6.805
 6085SOL    HW219155   5.968   6.622   6.807
 6086SOL     OW19156   4.089   3.097   6.985
 6086SOL    HW119157   4.079   3.009   6.940
 6086SOL    HW219158   4.013   3.110   0.023
 6087SOL     OW19159   4.632   6.666   0.038
 6087SOL    HW119160   4.713   6.724   0.048
 6087SOL    HW219161   4.579   6.668   0.123
 6088SOL     OW19162   5.100   6.592   5.112
 6088SOL    HW119163   5.164   6.518   5.092
 6088SOL    HW219164   5.110   6.620   5.208
 6089SOL     OW19165   6.755   1.981   2.309
 6089SOL    HW119166   6.662   1.995   2.344
 6089SOL    HW219167   6.773   1.883   2.303
 6090SOL     OW19168   2.925   5.295   4.156
 6090SOL    HW119169   2.949   5.384   4.116
 6090SOL    HW219170   2.870   5.310   4.238
 6091SOL     OW19171   2.788   0.901   1.550
 6091SOL    HW119172   2.703   0.864   1.512
 6091SOL    HW219173   2.865   0.869   1.496
 6092SOL     OW19174   4.030   0.239   2.093
 6092SOL    HW119175   4.066   0.326   2.059
 6092SOL    HW219176   4.055   0.227   2.189
 6093SOL     OW19177   1.738   1.794   2.175
 6093SOL    HW119178   1.709   1.875   2.124
 6093SOL    HW219179   1.660   1.733   2.187
 6094SOL     OW19180   0.623   6.767   4.422
 6094SOL    HW119181   0.709   6.803   4.387
 6094SOL    HW219182   0.634   6.741   4.518
 6095SOL     OW19183   4.267   5.734   7.010
 6095SOL    HW119184   4.316   5.708   6.926
 6095SOL    HW219185   4.301   5.822   0.016
 6096SOL     OW19186   5.947   6.236   2.146
 6096SOL    HW119187   5.954   6.312   2.211
 6096SOL    HW219188   5.890   6.264   2.069
 6097SOL     OW19189   1.424   6.097   1.941
 6097SOL    HW119190   1.467   6.108   2.031
 6097SOL    HW219191   1.422   6.000   1.917
 6098SOL     OW19192   6.806   0.892   5.597
 6098SOL    HW119193   6.823   0.957   5.523
 6098SOL    HW219194   6.752   0.815   5.563
 6099SOL     OW19195   5.385   6.142   5.791
 6099SOL    HW119196   5.427   6.101   5.872
 6099SOL    HW219197   5.455   6.160   5.722
 6100SOL     OW19198   0.905   5.684   2.934
 6100SOL    HW119199   0.953   5.727   3.011
 6100SOL    HW219200   0.946   5.715   2.848
 6101SOL     OW19201   6.611   2.223   1.832
 6101SOL    HW119202   6.689   2.178   1.875
 6101SOL    HW219203   6.590   2.307   1.882
 6102SOL     OW19204   4.691   6.185   2.603
 6102SOL    HW119205   4.652   6.095   2.581
 6102SOL    HW219206   4.687   6.199   2.702
 6103SOL     OW19207   6.882   1.671   1.081
 6103SOL    HW119208   6.823   1.591   1.085
 6103SOL    HW219209   6.899   1.704   1.174
 6104SOL     OW19210   6.245   1.606   5.100
 6104SOL    HW119211   6.314   1.561   5.157
 6104SOL    HW219212   6.281   1.693   5.067
 6105SOL     OW19213   2.875   5.344   5.712
 6105SOL    HW119214   2.950   5.307   5.767
 6105SOL    HW219215   2.908   5.362   5.619
 6106SOL     OW19216   0.685   3.721   0.285
 6106SOL    HW119217   0.635   3.799   0.246
 6106SOL    HW219218   0.768   3.754   0.330
 6107SOL     OW19219   5.208   5.369   4.552
 6107SOL    HW119220   5.138   5.297   4.542
 6107SOL    HW219221   5.255   5.380   4.465
 6108SOL     OW19222   1.444   1.609   1.877
 6108SOL    HW119223   1.460   1.707   1.863
 6108SOL    HW219224   1.525   1.569   1.921
 6109SOL     OW19225   5.355   0.550   3.709
 6109SOL    HW119226   5.428   0.500   3.664
 6109SOL    HW219227   5.382   0.646   3.721
 6110SOL     OW19228   0.578   2.351   6.205
 6110SOL    HW119229   0.579   2.448   6.183
 6110SOL    HW219230   0.672   2.319   6.217
 6111SOL     OW19231   1.193   3.489   2.011
 6111SOL    HW119232   1.119   3.450   1.956
 6111SOL    HW219233   1.281   3.458   1.976
 6112SOL     OW19234   3.280   0.826   2.315
 6112SOL    HW119235   3.248   0.734   2.338
 6112SOL    HW219236   3.203   0.889   2.319
 6113SOL     OW19237   2.726   4.319   6.980
 6113SOL    HW119238   2.745   4.366   6.894
 6113SOL    HW219239   2.770   4.229   6.979
 6114SOL     OW19240   4.979   1.936   1.860
 6114SOL    HW119241   4.951   1.840   1.852
 6114SOL    HW219242   4.901   1.995   1.841
 6115SOL     OW19243   0.426   1.215   5.376
 6115SOL    HW119244   0.357   1.183   5.440
 6115SOL    HW219245   0.409   1.176   5.285
 6116SOL     OW19246   3.983   2.185   5.328
 6116SOL    HW119247   4.004   2.142   5.416
 6116SOL    HW219248   3.909   2.136   5.283
 6117SOL     OW19249   0.958   1.627   2.872
 6117SOL    HW119250   1.028   1.694   2.848
 6117SOL    HW219251   0.998   1.554   2.927
 6118SOL     OW19252   6.238   1.226   1.160
 6118SOL    HW119253   6.242   1.308   1.103
 6118SOL    HW219254   6.305   1.160   1.128
 6119SOL     OW19255   0.217   2.646   0.188
 6119SOL    HW119256   0.302   2.601   0.159
 6119SOL    HW219257   0.163   2.582   0.243
 6120SOL     OW19258   2.078   0.056   5.583
 6120SOL    HW119259   1.992   0.104   5.572
 6120SOL    HW219260   2.061   6.985   5.601
 6121SOL     OW19261   0.505   3.768   5.356
 6121SOL    HW119262   0.507   3.834   5.281
 6121SOL    HW219263   0.509   3.675   5.319
 6122SOL     OW19264   5.221   5.901   5.964
 6122SOL    HW119265   5.162   5.982   5.960
 6122SOL    HW219266   5.197   5.839   5.889
 6123SOL     OW19267   4.920   1.261   5.563
 6123SOL    HW119268   4.915   1.161   5.555
 6123SOL    HW219269   5.011   1.293   5.539
 6124SOL     OW19270   1.999   6.891   5.183
 6124SOL    HW119271   1.913   6.934   5.154
 6124SOL    HW219272   2.052   6.867   5.101
 6125SOL     OW19273   2.784   4.098   0.372
 6125SOL    HW119274   2.790   4.197   0.357
 6125SOL    HW219275   2.696   4.076   0.414
 6126SOL     OW19276   0.634   2.252   4.991
 6126SOL    HW119277   0.704   2.287   5.053
 6126SOL    HW219278   0.549   2.238   5.041
 6127SOL     OW19279   4.373   1.049   1.634
 6127SOL    HW119280   4.440   1.100   1.580
 6127SOL    HW219281   4.293   1.108   1.651
 6128SOL     OW19282   5.364   5.682   0.806
 6128SOL    HW119283   5.349   5.628   0.888
 6128SOL    HW219284   5.434   5.751   0.824
 6129SOL     OW19285   2.187   4.304   3.250
 6129SOL    HW119286   2.125   4.282   3.175
 6129SOL    HW219287   2.282   4.294   3.220
 6130SOL     OW19288   5.682   2.638   2.262
 6130SOL    HW119289   5.642   2.694   2.334
 6130SOL    HW219290   5.721   2.697   2.191
 6131SOL     OW19291   0.487   2.058   2.242
 6131SOL    HW119292   0.460   2.128   2.176
 6131SOL    HW219293   0.469   1.968   2.204
 6132SOL     OW19294   3.568   1.824   6.778
 6132SOL    HW119295   3.583   1.887   6.854
 6132SOL    HW219296   3.474   1.833   6.746
 6133SOL     OW19297   1.466   2.166   3.715
 6133SOL    HW119298   1.371   2.193   3.729
 6133SOL    HW219299   1.511   2.231   3.655
 6134SOL     OW19300   5.014   6.506   6.568
 6134SOL    HW119301   5.008   6.606   6.578
 6134SOL    HW219302   4.988   6.480   6.476
 6135SOL     OW19303   6.290   6.981   0.086
 6135SOL    HW119304   6.380   7.009   0.119
 6135SOL    HW219305   6.223   0.027   0.106
 6136SOL     OW19306   1.577   3.129   1.230
 6136SOL    HW119307   1.595   3.188   1.309
 6136SOL    HW219308   1.502   3.168   1.176
 6137SOL     OW19309   0.837   4.240   3.226
 6137SOL    HW119310   0.816   4.338   3.231
 6137SOL    HW219311   0.869   4.217   3.135
 6138SOL     OW19312   3.756   0.220   2.083
 6138SOL    HW119313   3.742   0.221   1.984
 6138SOL    HW219314   3.854   0.214   2.103
 6139SOL     OW19315   0.856   6.413   6.020
 6139SOL    HW119316   0.923   6.339   6.020
 6139SOL    HW219317   0.903   6.501   6.027
 6140SOL     OW19318   1.380   0.448   3.038
 6140SOL    HW119319   1.363   0.372   2.975
 6140SOL    HW219320   1.304   0.456   3.103
 6141SOL     OW19321   0.358   0.264   6.510
 6141SOL    HW119322   0.312   0.222   6.589
 6141SOL    HW219323   0.399   0.352   6.538
 6142SOL     OW19324   0.845   0.947   6.951
 6142SOL    HW119325   0.937   0.935   6.990
 6142SOL    HW219326   0.781   0.884   6.996
 6143SOL     OW19327   0.064   4.120   0.336
 6143SOL    HW119328   0.003   4.122   0.415
 6143SOL    HW219329   0.022   4.169   0.260
 6144SOL     OW19330   4.690   4.622   3.397
 6144SOL    HW119331   4.620   4.571   3.346
 6144SOL    HW219332   4.747   4.558   3.448
 6145SOL     OW19333   5.786   4.319   3.915
 6145SOL    HW119334   5.866   4.278   3.958
 6145SOL    HW219335   5.723   4.352   3.985
 6146SOL     OW19336   3.693   0.173   4.144
 6146SOL    HW119337   3.645   0.194   4.228
 6146SOL    HW219338   3.638   0.201   4.065
 6147SOL     OW19339   1.735   3.268   4.778
 6147SOL    HW119340   1.693   3.359   4.786
 6147SOL    HW219341   1.663   3.200   4.764
 6148SOL     OW19342   4.033   4.953   6.467
 6148SOL    HW119343   4.016   4.854   6.460
 6148SOL    HW219344   3.950   5.003   6.444
 6149SOL     OW19345   2.158   6.857   2.157
 6149SOL    HW119346   2.096   6.801   2.211
 6149SOL    HW219347   2.253   6.837   2.182
 6150SOL     OW19348   6.433   4.252   6.733
 6150SOL    HW119349   6.524   4.291   6.746
 6150SOL    HW219350   6.440   4.159   6.699
 6151SOL     OW19351   5.608   5.374   4.482
 6151SOL    HW119352   5.673   5.318   4.431
 6151SOL    HW219353   5.629   5.370   4.580
 6152SOL     OW19354   1.279   5.533   4.307
 6152SOL    HW119355   1.255   5.630   4.314
 6152SOL    HW219356   1.212   5.478   4.357
 6153SOL     OW19357   4.721   5.693   1.019
 6153SOL    HW119358   4.788   5.698   0.945
 6153SOL    HW219359   4.762   5.730   1.103
 6154SOL     OW19360   5.006   3.497   3.033
 6154SOL    HW119361   4.963   3.409   3.052
 6154SOL    HW219362   4.983   3.562   3.105
 6155SOL     OW19363   2.632   1.085   2.856
 6155SOL    HW119364   2.628   1.046   2.764
 6155SOL    HW219365   2.541   1.112   2.885
 6156SOL     OW19366   5.044   4.130   1.585
 6156SOL    HW119367   5.127   4.139   1.531
 6156SOL    HW219368   4.996   4.046   1.558
 6157SOL     OW19369   0.830   2.116   3.633
 6157SOL    HW119370   0.866   2.199   3.676
 6157SOL    HW219371   0.732   2.126   3.618
 6158SOL     OW19372   3.385   2.288   6.238
 6158SOL    HW119373   3.374   2.356   6.166
 6158SOL    HW219374   3.462   2.313   6.297
 6159SOL     OW19375   5.380   2.998   0.122
 6159SOL    HW119376   5.368   2.966   0.216
 6159SOL    HW219377   5.298   2.979   0.069
 6160SOL     OW19378   6.905   0.343   5.973
 6160SOL    HW119379   6.839   0.411   6.004
 6160SOL    HW219380   6.996   0.367   6.007
 6161SOL     OW19381   5.280   2.559   6.332
 6161SOL    HW119382   5.196   2.575   6.280
 6161SOL    HW219383   5.269   2.594   6.424
 6162SOL     OW19384   5.584   6.852   3.503
 6162SOL    HW119385   5.499   6.863   3.554
 6162SOL    HW219386   5.577   6.775   3.440
 6163SOL     OW19387   5.422   6.093   2.978
 6163SOL    HW119388   5.359   6.154   3.026
 6163SOL    HW219389   5.398   5.998   2.996
 6164SOL     OW19390   3.839   4.066   4.275
 6164SOL    HW119391   3.923   4.119   4.265
 6164SOL    HW219392   3.822   4.048   4.372
 6165SOL     OW19393   4.329   2.282   7.017
 6165SOL    HW119394   4.253   2.345   7.000
 6165SOL    HW219395   4.415   2.331   7.006
 6166SOL     OW19396   0.021   2.217   6.990
 6166SOL    HW119397   6.968   2.277   6.982
 6166SOL    HW219398   0.076   2.222   6.907
 6167SOL     OW19399   1.555   4.675   2.948
 6167SOL    HW119400   1.649   4.709   2.952
 6167SOL    HW219401   1.491   4.751   2.959
 6168SOL     OW19402   6.288   2.529   3.458
 6168SOL    HW119403   6.362   2.486   3.510
 6168SOL    HW219404   6.201   2.514   3.505
 6169SOL     OW19405   1.135   1.146   6.008
 6169SOL    HW119406   1.092   1.153   5.918
 6169SOL    HW219407   1.230   1.116   5.998
 6170SOL     OW19408   3.390   4.328   6.574
 6170SOL    HW119409   3.310   4.270   6.589
 6170SOL    HW219410   3.473   4.277   6.597
 6171SOL     OW19411   1.090   3.709   2.596
 6171SOL    HW119412   1.151   3.638   2.633
 6171SOL    HW219413   1.022   3.733   2.666
 6172SOL     OW19414   0.331   0.785   2.167
 6172SOL    HW119415   0.235   0.801   2.190
 6172SOL    HW219416   0.344   0.688   2.144
 6173SOL     OW19417   0.781   4.991   2.338
 6173SOL    HW119418   0.868   4.941   2.345
 6173SOL    HW219419   0.761   5.035   2.426
 6174SOL     OW19420   5.746   4.572   2.595
 6174SOL    HW119421   5.797   4.493   2.629
 6174SOL    HW219422   5.679   4.600   2.664
 6175SOL     OW19423   5.740   6.423   2.479
 6175SOL    HW119424   5.713   6.349   2.541
 6175SOL    HW219425   5.687   6.416   2.395
 6176SOL     OW19426   6.505   3.762   6.721
 6176SOL    HW119427   6.439   3.716   6.780
 6176SOL    HW219428   6.526   3.703   6.643
 6177SOL     OW19429   5.482   1.162   1.358
 6177SOL    HW119430   5.540   1.237   1.391
 6177SOL    HW219431   5.433   1.121   1.435
 6178SOL     OW19432   4.500   5.045   1.739
 6178SOL    HW119433   4.556   5.083   1.813
 6178SOL    HW219434   4.559   5.021   1.662
 6179SOL     OW19435   0.129   3.621   5.004
 6179SOL    HW119436   0.085   3.574   4.927
 6179SOL    HW219437   0.179   3.554   5.060
 6180SOL     OW19438   3.387   6.799   6.957
 6180SOL    HW119439   3.319   6.871   6.965
 6180SOL    HW219440   3.478   6.836   6.976
 6181SOL     OW19441   4.804   6.539   0.520
 6181SOL    HW119442   4.749   6.528   0.602
 6181SOL    HW219443   4.901   6.539   0.544
 6182SOL     OW19444   4.946   5.425   5.332
 6182SOL    HW119445   4.874   5.448   5.267
 6182SOL    HW219446   4.955   5.498   5.400
 6183SOL     OW19447   2.111   0.091   3.108
 6183SOL    HW119448   2.075   7.024   3.112
 6183SOL    HW219449   2.105   0.133   3.199
 6184SOL     OW19450   1.483   0.010   6.764
 6184SOL    HW119451   1.579   7.025   6.790
 6184SOL    HW219452   1.434   6.949   6.779
 6185SOL     OW19453   1.057   3.501   7.010
 6185SOL    HW119454   1.057   3.434   0.058
 6185SOL    HW219455   1.134   3.483   6.948
 6186SOL     OW19456   5.626   0.074   4.120
 6186SOL    HW119457   5.687   0.149   4.145
 6186SOL    HW219458   5.680   7.018   4.099
 6187SOL     OW19459   5.274   4.975   3.602
 6187SOL    HW119460   5.179   4.952   3.624
 6187SOL    HW219461   5.302   5.056   3.654
 6188SOL     OW19462   2.061   5.987   1.386
 6188SOL    HW119463   2.072   5.891   1.409
 6188SOL    HW219464   2.028   5.996   1.292
 6189SOL     OW19465   4.975   4.978   3.196
 6189SOL    HW119466   4.986   5.042   3.121
 6189SOL    HW219467   4.907   4.909   3.171
 6190SOL     OW19468   5.457   4.249   6.002
 6190SOL    HW119469   5.508   4.190   6.064
 6190SOL    HW219470   5.510   4.264   5.919
 6191SOL     OW19471   5.386   2.368   1.024
 6191SOL    HW119472   5.289   2.344   1.014
 6191SOL    HW219473   5.397   2.467   1.011
 6192SOL     OW19474   3.206   3.566   0.653
 6192SOL    HW119475   3.179   3.494   0.717
 6192SOL    HW219476   3.245   3.643   0.703
 6193SOL     OW19477   4.288   0.438   2.079
 6193SOL    HW119478   4.205   0.486   2.053
 6193SOL    HW219479   4.287   0.418   2.177
 6194SOL     OW19480   1.992   0.160   0.607
 6194SOL    HW119481   2.015   0.072   0.648
 6194SOL    HW219482   1.895   0.162   0.584
 6195SOL     OW19483   4.138   5.099   5.628
 6195SOL    HW119484   4.071   5.042   5.580
 6195SOL    HW219485   4.149   5.185   5.578
 6196SOL     OW19486   0.135   2.550   6.428
 6196SOL    HW119487   0.078   2.539   6.347
 6196SOL    HW219488   0.210   2.485   6.425
 6197SOL     OW19489   3.649   4.225   0.835
 6197SOL    HW119490   3.726   4.166   0.815
 6197SOL    HW219491   3.615   4.266   0.750
 6198SOL     OW19492   3.931   5.915   2.827
 6198SOL    HW119493   3.948   5.817   2.817
 6198SOL    HW219494   3.934   5.939   2.924
 6199SOL     OW19495   7.015   0.254   0.586
 6199SOL    HW119496   0.001   0.167   0.633
 6199SOL    HW219497   0.072   0.310   0.598
 6200SOL     OW19498   2.731   1.362   6.604
 6200SOL    HW119499   2.750   1.457   6.581
 6200SOL    HW219500   2.787   1.334   6.682
 6201SOL     OW19501   2.530   5.251   5.784
 6201SOL    HW119502   2.533   5.258   5.684
 6201SOL    HW219503   2.540   5.341   5.825
 6202SOL     OW19504   3.805   1.751   1.532
 6202SOL    HW119505   3.748   1.744   1.614
 6202SOL    HW219506   3.901   1.755   1.558
 6203SOL     OW19507   4.997   0.174   3.595
 6203SOL    HW119508   5.000   0.149   3.691
 6203SOL    HW219509   5.055   0.112   3.542
 6204SOL     OW19510   0.535   4.616   5.603
 6204SOL    HW119511   0.558   4.708   5.570
 6204SOL    HW219512   0.532   4.553   5.526
 6205SOL     OW19513   5.348   5.592   6.733
 6205SOL    HW119514   5.342   5.651   6.653
 6205SOL    HW219515   5.442   5.590   6.767
 6206SOL     OW19516   6.667   0.321   2.383
 6206SOL    HW119517   6.696   0.227   2.399
 6206SOL    HW219518   6.736   0.384   2.418
 6207SOL     OW19519   1.673   3.541   4.602
 6207SOL    HW119520   1.655   3.568   4.697
 6207SOL    HW219521   1.769   3.558   4.581
 6208SOL     OW19522   6.128   0.377   5.715
 6208SOL    HW119523   6.201   0.369   5.783
 6208SOL    HW219524   6.115   0.473   5.691
 6209SOL     OW19525   3.816   6.313   0.211
 6209SOL    HW119526   3.801   6.361   0.124
 6209SOL    HW219527   3.778   6.366   0.286
 6210SOL     OW19528   5.593   4.577   3.236
 6210SOL    HW119529   5.563   4.623   3.320
 6210SOL    HW219530   5.653   4.639   3.184
 6211SOL     OW19531   2.736   0.290   6.382
 6211SOL    HW119532   2.798   0.287   6.304
 6211SOL    HW219533   2.773   0.351   6.453
 6212SOL     OW19534   0.328   5.564   3.265
 6212SOL    HW119535   0.356   5.658   3.246
 6212SOL    HW219536   0.387   5.501   3.214
 6213SOL     OW19537   5.578   6.723   6.340
 6213SOL    HW119538   5.665   6.759   6.305
 6213SOL    HW219539   5.582   6.720   6.440
 6214SOL     OW19540   6.196   5.123   2.917
 6214SOL    HW119541   6.125   5.099   2.851
 6214SOL    HW219542   6.169   5.204   2.968
 6215SOL     OW19543   3.676   1.897   7.019
 6215SOL    HW119544   3.715   1.978   0.039
 6215SOL    HW219545   3.750   1.834   6.995
 6216SOL     OW19546   6.651   1.850   1.738
 6216SOL    HW119547   6.750   1.864   1.741
 6216SOL    HW219548   6.607   1.928   1.694
 6217SOL     OW19549   5.335   2.547   1.865
 6217SOL    HW119550   5.360   2.609   1.939
 6217SOL    HW219551   5.237   2.554   1.847
 6218SOL     OW19552   3.728   4.892   3.840
 6218SOL    HW119553   3.783   4.974   3.828
 6218SOL    HW219554   3.759   4.821   3.777
 6219SOL     OW19555   1.004   1.663   4.979
 6219SOL    HW119556   1.005   1.733   5.050
 6219SOL    HW219557   1.066   1.588   5.005
 6220SOL     OW19558   1.925   4.489   5.643
 6220SOL    HW119559   1.870   4.496   5.560
 6220SOL    HW219560   1.992   4.416   5.632
 6221SOL     OW19561   5.180   5.238   5.241
 6221SOL    HW119562   5.106   5.299   5.270
 6221SOL    HW219563   5.143   5.167   5.181
 6222SOL     OW19564   0.804   6.639   1.042
 6222SOL    HW119565   0.861   6.560   1.022
 6222SOL    HW219566   0.721   6.609   1.090
 6223SOL     OW19567   6.194   3.075   4.750
 6223SOL    HW119568   6.264   3.004   4.737
 6223SOL    HW219569   6.200   3.142   4.675
 6224SOL     OW19570   1.738   1.723   6.029
 6224SOL    HW119571   1.640   1.740   6.036
 6224SOL    HW219572   1.755   1.625   6.019
 6225SOL     OW19573   3.209   3.577   1.515
 6225SOL    HW119574   3.299   3.620   1.514
 6225SOL    HW219575   3.209   3.497   1.456
 6226SOL     OW19576   5.991   1.983   3.582
 6226SOL    HW119577   6.077   1.974   3.531
 6226SOL    HW219578   5.945   1.895   3.586
 6227SOL     OW19579   3.065   4.698   6.289
 6227SOL    HW119580   3.018   4.734   6.370
 6227SOL    HW219581   3.155   4.663   6.315
 6228SOL     OW19582   0.293   2.195   3.058
 6228SOL    HW119583   0.373   2.240   3.019
 6228SOL    HW219584   0.229   2.170   2.985
 6229SOL     OW19585   1.951   2.235   3.244
 6229SOL    HW119586   1.983   2.212   3.152
 6229SOL    HW219587   1.922   2.152   3.291
 6230SOL     OW19588   1.216   1.308   4.804
 6230SOL    HW119589   1.222   1.408   4.806
 6230SOL    HW219590   1.201   1.274   4.897
 6231SOL     OW19591   6.868   5.282   1.520
 6231SOL    HW119592   6.813   5.364   1.533
 6231SOL    HW219593   6.911   5.285   1.430
 6232SOL     OW19594   6.703   1.524   6.984
 6232SOL    HW119595   6.761   1.513   0.040
 6232SOL    HW219596   6.735   1.462   6.913
 6233SOL     OW19597   5.585   1.888   6.742
 6233SOL    HW119598   5.561   1.830   6.820
 6233SOL    HW219599   5.663   1.946   6.766
 6234SOL     OW19600   0.630   1.385   5.299
 6234SOL    HW119601   0.639   1.379   5.200
 6234SOL    HW219602   0.568   1.313   5.331
 6235SOL     OW19603   1.514   0.000   2.831
 6235SOL    HW119604   1.514   6.988   2.924
 6235SOL    HW219605   1.457   6.968   2.772
 6236SOL     OW19606   0.692   5.281   0.887
 6236SOL    HW119607   0.741   5.202   0.850
 6236SOL    HW219608   0.703   5.284   0.986
 6237SOL     OW19609   4.678   5.952   0.572
 6237SOL    HW119610   4.654   5.857   0.594
 6237SOL    HW219611   4.596   6.008   0.571
 6238SOL     OW19612   4.506   4.969   2.923
 6238SOL    HW119613   4.563   5.049   2.904
 6238SOL    HW219614   4.443   4.990   2.998
 6239SOL     OW19615   2.869   6.490   2.035
 6239SOL    HW119616   2.905   6.563   2.091
 6239SOL    HW219617   2.934   6.468   1.962
 6240SOL     OW19618   2.801   2.079   0.702
 6240SOL    HW119619   2.875   2.146   0.712
 6240SOL    HW219620   2.789   2.029   0.787
 6241SOL     OW19621   2.205   1.026   2.747
 6241SOL    HW119622   2.141   0.971   2.694
 6241SOL    HW219623   2.222   1.113   2.700
 6242SOL     OW19624   5.907   1.392   3.451
 6242SOL    HW119625   5.899   1.293   3.441
 6242SOL    HW219626   5.815   1.433   3.450
 6243SOL     OW19627   5.956   6.864   3.286
 6243SOL    HW119628   5.932   6.776   3.327
 6243SOL    HW219629   6.051   6.863   3.255
 6244SOL     OW19630   1.462   2.398   1.857
 6244SOL    HW119631   1.374   2.395   1.809
 6244SOL    HW219632   1.448   2.437   1.949
 6245SOL     OW19633   3.001   4.317   1.709
 6245SOL    HW119634   3.015   4.351   1.616
 6245SOL    HW219635   2.938   4.377   1.758
 6246SOL     OW19636   2.965   2.750   6.705
 6246SOL    HW119637   2.997   2.701   6.623
 6246SOL    HW219638   2.969   2.688   6.784
 6247SOL     OW19639   0.329   6.517   3.879
 6247SOL    HW119640   0.397   6.447   3.858
 6247SOL    HW219641   0.237   6.478   3.873
 6248SOL     OW19642   0.789   3.697   1.439
 6248SOL    HW119643   0.796   3.604   1.403
 6248SOL    HW219644   0.859   3.754   1.396
 6249SOL     OW19645   0.598   4.659   0.556
 6249SOL    HW119646   0.503   4.659   0.526
 6249SOL    HW219647   0.632   4.565   0.559
 6250SOL     OW19648   6.441   5.915   0.465
 6250SOL    HW119649   6.471   5.976   0.538
 6250SOL    HW219650   6.361   5.863   0.494
 6251SOL     OW19651   3.996   6.736   0.949
 6251SOL    HW119652   3.964   6.772   1.037
 6251SOL    HW219653   4.081   6.781   0.924
 6252SOL     OW19654   1.973   6.199   4.882
 6252SOL    HW119655   2.016   6.275   4.832
 6252SOL    HW219656   1.959   6.122   4.820
 6253SOL     OW19657   2.332   4.430   2.460
 6253SOL    HW119658   2.348   4.351   2.520
 6253SOL    HW219659   2.237   4.428   2.429
 6254SOL     OW19660   5.221   1.240   6.800
 6254SOL    HW119661   5.227   1.283   6.711
 6254SOL    HW219662   5.311   1.244   6.845
 6255SOL     OW19663   1.391   1.298   1.371
 6255SOL    HW119664   1.461   1.338   1.430
 6255SOL    HW219665   1.434   1.244   1.299
 6256SOL     OW19666   4.320   4.966   2.739
 6256SOL    HW119667   4.382   4.996   2.811
 6256SOL    HW219668   4.311   4.866   2.741
 6257SOL     OW19669   5.528   2.516   1.260
 6257SOL    HW119670   5.604   2.496   1.321
 6257SOL    HW219671   5.470   2.435   1.252
 6258SOL     OW19672   4.598   0.883   3.400
 6258SOL    HW119673   4.548   0.801   3.428
 6258SOL    HW219674   4.644   0.866   3.313
 6259SOL     OW19675   3.132   1.210   1.281
 6259SOL    HW119676   3.173   1.120   1.263
 6259SOL    HW219677   3.163   1.243   1.370
 6260SOL     OW19678   3.363   4.327   0.300
 6260SOL    HW119679   3.289   4.259   0.299
 6260SOL    HW219680   3.430   4.303   0.230
 6261SOL     OW19681   3.333   6.951   6.446
 6261SOL    HW119682   3.335   6.851   6.451
 6261SOL    HW219683   3.244   6.984   6.478
 6262SOL     OW19684   2.318   4.087   0.624
 6262SOL    HW119685   2.300   4.144   0.704
 6262SOL    HW219686   2.253   4.012   0.621
 6263SOL     OW19687   0.229   6.649   6.266
 6263SOL    HW119688   0.326   6.656   6.243
 6263SOL    HW219689   0.194   6.559   6.238
 6264SOL     OW19690   1.850   0.187   0.930
 6264SOL    HW119691   1.880   0.245   1.006
 6264SOL    HW219692   1.912   0.110   0.921
 6265SOL     OW19693   2.850   4.161   1.360
 6265SOL    HW119694   2.804   4.119   1.282
 6265SOL    HW219695   2.895   4.245   1.331
 6266SOL     OW19696   4.441   0.657   4.492
 6266SOL    HW119697   4.373   0.612   4.550
 6266SOL    HW219698   4.395   0.717   4.427
 6267SOL     OW19699   3.131   6.921   6.979
 6267SOL    HW119700   3.092   6.870   0.029
 6267SOL    HW219701   3.153   7.014   7.009
 6268SOL     OW19702   2.584   6.144   3.116
 6268SOL    HW119703   2.521   6.218   3.093
 6268SOL    HW219704   2.546   6.057   3.085
 6269SOL     OW19705   6.786   6.299   2.124
 6269SOL    HW119706   6.736   6.255   2.049
 6269SOL    HW219707   6.872   6.250   2.139
 6270SOL     OW19708   1.681   0.306   6.061
 6270SOL    HW119709   1.645   0.219   6.095
 6270SOL    HW219710   1.775   0.318   6.092
 6271SOL     OW19711   6.630   2.813   6.000
 6271SOL    HW119712   6.572   2.890   6.025
 6271SOL    HW219713   6.726   2.837   6.017
 6272SOL     OW19714   0.724   3.053   4.989
 6272SOL    HW119715   0.794   3.091   4.928
 6272SOL    HW219716   0.687   3.126   5.047
 6273SOL     OW19717   1.498   0.514   2.231
 6273SOL    HW119718   1.416   0.517   2.173
 6273SOL    HW219719   1.578   0.536   2.175
 6274SOL     OW19720   2.391   5.461   5.592
 6274SOL    HW119721   2.488   5.474   5.572
 6274SOL    HW219722   2.363   5.527   5.662
 6275SOL     OW19723   2.891   6.548   5.455
 6275SOL    HW119724   2.980   6.578   5.423
 6275SOL    HW219725   2.835   6.628   5.479
 6276SOL     OW19726   1.704   4.941   3.293
 6276SOL    HW119727   1.713   4.968   3.389
 6276SOL    HW219728   1.659   4.852   3.287
 6277SOL     OW19729   4.478   2.460   2.844
 6277SOL    HW119730   4.533   2.525   2.792
 6277SOL    HW219731   4.433   2.396   2.781
 6278SOL     OW19732   5.039   0.482   4.858
 6278SOL    HW119733   5.106   0.427   4.907
 6278SOL    HW219734   4.979   0.529   4.923
 6279SOL     OW19735   4.002   1.239   0.241
 6279SOL    HW119736   4.046   1.149   0.231
 6279SOL    HW219737   3.921   1.230   0.299
 6280SOL     OW19738   0.252   2.964   5.487
 6280SOL    HW119739   0.298   2.903   5.552
 6280SOL    HW219740   0.244   2.917   5.399
 6281SOL     OW19741   2.493   6.318   5.468
 6281SOL    HW119742   2.476   6.408   5.509
 6281SOL    HW219743   2.442   6.311   5.382
 6282SOL     OW19744   1.345   0.053   4.606
 6282SOL    HW119745   1.249   0.064   4.629
 6282SOL    HW219746   1.388   0.143   4.599
 6283SOL     OW19747   6.467   2.298   4.881
 6283SOL    HW119748   6.370   2.275   4.888
 6283SOL    HW219749   6.508   2.302   4.972
 6284SOL     OW19750   2.053   5.469   5.227
 6284SOL    HW119751   2.103   5.540   5.277
 6284SOL    HW219752   2.109   5.387   5.220
 6285SOL     OW19753   1.166   2.856   3.731
 6285SOL    HW119754   1.221   2.888   3.655
 6285SOL    HW219755   1.223   2.802   3.793
 6286SOL     OW19756   6.419   1.682   4.018
 6286SOL    HW119757   6.475   1.649   3.942
 6286SOL    HW219758   6.323   1.681   3.992
 6287SOL     OW19759   4.973   4.485   2.467
 6287SOL    HW119760   4.990   4.410   2.404
 6287SOL    HW219761   4.902   4.545   2.429
 6288SOL     OW19762   5.161   3.972   1.781
 6288SOL    HW119763   5.192   4.029   1.858
 6288SOL    HW219764   5.096   4.024   1.726
 6289SOL     OW19765   1.555   2.663   3.124
 6289SOL    HW119766   1.507   2.722   3.188
 6289SOL    HW219767   1.640   2.706   3.095
 6290SOL     OW19768   5.656   3.641   4.265
 6290SOL    HW119769   5.707   3.656   4.349
 6290SOL    HW219770   5.585   3.573   4.280
 6291SOL     OW19771   4.124   3.539   4.254
 6291SOL    HW119772   4.132   3.470   4.325
 6291SOL    HW219773   4.080   3.621   4.292
 6292SOL     OW19774   0.333   3.189   3.203
 6292SOL    HW119775   0.314   3.215   3.297
 6292SOL    HW219776   0.248   3.172   3.154
 6293SOL     OW19777   4.191   6.742   0.067
 6293SOL    HW119778   4.208   6.675   7.020
 6293SOL    HW219779   4.151   6.824   0.028
 6294SOL     OW19780   3.660   4.899   3.200
 6294SOL    HW119781   3.721   4.820   3.192
 6294SOL    HW219782   3.569   4.875   3.165
 6295SOL     OW19783   5.005   5.615   5.537
 6295SOL    HW119784   5.102   5.629   5.558
 6295SOL    HW219785   4.969   5.541   5.594
 6296SOL     OW19786   6.917   0.363   4.049
 6296SOL    HW119787   6.924   0.285   4.110
 6296SOL    HW219788   6.921   0.448   4.102
 6297SOL     OW19789   4.985   0.162   5.274
 6297SOL    HW119790   4.961   0.143   5.179
 6297SOL    HW219791   5.021   0.079   5.317
 6298SOL     OW19792   1.828   4.000   6.563
 6298SOL    HW119793   1.903   3.949   6.604
 6298SOL    HW219794   1.812   3.966   6.469
 6299SOL     OW19795   5.955   2.402   6.458
 6299SOL    HW119796   5.974   2.453   6.375
 6299SOL    HW219797   6.040   2.365   6.496
 6300SOL     OW19798   5.521   0.740   4.842
 6300SOL    HW119799   5.510   0.760   4.744
 6300SOL    HW219800   5.572   0.814   4.886
 6301SOL     OW19801   2.628   0.249   1.339
 6301SOL    HW119802   2.582   0.190   1.273
 6301SOL    HW219803   2.718   0.275   1.303
 6302SOL     OW19804   1.100   1.268   4.090
 6302SOL    HW119805   1.185   1.312   4.062
 6302SOL    HW219806   1.063   1.216   4.012
 6303SOL     OW19807   2.429   0.820   4.941
 6303SOL    HW119808   2.433   0.916   4.913
 6303SOL    HW219809   2.522   0.785   4.954
 6304SOL     OW19810   2.547   0.871   1.345
 6304SOL    HW119811   2.535   0.963   1.308
 6304SOL    HW219812   2.461   0.840   1.385
 6305SOL     OW19813   5.914   6.570   1.195
 6305SOL    HW119814   5.837   6.627   1.166
 6305SOL    HW219815   5.945   6.515   1.118
 6306SOL     OW19816   0.012   3.786   4.533
 6306SOL    HW119817   0.087   3.740   4.580
 6306SOL    HW219818   7.005   3.729   4.458
 6307SOL     OW19819   3.578   4.796   5.889
 6307SOL    HW119820   3.511   4.822   5.958
 6307SOL    HW219821   3.650   4.865   5.883
 6308SOL     OW19822   1.380   1.730   5.182
 6308SOL    HW119823   1.406   1.821   5.150
 6308SOL    HW219824   1.453   1.665   5.163
 6309SOL     OW19825   4.863   3.840   4.261
 6309SOL    HW119826   4.942   3.900   4.249
 6309SOL    HW219827   4.780   3.894   4.264
 6310SOL     OW19828   2.392   4.584   3.919
 6310SOL    HW119829   2.293   4.585   3.931
 6310SOL    HW219830   2.420   4.662   3.863
 6311SOL     OW19831   6.360   0.802   5.170
 6311SOL    HW119832   6.324   0.894   5.188
 6311SOL    HW219833   6.292   0.750   5.117
 6312SOL     OW19834   4.537   4.832   5.780
 6312SOL    HW119835   4.537   4.806   5.683
 6312SOL    HW219836   4.445   4.861   5.807
 6313SOL     OW19837   1.578   6.114   3.307
 6313SOL    HW119838   1.517   6.053   3.358
 6313SOL    HW219839   1.597   6.075   3.217
 6314SOL     OW19840   3.622   6.527   1.613
 6314SOL    HW119841   3.565   6.461   1.661
 6314SOL    HW219842   3.650   6.599   1.677
 6315SOL     OW19843   4.107   2.402   6.886
 6315SOL    HW119844   4.026   2.344   6.885
 6315SOL    HW219845   4.105   2.464   6.807
 6316SOL     OW19846   4.529   2.538   6.271
 6316SOL    HW119847   4.454   2.585   6.225
 6316SOL    HW219848   4.495   2.491   6.352
 6317SOL     OW19849   5.468   6.632   3.373
 6317SOL    HW119850   5.452   6.643   3.274
 6317SOL    HW219851   5.425   6.548   3.404
 6318SOL     OW19852   2.792   2.479   5.204
 6318SOL    HW119853   2.837   2.390   5.192
 6318SOL    HW219854   2.698   2.473   5.172
 6319SOL     OW19855   0.373   2.915   3.540
 6319SOL    HW119856   0.357   3.011   3.515
 6319SOL    HW219857   0.286   2.869   3.552
 6320SOL     OW19858   5.902   4.624   3.398
 6320SOL    HW119859   5.877   4.529   3.376
 6320SOL    HW219860   5.868   4.647   3.489
 6321SOL     OW19861   3.130   5.342   1.151
 6321SOL    HW119862   3.192   5.334   1.229
 6321SOL    HW219863   3.160   5.417   1.091
 6322SOL     OW19864   1.555   2.061   6.254
 6322SOL    HW119865   1.507   1.974   6.248
 6322SOL    HW219866   1.630   2.054   6.320
 6323SOL     OW19867   3.553   2.547   1.408
 6323SOL    HW119868   3.639   2.548   1.459
 6323SOL    HW219869   3.485   2.495   1.460
 6324SOL     OW19870   4.325   0.774   6.022
 6324SOL    HW119871   4.365   0.857   6.061
 6324SOL    HW219872   4.369   0.754   5.934
 6325SOL     OW19873   1.239   2.325   1.684
 6325SOL    HW119874   1.195   2.298   1.770
 6325SOL    HW219875   1.267   2.243   1.634
 6326SOL     OW19876   5.356   5.564   1.071
 6326SOL    HW119877   5.308   5.478   1.089
 6326SOL    HW219878   5.449   5.559   1.108
 6327SOL     OW19879   7.025   0.362   5.048
 6327SOL    HW119880   6.974   0.332   4.967
 6327SOL    HW219881   0.058   0.287   5.079
 6328SOL     OW19882   2.394   3.734   0.036
 6328SOL    HW119883   2.363   3.678   6.985
 6328SOL    HW219884   2.467   3.686   0.085
 6329SOL     OW19885   0.989   1.542   3.813
 6329SOL    HW119886   0.934   1.492   3.881
 6329SOL    HW219887   1.036   1.618   3.857
 6330SOL     OW19888   4.666   1.083   0.922
 6330SOL    HW119889   4.699   1.015   0.856
 6330SOL    HW219890   4.709   1.171   0.902
 6331SOL     OW19891   6.435   2.997   0.783
 6331SOL    HW119892   6.393   3.009   0.874
 6331SOL    HW219893   6.425   2.902   0.754
 6332SOL     OW19894   6.210   5.222   1.648
 6332SOL    HW119895   6.161   5.144   1.609
 6332SOL    HW219896   6.271   5.262   1.579
 6333SOL     OW19897   3.844   5.098   3.557
 6333SOL    HW119898   3.925   5.142   3.518
 6333SOL    HW219899   3.792   5.165   3.610
 6334SOL     OW19900   1.973   6.948   2.644
 6334SOL    HW119901   1.880   6.981   2.659
 6334SOL    HW219902   2.011   6.990   2.561
 6335SOL     OW19903   5.586   1.712   0.302
 6335SOL    HW119904   5.680   1.678   0.295
 6335SOL    HW219905   5.523   1.635   0.302
 6336SOL     OW19906   0.118   2.236   4.941
 6336SOL    HW119907   0.062   2.187   4.874
 6336SOL    HW219908   0.100   2.334   4.934
 6337SOL     OW19909   4.857   3.570   6.081
 6337SOL    HW119910   4.814   3.590   5.993
 6337SOL    HW219911   4.840   3.645   6.145
 6338SOL     OW19912   2.731   2.273   2.395
 6338SOL    HW119913   2.766   2.259   2.302
 6338SOL    HW219914   2.632   2.286   2.392
 6339SOL     OW19915   0.389   2.615   3.864
 6339SOL    HW119916   0.429   2.651   3.781
 6339SOL    HW219917   0.452   2.550   3.906
 6340SOL     OW19918   2.323   5.483   3.309
 6340SOL    HW119919   2.285   5.530   3.389
 6340SOL    HW219920   2.394   5.419   3.338
 6341SOL     OW19921   6.865   4.855   3.828
 6341SOL    HW119922   6.942   4.833   3.768
 6341SOL    HW219923   6.820   4.770   3.857
 6342SOL     OW19924   2.426   1.969   1.600
 6342SOL    HW119925   2.487   2.015   1.536
 6342SOL    HW219926   2.479   1.939   1.680
 6343SOL     OW19927   4.980   2.667   6.861
 6343SOL    HW119928   4.897   2.719   6.841
 6343SOL    HW219929   4.997   2.600   6.788
 6344SOL     OW19930   6.740   3.468   5.884
 6344SOL    HW119931   6.656   3.442   5.836
 6344SOL    HW219932   6.722   3.549   5.939
 6345SOL     OW19933   4.183   1.355   2.277
 6345SOL    HW119934   4.174   1.307   2.189
 6345SOL    HW219935   4.270   1.329   2.320
 6346SOL     OW19936   6.417   3.659   3.533
 6346SOL    HW119937   6.322   3.666   3.501
 6346SOL    HW219938   6.479   3.683   3.458
 6347SOL     OW19939   3.127   0.799   1.788
 6347SOL    HW119940   3.163   0.814   1.880
 6347SOL    HW219941   3.035   0.760   1.793
 6348SOL     OW19942   0.898   4.016   5.091
 6348SOL    HW119943   0.829   4.007   5.019
 6348SOL    HW219944   0.863   3.976   5.176
 6349SOL     OW19945   2.692   0.739   2.031
 6349SOL    HW119946   2.732   0.650   2.052
 6349SOL    HW219947   2.733   0.773   1.946
 6350SOL     OW19948   1.716   5.034   3.555
 6350SOL    HW119949   1.755   4.962   3.612
 6350SOL    HW219950   1.710   5.119   3.607
 6351SOL     OW19951   6.537   2.612   1.755
 6351SOL    HW119952   6.590   2.676   1.811
 6351SOL    HW219953   6.440   2.636   1.759
 6352SOL     OW19954   1.487   5.147   4.140
 6352SOL    HW119955   1.480   5.081   4.066
 6352SOL    HW219956   1.579   5.188   4.140
 6353SOL     OW19957   6.521   0.361   6.420
 6353SOL    HW119958   6.587   0.435   6.409
 6353SOL    HW219959   6.532   0.319   6.510
 6354SOL     OW19960   0.821   6.859   2.756
 6354SOL    HW119961   0.764   6.934   2.789
 6354SOL    HW219962   0.839   6.871   2.659
 6355SOL     OW19963   0.466   4.412   5.064
 6355SOL    HW119964   0.551   4.425   5.014
 6355SOL    HW219965   0.455   4.486   5.131
 6356SOL     OW19966   5.098   4.863   2.011
 6356SOL    HW119967   5.124   4.790   2.074
 6356SOL    HW219968   5.008   4.898   2.036
 6357SOL     OW19969   4.892   2.902   1.090
 6357SOL    HW119970   4.890   2.971   1.162
 6357SOL    HW219971   4.863   2.814   1.128
 6358SOL     OW19972   0.359   2.307   4.718
 6358SOL    HW119973   0.455   2.280   4.720
 6358SOL    HW219974   0.308   2.247   4.657
 6359SOL     OW19975   6.718   0.651   5.481
 6359SOL    HW119976   6.753   0.558   5.471
 6359SOL    HW219977   6.656   0.672   5.406
 6360SOL     OW19978   2.323   4.345   3.718
 6360SOL    HW119979   2.364   4.392   3.795
 6360SOL    HW219980   2.288   4.256   3.747
 6361SOL     OW19981   5.063   6.638   6.995
 6361SOL    HW119982   5.113   6.702   6.936
 6361SOL    HW219983   4.970   6.671   7.010
 6362SOL     OW19984   6.077   4.920   0.208
 6362SOL    HW119985   6.124   4.991   0.156
 6362SOL    HW219986   6.081   4.834   0.158
 6363SOL     OW19987   2.120   5.513   3.820
 6363SOL    HW119988   2.060   5.592   3.808
 6363SOL    HW219989   2.191   5.536   3.886
 6364SOL     OW19990   3.217   1.598   6.070
 6364SOL    HW119991   3.289   1.665   6.057
 6364SOL    HW219992   3.153   1.602   5.993
 6365SOL     OW19993   4.685   6.908   4.356
 6365SOL    HW119994   4.693   6.944   4.264
 6365SOL    HW219995   4.758   6.945   4.413
 6366SOL     OW19996   1.107   5.588   5.384
 6366SOL    HW119997   1.093   5.536   5.468
 6366SOL    HW219998   1.203   5.615   5.378
 6367SOL     OW19999   4.686   0.411   3.879
 6367SOL    HW120000   4.687   0.350   3.799
 6367SOL    HW220001   4.658   0.359   3.960
 6368SOL     OW20002   3.009   0.216   4.246
 6368SOL    HW120003   3.076   0.282   4.214
 6368SOL    HW220004   2.969   0.248   4.332
 6369SOL     OW20005   3.671   4.969   4.101
 6369SOL    HW120006   3.682   4.930   4.009
 6369SOL    HW220007   3.580   4.946   4.136
 6370SOL     OW20008   0.945   2.747   2.572
 6370SOL    HW120009   0.962   2.691   2.654
 6370SOL    HW220010   1.029   2.750   2.517
 6371SOL     OW20011   4.895   3.175   3.665
 6371SOL    HW120012   4.915   3.197   3.760
 6371SOL    HW220013   4.830   3.099   3.661
 6372SOL     OW20014   3.122   6.699   1.666
 6372SOL    HW120015   3.196   6.765   1.675
 6372SOL    HW220016   3.090   6.698   1.571
 6373SOL     OW20017   6.407   4.224   4.559
 6373SOL    HW120018   6.412   4.204   4.657
 6373SOL    HW220019   6.483   4.284   4.533
 6374SOL     OW20020   2.959   3.601   3.943
 6374SOL    HW120021   2.959   3.546   4.027
 6374SOL    HW220022   3.036   3.664   3.944
 6375SOL     OW20023   1.171   1.219   3.232
 6375SOL    HW120024   1.174   1.152   3.158
 6375SOL    HW220025   1.076   1.235   3.258
 6376SOL     OW20026   6.660   1.623   5.225
 6376SOL    HW120027   6.645   1.550   5.158
 6376SOL    HW220028   6.594   1.614   5.300
 6377SOL     OW20029   6.605   0.927   6.022
 6377SOL    HW120030   6.618   0.831   6.044
 6377SOL    HW220031   6.508   0.946   6.006
 6378SOL     OW20032   5.237   4.858   3.220
 6378SOL    HW120033   5.185   4.787   3.173
 6378SOL    HW220034   5.183   4.942   3.224
 6379SOL     OW20035   2.249   4.878   4.626
 6379SOL    HW120036   2.203   4.847   4.709
 6379SOL    HW220037   2.348   4.867   4.637
 6380SOL     OW20038   1.017   1.451   5.540
 6380SOL    HW120039   0.954   1.412   5.608
 6380SOL    HW220040   1.090   1.385   5.521
 6381SOL     OW20041   3.159   3.027   2.482
 6381SOL    HW120042   3.081   3.060   2.535
 6381SOL    HW220043   3.239   3.016   2.542
 6382SOL     OW20044   1.695   2.782   6.856
 6382SOL    HW120045   1.719   2.864   6.803
 6382SOL    HW220046   1.725   2.700   6.807
 6383SOL     OW20047   2.273   2.118   3.886
 6383SOL    HW120048   2.288   2.113   3.787
 6383SOL    HW220049   2.190   2.169   3.904
 6384SOL     OW20050   6.267   4.528   1.666
 6384SOL    HW120051   6.199   4.549   1.737
 6384SOL    HW220052   6.352   4.577   1.686
 6385SOL     OW20053   6.168   4.624   4.360
 6385SOL    HW120054   6.223   4.541   4.350
 6385SOL    HW220055   6.176   4.679   4.277
 6386SOL     OW20056   2.221   4.638   0.528
 6386SOL    HW120057   2.211   4.707   0.456
 6386SOL    HW220058   2.303   4.584   0.512
 6387SOL     OW20059   0.999   2.108   6.077
 6387SOL    HW120060   0.963   2.019   6.049
 6387SOL    HW220061   1.088   2.123   6.034
 6388SOL     OW20062   3.944   4.280   1.210
 6388SOL    HW120063   3.869   4.343   1.229
 6388SOL    HW220064   4.006   4.277   1.289
 6389SOL     OW20065   0.628   6.287   2.161
 6389SOL    HW120066   0.711   6.333   2.193
 6389SOL    HW220067   0.595   6.332   2.078
 6390SOL     OW20068   0.096   2.607   3.524
 6390SOL    HW120069   0.115   2.603   3.426
 6390SOL    HW220070   0.149   2.536   3.571
 6391SOL     OW20071   3.099   1.004   0.339
 6391SOL    HW120072   3.146   0.973   0.256
 6391SOL    HW220073   3.166   1.025   0.409
 6392SOL     OW20074   2.325   6.638   4.273
 6392SOL    HW120075   2.310   6.735   4.253
 6392SOL    HW220076   2.416   6.611   4.241
 6393SOL     OW20077   5.911   6.539   1.715
 6393SOL    HW120078   5.848   6.592   1.771
 6393SOL    HW220079   5.954   6.598   1.647
 6394SOL     OW20080   2.627   5.000   0.925
 6394SOL    HW120081   2.594   5.089   0.957
 6394SOL    HW220082   2.635   4.937   1.002
 6395SOL     OW20083   6.192   1.905   1.475
 6395SOL    HW120084   6.260   1.978   1.483
 6395SOL    HW220085   6.176   1.886   1.378
 6396SOL     OW20086   5.743   2.892   6.171
 6396SOL    HW120087   5.775   2.892   6.266
 6396SOL    HW220088   5.645   2.876   6.169
 6397SOL     OW20089   6.308   2.015   0.149
 6397SOL    HW120090   6.331   1.964   0.231
 6397SOL    HW220091   6.253   1.958   0.088
 6398SOL     OW20092   3.451   1.026   1.261
 6398SOL    HW120093   3.368   1.005   1.209
 6398SOL    HW220094   3.507   0.943   1.269
 6399SOL     OW20095   1.778   5.426   6.251
 6399SOL    HW120096   1.860   5.467   6.291
 6399SOL    HW220097   1.734   5.367   6.319
 6400SOL     OW20098   2.291   5.668   3.135
 6400SOL    HW120099   2.206   5.717   3.155
 6400SOL    HW220100   2.291   5.581   3.183
 6401SOL     OW20101   0.024   4.745   3.631
 6401SOL    HW120102   6.954   4.754   3.602
 6401SOL    HW220103   0.071   4.679   3.573
 6402SOL     OW20104   2.656   0.520   2.826
 6402SOL    HW120105   2.622   0.608   2.859
 6402SOL    HW220106   2.619   0.502   2.735
 6403SOL     OW20107   0.848   5.494   6.608
 6403SOL    HW120108   0.785   5.532   6.676
 6403SOL    HW220109   0.893   5.570   6.560
 6404SOL     OW20110   3.806   1.412   3.383
 6404SOL    HW120111   3.876   1.477   3.411
 6404SOL    HW220112   3.849   1.336   3.335
 6405SOL     OW20113   1.639   1.718   3.272
 6405SOL    HW120114   1.546   1.709   3.309
 6405SOL    HW220115   1.696   1.642   3.306
 6406SOL     OW20116   1.045   1.698   3.544
 6406SOL    HW120117   1.134   1.733   3.514
 6406SOL    HW220118   1.059   1.619   3.603
 6407SOL     OW20119   3.106   6.607   4.056
 6407SOL    HW120120   3.143   6.514   4.055
 6407SOL    HW220121   3.092   6.637   3.962
 6408SOL     OW20122   6.094   2.460   6.990
 6408SOL    HW120123   6.083   2.388   0.032
 6408SOL    HW220124   6.191   2.486   6.984
 6409SOL     OW20125   6.463   4.326   3.007
 6409SOL    HW120126   6.406   4.277   2.941
 6409SOL    HW220127   6.551   4.349   2.965
 6410SOL     OW20128   1.585   1.706   0.477
 6410SOL    HW120129   1.666   1.660   0.514
 6410SOL    HW220130   1.613   1.786   0.425
 6411SOL     OW20131   0.496   2.415   3.246
 6411SOL    HW120132   0.535   2.496   3.202
 6411SOL    HW220133   0.534   2.332   3.205
 6412SOL     OW20134   0.037   3.328   5.358
 6412SOL    HW120135   0.078   3.253   5.410
 6412SOL    HW220136   0.109   3.394   5.335
 6413SOL     OW20137   5.814   4.668   2.063
 6413SOL    HW120138   5.913   4.663   2.051
 6413SOL    HW220139   5.792   4.747   2.120
 6414SOL     OW20140   5.856   0.608   1.794
 6414SOL    HW120141   5.937   0.579   1.844
 6414SOL    HW220142   5.784   0.634   1.859
 6415SOL     OW20143   3.017   2.143   2.778
 6415SOL    HW120144   3.116   2.153   2.783
 6415SOL    HW220145   2.987   2.145   2.682
 6416SOL     OW20146   0.793   0.865   6.288
 6416SOL    HW120147   0.853   0.794   6.324
 6416SOL    HW220148   0.704   0.825   6.266
 6417SOL     OW20149   0.657   5.662   3.056
 6417SOL    HW120150   0.740   5.651   3.001
 6417SOL    HW220151   0.584   5.699   2.998
 6418SOL     OW20152   6.778   5.065   2.320
 6418SOL    HW120153   6.803   4.973   2.290
 6418SOL    HW220154   6.808   5.131   2.251
 6419SOL     OW20155   3.306   5.534   1.938
 6419SOL    HW120156   3.325   5.527   1.840
 6419SOL    HW220157   3.235   5.602   1.953
 6420SOL     OW20158   3.306   3.349   6.434
 6420SOL    HW120159   3.250   3.297   6.498
 6420SOL    HW220160   3.260   3.435   6.412
 6421SOL     OW20161   6.299   1.652   1.263
 6421SOL    HW120162   6.326   1.574   1.320
 6421SOL    HW220163   6.380   1.703   1.235
 6422SOL     OW20164   6.936   6.959   3.668
 6422SOL    HW120165   6.973   0.025   3.685
 6422SOL    HW220166   7.011   6.894   3.660
 6423SOL     OW20167   4.797   4.645   1.407
 6423SOL    HW120168   4.859   4.567   1.391
 6423SOL    HW220169   4.779   4.652   1.505
 6424SOL     OW20170   6.659   4.368   5.905
 6424SOL    HW120171   6.702   4.304   5.969
 6424SOL    HW220172   6.572   4.401   5.943
 6425SOL     OW20173   6.860   5.167   3.799
 6425SOL    HW120174   6.769   5.201   3.775
 6425SOL    HW220175   6.858   5.067   3.798
 6426SOL     OW20176   0.448   3.622   3.790
 6426SOL    HW120177   0.505   3.703   3.801
 6426SOL    HW220178   0.464   3.582   3.700
 6427SOL     OW20179   1.673   3.762   6.852
 6427SOL    HW120180   1.717   3.773   6.941
 6427SOL    HW220181   1.721   3.693   6.798
 6428SOL     OW20182   6.360   3.584   1.571
 6428SOL    HW120183   6.364   3.581   1.471
 6428SOL    HW220184   6.428   3.650   1.605
 6429SOL     OW20185   1.393   1.114   5.119
 6429SOL    HW120186   1.394   1.105   5.218
 6429SOL    HW220187   1.413   1.025   5.077
 6430SOL     OW20188   4.683   1.199   1.868
 6430SOL    HW120189   4.658   1.191   1.964
 6430SOL    HW220190   4.661   1.114   1.820
 6431SOL     OW20191   5.739   6.990   3.668
 6431SOL    HW120192   5.711   6.949   3.582
 6431SOL    HW220193   5.812   0.031   3.652
 6432SOL     OW20194   4.498   4.530   0.186
 6432SOL    HW120195   4.540   4.473   0.256
 6432SOL    HW220196   4.504   4.484   0.097
 6433SOL     OW20197   3.038   4.845   0.855
 6433SOL    HW120198   3.137   4.835   0.864
 6433SOL    HW220199   3.012   4.936   0.887
 6434SOL     OW20200   1.079   3.781   1.392
 6434SOL    HW120201   1.048   3.824   1.308
 6434SOL    HW220202   1.101   3.685   1.374
 6435SOL     OW20203   3.659   5.002   6.805
 6435SOL    HW120204   3.660   5.102   6.804
 6435SOL    HW220205   3.738   4.968   6.856
 6436SOL     OW20206   2.219   3.235   3.743
 6436SOL    HW120207   2.187   3.301   3.812
 6436SOL    HW220208   2.277   3.166   3.787
 6437SOL     OW20209   1.579   1.345   0.131
 6437SOL    HW120210   1.666   1.366   0.087
 6437SOL    HW220211   1.542   1.428   0.173
 6438SOL     OW20212   0.032   4.373   5.072
 6438SOL    HW120213   0.071   4.295   5.023
 6438SOL    HW220214   0.077   4.383   5.160
 6439SOL     OW20215   0.702   6.807   0.649
 6439SOL    HW120216   0.604   6.810   0.631
 6439SOL    HW220217   0.739   6.900   0.645
 6440SOL     OW20218   2.198   1.613   2.008
 6440SOL    HW120219   2.130   1.650   2.071
 6440SOL    HW220220   2.217   1.518   2.030
 6441SOL     OW20221   0.945   0.386   2.549
 6441SOL    HW120222   0.859   0.340   2.524
 6441SOL    HW220223   1.022   0.331   2.516
 6442SOL     OW20224   2.588   1.914   3.837
 6442SOL    HW120225   2.519   1.910   3.909
 6442SOL    HW220226   2.543   1.923   3.748
 6443SOL     OW20227   3.712   2.718   0.645
 6443SOL    HW120228   3.714   2.711   0.745
 6443SOL    HW220229   3.733   2.811   0.617
 6444SOL     OW20230   0.527   2.379   3.509
 6444SOL    HW120231   0.589   2.448   3.547
 6444SOL    HW220232   0.522   2.390   3.410
 6445SOL     OW20233   4.612   2.538   5.271
 6445SOL    HW120234   4.599   2.550   5.172
 6445SOL    HW220235   4.593   2.624   5.318
 6446SOL     OW20236   0.156   1.465   6.086
 6446SOL    HW120237   0.074   1.431   6.133
 6446SOL    HW220238   0.133   1.488   5.992
 6447SOL     OW20239   0.545   6.069   2.336
 6447SOL    HW120240   0.464   6.026   2.375
 6447SOL    HW220241   0.601   5.999   2.291
 6448SOL     OW20242   6.282   3.928   2.329
 6448SOL    HW120243   6.184   3.940   2.347
 6448SOL    HW220244   6.332   3.930   2.416
 6449SOL     OW20245   3.758   4.070   1.732
 6449SOL    HW120246   3.690   4.142   1.713
 6449SOL    HW220247   3.752   4.043   1.827
 6450SOL     OW20248   6.878   2.786   1.707
 6450SOL    HW120249   6.939   2.849   1.755
 6450SOL    HW220250   6.783   2.813   1.721
 6451SOL     OW20251   3.191   6.458   5.580
 6451SOL    HW120252   3.095   6.432   5.585
 6451SOL    HW220253   3.200   6.545   5.532
 6452SOL     OW20254   3.872   6.667   5.066
 6452SOL    HW120255   3.797   6.618   5.022
 6452SOL    HW220256   3.859   6.766   5.052
 6453SOL     OW20257   1.922   6.792   6.829
 6453SOL    HW120258   1.905   6.694   6.816
 6453SOL    HW220259   2.020   6.810   6.823
 6454SOL     OW20260   2.936   1.355   3.503
 6454SOL    HW120261   2.876   1.432   3.481
 6454SOL    HW220262   3.003   1.384   3.571
 6455SOL     OW20263   1.011   2.534   4.569
 6455SOL    HW120264   1.006   2.554   4.667
 6455SOL    HW220265   1.006   2.619   4.517
 6456SOL     OW20266   1.489   0.711   3.397
 6456SOL    HW120267   1.558   0.771   3.439
 6456SOL    HW220268   1.535   0.642   3.341
 6457SOL     OW20269   5.713   1.460   0.958
 6457SOL    HW120270   5.632   1.509   0.990
 6457SOL    HW220271   5.773   1.440   1.035
 6458SOL     OW20272   0.942   6.241   2.530
 6458SOL    HW120273   0.957   6.147   2.497
 6458SOL    HW220274   0.846   6.250   2.560
 6459SOL     OW20275   5.637   5.767   0.649
 6459SOL    HW120276   5.605   5.814   0.732
 6459SOL    HW220277   5.684   5.833   0.591
 6460SOL     OW20278   4.128   5.053   6.005
 6460SOL    HW120279   4.148   5.049   6.103
 6460SOL    HW220280   4.048   4.997   5.984
 6461SOL     OW20281   3.293   5.352   4.683
 6461SOL    HW120282   3.201   5.353   4.722
 6461SOL    HW220283   3.352   5.292   4.738
 6462SOL     OW20284   2.259   3.286   5.185
 6462SOL    HW120285   2.271   3.196   5.141
 6462SOL    HW220286   2.327   3.296   5.258
 6463SOL     OW20287   2.444   4.678   6.465
 6463SOL    HW120288   2.354   4.633   6.475
 6463SOL    HW220289   2.436   4.757   6.405
 6464SOL     OW20290   0.850   4.738   4.058
 6464SOL    HW120291   0.942   4.772   4.079
 6464SOL    HW220292   0.856   4.642   4.030
 6465SOL     OW20293   5.672   2.686   3.703
 6465SOL    HW120294   5.656   2.588   3.704
 6465SOL    HW220295   5.635   2.727   3.786
 6466SOL     OW20296   0.122   2.619   5.026
 6466SOL    HW120297   0.197   2.646   4.966
 6466SOL    HW220298   0.047   2.685   5.019
 6467SOL     OW20299   2.377   1.134   6.738
 6467SOL    HW120300   2.392   1.224   6.780
 6467SOL    HW220301   2.305   1.142   6.669
 6468SOL     OW20302   3.913   5.840   1.305
 6468SOL    HW120303   3.815   5.819   1.307
 6468SOL    HW220304   3.958   5.779   1.240
 6469SOL     OW20305   5.662   1.181   5.413
 6469SOL    HW120306   5.658   1.087   5.377
 6469SOL    HW220307   5.658   1.246   5.337
 6470SOL     OW20308   6.381   5.423   6.431
 6470SOL    HW120309   6.321   5.414   6.352
 6470SOL    HW220310   6.370   5.343   6.491
 6471SOL     OW20311   6.556   5.427   6.183
 6471SOL    HW120312   6.574   5.346   6.127
 6471SOL    HW220313   6.488   5.405   6.252
 6472SOL     OW20314   0.757   5.466   1.131
 6472SOL    HW120315   0.660   5.478   1.112
 6472SOL    HW220316   0.772   5.379   1.177
 6473SOL     OW20317   2.338   1.359   5.785
 6473SOL    HW120318   2.342   1.459   5.793
 6473SOL    HW220319   2.360   1.317   5.873
 6474SOL     OW20320   1.749   3.976   5.995
 6474SOL    HW120321   1.758   4.072   6.019
 6474SOL    HW220322   1.779   3.963   5.900
 6475SOL     OW20323   6.176   6.086   4.284
 6475SOL    HW120324   6.243   6.082   4.210
 6475SOL    HW220325   6.084   6.087   4.246
 6476SOL     OW20326   4.851   4.038   2.275
 6476SOL    HW120327   4.862   3.942   2.252
 6476SOL    HW220328   4.834   4.091   2.192
 6477SOL     OW20329   6.686   4.870   0.961
 6477SOL    HW120330   6.688   4.860   0.861
 6477SOL    HW220331   6.758   4.814   1.001
 6478SOL     OW20332   3.151   5.554   2.334
 6478SOL    HW120333   3.057   5.538   2.362
 6478SOL    HW220334   3.213   5.524   2.406
 6479SOL     OW20335   4.135   5.128   2.311
 6479SOL    HW120336   4.211   5.109   2.374
 6479SOL    HW220337   4.050   5.135   2.363
 6480SOL     OW20338   4.061   2.818   5.840
 6480SOL    HW120339   4.160   2.807   5.836
 6480SOL    HW220340   4.032   2.823   5.936
 6481SOL     OW20341   3.422   2.078   1.916
 6481SOL    HW120342   3.467   2.143   1.977
 6481SOL    HW220343   3.491   2.032   1.859
 6482SOL     OW20344   6.820   0.656   6.661
 6482SOL    HW120345   6.788   0.751   6.653
 6482SOL    HW220346   6.917   0.656   6.686
 6483SOL     OW20347   2.557   6.242   2.271
 6483SOL    HW120348   2.542   6.187   2.189
 6483SOL    HW220349   2.499   6.208   2.345
 6484SOL     OW20350   3.865   0.307   2.514
 6484SOL    HW120351   3.862   0.229   2.576
 6484SOL    HW220352   3.799   0.376   2.543
 6485SOL     OW20353   1.927   3.049   3.640
 6485SOL    HW120354   2.012   3.051   3.693
 6485SOL    HW220355   1.913   3.138   3.597
 6486SOL     OW20356   1.359   4.362   3.509
 6486SOL    HW120357   1.376   4.430   3.438
 6486SOL    HW220358   1.433   4.365   3.576
 6487SOL     OW20359   6.395   5.881   5.054
 6487SOL    HW120360   6.402   5.981   5.045
 6487SOL    HW220361   6.475   5.838   5.012
 6488SOL     OW20362   3.305   6.035   5.207
 6488SOL    HW120363   3.298   6.134   5.197
 6488SOL    HW220364   3.221   5.992   5.177
 6489SOL     OW20365   1.930   3.090   6.516
 6489SOL    HW120366   1.948   3.169   6.575
 6489SOL    HW220367   2.015   3.064   6.470
 6490SOL     OW20368   4.345   2.426   0.432
 6490SOL    HW120369   4.345   2.351   0.365
 6490SOL    HW220370   4.284   2.404   0.507
 6491SOL     OW20371   4.005   1.060   6.779
 6491SOL    HW120372   4.041   1.004   6.704
 6491SOL    HW220373   3.998   1.155   6.749
 6492SOL     OW20374   5.998   6.762   6.902
 6492SOL    HW120375   6.050   6.748   6.986
 6492SOL    HW220376   5.985   6.860   6.887
 6493SOL     OW20377   1.520   6.278   5.341
 6493SOL    HW120378   1.619   6.286   5.351
 6493SOL    HW220379   1.493   6.182   5.346
 6494SOL     OW20380   0.882   0.571   3.243
 6494SOL    HW120381   0.888   0.472   3.252
 6494SOL    HW220382   0.838   0.609   3.324
 6495SOL     OW20383   5.145   5.891   4.239
 6495SOL    HW120384   5.048   5.908   4.257
 6495SOL    HW220385   5.197   5.903   4.323
 6496SOL     OW20386   0.024   6.295   1.933
 6496SOL    HW120387   0.004   6.210   1.982
 6496SOL    HW220388   0.068   6.360   1.994
 6497SOL     OW20389   2.555   3.123   0.886
 6497SOL    HW120390   2.455   3.131   0.887
 6497SOL    HW220391   2.584   3.059   0.958
 6498SOL     OW20392   2.408   4.995   3.595
 6498SOL    HW120393   2.364   5.040   3.517
 6498SOL    HW220394   2.501   4.967   3.569
 6499SOL     OW20395   4.916   0.862   5.166
 6499SOL    HW120396   4.980   0.932   5.134
 6499SOL    HW220397   4.964   0.798   5.227
 6500SOL     OW20398   6.261   4.011   3.495
 6500SOL    HW120399   6.349   3.989   3.453
 6500SOL    HW220400   6.270   4.007   3.595
 6501SOL     OW20401   6.340   3.075   1.071
 6501SOL    HW120402   6.252   3.031   1.087
 6501SOL    HW220403   6.325   3.168   1.038
 6502SOL     OW20404   0.078   4.085   3.498
 6502SOL    HW120405   7.013   4.044   3.494
 6502SOL    HW220406   0.137   4.044   3.428
 6503SOL     OW20407   6.035   6.747   3.807
 6503SOL    HW120408   6.084   6.749   3.720
 6503SOL    HW220409   6.095   6.711   3.879
 6504SOL     OW20410   3.920   6.746   6.461
 6504SOL    HW120411   3.966   6.683   6.399
 6504SOL    HW220412   3.849   6.796   6.411
 6505SOL     OW20413   6.338   4.913   0.931
 6505SOL    HW120414   6.382   4.832   0.895
 6505SOL    HW220415   6.383   4.941   1.016
 6506SOL     OW20416   0.699   2.922   0.875
 6506SOL    HW120417   0.762   2.858   0.832
 6506SOL    HW220418   0.605   2.890   0.864
 6507SOL     OW20419   1.331   5.854   0.289
 6507SOL    HW120420   1.398   5.835   0.218
 6507SOL    HW220421   1.243   5.877   0.247
 6508SOL     OW20422   2.486   1.622   3.451
 6508SOL    HW120423   2.494   1.711   3.405
 6508SOL    HW220424   2.397   1.615   3.495
 6509SOL     OW20425   1.685   2.442   4.966
 6509SOL    HW120426   1.619   2.469   5.035
 6509SOL    HW220427   1.660   2.352   4.930
 6510SOL     OW20428   0.325   5.356   6.565
 6510SOL    HW120429   0.382   5.283   6.526
 6510SOL    HW220430   0.242   5.316   6.603
 6511SOL     OW20431   6.106   0.311   4.616
 6511SOL    HW120432   6.173   0.368   4.664
 6511SOL    HW220433   6.146   0.279   4.530
 6512SOL     OW20434   4.357   0.048   2.947
 6512SOL    HW120435   4.453   0.053   2.917
 6512SOL    HW220436   4.339   0.122   3.011
 6513SOL     OW20437   3.861   6.140   3.871
 6513SOL    HW120438   3.920   6.059   3.863
 6513SOL    HW220439   3.787   6.133   3.805
 6514SOL     OW20440   5.171   0.050   4.071
 6514SOL    HW120441   5.134   0.045   4.164
 6514SOL    HW220442   5.258   0.099   4.073
 6515SOL     OW20443   0.043   4.896   4.177
 6515SOL    HW120444   0.060   4.988   4.142
 6515SOL    HW220445   0.067   4.828   4.108
 6516SOL     OW20446   0.073   1.925   6.512
 6516SOL    HW120447   0.098   1.855   6.445
 6516SOL    HW220448   0.154   1.976   6.540
 6517SOL     OW20449   6.527   1.955   0.544
 6517SOL    HW120450   6.546   2.036   0.489
 6517SOL    HW220451   6.610   1.898   0.550
 6518SOL     OW20452   0.898   6.483   0.243
 6518SOL    HW120453   0.861   6.483   0.151
 6518SOL    HW220454   0.980   6.426   0.246
 6519SOL     OW20455   2.601   1.603   3.765
 6519SOL    HW120456   2.533   1.642   3.703
 6519SOL    HW220457   2.600   1.652   3.852
 6520SOL     OW20458   5.933   5.578   3.329
 6520SOL    HW120459   5.885   5.604   3.413
 6520SOL    HW220460   6.026   5.548   3.352
 6521SOL     OW20461   1.035   0.967   4.548
 6521SOL    HW120462   1.040   1.012   4.459
 6521SOL    HW220463   1.123   0.927   4.571
 6522SOL     OW20464   2.809   5.549   6.833
 6522SOL    HW120465   2.867   5.477   6.796
 6522SOL    HW220466   2.796   5.620   6.764
 6523SOL     OW20467   2.837   1.607   6.592
 6523SOL    HW120468   2.830   1.705   6.611
 6523SOL    HW220469   2.931   1.576   6.605
 6524SOL     OW20470   3.490   3.339   3.908
 6524SOL    HW120471   3.477   3.283   3.990
 6524SOL    HW220472   3.586   3.366   3.902
 6525SOL     OW20473   1.908   2.786   2.516
 6525SOL    HW120474   1.947   2.701   2.551
 6525SOL    HW220475   1.826   2.810   2.570
 6526SOL     OW20476   0.666   6.466   5.154
 6526SOL    HW120477   0.704   6.410   5.227
 6526SOL    HW220478   0.571   6.490   5.177
 6527SOL     OW20479   1.122   1.254   5.057
 6527SOL    HW120480   1.189   1.191   5.095
 6527SOL    HW220481   1.144   1.347   5.084
 6528SOL     OW20482   0.318   1.072   3.777
 6528SOL    HW120483   0.348   1.022   3.695
 6528SOL    HW220484   0.347   1.022   3.859
 6529SOL     OW20485   6.039   1.929   2.884
 6529SOL    HW120486   6.054   1.976   2.971
 6529SOL    HW220487   6.123   1.883   2.855
 6530SOL     OW20488   6.475   3.274   0.694
 6530SOL    HW120489   6.565   3.299   0.728
 6530SOL    HW220490   6.458   3.177   0.714
 6531SOL     OW20491   5.554   2.910   4.065
 6531SOL    HW120492   5.641   2.862   4.055
 6531SOL    HW220493   5.481   2.859   4.020
 6532SOL     OW20494   6.120   1.817   0.643
 6532SOL    HW120495   6.131   1.818   0.743
 6532SOL    HW220496   6.209   1.811   0.599
 6533SOL     OW20497   5.503   6.133   1.310
 6533SOL    HW120498   5.406   6.108   1.319
 6533SOL    HW220499   5.537   6.166   1.398
 6534SOL     OW20500   2.615   3.470   1.293
 6534SOL    HW120501   2.702   3.519   1.295
 6534SOL    HW220502   2.585   3.459   1.199
 6535SOL     OW20503   0.265   2.801   5.247
 6535SOL    HW120504   0.263   2.871   5.176
 6535SOL    HW220505   0.327   2.728   5.219
 6536SOL     OW20506   6.450   2.890   6.545
 6536SOL    HW120507   6.477   2.802   6.584
 6536SOL    HW220508   6.485   2.897   6.451
 6537SOL     OW20509   6.553   6.551   6.729
 6537SOL    HW120510   6.539   6.469   6.675
 6537SOL    HW220511   6.634   6.599   6.696
 6538SOL     OW20512   4.036   4.460   0.192
 6538SOL    HW120513   4.117   4.484   0.244
 6538SOL    HW220514   4.002   4.541   0.144
 6539SOL     OW20515   2.389   2.151   6.438
 6539SOL    HW120516   2.345   2.061   6.443
 6539SOL    HW220517   2.335   2.217   6.490
 6540SOL     OW20518   3.871   1.822   4.346
 6540SOL    HW120519   3.874   1.732   4.302
 6540SOL    HW220520   3.778   1.839   4.379
 6541SOL     OW20521   3.099   2.067   5.184
 6541SOL    HW120522   3.042   2.004   5.131
 6541SOL    HW220523   3.135   2.138   5.123
 6542SOL     OW20524   6.392   4.997   3.044
 6542SOL    HW120525   6.316   5.052   3.009
 6542SOL    HW220526   6.471   5.008   2.985
 6543SOL     OW20527   6.397   5.236   0.054
 6543SOL    HW120528   6.309   5.270   0.088
 6543SOL    HW220529   6.385   5.143   0.020
 6544SOL     OW20530   0.234   5.982   4.188
 6544SOL    HW120531   0.166   5.920   4.226
 6544SOL    HW220532   0.189   6.057   4.140
 6545SOL     OW20533   4.901   1.580   6.259
 6545SOL    HW120534   4.914   1.674   6.292
 6545SOL    HW220535   4.876   1.583   6.162
 6546SOL     OW20536   4.718   4.000   6.431
 6546SOL    HW120537   4.660   3.920   6.412
 6546SOL    HW220538   4.762   3.988   6.521
 6547SOL     OW20539   4.155   1.932   5.972
 6547SOL    HW120540   4.234   1.899   6.025
 6547SOL    HW220541   4.174   2.024   5.937
 6548SOL     OW20542   0.795   4.547   6.662
 6548SOL    HW120543   0.761   4.453   6.661
 6548SOL    HW220544   0.722   4.608   6.693
 6549SOL     OW20545   3.650   1.687   1.103
 6549SOL    HW120546   3.722   1.638   1.153
 6549SOL    HW220547   3.679   1.781   1.086
 6550SOL     OW20548   0.597   6.098   3.604
 6550SOL    HW120549   0.571   6.145   3.689
 6550SOL    HW220550   0.660   6.156   3.552
 6551SOL     OW20551   1.885   4.145   2.119
 6551SOL    HW120552   1.978   4.115   2.098
 6551SOL    HW220553   1.820   4.084   2.074
 6552SOL     OW20554   2.579   5.744   5.157
 6552SOL    HW120555   2.577   5.833   5.111
 6552SOL    HW220556   2.595   5.672   5.090
 6553SOL     OW20557   0.217   3.136   1.277
 6553SOL    HW120558   0.253   3.138   1.370
 6553SOL    HW220559   0.293   3.136   1.211
 6554SOL     OW20560   5.730   1.578   5.753
 6554SOL    HW120561   5.738   1.488   5.796
 6554SOL    HW220562   5.639   1.615   5.772
 6555SOL     OW20563   1.725   1.000   2.550
 6555SOL    HW120564   1.790   1.043   2.488
 6555SOL    HW220565   1.642   0.975   2.499
 6556SOL     OW20566   4.661   4.680   5.003
 6556SOL    HW120567   4.750   4.717   4.975
 6556SOL    HW220568   4.601   4.675   4.923
 6557SOL     OW20569   5.575   5.802   0.912
 6557SOL    HW120570   5.642   5.739   0.950
 6557SOL    HW220571   5.552   5.871   0.980
 6558SOL     OW20572   6.558   5.321   0.716
 6558SOL    HW120573   6.519   5.297   0.805
 6558SOL    HW220574   6.503   5.393   0.674
 6559SOL     OW20575   5.554   3.718   1.035
 6559SOL    HW120576   5.547   3.661   1.116
 6559SOL    HW220577   5.463   3.729   0.994
 6560SOL     OW20578   3.538   2.975   1.544
 6560SOL    HW120579   3.588   2.929   1.618
 6560SOL    HW220580   3.592   3.053   1.512
 6561SOL     OW20581   3.884   3.950   2.798
 6561SOL    HW120582   3.888   4.048   2.777
 6561SOL    HW220583   3.833   3.937   2.884
 6562SOL     OW20584   6.298   4.918   6.257
 6562SOL    HW120585   6.242   4.863   6.195
 6562SOL    HW220586   6.331   4.861   6.332
 6563SOL     OW20587   0.511   5.794   0.264
 6563SOL    HW120588   0.556   5.755   0.345
 6563SOL    HW220589   0.545   5.749   0.182
 6564SOL     OW20590   1.069   3.450   2.373
 6564SOL    HW120591   0.983   3.440   2.324
 6564SOL    HW220592   1.053   3.497   2.460
 6565SOL     OW20593   6.235   2.485   5.014
 6565SOL    HW120594   6.200   2.566   4.968
 6565SOL    HW220595   6.284   2.512   5.097
 6566SOL     OW20596   3.492   0.343   1.729
 6566SOL    HW120597   3.466   0.390   1.644
 6566SOL    HW220598   3.472   0.403   1.807
 6567SOL     OW20599   4.780   2.906   1.362
 6567SOL    HW120600   4.822   2.995   1.343
 6567SOL    HW220601   4.694   2.920   1.411
 6568SOL     OW20602   4.555   4.771   2.263
 6568SOL    HW120603   4.471   4.764   2.316
 6568SOL    HW220604   4.542   4.835   2.188
 6569SOL     OW20605   2.826   5.115   0.758
 6569SOL    HW120606   2.744   5.087   0.807
 6569SOL    HW220607   2.822   5.081   0.664
 6570SOL     OW20608   4.424   0.176   1.654
 6570SOL    HW120609   4.523   0.166   1.663
 6570SOL    HW220610   4.378   0.117   1.720
 6571SOL     OW20611   2.283   6.072   3.101
 6571SOL    HW120612   2.307   6.125   3.019
 6571SOL    HW220613   2.225   5.994   3.075
 6572SOL     OW20614   6.297   4.312   5.121
 6572SOL    HW120615   6.356   4.239   5.155
 6572SOL    HW220616   6.351   4.396   5.109
 6573SOL     OW20617   3.450   0.705   2.973
 6573SOL    HW120618   3.391   0.777   3.010
 6573SOL    HW220619   3.545   0.735   2.977
 6574SOL     OW20620   2.307   6.171   1.822
 6574SOL    HW120621   2.272   6.077   1.831
 6574SOL    HW220622   2.328   6.189   1.726
 6575SOL     OW20623   0.764   1.390   1.832
 6575SOL    HW120624   0.709   1.377   1.914
 6575SOL    HW220625   0.786   1.300   1.793
 6576SOL     OW20626   0.892   6.072   6.668
 6576SOL    HW120627   0.887   6.155   6.612
 6576SOL    HW220628   0.961   6.011   6.630
 6577SOL     OW20629   0.343   1.663   3.541
 6577SOL    HW120630   0.284   1.702   3.612
 6577SOL    HW220631   0.413   1.730   3.515
 6578SOL     OW20632   6.665   5.519   3.555
 6578SOL    HW120633   6.754   5.528   3.509
 6578SOL    HW220634   6.670   5.445   3.622
 6579SOL     OW20635   6.875   3.946   3.888
 6579SOL    HW120636   6.973   3.937   3.870
 6579SOL    HW220637   6.833   3.856   3.894
 6580SOL     OW20638   5.991   0.878   1.057
 6580SOL    HW120639   5.992   0.872   1.157
 6580SOL    HW220640   5.997   0.975   1.030
 6581SOL     OW20641   3.756   1.130   5.305
 6581SOL    HW120642   3.679   1.188   5.332
 6581SOL    HW220643   3.795   1.087   5.387
 6582SOL     OW20644   1.438   6.794   2.229
 6582SOL    HW120645   1.528   6.762   2.259
 6582SOL    HW220646   1.375   6.716   2.223
 6583SOL     OW20647   4.820   1.653   5.968
 6583SOL    HW120648   4.892   1.639   5.899
 6583SOL    HW220649   4.751   1.581   5.959
 6584SOL     OW20650   5.880   2.144   6.407
 6584SOL    HW120651   5.936   2.078   6.459
 6584SOL    HW220652   5.896   2.236   6.442
 6585SOL     OW20653   0.140   1.700   0.331
 6585SOL    HW120654   0.106   1.613   0.367
 6585SOL    HW220655   0.103   1.775   0.385
 6586SOL     OW20656   6.483   2.304   6.059
 6586SOL    HW120657   6.551   2.232   6.070
 6586SOL    HW220658   6.523   2.392   6.085
 6587SOL     OW20659   2.653   5.630   4.274
 6587SOL    HW120660   2.657   5.549   4.332
 6587SOL    HW220661   2.691   5.708   4.324
 6588SOL     OW20662   1.629   4.009   1.175
 6588SOL    HW120663   1.716   3.959   1.172
 6588SOL    HW220664   1.607   4.029   1.271
 6589SOL     OW20665   5.011   0.430   6.781
 6589SOL    HW120666   4.936   0.371   6.750
 6589SOL    HW220667   5.076   0.443   6.706
 6590SOL     OW20668   0.045   1.870   4.894
 6590SOL    HW120669   0.053   1.967   4.916
 6590SOL    HW220670   0.125   1.821   4.930
 6591SOL     OW20671   5.690   6.823   2.741
 6591SOL    HW120672   5.703   6.811   2.839
 6591SOL    HW220673   5.678   6.920   2.721
 6592SOL     OW20674   4.314   6.921   4.183
 6592SOL    HW120675   4.342   6.878   4.268
 6592SOL    HW220676   4.283   7.015   4.201
 6593SOL     OW20677   2.549   2.207   3.500
 6593SOL    HW120678   2.621   2.257   3.549
 6593SOL    HW220679   2.590   2.145   3.434
 6594SOL     OW20680   4.482   0.846   0.151
 6594SOL    HW120681   4.404   0.784   0.163
 6594SOL    HW220682   4.448   0.940   0.150
 6595SOL     OW20683   0.691   3.872   1.635
 6595SOL    HW120684   0.713   3.797   1.573
 6595SOL    HW220685   0.690   3.958   1.584
 6596SOL     OW20686   4.001   0.327   6.022
 6596SOL    HW120687   4.025   0.241   5.977
 6596SOL    HW220688   4.060   0.342   6.101
 6597SOL     OW20689   0.963   6.542   4.668
 6597SOL    HW120690   0.882   6.600   4.677
 6597SOL    HW220691   1.035   6.578   4.727
 6598SOL     OW20692   1.761   5.332   5.258
 6598SOL    HW120693   1.759   5.239   5.294
 6598SOL    HW220694   1.768   5.328   5.158
 6599SOL     OW20695   4.264   4.917   5.787
 6599SOL    HW120696   4.216   4.981   5.727
 6599SOL    HW220697   4.247   4.941   5.882
 6600SOL     OW20698   5.529   5.043   5.099
 6600SOL    HW120699   5.523   5.046   4.999
 6600SOL    HW220700   5.504   5.132   5.137
 6601SOL     OW20701   0.270   0.386   6.991
 6601SOL    HW120702   0.204   0.311   6.984
 6601SOL    HW220703   0.254   0.451   6.917
 6602SOL     OW20704   0.154   2.515   0.981
 6602SOL    HW120705   0.243   2.470   0.981
 6602SOL    HW220706   0.105   2.490   1.065
 6603SOL     OW20707   1.769   3.212   4.170
 6603SOL    HW120708   1.855   3.199   4.122
 6603SOL    HW220709   1.773   3.297   4.224
 6604SOL     OW20710   2.695   6.036   1.753
 6604SOL    HW120711   2.613   5.998   1.711
 6604SOL    HW220712   2.699   6.008   1.849
 6605SOL     OW20713   4.956   4.968   0.524
 6605SOL    HW120714   4.858   4.947   0.534
 6605SOL    HW220715   5.003   4.945   0.609
 6606SOL     OW20716   4.566   0.127   2.570
 6606SOL    HW120717   4.518   0.070   2.503
 6606SOL    HW220718   4.651   0.083   2.596
 6607SOL     OW20719   1.861   1.411   2.072
 6607SOL    HW120720   1.816   1.500   2.062
 6607SOL    HW220721   1.912   1.408   2.158
 6608SOL     OW20722   5.359   3.475   2.533
 6608SOL    HW120723   5.333   3.432   2.446
 6608SOL    HW220724   5.280   3.522   2.572
 6609SOL     OW20725   5.240   0.758   6.837
 6609SOL    HW120726   5.197   0.750   6.927
 6609SOL    HW220727   5.316   0.822   6.841
 6610SOL     OW20728   1.985   0.259   0.225
 6610SOL    HW120729   2.034   0.284   0.309
 6610SOL    HW220730   1.892   0.231   0.247
 6611SOL     OW20731   6.589   2.668   3.260
 6611SOL    HW120732   6.546   2.755   3.234
 6611SOL    HW220733   6.686   2.682   3.277
 6612SOL     OW20734   1.606   4.568   6.554
 6612SOL    HW120735   1.683   4.573   6.617
 6612SOL    HW220736   1.634   4.606   6.465
 6613SOL     OW20737   5.845   6.014   3.643
 6613SOL    HW120738   5.790   5.932   3.657
 6613SOL    HW220739   5.913   5.997   3.572
 6614SOL     OW20740   4.712   6.572   6.601
 6614SOL    HW120741   4.649   6.602   6.529
 6614SOL    HW220742   4.803   6.610   6.583
 6615SOL     OW20743   0.656   4.039   4.914
 6615SOL    HW120744   0.575   3.988   4.885
 6615SOL    HW220745   0.679   4.107   4.844
 6616SOL     OW20746   4.101   1.744   5.778
 6616SOL    HW120747   4.153   1.816   5.825
 6616SOL    HW220748   4.007   1.742   5.812
 6617SOL     OW20749   3.619   6.666   3.496
 6617SOL    HW120750   3.661   6.718   3.422
 6617SOL    HW220751   3.563   6.727   3.553
 6618SOL     OW20752   1.146   3.015   2.323
 6618SOL    HW120753   1.191   3.071   2.253
 6618SOL    HW220754   1.212   2.987   2.392
 6619SOL     OW20755   4.354   6.639   4.104
 6619SOL    HW120756   4.428   6.634   4.038
 6619SOL    HW220757   4.364   6.721   4.160
 6620SOL     OW20758   1.427   3.083   5.729
 6620SOL    HW120759   1.426   3.168   5.781
 6620SOL    HW220760   1.337   3.066   5.691
 6621SOL     OW20761   3.147   3.818   0.796
 6621SOL    HW120762   3.056   3.785   0.769
 6621SOL    HW220763   3.160   3.802   0.894
 6622SOL     OW20764   5.937   5.680   1.300
 6622SOL    HW120765   5.920   5.639   1.390
 6622SOL    HW220766   5.987   5.766   1.312
 6623SOL     OW20767   3.483   3.096   1.919
 6623SOL    HW120768   3.449   3.007   1.890
 6623SOL    HW220769   3.409   3.148   1.961
 6624SOL     OW20770   2.784   5.991   4.588
 6624SOL    HW120771   2.881   5.980   4.608
 6624SOL    HW220772   2.739   6.038   4.664
 6625SOL     OW20773   5.925   1.391   6.749
 6625SOL    HW120774   6.020   1.415   6.731
 6625SOL    HW220775   5.895   1.319   6.686
 6626SOL     OW20776   3.274   5.198   3.293
 6626SOL    HW120777   3.283   5.117   3.235
 6626SOL    HW220778   3.326   5.184   3.377
 6627SOL     OW20779   1.988   0.731   6.039
 6627SOL    HW120780   2.051   0.805   6.063
 6627SOL    HW220781   1.903   0.769   6.004
 6628SOL     OW20782   4.841   4.967   2.588
 6628SOL    HW120783   4.912   4.906   2.552
 6628SOL    HW220784   4.753   4.920   2.585
 6629SOL     OW20785   3.345   6.029   0.925
 6629SOL    HW120786   3.291   6.105   0.890
 6629SOL    HW220787   3.361   5.963   0.851
 6630SOL     OW20788   3.687   1.705   0.355
 6630SOL    HW120789   3.680   1.699   0.454
 6630SOL    HW220790   3.621   1.773   0.321
 6631SOL     OW20791   4.473   6.984   2.379
 6631SOL    HW120792   4.532   6.923   2.326
 6631SOL    HW220793   4.435   0.029   2.320
 6632SOL     OW20794   0.204   1.383   1.408
 6632SOL    HW120795   0.290   1.389   1.358
 6632SOL    HW220796   0.209   1.308   1.474
 6633SOL     OW20797   1.511   5.506   6.164
 6633SOL    HW120798   1.603   5.524   6.198
 6633SOL    HW220799   1.512   5.422   6.109
 6634SOL     OW20800   6.550   3.442   6.246
 6634SOL    HW120801   6.573   3.507   6.173
 6634SOL    HW220802   6.566   3.349   6.214
 6635SOL     OW20803   4.238   4.919   3.501
 6635SOL    HW120804   4.265   5.014   3.514
 6635SOL    HW220805   4.313   4.858   3.528
 6636SOL     OW20806   1.693   3.466   5.129
 6636SOL    HW120807   1.640   3.381   5.134
 6636SOL    HW220808   1.723   3.492   5.220
 6637SOL     OW20809   0.764   0.180   6.960
 6637SOL    HW120810   0.664   0.185   6.960
 6637SOL    HW220811   0.792   0.085   6.964
 6638SOL     OW20812   3.523   4.912   4.789
 6638SOL    HW120813   3.612   4.930   4.747
 6638SOL    HW220814   3.506   4.813   4.789
 6639SOL     OW20815   5.652   5.516   6.233
 6639SOL    HW120816   5.703   5.601   6.217
 6639SOL    HW220817   5.619   5.480   6.145
 6640SOL     OW20818   0.230   1.630   4.560
 6640SOL    HW120819   0.175   1.590   4.485
 6640SOL    HW220820   0.169   1.671   4.627
 6641SOL     OW20821   3.198   3.584   6.445
 6641SOL    HW120822   3.200   3.667   6.389
 6641SOL    HW220823   3.222   3.607   6.539
 6642SOL     OW20824   2.328   5.179   0.043
 6642SOL    HW120825   2.343   5.185   6.970
 6642SOL    HW220826   2.308   5.084   0.068
 6643SOL     OW20827   6.265   4.690   6.865
 6643SOL    HW120828   6.171   4.691   6.898
 6643SOL    HW220829   6.293   4.596   6.845
 6644SOL     OW20830   3.075   4.724   1.802
 6644SOL    HW120831   3.011   4.654   1.832
 6644SOL    HW220832   3.162   4.682   1.779
 6645SOL     OW20833   6.954   4.939   0.757
 6645SOL    HW120834   6.887   4.916   0.686
 6645SOL    HW220835   7.012   5.014   0.725
 6646SOL     OW20836   4.568   5.421   4.429
 6646SOL    HW120837   4.511   5.497   4.397
 6646SOL    HW220838   4.521   5.373   4.503
 6647SOL     OW20839   3.290   1.089   2.905
 6647SOL    HW120840   3.198   1.095   2.866
 6647SOL    HW220841   3.297   1.008   2.963
 6648SOL     OW20842   3.825   5.636   2.758
 6648SOL    HW120843   3.752   5.643   2.689
 6648SOL    HW220844   3.785   5.605   2.845
 6649SOL     OW20845   5.671   2.408   6.228
 6649SOL    HW120846   5.644   2.314   6.252
 6649SOL    HW220847   5.768   2.410   6.207
 6650SOL     OW20848   3.848   1.148   3.221
 6650SOL    HW120849   3.935   1.119   3.261
 6650SOL    HW220850   3.852   1.140   3.121
 6651SOL     OW20851   1.521   2.158   0.856
 6651SOL    HW120852   1.425   2.176   0.881
 6651SOL    HW220853   1.523   2.103   0.773
 6652SOL     OW20854   6.641   3.757   0.620
 6652SOL    HW120855   6.652   3.845   0.667
 6652SOL    HW220856   6.564   3.763   0.557
 6653SOL     OW20857   3.802   3.693   3.089
 6653SOL    HW120858   3.792   3.789   3.063
 6653SOL    HW220859   3.743   3.637   3.030
 6654SOL     OW20860   1.932   2.913   1.048
 6654SOL    HW120861   1.916   2.915   0.950
 6654SOL    HW220862   1.849   2.880   1.094
 6655SOL     OW20863   2.424   0.037   2.002
 6655SOL    HW120864   2.435   6.989   1.936
 6655SOL    HW220865   2.334   0.079   1.991
 6656SOL     OW20866   6.823   1.089   2.460
 6656SOL    HW120867   6.782   1.180   2.454
 6656SOL    HW220868   6.804   1.049   2.550
 6657SOL     OW20869   4.044   6.579   6.263
 6657SOL    HW120870   4.123   6.635   6.237
 6657SOL    HW220871   4.077   6.495   6.307
 6658SOL     OW20872   5.847   1.026   5.855
 6658SOL    HW120873   5.875   1.075   5.772
 6658SOL    HW220874   5.912   0.953   5.873
 6659SOL     OW20875   2.562   2.278   0.018
 6659SOL    HW120876   2.636   2.213   0.031
 6659SOL    HW220877   2.483   2.250   0.073
 6660SOL     OW20878   6.766   6.452   1.434
 6660SOL    HW120879   6.809   6.387   1.371
 6660SOL    HW220880   6.835   6.486   1.499
 6661SOL     OW20881   0.271   5.380   3.793
 6661SOL    HW120882   0.295   5.287   3.822
 6661SOL    HW220883   0.177   5.381   3.758
 6662SOL     OW20884   1.295   0.955   0.313
 6662SOL    HW120885   1.341   0.904   0.385
 6662SOL    HW220886   1.361   1.008   0.260
 6663SOL     OW20887   0.201   5.596   3.576
 6663SOL    HW120888   0.217   5.509   3.621
 6663SOL    HW220889   0.261   5.605   3.497
 6664SOL     OW20890   1.300   0.254   1.451
 6664SOL    HW120891   1.324   0.168   1.405
 6664SOL    HW220892   1.306   0.330   1.387
 6665SOL     OW20893   1.169   0.112   3.809
 6665SOL    HW120894   1.171   0.140   3.713
 6665SOL    HW220895   1.166   0.012   3.814
 6666SOL     OW20896   6.075   1.894   5.187
 6666SOL    HW120897   5.981   1.861   5.191
 6666SOL    HW220898   6.103   1.904   5.091
 6667SOL     OW20899   6.247   4.736   4.947
 6667SOL    HW120900   6.315   4.718   4.876
 6667SOL    HW220901   6.289   4.724   5.037
 6668SOL     OW20902   0.244   5.593   2.067
 6668SOL    HW120903   0.176   5.524   2.094
 6668SOL    HW220904   0.200   5.682   2.059
 6669SOL     OW20905   2.152   4.456   3.489
 6669SOL    HW120906   2.214   4.419   3.558
 6669SOL    HW220907   2.188   4.435   3.398
 6670SOL     OW20908   3.596   4.542   6.584
 6670SOL    HW120909   3.499   4.522   6.598
 6670SOL    HW220910   3.610   4.641   6.580
 6671SOL     OW20911   5.500   4.405   6.982
 6671SOL    HW120912   5.451   4.396   0.043
 6671SOL    HW220913   5.478   4.493   6.940
 6672SOL     OW20914   1.138   0.682   5.296
 6672SOL    HW120915   1.069   0.709   5.229
 6672SOL    HW220916   1.095   0.628   5.368
 6673SOL     OW20917   5.263   5.883   2.832
 6673SOL    HW120918   5.164   5.886   2.818
 6673SOL    HW220919   5.309   5.902   2.745
 6674SOL     OW20920   0.772   5.832   6.124
 6674SOL    HW120921   0.713   5.875   6.193
 6674SOL    HW220922   0.786   5.736   6.148
 6675SOL     OW20923   5.435   4.007   1.137
 6675SOL    HW120924   5.492   4.016   1.219
 6675SOL    HW220925   5.449   4.087   1.079
 6676SOL     OW20926   0.620   3.118   5.441
 6676SOL    HW120927   0.660   3.037   5.399
 6676SOL    HW220928   0.611   3.103   5.540
 6677SOL     OW20929   0.290   3.365   0.150
 6677SOL    HW120930   0.269   3.287   0.091
 6677SOL    HW220931   0.333   3.437   0.096
 6678SOL     OW20932   1.233   2.955   6.382
 6678SOL    HW120933   1.160   2.907   6.431
 6678SOL    HW220934   1.259   2.902   6.301
 6679SOL     OW20935   1.423   1.957   5.010
 6679SOL    HW120936   1.323   1.967   5.015
 6679SOL    HW220937   1.446   1.885   4.945
 6680SOL     OW20938   3.901   5.566   5.644
 6680SOL    HW120939   3.872   5.587   5.550
 6680SOL    HW220940   3.893   5.649   5.700
 6681SOL     OW20941   5.639   6.157   6.693
 6681SOL    HW120942   5.558   6.157   6.750
 6681SOL    HW220943   5.680   6.248   6.693
 6682SOL     OW20944   0.681   4.467   2.781
 6682SOL    HW120945   0.702   4.417   2.698
 6682SOL    HW220946   0.582   4.470   2.794
 6683SOL     OW20947   4.863   1.904   5.203
 6683SOL    HW120948   4.913   1.972   5.255
 6683SOL    HW220949   4.813   1.844   5.266
 6684SOL     OW20950   2.027   6.703   2.327
 6684SOL    HW120951   2.012   6.609   2.297
 6684SOL    HW220952   1.970   6.722   2.406
 6685SOL     OW20953   5.208   1.777   6.014
 6685SOL    HW120954   5.270   1.724   6.073
 6685SOL    HW220955   5.186   1.864   6.058
 6686SOL     OW20956   6.389   4.047   4.345
 6686SOL    HW120957   6.408   4.093   4.431
 6686SOL    HW220958   6.296   4.009   4.348
 6687SOL     OW20959   1.311   1.357   1.006
 6687SOL    HW120960   1.381   1.427   0.995
 6687SOL    HW220961   1.225   1.390   0.968
 6688SOL     OW20962   6.959   4.295   2.285
 6688SOL    HW120963   6.904   4.212   2.282
 6688SOL    HW220964   6.959   4.339   2.195
 6689SOL     OW20965   4.728   3.283   1.122
 6689SOL    HW120966   4.662   3.274   1.196
 6689SOL    HW220967   4.723   3.202   1.063
 6690SOL     OW20968   2.099   1.701   1.740
 6690SOL    HW120969   2.184   1.674   1.785
 6690SOL    HW220970   2.066   1.786   1.780
 6691SOL     OW20971   2.543   5.915   1.174
 6691SOL    HW120972   2.621   5.867   1.134
 6691SOL    HW220973   2.467   5.851   1.186
 6692SOL     OW20974   2.790   4.522   5.409
 6692SOL    HW120975   2.726   4.445   5.411
 6692SOL    HW220976   2.853   4.510   5.333
 6693SOL     OW20977   4.496   3.548   6.080
 6693SOL    HW120978   4.538   3.470   6.033
 6693SOL    HW220979   4.403   3.560   6.045
 6694SOL     OW20980   4.105   5.950   0.284
 6694SOL    HW120981   4.125   5.854   0.268
 6694SOL    HW220982   4.185   5.994   0.326
 6695SOL     OW20983   0.501   2.044   6.454
 6695SOL    HW120984   0.580   2.057   6.394
 6695SOL    HW220985   0.417   2.050   6.400
 6696SOL     OW20986   1.932   2.669   1.279
 6696SOL    HW120987   2.020   2.717   1.276
 6696SOL    HW220988   1.885   2.692   1.364
 6697SOL     OW20989   4.502   1.685   2.614
 6697SOL    HW120990   4.463   1.617   2.677
 6697SOL    HW220991   4.510   1.773   2.660
 6698SOL     OW20992   3.639   2.487   0.495
 6698SOL    HW120993   3.598   2.415   0.551
 6698SOL    HW220994   3.670   2.561   0.555
 6699SOL     OW20995   3.717   4.382   6.774
 6699SOL    HW120996   3.815   4.394   6.791
 6699SOL    HW220997   3.686   4.450   6.708
 6700SOL     OW20998   0.387   5.605   0.716
 6700SOL    HW120999   0.328   5.532   0.681
 6700SOL    HW221000   0.333   5.666   0.775
 6701SOL     OW21001   6.229   2.543   1.080
 6701SOL    HW121002   6.191   2.531   0.989
 6701SOL    HW221003   6.201   2.467   1.138
 6702SOL     OW21004   2.797   2.152   0.081
 6702SOL    HW121005   2.838   2.244   0.083
 6702SOL    HW221006   2.796   2.115   0.174
 6703SOL     OW21007   6.451   2.198   6.978
 6703SOL    HW121008   6.407   2.120   7.024
 6703SOL    HW221009   6.419   2.283   7.019
 6704SOL     OW21010   4.389   2.357   2.284
 6704SOL    HW121011   4.301   2.393   2.253
 6704SOL    HW221012   4.402   2.265   2.248
 6705SOL     OW21013   0.200   2.572   1.832
 6705SOL    HW121014   0.171   2.578   1.736
 6705SOL    HW221015   0.121   2.585   1.891
 6706SOL     OW21016   1.062   3.605   0.584
 6706SOL    HW121017   1.104   3.572   0.669
 6706SOL    HW221018   1.072   3.536   0.513
 6707SOL     OW21019   6.301   6.244   4.767
 6707SOL    HW121020   6.256   6.319   4.718
 6707SOL    HW221021   6.292   6.160   4.713
 6708SOL     OW21022   1.745   5.674   2.634
 6708SOL    HW121023   1.774   5.770   2.636
 6708SOL    HW221024   1.663   5.663   2.689
 6709SOL     OW21025   3.610   6.676   1.366
 6709SOL    HW121026   3.635   6.624   1.448
 6709SOL    HW221027   3.510   6.678   1.357
 6710SOL     OW21028   2.393   2.508   5.915
 6710SOL    HW121029   2.458   2.575   5.952
 6710SOL    HW221030   2.402   2.422   5.965
 6711SOL     OW21031   5.332   4.115   6.403
 6711SOL    HW121032   5.321   4.178   6.326
 6711SOL    HW221033   5.426   4.080   6.403
 6712SOL     OW21034   3.633   5.506   0.185
 6712SOL    HW121035   3.711   5.527   0.244
 6712SOL    HW221036   3.549   5.537   0.228
 6713SOL     OW21037   2.624   2.053   1.425
 6713SOL    HW121038   2.641   2.127   1.361
 6713SOL    HW221039   2.630   1.965   1.377
 6714SOL     OW21040   4.837   6.861   5.250
 6714SOL    HW121041   4.935   6.840   5.248
 6714SOL    HW221042   4.809   6.880   5.344
 6715SOL     OW21043   0.748   1.270   0.605
 6715SOL    HW121044   0.812   1.325   0.658
 6715SOL    HW221045   0.737   1.310   0.514
 6716SOL     OW21046   1.813   6.216   1.028
 6716SOL    HW121047   1.722   6.190   0.997
 6716SOL    HW221048   1.879   6.202   0.954
 6717SOL     OW21049   3.773   3.532   0.472
 6717SOL    HW121050   3.673   3.540   0.479
 6717SOL    HW221051   3.805   3.582   0.392
 6718SOL     OW21052   3.604   5.674   6.531
 6718SOL    HW121053   3.619   5.614   6.452
 6718SOL    HW221054   3.689   5.719   6.557
 6719SOL     OW21055   0.209   6.900   5.808
 6719SOL    HW121056   0.198   6.816   5.861
 6719SOL    HW221057   0.249   6.879   5.719
 6720SOL     OW21058   2.542   5.834   1.605
 6720SOL    HW121059   2.508   5.810   1.514
 6720SOL    HW221060   2.474   5.809   1.673
 6721SOL     OW21061   5.207   6.313   4.838
 6721SOL    HW121062   5.284   6.364   4.877
 6721SOL    HW221063   5.124   6.368   4.843
 6722SOL     OW21064   5.025   3.310   0.734
 6722SOL    HW121065   5.091   3.364   0.681
 6722SOL    HW221066   4.996   3.231   0.679
 6723SOL     OW21067   2.105   6.444   3.054
 6723SOL    HW121068   2.034   6.514   3.046
 6723SOL    HW221069   2.148   6.450   3.144
 6724SOL     OW21070   2.363   4.641   6.145
 6724SOL    HW121071   2.302   4.652   6.223
 6724SOL    HW221072   2.444   4.590   6.173
 6725SOL     OW21073   1.120   4.553   2.704
 6725SOL    HW121074   1.042   4.587   2.755
 6725SOL    HW221075   1.091   4.527   2.612
 6726SOL     OW21076   1.842   2.955   4.426
 6726SOL    HW121077   1.817   3.034   4.481
 6726SOL    HW221078   1.777   2.946   4.350
 6727SOL     OW21079   5.076   3.484   6.354
 6727SOL    HW121080   5.153   3.493   6.417
 6727SOL    HW221081   5.011   3.558   6.370
 6728SOL     OW21082   4.083   2.258   4.437
 6728SOL    HW121083   4.173   2.233   4.401
 6728SOL    HW221084   4.022   2.282   4.362
 6729SOL     OW21085   0.071   0.837   2.208
 6729SOL    HW121086   0.022   0.855   2.293
 6729SOL    HW221087   0.008   0.795   2.142
 6730SOL     OW21088   2.586   0.194   6.804
 6730SOL    HW121089   2.639   0.158   6.880
 6730SOL    HW221090   2.630   0.168   6.718
 6731SOL     OW21091   2.685   4.418   1.248
 6731SOL    HW121092   2.632   4.440   1.330
 6731SOL    HW221093   2.781   4.443   1.262
 6732SOL     OW21094   2.249   6.048   0.285
 6732SOL    HW121095   2.177   6.063   0.353
 6732SOL    HW221096   2.338   6.061   0.328
 6733SOL     OW21097   4.485   5.588   5.779
 6733SOL    HW121098   4.452   5.509   5.727
 6733SOL    HW221099   4.577   5.612   5.747
 6734SOL     OW21100   1.076   3.380   5.609
 6734SOL    HW121101   1.139   3.421   5.543
 6734SOL    HW221102   1.099   3.412   5.701
 6735SOL     OW21103   0.384   4.815   5.299
 6735SOL    HW121104   0.476   4.820   5.338
 6735SOL    HW221105   0.318   4.847   5.367
 6736SOL     OW21106   2.474   3.088   1.479
 6736SOL    HW121107   2.475   3.166   1.541
 6736SOL    HW221108   2.554   3.091   1.419
 6737SOL     OW21109   1.861   1.480   2.394
 6737SOL    HW121110   1.903   1.564   2.429
 6737SOL    HW221111   1.762   1.486   2.407
 6738SOL     OW21112   2.203   1.372   2.318
 6738SOL    HW121113   2.246   1.292   2.361
 6738SOL    HW221114   2.205   1.361   2.219
 6739SOL     OW21115   4.206   5.959   4.775
 6739SOL    HW121116   4.208   5.988   4.871
 6739SOL    HW221117   4.229   6.037   4.716
 6740SOL     OW21118   1.379   1.198   4.424
 6740SOL    HW121119   1.288   1.231   4.449
 6740SOL    HW221120   1.430   1.272   4.380
 6741SOL     OW21121   5.527   1.212   6.077
 6741SOL    HW121122   5.531   1.305   6.114
 6741SOL    HW221123   5.432   1.186   6.061
 6742SOL     OW21124   6.797   5.312   5.237
 6742SOL    HW121125   6.788   5.275   5.144
 6742SOL    HW221126   6.878   5.371   5.242
 6743SOL     OW21127   4.145   3.178   0.917
 6743SOL    HW121128   4.114   3.273   0.924
 6743SOL    HW221129   4.244   3.175   0.932
 6744SOL     OW21130   4.142   4.339   5.527
 6744SOL    HW121131   4.190   4.426   5.540
 6744SOL    HW221132   4.130   4.322   5.430
 6745SOL     OW21133   1.110   4.860   3.119
 6745SOL    HW121134   1.092   4.956   3.098
 6745SOL    HW221135   1.088   4.842   3.214
 6746SOL     OW21136   0.808   1.339   1.519
 6746SOL    HW121137   0.784   1.407   1.587
 6746SOL    HW221138   0.907   1.326   1.517
 6747SOL     OW21139   5.723   6.501   4.483
 6747SOL    HW121140   5.625   6.486   4.476
 6747SOL    HW221141   5.741   6.598   4.499
 6748SOL     OW21142   1.024   0.375   2.031
 6748SOL    HW121143   1.057   0.297   2.085
 6748SOL    HW221144   0.965   0.343   1.958
 6749SOL     OW21145   3.768   0.679   0.003
 6749SOL    HW121146   3.819   0.672   0.088
 6749SOL    HW221147   3.757   0.776   7.004
 6750SOL     OW21148   2.758   2.350   4.407
 6750SOL    HW121149   2.792   2.350   4.501
 6750SOL    HW221150   2.751   2.255   4.374
 6751SOL     OW21151   2.564   2.464   4.241
 6751SOL    HW121152   2.604   2.470   4.150
 6751SOL    HW221153   2.630   2.425   4.305
 6752SOL     OW21154   5.847   3.490   1.205
 6752SOL    HW121155   5.935   3.538   1.211
 6752SOL    HW221156   5.804   3.489   1.294
 6753SOL     OW21157   4.226   1.783   6.566
 6753SOL    HW121158   4.138   1.807   6.607
 6753SOL    HW221159   4.219   1.693   6.522
 6754SOL     OW21160   5.886   1.678   6.084
 6754SOL    HW121161   5.878   1.579   6.079
 6754SOL    HW221162   5.908   1.715   5.994
 6755SOL     OW21163   5.408   2.087   3.560
 6755SOL    HW121164   5.433   2.056   3.468
 6755SOL    HW221165   5.444   2.179   3.575
 6756SOL     OW21166   5.041   4.785   4.086
 6756SOL    HW121167   5.116   4.790   4.152
 6756SOL    HW221168   5.027   4.875   4.044
 6757SOL     OW21169   5.223   6.102   1.345
 6757SOL    HW121170   5.201   6.032   1.277
 6757SOL    HW221171   5.144   6.161   1.360
 6758SOL     OW21172   5.099   3.099   2.355
 6758SOL    HW121173   5.072   3.145   2.271
 6758SOL    HW221174   5.018   3.083   2.412
 6759SOL     OW21175   1.358   4.872   2.992
 6759SOL    HW121176   1.407   4.949   3.034
 6759SOL    HW221177   1.267   4.865   3.033
 6760SOL     OW21178   0.199   4.237   4.203
 6760SOL    HW121179   0.109   4.197   4.216
 6760SOL    HW221180   0.227   4.286   4.286
 6761SOL     OW21181   5.234   2.790   5.530
 6761SOL    HW121182   5.166   2.735   5.580
 6761SOL    HW221183   5.199   2.810   5.439
 6762SOL     OW21184   6.607   5.015   3.719
 6762SOL    HW121185   6.543   4.968   3.658
 6762SOL    HW221186   6.599   4.976   3.811
 6763SOL     OW21187   6.019   6.988   5.588
 6763SOL    HW121188   6.044   0.054   5.556
 6763SOL    HW221189   5.928   6.965   5.555
 6764SOL     OW21190   3.018   3.854   6.834
 6764SOL    HW121191   3.011   3.945   6.792
 6764SOL    HW221192   3.064   3.862   6.922
 6765SOL     OW21193   6.826   4.215   3.248
 6765SOL    HW121194   6.892   4.183   3.180
 6765SOL    HW221195   6.736   4.178   3.227
 6766SOL     OW21196   1.823   0.467   5.558
 6766SOL    HW121197   1.884   0.522   5.614
 6766SOL    HW221198   1.820   0.373   5.594
 6767SOL     OW21199   0.933   2.488   6.366
 6767SOL    HW121200   0.888   2.577   6.373
 6767SOL    HW221201   0.961   2.458   6.458
 6768SOL     OW21202   0.856   0.030   4.152
 6768SOL    HW121203   0.770   7.005   4.155
 6768SOL    HW221204   0.843   0.116   4.103
 6769SOL     OW21205   2.229   2.676   5.380
 6769SOL    HW121206   2.223   2.714   5.288
 6769SOL    HW221207   2.315   2.704   5.422
 6770SOL     OW21208   0.283   1.870   3.200
 6770SOL    HW121209   0.339   1.920   3.266
 6770SOL    HW221210   0.242   1.790   3.244
 6771SOL     OW21211   3.599   1.946   3.990
 6771SOL    HW121212   3.694   1.977   3.981
 6771SOL    HW221213   3.537   2.024   3.982
 6772SOL     OW21214   6.254   1.308   3.042
 6772SOL    HW121215   6.180   1.247   3.069
 6772SOL    HW221216   6.237   1.344   2.950
 6773SOL     OW21217   0.077   5.879   1.813
 6773SOL    HW121218   0.127   5.818   1.752
 6773SOL    HW221219   0.070   5.970   1.771
 6774SOL     OW21220   2.244   2.424   5.704
 6774SOL    HW121221   2.294   2.479   5.771
 6774SOL    HW221222   2.224   2.334   5.744
 6775SOL     OW21223   0.619   1.943   5.033
 6775SOL    HW121224   0.529   1.964   4.995
 6775SOL    HW221225   0.660   2.025   5.071
 6776SOL     OW21226   3.548   4.085   2.242
 6776SOL    HW121227   3.486   4.160   2.263
 6776SOL    HW221228   3.502   3.997   2.258
 6777SOL     OW21229   5.260   5.315   0.999
 6777SOL    HW121230   5.267   5.271   0.910
 6777SOL    HW221231   5.164   5.333   1.020
 6778SOL     OW21232   0.421   4.539   2.746
 6778SOL    HW121233   0.450   4.626   2.706
 6778SOL    HW221234   0.383   4.480   2.675
 6779SOL     OW21235   5.895   4.145   5.617
 6779SOL    HW121236   5.858   4.166   5.527
 6779SOL    HW221237   5.828   4.093   5.670
 6780SOL     OW21238   2.961   2.162   2.510
 6780SOL    HW121239   3.002   2.140   2.421
 6780SOL    HW221240   2.888   2.228   2.497
 6781SOL     OW21241   6.729   1.241   4.159
 6781SOL    HW121242   6.804   1.220   4.221
 6781SOL    HW221243   6.757   1.221   4.065
 6782SOL     OW21244   6.821   2.147   3.069
 6782SOL    HW121245   6.809   2.128   2.972
 6782SOL    HW221246   6.911   2.115   3.098
 6783SOL     OW21247   1.715   4.615   5.430
 6783SOL    HW121248   1.660   4.698   5.442
 6783SOL    HW221249   1.663   4.535   5.460
 6784SOL     OW21250   1.939   3.986   1.512
 6784SOL    HW121251   1.945   3.911   1.577
 6784SOL    HW221252   2.006   3.973   1.439
 6785SOL     OW21253   5.242   4.805   4.262
 6785SOL    HW121254   5.281   4.896   4.269
 6785SOL    HW221255   5.245   4.760   4.351
 6786SOL     OW21256   6.768   2.482   6.945
 6786SOL    HW121257   6.780   2.387   6.916
 6786SOL    HW221258   6.746   2.539   6.866
 6787SOL     OW21259   3.912   2.088   6.501
 6787SOL    HW121260   3.927   2.132   6.412
 6787SOL    HW221261   3.820   2.049   6.504
 6788SOL     OW21262   6.873   3.897   3.536
 6788SOL    HW121263   6.871   3.913   3.438
 6788SOL    HW221264   6.790   3.933   3.578
 6789SOL     OW21265   6.141   3.912   4.097
 6789SOL    HW121266   6.234   3.948   4.086
 6789SOL    HW221267   6.140   3.814   4.081
 6790SOL     OW21268   0.627   4.842   5.458
 6790SOL    HW121269   0.723   4.826   5.480
 6790SOL    HW221270   0.614   4.937   5.430
 6791SOL     OW21271   3.551   0.650   3.670
 6791SOL    HW121272   3.629   0.587   3.680
 6791SOL    HW221273   3.535   0.668   3.573
 6792SOL     OW21274   4.130   0.251   5.469
 6792SOL    HW121275   4.173   0.342   5.476
 6792SOL    HW221276   4.200   0.181   5.481
 6793SOL     OW21277   2.106   3.095   0.644
 6793SOL    HW121278   2.102   3.101   0.544
 6793SOL    HW221279   2.013   3.094   0.681
 6794SOL     OW21280   5.130   1.587   5.310
 6794SOL    HW121281   5.142   1.677   5.353
 6794SOL    HW221282   5.158   1.592   5.215
 6795SOL     OW21283   0.767   1.392   1.191
 6795SOL    HW121284   0.734   1.353   1.105
 6795SOL    HW221285   0.863   1.366   1.204
 6796SOL     OW21286   6.771   0.690   2.689
 6796SOL    HW121287   6.795   0.685   2.592
 6796SOL    HW221288   6.795   0.781   2.725
 6797SOL     OW21289   0.448   2.420   1.232
 6797SOL    HW121290   0.393   2.396   1.153
 6797SOL    HW221291   0.545   2.407   1.211
 6798SOL     OW21292   5.174   0.534   1.726
 6798SOL    HW121293   5.159   0.604   1.795
 6798SOL    HW221294   5.259   0.485   1.744
 6799SOL     OW21295   5.599   0.669   3.350
 6799SOL    HW121296   5.656   0.720   3.414
 6799SOL    HW221297   5.655   0.639   3.272
 6800SOL     OW21298   0.308   1.702   1.257
 6800SOL    HW121299   0.296   1.694   1.356
 6800SOL    HW221300   0.305   1.799   1.231
 6801SOL     OW21301   0.865   5.714   5.899
 6801SOL    HW121302   0.879   5.781   5.826
 6801SOL    HW221303   0.827   5.759   5.980
 6802SOL     OW21304   2.806   4.992   1.655
 6802SOL    HW121305   2.744   4.913   1.659
 6802SOL    HW221306   2.783   5.047   1.575
 6803SOL     OW21307   5.026   4.775   5.916
 6803SOL    HW121308   5.079   4.711   5.860
 6803SOL    HW221309   4.988   4.847   5.856
 6804SOL     OW21310   3.246   5.087   3.040
 6804SOL    HW121311   3.263   5.181   3.011
 6804SOL    HW221312   3.179   5.045   2.979
 6805SOL     OW21313   6.925   4.192   5.364
 6805SOL    HW121314   6.855   4.230   5.425
 6805SOL    HW221315   7.013   4.190   5.411
 6806SOL     OW21316   6.909   1.688   2.367
 6806SOL    HW121317   6.958   1.668   2.283
 6806SOL    HW221318   6.974   1.700   2.442
 6807SOL     OW21319   3.444   3.588   1.854
 6807SOL    HW121320   3.463   3.627   1.764
 6807SOL    HW221321   3.504   3.631   1.922
 6808SOL     OW21322   3.507   1.022   4.408
 6808SOL    HW121323   3.560   0.984   4.333
 6808SOL    HW221324   3.463   0.948   4.459
 6809SOL     OW21325   5.137   3.225   2.032
 6809SOL    HW121326   5.215   3.283   2.006
 6809SOL    HW221327   5.150   3.133   1.994
 6810SOL     OW21328   2.679   0.394   3.756
 6810SOL    HW121329   2.661   0.460   3.829
 6810SOL    HW221330   2.736   0.437   3.686
 6811SOL     OW21331   6.636   1.506   1.071
 6811SOL    HW121332   6.625   1.457   1.157
 6811SOL    HW221333   6.652   1.440   0.997
 6812SOL     OW21334   3.327   3.969   5.324
 6812SOL    HW121335   3.307   3.913   5.405
 6812SOL    HW221336   3.354   4.060   5.353
 6813SOL     OW21337   6.268   3.903   1.766
 6813SOL    HW121338   6.298   3.961   1.842
 6813SOL    HW221339   6.181   3.936   1.731
 6814SOL     OW21340   5.190   1.350   6.559
 6814SOL    HW121341   5.166   1.345   6.463
 6814SOL    HW221342   5.226   1.441   6.580
 6815SOL     OW21343   1.808   4.870   6.187
 6815SOL    HW121344   1.754   4.831   6.112
 6815SOL    HW221345   1.905   4.862   6.166
 6816SOL     OW21346   0.774   1.236   2.960
 6816SOL    HW121347   0.850   1.236   2.895
 6816SOL    HW221348   0.786   1.308   3.027
 6817SOL     OW21349   3.788   2.134   2.441
 6817SOL    HW121350   3.715   2.124   2.510
 6817SOL    HW221351   3.748   2.165   2.355
 6818SOL     OW21352   1.763   6.733   5.480
 6818SOL    HW121353   1.706   6.668   5.531
 6818SOL    HW221354   1.756   6.714   5.382
 6819SOL     OW21355   4.533   4.705   1.960
 6819SOL    HW121356   4.630   4.712   1.939
 6819SOL    HW221357   4.512   4.611   1.989
 6820SOL     OW21358   2.758   5.944   1.401
 6820SOL    HW121359   2.720   5.940   1.494
 6820SOL    HW221360   2.763   6.039   1.371
 6821SOL     OW21361   4.017   2.717   5.315
 6821SOL    HW121362   4.080   2.655   5.268
 6821SOL    HW221363   4.043   2.811   5.297
 6822SOL     OW21364   6.851   2.911   6.722
 6822SOL    HW121365   6.819   3.002   6.746
 6822SOL    HW221366   6.880   2.911   6.626
 6823SOL     OW21367   6.234   3.474   6.549
 6823SOL    HW121368   6.215   3.431   6.638
 6823SOL    HW221369   6.189   3.563   6.545
 6824SOL     OW21370   0.182   1.654   5.626
 6824SOL    HW121371   0.121   1.716   5.675
 6824SOL    HW221372   0.250   1.706   5.574
 6825SOL     OW21373   5.807   4.814   1.333
 6825SOL    HW121374   5.788   4.903   1.373
 6825SOL    HW221375   5.738   4.748   1.364
 6826SOL     OW21376   0.163   3.557   3.060
 6826SOL    HW121377   0.261   3.555   3.080
 6826SOL    HW221378   0.142   3.494   2.986
 6827SOL     OW21379   4.594   5.706   4.639
 6827SOL    HW121380   4.496   5.719   4.621
 6827SOL    HW221381   4.606   5.653   4.722
 6828SOL     OW21382   2.929   1.577   2.289
 6828SOL    HW121383   2.841   1.583   2.336
 6828SOL    HW221384   2.973   1.667   2.287
 6829SOL     OW21385   4.394   6.827   4.418
 6829SOL    HW121386   4.490   6.855   4.411
 6829SOL    HW221387   4.389   6.728   4.433
 6830SOL     OW21388   5.218   0.128   2.983
 6830SOL    HW121389   5.136   0.087   3.022
 6830SOL    HW221390   5.226   0.100   2.887
 6831SOL     OW21391   1.421   1.613   6.435
 6831SOL    HW121392   1.351   1.542   6.423
 6831SOL    HW221393   1.418   1.645   6.530
 6832SOL     OW21394   3.054   2.768   0.143
 6832SOL    HW121395   3.080   2.852   0.191
 6832SOL    HW221396   3.135   2.727   0.100
 6833SOL     OW21397   3.041   4.945   6.141
 6833SOL    HW121398   2.963   4.903   6.095
 6833SOL    HW221399   3.071   4.886   6.216
 6834SOL     OW21400   5.181   0.179   0.896
 6834SOL    HW121401   5.142   0.093   0.931
 6834SOL    HW221402   5.170   0.251   0.965
 6835SOL     OW21403   2.609   1.858   4.624
 6835SOL    HW121404   2.708   1.872   4.619
 6835SOL    HW221405   2.590   1.767   4.660
 6836SOL     OW21406   1.931   4.319   6.100
 6836SOL    HW121407   1.857   4.349   6.040
 6836SOL    HW221408   1.920   4.362   6.190
 6837SOL     OW21409   0.550   0.157   1.254
 6837SOL    HW121410   0.543   0.226   1.326
 6837SOL    HW221411   0.528   0.198   1.166
 6838SOL     OW21412   2.932   4.200   5.342
 6838SOL    HW121413   2.994   4.142   5.289
 6838SOL    HW221414   2.966   4.294   5.342
 6839SOL     OW21415   5.428   2.427   3.845
 6839SOL    HW121416   5.427   2.385   3.754
 6839SOL    HW221417   5.486   2.374   3.906
 6840SOL     OW21418   2.571   6.922   5.551
 6840SOL    HW121419   2.578   7.016   5.518
 6840SOL    HW221420   2.474   6.896   5.556
 6841SOL     OW21421   4.133   5.433   1.419
 6841SOL    HW121422   4.149   5.428   1.321
 6841SOL    HW221423   4.035   5.446   1.436
 6842SOL     OW21424   0.394   4.157   6.611
 6842SOL    HW121425   0.331   4.184   6.683
 6842SOL    HW221426   0.409   4.058   6.614
 6843SOL     OW21427   3.359   2.041   2.500
 6843SOL    HW121428   3.389   2.073   2.410
 6843SOL    HW221429   3.297   1.963   2.488
 6844SOL     OW21430   4.864   4.887   4.390
 6844SOL    HW121431   4.773   4.849   4.370
 6844SOL    HW221432   4.933   4.816   4.379
 6845SOL     OW21433   5.128   4.693   2.218
 6845SOL    HW121434   5.064   4.626   2.180
 6845SOL    HW221435   5.222   4.661   2.203
 6846SOL     OW21436   3.676   2.937   2.613
 6846SOL    HW121437   3.626   2.917   2.529
 6846SOL    HW221438   3.774   2.922   2.598
 6847SOL     OW21439   6.398   3.131   1.857
 6847SOL    HW121440   6.493   3.102   1.849
 6847SOL    HW221441   6.381   3.209   1.796
 6848SOL     OW21442   1.335   6.194   3.486
 6848SOL    HW121443   1.296   6.283   3.505
 6848SOL    HW221444   1.403   6.171   3.556
 6849SOL     OW21445   3.934   5.886   3.831
 6849SOL    HW121446   3.851   5.851   3.788
 6849SOL    HW221447   4.012   5.867   3.772
 6850SOL     OW21448   5.310   2.924   3.120
 6850SOL    HW121449   5.303   2.829   3.152
 6850SOL    HW221450   5.406   2.953   3.124
 6851SOL     OW21451   1.528   5.219   5.602
 6851SOL    HW121452   1.494   5.145   5.661
 6851SOL    HW221453   1.623   5.238   5.624
 6852SOL     OW21454   1.057   4.300   1.675
 6852SOL    HW121455   0.987   4.307   1.747
 6852SOL    HW221456   1.137   4.254   1.713
 6853SOL     OW21457   0.365   4.171   5.165
 6853SOL    HW121458   0.401   4.260   5.135
 6853SOL    HW221459   0.298   4.138   5.098
 6854SOL     OW21460   6.832   3.184   6.785
 6854SOL    HW121461   6.903   3.249   6.813
 6854SOL    HW221462   6.742   3.224   6.801
 6855SOL     OW21463   3.089   6.881   2.203
 6855SOL    HW121464   3.172   6.894   2.256
 6855SOL    HW221465   3.111   6.840   2.115
 6856SOL     OW21466   5.929   3.928   4.907
 6856SOL    HW121467   6.000   3.966   4.848
 6856SOL    HW221468   5.936   3.969   4.998
 6857SOL     OW21469   3.318   2.126   5.973
 6857SOL    HW121470   3.394   2.104   5.912
 6857SOL    HW221471   3.353   2.169   6.056
 6858SOL     OW21472   4.015   3.017   5.246
 6858SOL    HW121473   3.948   3.053   5.311
 6858SOL    HW221474   4.106   3.051   5.271
 6859SOL     OW21475   3.250   0.109   0.462
 6859SOL    HW121476   3.347   0.128   0.477
 6859SOL    HW221477   3.198   0.194   0.472
 6860SOL     OW21478   5.483   4.040   0.765
 6860SOL    HW121479   5.393   4.082   0.747
 6860SOL    HW221480   5.520   4.005   0.679
 6861SOL     OW21481   5.876   5.055   0.426
 6861SOL    HW121482   5.935   5.132   0.450
 6861SOL    HW221483   5.931   4.972   0.419
 6862SOL     OW21484   3.141   5.311   4.344
 6862SOL    HW121485   3.081   5.305   4.264
 6862SOL    HW221486   3.117   5.238   4.408
 6863SOL     OW21487   5.900   2.087   4.266
 6863SOL    HW121488   5.887   2.177   4.307
 6863SOL    HW221489   5.959   2.094   4.186
 6864SOL     OW21490   3.139   6.335   4.117
 6864SOL    HW121491   3.045   6.309   4.096
 6864SOL    HW221492   3.165   6.300   4.207
 6865SOL     OW21493   6.685   4.062   4.235
 6865SOL    HW121494   6.700   4.133   4.166
 6865SOL    HW221495   6.588   4.060   4.259
 6866SOL     OW21496   6.789   3.387   1.995
 6866SOL    HW121497   6.757   3.354   2.084
 6866SOL    HW221498   6.712   3.427   1.945
 6867SOL     OW21499   2.139   4.035   2.044
 6867SOL    HW121500   2.144   3.940   2.076
 6867SOL    HW221501   2.183   4.095   2.110
 6868SOL     OW21502   1.992   5.719   4.320
 6868SOL    HW121503   1.926   5.650   4.352
 6868SOL    HW221504   2.083   5.693   4.350
 6869SOL     OW21505   5.364   2.346   5.459
 6869SOL    HW121506   5.279   2.340   5.407
 6869SOL    HW221507   5.368   2.435   5.505
 6870SOL     OW21508   5.893   3.734   2.844
 6870SOL    HW121509   5.931   3.720   2.936
 6870SOL    HW221510   5.821   3.667   2.827
 6871SOL     OW21511   5.414   5.317   1.363
 6871SOL    HW121512   5.418   5.217   1.361
 6871SOL    HW221513   5.322   5.347   1.387
 6872SOL     OW21514   2.180   3.107   0.355
 6872SOL    HW121515   2.245   3.055   0.301
 6872SOL    HW221516   2.088   3.096   0.317
 6873SOL     OW21517   6.137   3.724   6.515
 6873SOL    HW121518   6.109   3.799   6.575
 6873SOL    HW221519   6.132   3.755   6.419
 6874SOL     OW21520   0.565   2.653   4.632
 6874SOL    HW121521   0.622   2.586   4.679
 6874SOL    HW221522   0.581   2.744   4.671
 6875SOL     OW21523   2.053   1.033   2.992
 6875SOL    HW121524   2.085   1.013   2.899
 6875SOL    HW221525   1.976   1.097   2.987
 6876SOL     OW21526   3.752   5.971   0.304
 6876SOL    HW121527   3.655   5.964   0.279
 6876SOL    HW221528   3.805   5.910   0.246
 6877SOL     OW21529   2.341   3.952   0.174
 6877SOL    HW121530   2.353   3.878   0.109
 6877SOL    HW221531   2.403   4.028   0.150
 6878SOL     OW21532   1.986   1.667   5.639
 6878SOL    HW121533   1.981   1.598   5.567
 6878SOL    HW221534   2.066   1.726   5.622
 6879SOL     OW21535   0.876   2.301   6.831
 6879SOL    HW121536   0.849   2.224   6.888
 6879SOL    HW221537   0.854   2.387   6.878
 6880SOL     OW21538   2.278   4.102   4.707
 6880SOL    HW121539   2.323   4.058   4.785
 6880SOL    HW221540   2.198   4.048   4.680
 6881SOL     OW21541   0.361   4.047   1.520
 6881SOL    HW121542   0.459   4.039   1.503
 6881SOL    HW221543   0.314   3.967   1.484
 6882SOL     OW21544   2.302   0.875   5.169
 6882SOL    HW121545   2.337   0.814   5.240
 6882SOL    HW221546   2.346   0.852   5.082
 6883SOL     OW21547   3.957   0.928   1.482
 6883SOL    HW121548   3.868   0.965   1.508
 6883SOL    HW221549   3.951   0.828   1.474
 6884SOL     OW21550   1.801   5.079   4.346
 6884SOL    HW121551   1.867   5.009   4.374
 6884SOL    HW221552   1.840   5.134   4.273
 6885SOL     OW21553   2.748   6.007   4.193
 6885SOL    HW121554   2.802   5.957   4.126
 6885SOL    HW221555   2.722   5.945   4.267
 6886SOL     OW21556   5.403   0.985   2.709
 6886SOL    HW121557   5.412   0.969   2.611
 6886SOL    HW221558   5.482   0.945   2.756
 6887SOL     OW21559   5.817   0.893   4.690
 6887SOL    HW121560   5.879   0.963   4.724
 6887SOL    HW221561   5.732   0.936   4.660
 6888SOL     OW21562   6.243   0.607   4.649
 6888SOL    HW121563   6.327   0.647   4.686
 6888SOL    HW221564   6.164   0.660   4.680
 6889SOL     OW21565   1.321   4.420   6.135
 6889SOL    HW121566   1.317   4.507   6.087
 6889SOL    HW221567   1.251   4.418   6.207
 6890SOL     OW21568   2.167   6.662   1.164
 6890SOL    HW121569   2.253   6.618   1.141
 6890SOL    HW221570   2.183   6.757   1.190
 6891SOL     OW21571   1.984   3.926   3.598
 6891SOL    HW121572   2.071   3.950   3.554
 6891SOL    HW221573   1.920   4.002   3.589
 6892SOL     OW21574   3.160   0.433   4.171
 6892SOL    HW121575   3.208   0.440   4.258
 6892SOL    HW221576   3.222   0.453   4.096
 6893SOL     OW21577   4.958   5.970   2.800
 6893SOL    HW121578   4.966   5.936   2.894
 6893SOL    HW221579   4.960   6.070   2.800
 6894SOL     OW21580   5.735   4.971   0.095
 6894SOL    HW121581   5.758   5.031   0.171
 6894SOL    HW221582   5.665   5.013   0.038
 6895SOL     OW21583   2.640   4.441   0.211
 6895SOL    HW121584   2.686   4.383   0.144
 6895SOL    HW221585   2.693   4.443   0.296
 6896SOL     OW21586   3.765   0.205   3.141
 6896SOL    HW121587   3.799   0.179   3.051
 6896SOL    HW221588   3.826   0.274   3.180
 6897SOL     OW21589   3.706   3.852   0.426
 6897SOL    HW121590   3.796   3.896   0.425
 6897SOL    HW221591   3.677   3.839   0.521
 6898SOL     OW21592   4.235   1.710   2.221
 6898SOL    HW121593   4.161   1.675   2.279
 6898SOL    HW221594   4.231   1.810   2.218
 6899SOL     OW21595   4.745   6.477   6.873
 6899SOL    HW121596   4.713   6.511   6.785
 6899SOL    HW221597   4.721   6.541   6.946
 6900SOL     OW21598   5.213   0.056   5.981
 6900SOL    HW121599   5.137   7.016   5.984
 6900SOL    HW221600   5.258   0.058   6.070
 6901SOL     OW21601   1.740   0.236   6.498
 6901SOL    HW121602   1.781   0.258   6.587
 6901SOL    HW221603   1.699   0.319   6.460
 6902SOL     OW21604   0.351   6.045   0.024
 6902SOL    HW121605   0.419   6.064   0.095
 6902SOL    HW221606   0.348   6.120   6.985
 6903SOL     OW21607   4.129   4.736   0.622
 6903SOL    HW121608   4.143   4.724   0.523
 6903SOL    HW221609   4.032   4.719   0.644
 6904SOL     OW21610   6.412   1.304   3.651
 6904SOL    HW121611   6.317   1.320   3.624
 6904SOL    HW221612   6.416   1.281   3.748
 6905SOL     OW21613   5.898   6.790   1.345
 6905SOL    HW121614   5.948   6.782   1.431
 6905SOL    HW221615   5.902   6.703   1.296
 6906SOL     OW21616   3.871   0.674   2.900
 6906SOL    HW121617   3.832   0.765   2.918
 6906SOL    HW221618   3.940   0.682   2.828
 6907SOL     OW21619   3.578   1.273   1.696
 6907SOL    HW121620   3.548   1.203   1.631
 6907SOL    HW221621   3.566   1.239   1.789
 6908SOL     OW21622   1.075   6.500   5.407
 6908SOL    HW121623   1.098   6.499   5.309
 6908SOL    HW221624   1.126   6.427   5.453
 6909SOL     OW21625   4.637   4.434   0.448
 6909SOL    HW121626   4.729   4.397   0.447
 6909SOL    HW221627   4.570   4.360   0.451
 6910SOL     OW21628   6.262   1.628   1.637
 6910SOL    HW121629   6.176   1.611   1.684
 6910SOL    HW221630   6.253   1.708   1.578
 6911SOL     OW21631   4.203   0.880   4.480
 6911SOL    HW121632   4.272   0.950   4.494
 6911SOL    HW221633   4.117   0.909   4.523
 6912SOL     OW21634   5.109   4.890   0.760
 6912SOL    HW121635   5.183   4.924   0.702
 6912SOL    HW221636   5.064   4.968   0.805
 6913SOL     OW21637   5.320   4.783   4.792
 6913SOL    HW121638   5.410   4.812   4.826
 6913SOL    HW221639   5.263   4.863   4.775
 6914SOL     OW21640   6.041   5.293   0.456
 6914SOL    HW121641   6.081   5.226   0.518
 6914SOL    HW221642   5.950   5.319   0.489
 6915SOL     OW21643   0.549   4.717   3.155
 6915SOL    HW121644   0.588   4.792   3.101
 6915SOL    HW221645   0.558   4.739   3.252
 6916SOL     OW21646   6.331   3.647   6.904
 6916SOL    HW121647   6.237   3.645   6.870
 6916SOL    HW221648   6.349   3.563   6.956
 6917SOL     OW21649   4.951   6.473   6.018
 6917SOL    HW121650   4.966   6.551   5.958
 6917SOL    HW221651   4.939   6.390   5.964
 6918SOL     OW21652   6.735   3.722   3.895
 6918SOL    HW121653   6.647   3.746   3.935
 6918SOL    HW221654   6.734   3.626   3.867
 6919SOL     OW21655   1.699   6.040   2.465
 6919SOL    HW121656   1.670   5.955   2.422
 6919SOL    HW221657   1.768   6.022   2.535
 6920SOL     OW21658   5.078   5.849   4.869
 6920SOL    HW121659   5.083   5.853   4.969
 6920SOL    HW221660   5.135   5.774   4.836
 6921SOL     OW21661   6.781   0.284   3.302
 6921SOL    HW121662   6.751   0.345   3.376
 6921SOL    HW221663   6.746   0.192   3.319
 6922SOL     OW21664   2.606   6.090   0.768
 6922SOL    HW121665   2.670   6.135   0.831
 6922SOL    HW221666   2.562   6.013   0.814
 6923SOL     OW21667   4.595   0.218   4.097
 6923SOL    HW121668   4.601   0.125   4.061
 6923SOL    HW221669   4.502   0.252   4.089
 6924SOL     OW21670   0.255   5.311   1.580
 6924SOL    HW121671   0.189   5.348   1.646
 6924SOL    HW221672   0.219   5.226   1.542
 6925SOL     OW21673   4.754   6.623   2.804
 6925SOL    HW121674   4.680   6.555   2.810
 6925SOL    HW221675   4.779   6.636   2.709
 6926SOL     OW21676   3.066   3.949   4.317
 6926SOL    HW121677   2.978   3.921   4.278
 6926SOL    HW221678   3.133   3.876   4.306
 6927SOL     OW21679   5.080   3.855   6.163
 6927SOL    HW121680   5.062   3.836   6.260
 6927SOL    HW221681   5.045   3.945   6.139
 6928SOL     OW21682   4.855   0.773   6.568
 6928SOL    HW121683   4.799   0.804   6.491
 6928SOL    HW221684   4.810   0.695   6.612
 6929SOL     OW21685   4.326   6.180   0.307
 6929SOL    HW121686   4.381   6.255   0.271
 6929SOL    HW221687   4.236   6.214   0.335
 6930SOL     OW21688   0.845   0.120   2.286
 6930SOL    HW121689   0.932   0.125   2.236
 6930SOL    HW221690   0.782   0.060   2.237
 6931SOL     OW21691   1.729   0.479   1.527
 6931SOL    HW121692   1.691   0.544   1.460
 6931SOL    HW221693   1.658   0.450   1.590
 6932SOL     OW21694   2.762   1.611   7.018
 6932SOL    HW121695   2.750   1.575   0.084
 6932SOL    HW221696   2.816   1.547   6.963
 6933SOL     OW21697   4.128   5.399   5.656
 6933SOL    HW121698   4.034   5.432   5.655
 6933SOL    HW221699   4.157   5.381   5.750
 6934SOL     OW21700   4.894   3.223   0.173
 6934SOL    HW121701   4.929   3.300   0.121
 6934SOL    HW221702   4.970   3.174   0.216
 6935SOL     OW21703   4.241   6.452   3.335
 6935SOL    HW121704   4.171   6.484   3.397
 6935SOL    HW221705   4.270   6.360   3.361
 6936SOL     OW21706   0.906   2.767   0.742
 6936SOL    HW121707   0.822   2.720   0.714
 6936SOL    HW221708   0.932   2.833   0.672
 6937SOL     OW21709   4.716   6.487   6.170
 6937SOL    HW121710   4.795   6.487   6.109
 6937SOL    HW221711   4.706   6.396   6.212
 6938SOL     OW21712   4.926   3.285   5.405
 6938SOL    HW121713   4.914   3.339   5.321
 6938SOL    HW221714   4.923   3.346   5.484
 6939SOL     OW21715   0.052   4.272   2.534
 6939SOL    HW121716   0.152   4.277   2.536
 6939SOL    HW221717   0.021   4.275   2.439
 6940SOL     OW21718   4.896   0.739   5.661
 6940SOL    HW121719   4.993   0.760   5.673
 6940SOL    HW221720   4.885   0.664   5.596
 6941SOL     OW21721   4.078   3.313   4.091
 6941SOL    HW121722   4.106   3.401   4.129
 6941SOL    HW221723   4.041   3.255   4.163
 6942SOL     OW21724   6.715   3.014   0.769
 6942SOL    HW121725   6.740   2.994   0.674
 6942SOL    HW221726   6.617   3.000   0.781
 6943SOL     OW21727   5.274   6.195   6.091
 6943SOL    HW121728   5.253   6.168   6.185
 6943SOL    HW221729   5.350   6.140   6.057
 6944SOL     OW21730   1.026   5.400   6.299
 6944SOL    HW121731   0.975   5.402   6.385
 6944SOL    HW221732   1.024   5.308   6.260
 6945SOL     OW21733   6.212   3.035   6.552
 6945SOL    HW121734   6.272   3.105   6.512
 6945SOL    HW221735   6.261   2.949   6.559
 6946SOL     OW21736   5.829   4.284   2.674
 6946SOL    HW121737   5.751   4.270   2.736
 6946SOL    HW221738   5.908   4.233   2.709
 6947SOL     OW21739   3.443   6.648   2.631
 6947SOL    HW121740   3.372   6.655   2.561
 6947SOL    HW221741   3.521   6.706   2.606
 6948SOL     OW21742   4.681   1.023   6.658
 6948SOL    HW121743   4.668   0.993   6.753
 6948SOL    HW221744   4.728   0.951   6.607
 6949SOL     OW21745   5.230   6.618   3.577
 6949SOL    HW121746   5.283   6.691   3.619
 6949SOL    HW221747   5.290   6.543   3.551
 6950SOL     OW21748   2.219   1.318   3.095
 6950SOL    HW121749   2.282   1.338   3.170
 6950SOL    HW221750   2.126   1.308   3.131
 6951SOL     OW21751   6.285   5.872   5.759
 6951SOL    HW121752   6.244   5.911   5.677
 6951SOL    HW221753   6.221   5.808   5.801
 6952SOL     OW21754   0.527   5.210   4.423
 6952SOL    HW121755   0.478   5.265   4.355
 6952SOL    HW221756   0.507   5.113   4.408
 6953SOL     OW21757   4.606   0.943   5.879
 6953SOL    HW121758   4.592   0.986   5.790
 6953SOL    HW221759   4.703   0.946   5.903
 6954SOL     OW21760   6.578   3.367   4.366
 6954SOL    HW121761   6.639   3.334   4.438
 6954SOL    HW221762   6.633   3.403   4.290
 6955SOL     OW21763   0.035   6.120   1.650
 6955SOL    HW121764   0.034   6.206   1.702
 6955SOL    HW221765   6.975   6.110   1.600
 6956SOL     OW21766   4.656   5.233   1.887
 6956SOL    HW121767   4.715   5.292   1.942
 6956SOL    HW221768   4.597   5.289   1.829
 6957SOL     OW21769   0.248   4.822   2.017
 6957SOL    HW121770   0.298   4.858   1.938
 6957SOL    HW221771   0.264   4.724   2.024
 6958SOL     OW21772   2.512   2.949   6.162
 6958SOL    HW121773   2.413   2.931   6.157
 6958SOL    HW221774   2.553   2.893   6.234
 6959SOL     OW21775   3.865   1.763   4.854
 6959SOL    HW121776   3.925   1.843   4.854
 6959SOL    HW221777   3.920   1.680   4.857
 6960SOL     OW21778   6.822   4.833   0.148
 6960SOL    HW121779   6.761   4.881   0.085
 6960SOL    HW221780   6.912   4.877   0.148
 6961SOL     OW21781   1.322   1.752   3.407
 6961SOL    HW121782   1.271   1.753   3.320
 6961SOL    HW221783   1.360   1.842   3.424
 6962SOL     OW21784   4.796   4.711   1.951
 6962SOL    HW121785   4.858   4.664   2.014
 6962SOL    HW221786   4.802   4.809   1.967
 6963SOL     OW21787   0.647   4.895   1.934
 6963SOL    HW121788   0.722   4.960   1.949
 6963SOL    HW221789   0.561   4.944   1.929
 6964SOL     OW21790   4.657   5.294   5.251
 6964SOL    HW121791   4.689   5.206   5.216
 6964SOL    HW221792   4.666   5.363   5.179
 6965SOL     OW21793   6.594   3.057   6.324
 6965SOL    HW121794   6.509   3.076   6.372
 6965SOL    HW221795   6.607   3.125   6.251
 6966SOL     OW21796   4.909   2.221   2.649
 6966SOL    HW121797   4.814   2.233   2.620
 6966SOL    HW221798   4.969   2.218   2.569
 6967SOL     OW21799   1.301   1.927   5.996
 6967SOL    HW121800   1.292   2.025   6.017
 6967SOL    HW221801   1.232   1.901   5.928
 6968SOL     OW21802   4.176   5.851   1.396
 6968SOL    HW121803   4.245   5.782   1.371
 6968SOL    HW221804   4.090   5.831   1.348
 6969SOL     OW21805   3.634   1.606   0.653
 6969SOL    HW121806   3.598   1.594   0.745
 6969SOL    HW221807   3.562   1.591   0.585
 6970SOL     OW21808   3.902   4.595   0.597
 6970SOL    HW121809   3.826   4.591   0.662
 6970SOL    HW221810   3.930   4.502   0.573
 6971SOL     OW21811   6.423   2.484   1.548
 6971SOL    HW121812   6.467   2.504   1.636
 6971SOL    HW221813   6.450   2.554   1.481
 6972SOL     OW21814   5.428   4.479   4.515
 6972SOL    HW121815   5.423   4.406   4.448
 6972SOL    HW221816   5.466   4.444   4.601
 6973SOL     OW21817   2.002   5.408   4.071
 6973SOL    HW121818   2.076   5.461   4.029
 6973SOL    HW221819   1.941   5.374   3.999
 6974SOL     OW21820   3.052   3.991   3.850
 6974SOL    HW121821   2.992   3.917   3.878
 6974SOL    HW221822   3.091   4.035   3.930
 6975SOL     OW21823   3.642   0.678   6.013
 6975SOL    HW121824   3.641   0.772   5.978
 6975SOL    HW221825   3.550   0.654   6.044
 6976SOL     OW21826   2.427   5.121   6.594
 6976SOL    HW121827   2.394   5.167   6.676
 6976SOL    HW221828   2.415   5.022   6.604
 6977SOL     OW21829   3.666   1.301   2.572
 6977SOL    HW121830   3.649   1.366   2.498
 6977SOL    HW221831   3.618   1.215   2.553
 6978SOL     OW21832   0.307   0.337   1.898
 6978SOL    HW121833   0.307   0.321   1.799
 6978SOL    HW221834   0.221   0.303   1.936
 6979SOL     OW21835   0.529   4.316   2.394
 6979SOL    HW121836   0.605   4.327   2.459
 6979SOL    HW221837   0.566   4.313   2.301
 6980SOL     OW21838   2.669   1.193   3.611
 6980SOL    HW121839   2.746   1.252   3.632
 6980SOL    HW221840   2.624   1.165   3.697
 6981SOL     OW21841   1.894   4.752   0.515
 6981SOL    HW121842   1.892   4.839   0.563
 6981SOL    HW221843   1.935   4.764   0.425
 6982SOL     OW21844   1.626   0.577   4.333
 6982SOL    HW121845   1.659   0.513   4.264
 6982SOL    HW221846   1.559   0.532   4.392
 6983SOL     OW21847   6.959   0.333   4.790
 6983SOL    HW121848   6.971   0.241   4.751
 6983SOL    HW221849   6.875   0.373   4.754
 6984SOL     OW21850   2.071   2.236   5.892
 6984SOL    HW121851   2.137   2.178   5.845
 6984SOL    HW221852   2.011   2.279   5.825
 6985SOL     OW21853   4.242   5.740   2.298
 6985SOL    HW121854   4.157   5.687   2.306
 6985SOL    HW221855   4.320   5.677   2.299
 6986SOL     OW21856   1.765   5.958   5.391
 6986SOL    HW121857   1.810   5.946   5.303
 6986SOL    HW221858   1.831   5.991   5.458
 6987SOL     OW21859   0.214   2.756   6.568
 6987SOL    HW121860   0.198   2.674   6.513
 6987SOL    HW221861   0.159   2.832   6.532
 6988SOL     OW21862   5.134   1.564   3.679
 6988SOL    HW121863   5.218   1.535   3.633
 6988SOL    HW221864   5.068   1.489   3.677
 6989SOL     OW21865   1.600   1.755   3.768
 6989SOL    HW121866   1.629   1.762   3.673
 6989SOL    HW221867   1.586   1.658   3.791
 6990SOL     OW21868   4.508   3.000   6.808
 6990SOL    HW121869   4.517   2.963   6.900
 6990SOL    HW221870   4.417   2.981   6.773
 6991SOL     OW21871   2.391   4.810   5.564
 6991SOL    HW121872   2.480   4.800   5.609
 6991SOL    HW221873   2.351   4.720   5.546
 6992SOL     OW21874   6.230   6.349   4.349
 6992SOL    HW121875   6.219   6.251   4.331
 6992SOL    HW221876   6.197   6.402   4.271
 6993SOL     OW21877   0.042   0.193   3.234
 6993SOL    HW121878   0.076   0.237   3.151
 6993SOL    HW221879   6.987   0.240   3.267
 6994SOL     OW21880   1.802   3.295   5.901
 6994SOL    HW121881   1.852   3.298   5.987
 6994SOL    HW221882   1.826   3.212   5.851
 6995SOL     OW21883   5.560   5.629   4.352
 6995SOL    HW121884   5.579   5.552   4.413
 6995SOL    HW221885   5.536   5.595   4.261
 6996SOL     OW21886   2.396   0.677   5.406
 6996SOL    HW121887   2.462   0.727   5.462
 6996SOL    HW221888   2.439   0.594   5.369
 6997SOL     OW21889   4.724   5.799   4.425
 6997SOL    HW121890   4.683   5.741   4.495
 6997SOL    HW221891   4.809   5.840   4.461
 6998SOL     OW21892   1.853   3.069   1.896
 6998SOL    HW121893   1.837   3.167   1.881
 6998SOL    HW221894   1.944   3.057   1.937
 6999SOL     OW21895   2.456   2.153   5.912
 6999SOL    HW121896   2.541   2.110   5.943
 6999SOL    HW221897   2.389   2.154   5.986
 7000SOL     OW21898   0.601   6.022   2.754
 7000SOL    HW121899   0.579   6.026   2.851
 7000SOL    HW221900   0.530   5.970   2.706
 7001SOL     OW21901   2.345   3.004   5.902
 7001SOL    HW121902   2.267   3.052   5.862
 7001SOL    HW221903   2.401   3.069   5.953
 7002SOL     OW21904   1.370   5.007   3.892
 7002SOL    HW121905   1.275   4.982   3.876
 7002SOL    HW221906   1.387   5.099   3.855
 7003SOL     OW21907   3.309   6.857   0.425
 7003SOL    HW121908   3.390   6.809   0.459
 7003SOL    HW221909   3.321   6.955   0.437
 7004SOL     OW21910   1.706   4.406   1.154
 7004SOL    HW121911   1.666   4.343   1.087
 7004SOL    HW221912   1.654   4.401   1.239
 7005SOL     OW21913   5.760   6.635   6.565
 7005SOL    HW121914   5.744   6.562   6.498
 7005SOL    HW221915   5.833   6.606   6.628
 7006SOL     OW21916   4.978   4.195   4.819
 7006SOL    HW121917   5.039   4.126   4.856
 7006SOL    HW221918   5.004   4.285   4.854
 7007SOL     OW21919   5.173   6.627   2.801
 7007SOL    HW121920   5.111   6.623   2.880
 7007SOL    HW221921   5.133   6.686   2.731
 7008SOL     OW21922   2.391   5.420   4.767
 7008SOL    HW121923   2.352   5.436   4.676
 7008SOL    HW221924   2.354   5.336   4.805
 7009SOL     OW21925   6.328   5.598   2.081
 7009SOL    HW121926   6.379   5.512   2.084
 7009SOL    HW221927   6.232   5.579   2.062
 7010SOL     OW21928   3.400   4.373   6.085
 7010SOL    HW121929   3.463   4.410   6.016
 7010SOL    HW221930   3.305   4.386   6.053
 7011SOL     OW21931   2.067   6.794   5.439
 7011SOL    HW121932   2.037   6.813   5.346
 7011SOL    HW221933   1.990   6.759   5.493
 7012SOL     OW21934   1.148   0.171   1.668
 7012SOL    HW121935   1.199   0.143   1.749
 7012SOL    HW221936   1.212   0.204   1.598
 7013SOL     OW21937   1.097   6.969   1.304
 7013SOL    HW121938   1.014   7.004   1.261
 7013SOL    HW221939   1.177   7.002   1.254
 7014SOL     OW21940   3.250   4.554   1.222
 7014SOL    HW121941   3.262   4.543   1.321
 7014SOL    HW221942   3.209   4.471   1.184
 7015SOL     OW21943   4.862   2.819   2.480
 7015SOL    HW121944   4.928   2.786   2.412
 7015SOL    HW221945   4.785   2.755   2.485
 7016SOL     OW21946   4.458   4.640   1.557
 7016SOL    HW121947   4.503   4.701   1.493
 7016SOL    HW221948   4.464   4.677   1.650
 7017SOL     OW21949   3.151   1.635   3.251
 7017SOL    HW121950   3.113   1.693   3.322
 7017SOL    HW221951   3.097   1.551   3.242
 7018SOL     OW21952   0.241   4.074   4.448
 7018SOL    HW121953   0.283   4.164   4.444
 7018SOL    HW221954   0.288   4.018   4.517
 7019SOL     OW21955   2.887   4.843   6.752
 7019SOL    HW121956   2.813   4.789   6.793
 7019SOL    HW221957   2.888   4.934   6.793
 7020SOL     OW21958   5.706   0.450   6.871
 7020SOL    HW121959   5.803   0.466   6.887
 7020SOL    HW221960   5.654   0.530   6.902
 7021SOL     OW21961   2.513   1.072   5.252
 7021SOL    HW121962   2.429   1.026   5.283
 7021SOL    HW221963   2.489   1.147   5.190
 7022SOL     OW21964   5.225   3.473   0.654
 7022SOL    HW121965   5.304   3.434   0.607
 7022SOL    HW221966   5.255   3.512   0.742
 7023SOL     OW21967   6.199   2.341   2.297
 7023SOL    HW121968   6.142   2.374   2.222
 7023SOL    HW221969   6.226   2.418   2.354
 7024SOL     OW21970   1.878   6.004   6.532
 7024SOL    HW121971   1.803   5.985   6.597
 7024SOL    HW221972   1.842   6.054   6.454
 7025SOL     OW21973   3.334   2.112   6.740
 7025SOL    HW121974   3.421   2.159   6.757
 7025SOL    HW221975   3.304   2.128   6.646
 7026SOL     OW21976   3.143   1.698   1.705
 7026SOL    HW121977   3.093   1.779   1.736
 7026SOL    HW221978   3.166   1.641   1.783
 7027SOL     OW21979   4.046   5.509   3.625
 7027SOL    HW121980   4.056   5.602   3.591
 7027SOL    HW221981   4.117   5.490   3.692
 7028SOL     OW21982   4.811   6.807   3.094
 7028SOL    HW121983   4.767   6.733   3.145
 7028SOL    HW221984   4.765   6.819   3.006
 7029SOL     OW21985   3.728   6.739   7.015
 7029SOL    HW121986   3.727   6.640   6.997
 7029SOL    HW221987   3.672   6.758   0.070
 7030SOL     OW21988   0.182   3.372   5.648
 7030SOL    HW121989   0.223   3.433   5.580
 7030SOL    HW221990   0.112   3.422   5.699
 7031SOL     OW21991   2.251   5.460   4.528
 7031SOL    HW121992   2.290   5.548   4.500
 7031SOL    HW221993   2.163   5.446   4.482
 7032SOL     OW21994   5.083   6.776   2.580
 7032SOL    HW121995   4.996   6.793   2.535
 7032SOL    HW221996   5.158   6.801   2.518
 7033SOL     OW21997   0.033   1.353   3.875
 7033SOL    HW121998   0.097   1.363   3.799
 7033SOL    HW221999   0.030   1.257   3.903
 7034SOL     OW22000   5.238   6.964   2.747
 7034SOL    HW122001   5.306   6.907   2.700
 7034SOL    HW222002   5.150   6.918   2.748
 7035SOL     OW22003   0.334   6.357   3.023
 7035SOL    HW122004   0.329   6.384   2.927
 7035SOL    HW222005   0.414   6.299   3.036
 7036SOL     OW22006   6.868   5.844   1.947
 7036SOL    HW122007   6.878   5.764   2.006
 7036SOL    HW222008   6.954   5.861   1.900
 7037SOL     OW22009   0.879   5.778   5.393
 7037SOL    HW122010   0.970   5.749   5.362
 7037SOL    HW222011   0.823   5.697   5.410
 7038SOL     OW22012   1.148   4.196   3.219
 7038SOL    HW122013   1.074   4.168   3.157
 7038SOL    HW222014   1.236   4.182   3.174
 7039SOL     OW22015   3.616   0.474   6.528
 7039SOL    HW122016   3.547   0.490   6.457
 7039SOL    HW222017   3.573   0.436   6.609
 7040SOL     OW22018   4.298   2.847   6.382
 7040SOL    HW122019   4.397   2.842   6.399
 7040SOL    HW222020   4.271   2.943   6.374
 7041SOL     OW22021   1.089   1.380   2.959
 7041SOL    HW122022   1.115   1.367   3.055
 7041SOL    HW222023   1.094   1.293   2.910
 7042SOL     OW22024   4.184   5.650   6.197
 7042SOL    HW122025   4.259   5.596   6.235
 7042SOL    HW222026   4.210   5.683   6.106
 7043SOL     OW22027   1.414   2.000   3.447
 7043SOL    HW122028   1.338   2.065   3.453
 7043SOL    HW222029   1.494   2.037   3.494
 7044SOL     OW22030   4.863   4.621   2.762
 7044SOL    HW122031   4.794   4.691   2.743
 7044SOL    HW222032   4.839   4.537   2.713
 7045SOL     OW22033   5.059   6.328   1.364
 7045SOL    HW122034   5.019   6.375   1.286
 7045SOL    HW222035   5.099   6.395   1.426
 7046SOL     OW22036   4.140   0.584   4.804
 7046SOL    HW122037   4.092   0.668   4.779
 7046SOL    HW222038   4.079   0.506   4.792
 7047SOL     OW22039   0.630   1.201   3.773
 7047SOL    HW122040   0.622   1.113   3.727
 7047SOL    HW222041   0.565   1.266   3.734
 7048SOL     OW22042   6.920   5.769   0.949
 7048SOL    HW122043   6.916   5.868   0.935
 7048SOL    HW222044   7.013   5.742   0.971
 7049SOL     OW22045   1.851   0.737   0.806
 7049SOL    HW122046   1.935   0.739   0.860
 7049SOL    HW222047   1.834   0.643   0.775
 7050SOL     OW22048   3.542   4.174   4.508
 7050SOL    HW122049   3.580   4.160   4.599
 7050SOL    HW222050   3.446   4.146   4.507
 7051SOL     OW22051   6.872   0.171   0.913
 7051SOL    HW122052   6.779   0.191   0.882
 7051SOL    HW222053   6.914   0.104   0.852
 7052SOL     OW22054   0.175   1.876   4.332
 7052SOL    HW122055   0.093   1.838   4.374
 7052SOL    HW222056   0.150   1.922   4.247
 7053SOL     OW22057   0.412   3.879   6.585
 7053SOL    HW122058   0.429   3.825   6.503
 7053SOL    HW222059   0.498   3.891   6.635
 7054SOL     OW22060   6.233   6.854   1.702
 7054SOL    HW122061   6.264   6.904   1.622
 7054SOL    HW222062   6.273   6.895   1.785
 7055SOL     OW22063   4.569   0.443   5.600
 7055SOL    HW122064   4.549   0.443   5.697
 7055SOL    HW222065   4.636   0.515   5.580
 7056SOL     OW22066   5.540   4.666   2.802
 7056SOL    HW122067   5.618   4.632   2.854
 7056SOL    HW222068   5.515   4.758   2.833
 7057SOL     OW22069   0.170   4.184   3.763
 7057SOL    HW122070   0.103   4.155   3.695
 7057SOL    HW222071   0.252   4.219   3.717
 7058SOL     OW22072   0.365   5.414   4.991
 7058SOL    HW122073   0.347   5.461   4.905
 7058SOL    HW222074   0.277   5.390   5.034
 7059SOL     OW22075   0.592   7.025   1.711
 7059SOL    HW122076   0.534   6.953   1.749
 7059SOL    HW222077   0.651   6.987   1.640
 7060SOL     OW22078   3.258   0.059   1.225
 7060SOL    HW122079   3.229   0.120   1.152
 7060SOL    HW222080   3.292   0.112   1.302
 7061SOL     OW22081   0.538   1.930   2.830
 7061SOL    HW122082   0.505   1.976   2.747
 7061SOL    HW222083   0.461   1.888   2.877
 7062SOL     OW22084   5.902   1.846   5.443
 7062SOL    HW122085   5.866   1.929   5.488
 7062SOL    HW222086   5.853   1.831   5.358
 7063SOL     OW22087   2.105   6.498   1.401
 7063SOL    HW122088   2.159   6.414   1.391
 7063SOL    HW222089   2.111   6.553   1.318
 7064SOL     OW22090   4.433   2.438   1.967
 7064SOL    HW122091   4.508   2.489   1.924
 7064SOL    HW222092   4.457   2.342   1.973
 7065SOL     OW22093   4.495   4.286   1.150
 7065SOL    HW122094   4.413   4.237   1.179
 7065SOL    HW222095   4.474   4.383   1.139
 7066SOL     OW22096   3.876   0.345   0.501
 7066SOL    HW122097   3.861   0.363   0.598
 7066SOL    HW222098   3.924   0.259   0.490
 7067SOL     OW22099   0.946   3.963   5.680
 7067SOL    HW122100   0.950   4.023   5.600
 7067SOL    HW222101   0.898   3.879   5.656
 7068SOL     OW22102   0.992   2.384   3.188
 7068SOL    HW122103   0.922   2.372   3.117
 7068SOL    HW222104   0.963   2.335   3.271
 7069SOL     OW22105   6.649   3.601   5.590
 7069SOL    HW122106   6.641   3.593   5.689
 7069SOL    HW222107   6.728   3.548   5.559
 7070SOL     OW22108   6.447   4.533   5.168
 7070SOL    HW122109   6.395   4.532   5.253
 7070SOL    HW222110   6.489   4.623   5.156
 7071SOL     OW22111   1.159   5.724   5.084
 7071SOL    HW122112   1.158   5.780   5.166
 7071SOL    HW222113   1.133   5.630   5.108
 7072SOL     OW22114   6.638   6.248   5.803
 7072SOL    HW122115   6.662   6.315   5.733
 7072SOL    HW222116   6.557   6.197   5.774
 7073SOL     OW22117   0.055   0.791   5.609
 7073SOL    HW122118   6.986   0.822   5.608
 7073SOL    HW222119   0.116   0.868   5.590
 7074SOL     OW22120   3.326   2.580   1.584
 7074SOL    HW122121   3.396   2.632   1.633
 7074SOL    HW222122   3.240   2.632   1.585
 7075SOL     OW22123   1.775   5.908   4.269
 7075SOL    HW122124   1.676   5.895   4.280
 7075SOL    HW222125   1.824   5.838   4.322
 7076SOL     OW22126   3.584   2.245   6.767
 7076SOL    HW122127   3.611   2.249   6.863
 7076SOL    HW222128   3.598   2.335   6.724
 7077SOL     OW22129   2.192   5.684   5.417
 7077SOL    HW122130   2.289   5.659   5.412
 7077SOL    HW222131   2.171   5.720   5.508
 7078SOL     OW22132   6.237   6.645   2.998
 7078SOL    HW122133   6.335   6.640   2.977
 7078SOL    HW222134   6.185   6.626   2.915
 7079SOL     OW22135   6.573   5.842   5.747
 7079SOL    HW122136   6.579   5.831   5.847
 7079SOL    HW222137   6.478   5.858   5.721
 7080SOL     OW22138   4.004   2.183   3.763
 7080SOL    HW122139   3.958   2.160   3.849
 7080SOL    HW222140   3.939   2.175   3.687
 7081SOL     OW22141   3.030   1.048   5.160
 7081SOL    HW122142   3.085   1.057   5.077
 7081SOL    HW222143   2.993   1.137   5.186
 7082SOL     OW22144   5.717   1.415   6.974
 7082SOL    HW122145   5.750   1.392   0.040
 7082SOL    HW222146   5.794   1.442   6.916
 7083SOL     OW22147   2.943   1.475   6.293
 7083SOL    HW122148   3.017   1.491   6.228
 7083SOL    HW222149   2.980   1.435   6.376
 7084SOL     OW22150   6.817   6.712   5.347
 7084SOL    HW122151   6.820   6.797   5.399
 7084SOL    HW222152   6.738   6.657   5.375
 7085SOL     OW22153   2.365   2.358   3.374
 7085SOL    HW122154   2.365   2.449   3.416
 7085SOL    HW222155   2.434   2.301   3.419
 7086SOL     OW22156   5.119   0.845   6.589
 7086SOL    HW122157   5.146   0.803   6.676
 7086SOL    HW222158   5.022   0.829   6.573
 7087SOL     OW22159   0.976   3.416   4.239
 7087SOL    HW122160   0.977   3.417   4.139
 7087SOL    HW222161   0.896   3.467   4.272
 7088SOL     OW22162   4.972   2.835   4.602
 7088SOL    HW122163   5.002   2.873   4.515
 7088SOL    HW222164   4.892   2.884   4.635
 7089SOL     OW22165   3.389   2.467   6.040
 7089SOL    HW122166   3.452   2.428   5.973
 7089SOL    HW222167   3.405   2.566   6.047
 7090SOL     OW22168   1.589   1.539   5.799
 7090SOL    HW122169   1.535   1.603   5.854
 7090SOL    HW222170   1.684   1.542   5.829
 7091SOL     OW22171   0.391   0.869   0.127
 7091SOL    HW122172   0.392   0.968   0.115
 7091SOL    HW222173   0.435   0.845   0.213
 7092SOL     OW22174   4.089   4.184   0.196
 7092SOL    HW122175   4.037   4.135   0.126
 7092SOL    HW222176   4.077   4.283   0.182
 7093SOL     OW22177   3.595   4.152   4.213
 7093SOL    HW122178   3.572   4.218   4.284
 7093SOL    HW222179   3.688   4.119   4.227
 7094SOL     OW22180   0.644   6.367   5.861
 7094SOL    HW122181   0.661   6.295   5.794
 7094SOL    HW222182   0.725   6.381   5.918
 7095SOL     OW22183   2.009   3.292   6.676
 7095SOL    HW122184   2.028   3.244   6.761
 7095SOL    HW222185   1.967   3.380   6.697
 7096SOL     OW22186   5.354   2.071   3.868
 7096SOL    HW122187   5.401   2.062   3.780
 7096SOL    HW222188   5.262   2.034   3.861
 7097SOL     OW22189   6.962   0.666   1.793
 7097SOL    HW122190   6.921   0.719   1.719
 7097SOL    HW222191   0.029   0.638   1.766
 7098SOL     OW22192   1.167   5.888   5.311
 7098SOL    HW122193   1.110   5.970   5.316
 7098SOL    HW222194   1.222   5.881   5.395
 7099SOL     OW22195   1.208   1.501   5.156
 7099SOL    HW122196   1.212   1.430   5.226
 7099SOL    HW222197   1.271   1.575   5.179
 7100SOL     OW22198   4.842   3.977   0.822
 7100SOL    HW122199   4.843   3.891   0.873
 7100SOL    HW222200   4.748   4.012   0.817
 7101SOL     OW22201   2.833   0.271   4.594
 7101SOL    HW122202   2.856   0.358   4.551
 7101SOL    HW222203   2.917   0.222   4.618
 7102SOL     OW22204   4.154   0.868   1.147
 7102SOL    HW122205   4.189   0.851   1.239
 7102SOL    HW222206   4.081   0.937   1.151
 7103SOL     OW22207   3.477   5.886   6.787
 7103SOL    HW122208   3.537   5.822   6.835
 7103SOL    HW222209   3.503   5.980   6.809
 7104SOL     OW22210   1.528   2.907   3.419
 7104SOL    HW122211   1.600   2.956   3.468
 7104SOL    HW222212   1.555   2.811   3.408
 7105SOL     OW22213   3.319   3.376   4.928
 7105SOL    HW122214   3.317   3.323   5.013
 7105SOL    HW222215   3.393   3.342   4.870
 7106SOL     OW22216   3.525   3.005   4.741
 7106SOL    HW122217   3.492   2.976   4.831
 7106SOL    HW222218   3.474   2.958   4.669
 7107SOL     OW22219   2.958   1.255   0.398
 7107SOL    HW122220   2.994   1.167   0.367
 7107SOL    HW222221   2.880   1.240   0.458
 7108SOL     OW22222   4.426   6.099   1.467
 7108SOL    HW122223   4.425   6.175   1.402
 7108SOL    HW222224   4.332   6.081   1.498
 7109SOL     OW22225   3.335   0.162   6.115
 7109SOL    HW122226   3.317   0.228   6.188
 7109SOL    HW222227   3.392   0.204   6.045
 7110SOL     OW22228   5.489   5.211   4.029
 7110SOL    HW122229   5.430   5.206   4.109
 7110SOL    HW222230   5.526   5.120   4.008
 7111SOL     OW22231   1.461   3.480   3.890
 7111SOL    HW122232   1.492   3.482   3.795
 7111SOL    HW222233   1.512   3.409   3.940
 7112SOL     OW22234   1.785   6.017   3.911
 7112SOL    HW122235   1.767   6.097   3.968
 7112SOL    HW222236   1.759   5.934   3.962
 7113SOL     OW22237   3.818   3.822   4.877
 7113SOL    HW122238   3.862   3.761   4.943
 7113SOL    HW222239   3.869   3.822   4.791
 7114SOL     OW22240   3.685   0.987   1.562
 7114SOL    HW122241   3.619   0.917   1.536
 7114SOL    HW222242   3.669   1.015   1.657
 7115SOL     OW22243   5.318   2.344   1.311
 7115SOL    HW122244   5.279   2.328   1.221
 7115SOL    HW222245   5.274   2.423   1.354
 7116SOL     OW22246   5.701   4.368   3.664
 7116SOL    HW122247   5.729   4.282   3.621
 7116SOL    HW222248   5.706   4.359   3.764
 7117SOL     OW22249   6.932   6.132   3.343
 7117SOL    HW122250   6.862   6.113   3.412
 7117SOL    HW222251   7.018   6.090   3.370
 7118SOL     OW22252   5.377   3.731   1.411
 7118SOL    HW122253   5.450   3.706   1.348
 7118SOL    HW222254   5.291   3.690   1.381
 7119SOL     OW22255   5.844   1.178   3.039
 7119SOL    HW122256   5.831   1.276   3.059
 7119SOL    HW222257   5.814   1.159   2.946
 7120SOL     OW22258   4.691   1.315   3.078
 7120SOL    HW122259   4.675   1.403   3.033
 7120SOL    HW222260   4.789   1.296   3.079
 7121SOL     OW22261   2.231   6.670   3.476
 7121SOL    HW122262   2.134   6.667   3.452
 7121SOL    HW222263   2.286   6.679   3.393
 7122SOL     OW22264   6.595   1.216   0.226
 7122SOL    HW122265   6.515   1.190   0.280
 7122SOL    HW222266   6.676   1.214   0.284
 7123SOL     OW22267   2.565   5.319   1.686
 7123SOL    HW122268   2.496   5.270   1.740
 7123SOL    HW222269   2.642   5.343   1.746
 7124SOL     OW22270   0.607   4.814   0.788
 7124SOL    HW122271   0.686   4.873   0.776
 7124SOL    HW222272   0.602   4.749   0.712
 7125SOL     OW22273   6.270   6.570   1.721
 7125SOL    HW122274   6.362   6.558   1.759
 7125SOL    HW222275   6.252   6.668   1.709
 7126SOL     OW22276   2.495   3.790   0.344
 7126SOL    HW122277   2.425   3.841   0.294
 7126SOL    HW222278   2.532   3.718   0.285
 7127SOL     OW22279   3.379   5.178   3.996
 7127SOL    HW122280   3.449   5.231   4.044
 7127SOL    HW222281   3.352   5.100   4.052
 7128SOL     OW22282   3.298   4.739   0.902
 7128SOL    HW122283   3.326   4.712   0.994
 7128SOL    HW222284   3.295   4.658   0.843
 7129SOL     OW22285   3.171   0.633   1.579
 7129SOL    HW122286   3.081   0.591   1.571
 7129SOL    HW222287   3.173   0.694   1.658
 7130SOL     OW22288   3.325   4.960   4.153
 7130SOL    HW122289   3.290   4.931   4.064
 7130SOL    HW222290   3.259   4.935   4.224
 7131SOL     OW22291   2.956   1.367   1.746
 7131SOL    HW122292   2.887   1.388   1.676
 7131SOL    HW222293   3.002   1.451   1.774
 7132SOL     OW22294   4.033   3.788   3.213
 7132SOL    HW122295   3.950   3.749   3.172
 7132SOL    HW222296   4.086   3.835   3.143
 7133SOL     OW22297   4.805   5.343   3.093
 7133SOL    HW122298   4.844   5.435   3.079
 7133SOL    HW222299   4.833   5.309   3.183
 7134SOL     OW22300   6.667   6.036   4.068
 7134SOL    HW122301   6.715   5.976   4.004
 7134SOL    HW222302   6.716   6.037   4.156
 7135SOL     OW22303   1.366   0.505   4.407
 7135SOL    HW122304   1.333   0.510   4.313
 7135SOL    HW222305   1.302   0.553   4.467
 7136SOL     OW22306   2.064   1.517   0.838
 7136SOL    HW122307   2.130   1.465   0.891
 7136SOL    HW222308   1.985   1.540   0.896
 7137SOL     OW22309   4.358   1.109   4.487
 7137SOL    HW122310   4.455   1.084   4.481
 7137SOL    HW222311   4.316   1.103   4.397
 7138SOL     OW22312   3.451   2.676   1.111
 7138SOL    HW122313   3.361   2.669   1.067
 7138SOL    HW222314   3.439   2.706   1.205
 7139SOL     OW22315   4.887   3.270   1.855
 7139SOL    HW122316   4.822   3.208   1.898
 7139SOL    HW222317   4.974   3.266   1.903
 7140SOL     OW22318   5.961   3.611   5.084
 7140SOL    HW122319   5.901   3.635   5.007
 7140SOL    HW222320   5.937   3.520   5.118
 7141SOL     OW22321   3.419   0.352   1.007
 7141SOL    HW122322   3.454   0.357   1.101
 7141SOL    HW222323   3.337   0.295   1.005
 7142SOL     OW22324   4.320   0.187   3.688
 7142SOL    HW122325   4.259   0.141   3.622
 7142SOL    HW222326   4.315   0.140   3.776
 7143SOL     OW22327   2.185   3.934   6.403
 7143SOL    HW122328   2.127   3.875   6.347
 7143SOL    HW222329   2.178   4.028   6.370
 7144SOL     OW22330   0.454   1.433   2.522
 7144SOL    HW122331   0.461   1.385   2.610
 7144SOL    HW222332   0.538   1.421   2.471
 7145SOL     OW22333   4.351   6.524   6.616
 7145SOL    HW122334   4.251   6.519   6.613
 7145SOL    HW222335   4.381   6.538   6.710
 7146SOL     OW22336   3.053   6.734   1.032
 7146SOL    HW122337   2.994   6.806   1.068
 7146SOL    HW222338   3.128   6.775   0.980
 7147SOL     OW22339   6.832   6.893   3.407
 7147SOL    HW122340   6.922   6.919   3.373
 7147SOL    HW222341   6.838   6.874   3.505
 7148SOL     OW22342   0.903   6.486   1.607
 7148SOL    HW122343   0.818   6.461   1.561
 7148SOL    HW222344   0.974   6.505   1.539
 7149SOL     OW22345   6.803   1.003   3.554
 7149SOL    HW122346   6.727   0.946   3.586
 7149SOL    HW222347   6.772   1.098   3.544
 7150SOL     OW22348   5.056   3.064   1.479
 7150SOL    HW122349   4.982   3.042   1.543
 7150SOL    HW222350   5.017   3.100   1.394
 7151SOL     OW22351   1.552   6.139   0.966
 7151SOL    HW122352   1.574   6.041   0.968
 7151SOL    HW222353   1.504   6.160   0.881
 7152SOL     OW22354   0.925   3.597   4.877
 7152SOL    HW122355   0.901   3.537   4.954
 7152SOL    HW222356   1.006   3.650   4.900
 7153SOL     OW22357   4.011   6.832   5.306
 7153SOL    HW122358   4.054   6.749   5.270
 7153SOL    HW222359   4.057   6.912   5.269
 7154SOL     OW22360   4.053   5.773   4.349
 7154SOL    HW122361   4.082   5.752   4.255
 7154SOL    HW222362   4.050   5.689   4.403
 7155SOL     OW22363   1.111   6.514   2.018
 7155SOL    HW122364   1.165   6.541   1.938
 7155SOL    HW222365   1.115   6.414   2.028
 7156SOL     OW22366   6.576   4.746   5.360
 7156SOL    HW122367   6.662   4.735   5.311
 7156SOL    HW222368   6.525   4.823   5.320
 7157SOL     OW22369   6.199   5.346   0.250
 7157SOL    HW122370   6.140   5.327   0.329
 7157SOL    HW222371   6.255   5.427   0.269
 7158SOL     OW22372   6.777   6.691   3.257
 7158SOL    HW122373   6.807   6.603   3.293
 7158SOL    HW222374   6.808   6.764   3.318
 7159SOL     OW22375   0.024   4.879   1.317
 7159SOL    HW122376   0.036   4.845   1.223
 7159SOL    HW222377   0.051   4.808   1.382
 7160SOL     OW22378   6.598   0.120   1.656
 7160SOL    HW122379   6.499   0.112   1.663
 7160SOL    HW222380   6.641   0.041   1.699
 7161SOL     OW22381   3.256   3.515   3.562
 7161SOL    HW122382   3.284   3.547   3.472
 7161SOL    HW222383   3.190   3.579   3.602
 7162SOL     OW22384   3.905   5.114   4.634
 7162SOL    HW122385   3.824   5.073   4.592
 7162SOL    HW222386   3.968   5.146   4.563
 7163SOL     OW22387   3.699   0.295   3.451
 7163SOL    HW122388   3.684   0.371   3.387
 7163SOL    HW222389   3.783   0.312   3.503
 7164SOL     OW22390   1.928   1.300   3.216
 7164SOL    HW122391   1.916   1.274   3.120
 7164SOL    HW222392   1.978   1.229   3.265
 7165SOL     OW22393   5.996   1.236   0.281
 7165SOL    HW122394   5.991   1.156   0.340
 7165SOL    HW222395   6.090   1.271   0.280
 7166SOL     OW22396   4.631   4.244   1.407
 7166SOL    HW122397   4.577   4.290   1.478
 7166SOL    HW222398   4.608   4.283   1.318
 7167SOL     OW22399   4.881   3.820   5.152
 7167SOL    HW122400   4.906   3.833   5.056
 7167SOL    HW222401   4.825   3.738   5.161
 7168SOL     OW22402   1.459   1.555   3.971
 7168SOL    HW122403   1.378   1.611   3.953
 7168SOL    HW222404   1.439   1.460   3.948
 7169SOL     OW22405   1.617   3.322   5.720
 7169SOL    HW122406   1.677   3.319   5.800
 7169SOL    HW222407   1.624   3.236   5.670
 7170SOL     OW22408   4.672   5.186   2.872
 7170SOL    HW122409   4.719   5.219   2.790
 7170SOL    HW222410   4.710   5.231   2.953
 7171SOL     OW22411   4.466   2.943   5.610
 7171SOL    HW122412   4.432   3.019   5.554
 7171SOL    HW222413   4.490   2.976   5.701
 7172SOL     OW22414   1.454   6.814   0.265
 7172SOL    HW122415   1.482   6.876   0.191
 7172SOL    HW222416   1.474   6.857   0.353
 7173SOL     OW22417   6.329   4.904   4.340
 7173SOL    HW122418   6.262   4.956   4.393
 7173SOL    HW222419   6.287   4.871   4.255
 7174SOL     OW22420   1.853   5.333   6.944
 7174SOL    HW122421   1.771   5.388   6.930
 7174SOL    HW222422   1.831   5.254   7.002
 7175SOL     OW22423   5.271   3.819   0.968
 7175SOL    HW122424   5.254   3.849   0.874
 7175SOL    HW222425   5.302   3.897   1.022
 7176SOL     OW22426   6.837   4.784   2.233
 7176SOL    HW122427   6.865   4.708   2.292
 7176SOL    HW222428   6.902   4.794   2.158
 7177SOL     OW22429   1.841   6.052   3.660
 7177SOL    HW122430   1.820   6.041   3.757
 7177SOL    HW222431   1.826   6.148   3.634
 7178SOL     OW22432   1.636   2.882   5.756
 7178SOL    HW122433   1.735   2.896   5.750
 7178SOL    HW222434   1.591   2.971   5.768
 7179SOL     OW22435   2.862   3.398   5.749
 7179SOL    HW122436   2.840   3.309   5.790
 7179SOL    HW222437   2.777   3.440   5.715
 7180SOL     OW22438   1.003   5.093   6.430
 7180SOL    HW122439   0.982   5.017   6.369
 7180SOL    HW222440   1.084   5.070   6.484
 7181SOL     OW22441   4.131   0.687   0.581
 7181SOL    HW122442   4.132   0.657   0.676
 7181SOL    HW222443   4.041   0.722   0.558
 7182SOL     OW22444   1.969   4.094   5.523
 7182SOL    HW122445   1.872   4.113   5.507
 7182SOL    HW222446   2.011   4.170   5.572
 7183SOL     OW22447   1.817   5.061   2.557
 7183SOL    HW122448   1.775   5.151   2.543
 7183SOL    HW222449   1.823   5.013   2.470
 7184SOL     OW22450   1.295   6.696   4.263
 7184SOL    HW122451   1.313   6.785   4.304
 7184SOL    HW222452   1.248   6.708   4.176
 7185SOL     OW22453   5.246   2.929   6.697
 7185SOL    HW122454   5.226   2.894   6.788
 7185SOL    HW222455   5.345   2.922   6.680
 7186SOL     OW22456   6.803   6.894   5.609
 7186SOL    HW122457   6.894   6.931   5.630
 7186SOL    HW222458   6.751   6.885   5.694
 7187SOL     OW22459   1.612   4.749   1.551
 7187SOL    HW122460   1.564   4.667   1.582
 7187SOL    HW222461   1.639   4.804   1.630
 7188SOL     OW22462   5.240   0.179   1.974
 7188SOL    HW122463   5.257   0.269   1.932
 7188SOL    HW222464   5.228   0.111   1.903
 7189SOL     OW22465   6.398   1.077   6.392
 7189SOL    HW122466   6.350   1.060   6.306
 7189SOL    HW222467   6.336   1.124   6.455
 7190SOL     OW22468   5.332   4.420   3.356
 7190SOL    HW122469   5.406   4.462   3.304
 7190SOL    HW222470   5.365   4.336   3.400
 7191SOL     OW22471   0.938   3.757   2.845
 7191SOL    HW122472   0.860   3.708   2.884
 7191SOL    HW222473   1.008   3.768   2.916
 7192SOL     OW22474   2.342   5.637   5.808
 7192SOL    HW122475   2.279   5.674   5.877
 7192SOL    HW222476   2.427   5.689   5.810
 7193SOL     OW22477   2.994   2.158   4.744
 7193SOL    HW122478   3.081   2.126   4.780
 7193SOL    HW222479   2.990   2.138   4.646
 7194SOL     OW22480   2.038   1.474   1.160
 7194SOL    HW122481   2.130   1.489   1.122
 7194SOL    HW222482   2.014   1.550   1.219
 7195SOL     OW22483   0.170   4.981   0.925
 7195SOL    HW122484   0.087   4.988   0.870
 7195SOL    HW222485   0.250   4.974   0.865
 7196SOL     OW22486   2.884   3.453   3.259
 7196SOL    HW122487   2.891   3.538   3.207
 7196SOL    HW222488   2.899   3.472   3.356
 7197SOL     OW22489   6.839   1.825   5.166
 7197SOL    HW122490   6.842   1.831   5.066
 7197SOL    HW222491   6.776   1.752   5.193
 7198SOL     OW22492   1.459   6.670   5.821
 7198SOL    HW122493   1.547   6.666   5.773
 7198SOL    HW222494   1.425   6.578   5.837
 7199SOL     OW22495   0.298   0.522   2.818
 7199SOL    HW122496   0.217   0.555   2.867
 7199SOL    HW222497   0.336   0.596   2.763
 7200SOL     OW22498   2.434   1.047   0.171
 7200SOL    HW122499   2.355   0.998   0.206
 7200SOL    HW222500   2.513   1.031   0.230
 7201SOL     OW22501   1.803   4.859   2.984
 7201SOL    HW122502   1.842   4.907   2.905
 7201SOL    HW222503   1.723   4.909   3.018
 7202SOL     OW22504   4.000   0.257   6.412
 7202SOL    HW122505   4.055   0.240   6.330
 7202SOL    HW222506   3.903   0.263   6.387
 7203SOL     OW22507   6.554   0.415   0.620
 7203SOL    HW122508   6.454   0.411   0.615
 7203SOL    HW222509   6.585   0.502   0.580
 7204SOL     OW22510   6.386   0.168   3.870
 7204SOL    HW122511   6.368   0.147   3.774
 7204SOL    HW222512   6.459   0.236   3.876
 7205SOL     OW22513   1.685   5.480   3.167
 7205SOL    HW122514   1.656   5.386   3.187
 7205SOL    HW222515   1.783   5.481   3.149
 7206SOL     OW22516   0.320   1.219   1.011
 7206SOL    HW122517   0.404   1.254   0.970
 7206SOL    HW222518   0.342   1.149   1.079
 7207SOL     OW22519   3.369   6.858   1.102
 7207SOL    HW122520   3.334   6.944   1.138
 7207SOL    HW222521   3.347   6.784   1.165
 7208SOL     OW22522   3.818   6.565   4.679
 7208SOL    HW122523   3.784   6.646   4.632
 7208SOL    HW222524   3.902   6.587   4.728
 7209SOL     OW22525   3.795   3.016   4.116
 7209SOL    HW122526   3.885   2.979   4.138
 7209SOL    HW222527   3.748   3.042   4.200
 7210SOL     OW22528   4.809   1.022   3.572
 7210SOL    HW122529   4.875   0.948   3.579
 7210SOL    HW222530   4.735   0.995   3.510
 7211SOL     OW22531   1.172   6.327   4.217
 7211SOL    HW122532   1.144   6.319   4.312
 7211SOL    HW222533   1.104   6.282   4.158
 7212SOL     OW22534   0.233   6.074   4.607
 7212SOL    HW122535   0.198   5.986   4.636
 7212SOL    HW222536   0.300   6.061   4.534
 7213SOL     OW22537   5.660   0.234   5.469
 7213SOL    HW122538   5.672   0.276   5.559
 7213SOL    HW222539   5.616   0.145   5.479
 7214SOL     OW22540   2.057   5.394   4.341
 7214SOL    HW122541   1.969   5.425   4.374
 7214SOL    HW222542   2.045   5.345   4.254
 7215SOL     OW22543   1.302   3.105   4.454
 7215SOL    HW122544   1.371   3.148   4.396
 7215SOL    HW222545   1.334   3.014   4.483
 7216SOL     OW22546   2.575   5.815   6.915
 7216SOL    HW122547   2.556   5.717   6.919
 7216SOL    HW222548   2.545   5.858   7.000
 7217SOL     OW22549   1.697   4.523   2.379
 7217SOL    HW122550   1.787   4.528   2.423
 7217SOL    HW222551   1.630   4.572   2.435
 7218SOL     OW22552   4.913   1.983   5.529
 7218SOL    HW122553   4.833   1.959   5.584
 7218SOL    HW222554   4.883   2.021   5.442
 7219SOL     OW22555   4.842   6.963   3.354
 7219SOL    HW122556   4.874   6.908   3.277
 7219SOL    HW222557   4.743   6.958   3.360
 7220SOL     OW22558   6.490   0.596   3.187
 7220SOL    HW122559   6.521   0.535   3.114
 7220SOL    HW222560   6.517   0.690   3.166
 7221SOL     OW22561   6.030   4.457   5.299
 7221SOL    HW122562   6.053   4.515   5.221
 7221SOL    HW222563   5.962   4.389   5.271
 7222SOL     OW22564   6.045   6.413   0.990
 7222SOL    HW122565   6.038   6.481   0.916
 7222SOL    HW222566   6.021   6.323   0.954
 7223SOL     OW22567   3.268   1.948   0.138
 7223SOL    HW122568   3.206   1.874   0.164
 7223SOL    HW222569   3.216   2.033   0.129
 7224SOL     OW22570   6.049   1.090   4.709
 7224SOL    HW122571   6.062   1.073   4.807
 7224SOL    HW222572   6.125   1.051   4.658
 7225SOL     OW22573   1.684   5.696   0.545
 7225SOL    HW122574   1.692   5.786   0.502
 7225SOL    HW222575   1.715   5.626   0.481
 7226SOL     OW22576   0.223   6.780   0.205
 7226SOL    HW122577   0.270   6.709   0.152
 7226SOL    HW222578   0.174   6.737   0.281
 7227SOL     OW22579   0.656   1.526   0.104
 7227SOL    HW122580   0.720   1.498   0.032
 7227SOL    HW222581   0.667   1.624   0.123
 7228SOL     OW22582   6.870   6.666   1.860
 7228SOL    HW122583   6.875   6.765   1.872
 7228SOL    HW222584   6.851   6.623   1.949
 7229SOL     OW22585   1.136   0.365   4.246
 7229SOL    HW122586   1.074   0.439   4.219
 7229SOL    HW222587   1.086   0.300   4.304
 7230SOL     OW22588   4.623   5.501   3.724
 7230SOL    HW122589   4.594   5.516   3.818
 7230SOL    HW222590   4.665   5.585   3.689
 7231SOL     OW22591   5.770   1.763   6.328
 7231SOL    HW122592   5.840   1.802   6.388
 7231SOL    HW222593   5.811   1.741   6.240
 7232SOL     OW22594   4.198   4.705   2.719
 7232SOL    HW122595   4.275   4.663   2.671
 7232SOL    HW222596   4.113   4.682   2.673
 7233SOL     OW22597   0.039   2.705   5.402
 7233SOL    HW122598   0.069   2.698   5.497
 7233SOL    HW222599   0.111   2.748   5.348
 7234SOL     OW22600   6.194   2.052   1.703
 7234SOL    HW122601   6.169   1.999   1.621
 7234SOL    HW222602   6.292   2.039   1.722
 7235SOL     OW22603   5.287   4.137   4.702
 7235SOL    HW122604   5.230   4.055   4.691
 7235SOL    HW222605   5.384   4.110   4.705
 7236SOL     OW22606   3.720   1.619   2.733
 7236SOL    HW122607   3.627   1.656   2.728
 7236SOL    HW222608   3.744   1.603   2.829
 7237SOL     OW22609   6.635   6.284   5.347
 7237SOL    HW122610   6.537   6.291   5.333
 7237SOL    HW222611   6.659   6.190   5.372
 7238SOL     OW22612   2.508   1.638   2.233
 7238SOL    HW122613   2.524   1.549   2.190
 7238SOL    HW222614   2.417   1.638   2.275
 7239SOL     OW22615   1.678   1.358   2.741
 7239SOL    HW122616   1.585   1.373   2.708
 7239SOL    HW222617   1.734   1.438   2.722
 7240SOL     OW22618   2.898   3.865   0.998
 7240SOL    HW122619   2.877   3.839   0.904
 7240SOL    HW222620   2.977   3.813   1.030
 7241SOL     OW22621   3.683   0.587   5.708
 7241SOL    HW122622   3.704   0.556   5.801
 7241SOL    HW222623   3.741   0.665   5.686
 7242SOL     OW22624   5.609   4.136   6.657
 7242SOL    HW122625   5.690   4.095   6.699
 7242SOL    HW222626   5.532   4.133   6.721
 7243SOL     OW22627   1.203   4.936   6.845
 7243SOL    HW122628   1.258   4.900   6.921
 7243SOL    HW222629   1.111   4.958   6.878
 7244SOL     OW22630   5.720   1.759   1.430
 7244SOL    HW122631   5.620   1.767   1.422
 7244SOL    HW222632   5.762   1.782   1.342
 7245SOL     OW22633   0.354   2.016   5.000
 7245SOL    HW122634   0.295   1.997   5.079
 7245SOL    HW222635   0.379   2.113   5.000
 7246SOL     OW22636   6.020   6.794   4.853
 7246SOL    HW122637   6.057   6.806   4.945
 7246SOL    HW222638   6.086   6.829   4.786
 7247SOL     OW22639   2.664   6.392   1.884
 7247SOL    HW122640   2.723   6.418   1.961
 7247SOL    HW222641   2.589   6.336   1.916
 7248SOL     OW22642   3.920   0.971   4.047
 7248SOL    HW122643   3.860   0.906   4.094
 7248SOL    HW222644   3.992   0.922   3.997
 7249SOL     OW22645   5.496   4.274   0.901
 7249SOL    HW122646   5.397   4.271   0.913
 7249SOL    HW222647   5.528   4.187   0.863
 7250SOL     OW22648   2.509   4.847   6.001
 7250SOL    HW122649   2.475   4.754   6.006
 7250SOL    HW222650   2.444   4.904   5.951
 7251SOL     OW22651   7.005   6.842   4.831
 7251SOL    HW122652   6.951   6.795   4.760
 7251SOL    HW222653   0.042   6.777   4.873
 7252SOL     OW22654   3.015   3.279   4.917
 7252SOL    HW122655   3.013   3.218   4.996
 7252SOL    HW222656   3.052   3.231   4.838
 7253SOL     OW22657   2.948   6.272   1.130
 7253SOL    HW122658   2.999   6.186   1.130
 7253SOL    HW222659   3.010   6.348   1.114
 7254SOL     OW22660   3.814   5.372   3.698
 7254SOL    HW122661   3.877   5.425   3.641
 7254SOL    HW222662   3.752   5.435   3.746
 7255SOL     OW22663   2.924   3.672   2.340
 7255SOL    HW122664   2.872   3.607   2.396
 7255SOL    HW222665   2.872   3.694   2.258
 7256SOL     OW22666   4.210   5.151   4.245
 7256SOL    HW122667   4.284   5.085   4.256
 7256SOL    HW222668   4.182   5.154   4.149
 7257SOL     OW22669   5.513   2.546   3.058
 7257SOL    HW122670   5.435   2.564   2.998
 7257SOL    HW222671   5.534   2.627   3.112
 7258SOL     OW22672   3.690   0.290   4.858
 7258SOL    HW122673   3.609   0.253   4.813
 7258SOL    HW222674   3.738   0.217   4.907
 7259SOL     OW22675   2.506   4.142   0.091
 7259SOL    HW122676   2.575   4.153   0.019
 7259SOL    HW222677   2.526   4.204   0.166
 7260SOL     OW22678   3.294   2.129   2.761
 7260SOL    HW122679   3.299   2.066   2.684
 7260SOL    HW222680   3.380   2.126   2.812
 7261SOL     OW22681   2.158   3.234   1.975
 7261SOL    HW122682   2.154   3.252   1.877
 7261SOL    HW222683   2.181   3.319   2.023
 7262SOL     OW22684   5.509   2.032   4.957
 7262SOL    HW122685   5.491   2.106   5.022
 7262SOL    HW222686   5.468   2.055   4.868
 7263SOL     OW22687   1.304   6.120   1.121
 7263SOL    HW122688   1.265   6.035   1.088
 7263SOL    HW222689   1.369   6.156   1.054
 7264SOL     OW22690   6.487   0.771   6.409
 7264SOL    HW122691   6.456   0.737   6.498
 7264SOL    HW222692   6.472   0.870   6.404
 7265SOL     OW22693   5.154   5.052   5.546
 7265SOL    HW122694   5.153   4.952   5.540
 7265SOL    HW222695   5.070   5.089   5.507
 7266SOL     OW22696   4.806   0.717   2.054
 7266SOL    HW122697   4.853   0.732   1.967
 7266SOL    HW222698   4.722   0.664   2.038
 7267SOL     OW22699   0.330   3.933   4.661
 7267SOL    HW122700   0.293   3.842   4.680
 7267SOL    HW222701   0.351   3.980   4.747
 7268SOL     OW22702   3.787   6.343   1.243
 7268SOL    HW122703   3.696   6.307   1.262
 7268SOL    HW222704   3.856   6.273   1.260
 7269SOL     OW22705   0.755   5.954   1.843
 7269SOL    HW122706   0.697   5.919   1.916
 7269SOL    HW222707   0.708   5.944   1.755
 7270SOL     OW22708   2.422   1.482   2.509
 7270SOL    HW122709   2.484   1.535   2.567
 7270SOL    HW222710   2.361   1.544   2.460
 7271SOL     OW22711   6.903   3.915   3.276
 7271SOL    HW122712   6.947   3.988   3.223
 7271SOL    HW222713   6.948   3.828   3.257
 7272SOL     OW22714   4.645   2.682   2.769
 7272SOL    HW122715   4.742   2.690   2.745
 7272SOL    HW222716   4.592   2.750   2.718
 7273SOL     OW22717   5.594   4.623   1.367
 7273SOL    HW122718   5.551   4.590   1.283
 7273SOL    HW222719   5.663   4.557   1.397
 7274SOL     OW22720   0.048   4.974   5.777
 7274SOL    HW122721   0.020   5.001   5.685
 7274SOL    HW222722   0.104   4.891   5.772
 7275SOL     OW22723   6.719   0.435   0.256
 7275SOL    HW122724   6.732   0.481   0.169
 7275SOL    HW222725   6.798   0.450   0.315
 7276SOL     OW22726   2.261   2.112   4.209
 7276SOL    HW122727   2.233   2.017   4.226
 7276SOL    HW222728   2.184   2.163   4.170
 7277SOL     OW22729   4.820   1.587   4.443
 7277SOL    HW122730   4.918   1.590   4.463
 7277SOL    HW222731   4.806   1.579   4.344
 7278SOL     OW22732   3.342   1.297   3.708
 7278SOL    HW122733   3.323   1.353   3.627
 7278SOL    HW222734   3.266   1.305   3.772
 7279SOL     OW22735   4.720   4.881   0.098
 7279SOL    HW122736   4.719   4.980   0.090
 7279SOL    HW222737   4.797   4.853   0.156
 7280SOL     OW22738   5.464   2.227   5.149
 7280SOL    HW122739   5.485   2.300   5.085
 7280SOL    HW222740   5.381   2.250   5.200
 7281SOL     OW22741   3.711   6.724   1.781
 7281SOL    HW122742   3.662   6.810   1.770
 7281SOL    HW222743   3.710   6.697   1.878
 7282SOL     OW22744   6.730   5.435   2.015
 7282SOL    HW122745   6.812   5.379   2.023
 7282SOL    HW222746   6.756   5.530   2.000
 7283SOL     OW22747   3.971   5.219   2.541
 7283SOL    HW122748   3.876   5.233   2.513
 7283SOL    HW222749   3.976   5.147   2.610
 7284SOL     OW22750   6.879   1.738   3.655
 7284SOL    HW122751   6.938   1.773   3.583
 7284SOL    HW222752   6.843   1.648   3.629
 7285SOL     OW22753   4.803   2.810   2.078
 7285SOL    HW122754   4.729   2.788   2.142
 7285SOL    HW222755   4.803   2.908   2.059
 7286SOL     OW22756   0.225   0.668   0.500
 7286SOL    HW122757   0.212   0.641   0.405
 7286SOL    HW222758   0.317   0.705   0.512
 7287SOL     OW22759   1.446   2.741   4.010
 7287SOL    HW122760   1.370   2.803   4.031
 7287SOL    HW222761   1.454   2.673   4.083
 7288SOL     OW22762   2.969   2.082   3.274
 7288SOL    HW122763   2.893   2.148   3.280
 7288SOL    HW222764   3.030   2.108   3.199
 7289SOL     OW22765   6.239   2.771   1.298
 7289SOL    HW122766   6.329   2.744   1.330
 7289SOL    HW222767   6.211   2.712   1.222
 7290SOL     OW22768   3.536   1.177   4.942
 7290SOL    HW122769   3.568   1.235   4.868
 7290SOL    HW222770   3.553   1.222   5.030
 7291SOL     OW22771   3.992   0.919   0.093
 7291SOL    HW122772   4.049   0.843   0.060
 7291SOL    HW222773   3.923   0.941   0.024
 7292SOL     OW22774   2.018   6.874   3.177
 7292SOL    HW122775   2.058   6.898   3.265
 7292SOL    HW222776   2.032   6.777   3.159
 7293SOL     OW22777   1.597   0.657   5.227
 7293SOL    HW122778   1.650   0.738   5.203
 7293SOL    HW222779   1.644   0.606   5.299
 7294SOL     OW22780   2.563   5.260   1.242
 7294SOL    HW122781   2.577   5.350   1.282
 7294SOL    HW222782   2.586   5.263   1.145
 7295SOL     OW22783   6.397   4.995   2.330
 7295SOL    HW122784   6.359   4.939   2.257
 7295SOL    HW222785   6.324   5.046   2.376
 7296SOL     OW22786   4.101   4.865   1.932
 7296SOL    HW122787   4.105   4.954   1.979
 7296SOL    HW222788   4.194   4.837   1.907
 7297SOL     OW22789   3.946   6.109   1.181
 7297SOL    HW122790   3.854   6.127   1.148
 7297SOL    HW222791   3.959   6.011   1.193
 7298SOL     OW22792   4.813   5.811   6.521
 7298SOL    HW122793   4.821   5.842   6.427
 7298SOL    HW222794   4.897   5.765   6.549
 7299SOL     OW22795   1.463   2.808   0.251
 7299SOL    HW122796   1.414   2.770   0.172
 7299SOL    HW222797   1.398   2.823   0.326
 7300SOL     OW22798   0.916   5.019   1.805
 7300SOL    HW122799   0.979   5.045   1.732
 7300SOL    HW222800   0.878   5.101   1.847
 7301SOL     OW22801   5.457   6.791   5.570
 7301SOL    HW122802   5.361   6.807   5.590
 7301SOL    HW222803   5.501   6.751   5.651
 7302SOL     OW22804   4.907   2.722   5.964
 7302SOL    HW122805   4.884   2.761   6.053
 7302SOL    HW222806   4.915   2.795   5.896
 7303SOL     OW22807   2.755   0.830   1.134
 7303SOL    HW122808   2.768   0.915   1.084
 7303SOL    HW222809   2.678   0.840   1.198
 7304SOL     OW22810   2.449   5.535   2.158
 7304SOL    HW122811   2.535   5.581   2.134
 7304SOL    HW222812   2.464   5.437   2.163
 7305SOL     OW22813   5.880   2.301   0.796
 7305SOL    HW122814   5.834   2.378   0.752
 7305SOL    HW222815   5.902   2.325   0.891
 7306SOL     OW22816   1.978   1.765   1.234
 7306SOL    HW122817   1.929   1.817   1.304
 7306SOL    HW222818   2.069   1.804   1.221
 7307SOL     OW22819   1.774   6.751   1.362
 7307SOL    HW122820   1.804   6.704   1.445
 7307SOL    HW222821   1.823   6.713   1.283
 7308SOL     OW22822   4.881   1.036   2.599
 7308SOL    HW122823   4.860   0.949   2.644
 7308SOL    HW222824   4.890   1.107   2.669
 7309SOL     OW22825   2.104   5.261   3.353
 7309SOL    HW122826   2.022   5.212   3.321
 7309SOL    HW222827   2.083   5.357   3.365
 7310SOL     OW22828   1.911   3.023   0.184
 7310SOL    HW122829   1.820   2.985   0.170
 7310SOL    HW222830   1.975   2.950   0.208
 7311SOL     OW22831   6.955   6.557   6.337
 7311SOL    HW122832   6.988   6.552   6.432
 7311SOL    HW222833   6.994   6.638   6.293
 7312SOL     OW22834   0.190   2.488   5.261
 7312SOL    HW122835   0.177   2.527   5.170
 7312SOL    HW222836   0.126   2.529   5.325
 7313SOL     OW22837   2.819   1.016   2.417
 7313SOL    HW122838   2.781   1.062   2.497
 7313SOL    HW222839   2.770   1.046   2.335
 7314SOL     OW22840   0.416   4.586   0.059
 7314SOL    HW122841   0.498   4.615   0.107
 7314SOL    HW222842   0.370   4.515   0.113
 7315SOL     OW22843   1.108   4.967   2.536
 7315SOL    HW122844   1.058   4.903   2.477
 7315SOL    HW222845   1.168   4.915   2.597
 7316SOL     OW22846   3.847   2.152   0.420
 7316SOL    HW122847   3.906   2.127   0.496
 7316SOL    HW222848   3.752   2.132   0.442
 7317SOL     OW22849   3.456   1.756   2.008
 7317SOL    HW122850   3.457   1.842   1.956
 7317SOL    HW222851   3.550   1.729   2.028
 7318SOL     OW22852   3.751   0.119   0.871
 7318SOL    HW122853   3.823   0.174   0.915
 7318SOL    HW222854   3.696   0.074   0.941
 7319SOL     OW22855   6.974   4.794   0.408
 7319SOL    HW122856   6.942   4.717   0.462
 7319SOL    HW222857   6.911   4.810   0.332
 7320SOL     OW22858   6.840   2.936   1.038
 7320SOL    HW122859   6.936   2.921   1.064
 7320SOL    HW222860   6.834   2.953   0.940
 7321SOL     OW22861   1.982   6.439   0.350
 7321SOL    HW122862   1.898   6.468   0.397
 7321SOL    HW222863   1.966   6.434   0.252
 7322SOL     OW22864   0.361   2.595   2.323
 7322SOL    HW122865   0.384   2.541   2.242
 7322SOL    HW222866   0.366   2.692   2.300
 7323SOL     OW22867   1.177   1.621   1.610
 7323SOL    HW122868   1.161   1.607   1.512
 7323SOL    HW222869   1.089   1.628   1.657
 7324SOL     OW22870   5.812   4.640   2.902
 7324SOL    HW122871   5.816   4.695   2.985
 7324SOL    HW222872   5.903   4.630   2.863
 7325SOL     OW22873   4.371   0.789   6.491
 7325SOL    HW122874   4.352   0.718   6.422
 7325SOL    HW222875   4.430   0.859   6.451
 7326SOL     OW22876   2.564   0.459   0.237
 7326SOL    HW122877   2.494   0.531   0.237
 7326SOL    HW222878   2.566   0.414   0.149
 7327SOL     OW22879   6.438   3.693   3.128
 7327SOL    HW122880   6.396   3.613   3.169
 7327SOL    HW222881   6.381   3.726   3.052
 7328SOL     OW22882   4.283   4.749   4.998
 7328SOL    HW122883   4.333   4.663   5.000
 7328SOL    HW222884   4.243   4.766   5.088
 7329SOL     OW22885   2.763   3.355   0.639
 7329SOL    HW122886   2.711   3.272   0.619
 7329SOL    HW222887   2.701   3.434   0.633
 7330SOL     OW22888   3.696   2.778   1.203
 7330SOL    HW122889   3.739   2.733   1.281
 7330SOL    HW222890   3.653   2.709   1.144
 7331SOL     OW22891   4.487   0.674   2.340
 7331SOL    HW122892   4.404   0.726   2.358
 7331SOL    HW222893   4.563   0.714   2.391
 7332SOL     OW22894   2.947   4.118   6.783
 7332SOL    HW122895   2.901   4.119   6.694
 7332SOL    HW222896   2.885   4.080   6.852
 7333SOL     OW22897   6.956   2.039   1.482
 7333SOL    HW122898   6.889   2.110   1.463
 7333SOL    HW222899   6.967   2.030   1.581
 7334SOL     OW22900   3.013   0.305   5.563
 7334SOL    HW122901   2.947   0.277   5.493
 7334SOL    HW222902   3.046   0.224   5.611
 7335SOL     OW22903   6.758   2.684   2.546
 7335SOL    HW122904   6.694   2.732   2.607
 7335SOL    HW222905   6.803   2.750   2.486
 7336SOL     OW22906   1.087   6.299   0.838
 7336SOL    HW122907   1.179   6.275   0.866
 7336SOL    HW222908   1.086   6.321   0.740
 7337SOL     OW22909   2.171   1.831   2.666
 7337SOL    HW122910   2.155   1.897   2.740
 7337SOL    HW222911   2.156   1.738   2.700
 7338SOL     OW22912   5.554   3.238   2.161
 7338SOL    HW122913   5.604   3.265   2.243
 7338SOL    HW222914   5.560   3.310   2.093
 7339SOL     OW22915   6.617   5.361   4.787
 7339SOL    HW122916   6.656   5.300   4.855
 7339SOL    HW222917   6.587   5.308   4.707
 7340SOL     OW22918   2.897   7.005   0.206
 7340SOL    HW122919   2.935   0.069   0.182
 7340SOL    HW222920   2.970   6.937   0.210
 7341SOL     OW22921   6.527   5.011   3.995
 7341SOL    HW122922   6.495   4.919   4.014
 7341SOL    HW222923   6.619   5.023   4.034
 7342SOL     OW22924   6.960   6.966   0.437
 7342SOL    HW122925   6.957   6.866   0.427
 7342SOL    HW222926   6.959   6.990   0.534
 7343SOL     OW22927   6.424   4.018   2.568
 7343SOL    HW122928   6.452   3.958   2.643
 7343SOL    HW222929   6.407   4.110   2.602
 7344SOL     OW22930   1.778   6.175   6.923
 7344SOL    HW122931   1.846   6.156   6.993
 7344SOL    HW222932   1.823   6.190   6.835
 7345SOL     OW22933   4.178   5.445   5.961
 7345SOL    HW122934   4.236   5.372   5.997
 7345SOL    HW222935   4.235   5.525   5.941
 7346SOL     OW22936   3.771   4.725   1.690
 7346SOL    HW122937   3.735   4.667   1.764
 7346SOL    HW222938   3.852   4.682   1.651
 7347SOL     OW22939   6.048   1.629   2.017
 7347SOL    HW122940   6.022   1.719   2.053
 7347SOL    HW222941   6.144   1.611   2.038
 7348SOL     OW22942   1.708   1.933   3.963
 7348SOL    HW122943   1.660   1.860   3.915
 7348SOL    HW222944   1.642   1.996   4.003
 7349SOL     OW22945   3.980   1.671   0.613
 7349SOL    HW122946   3.947   1.580   0.639
 7349SOL    HW222947   4.026   1.665   0.525
 7350SOL     OW22948   1.277   2.316   3.146
 7350SOL    HW122949   1.329   2.310   3.061
 7350SOL    HW222950   1.180   2.325   3.125
 7351SOL     OW22951   4.452   5.117   6.980
 7351SOL    HW122952   4.461   5.056   6.902
 7351SOL    HW222953   4.356   5.121   7.009
 7352SOL     OW22954   0.765   2.002   2.304
 7352SOL    HW122955   0.677   2.046   2.288
 7352SOL    HW222956   0.752   1.922   2.363
 7353SOL     OW22957   5.729   1.724   4.716
 7353SOL    HW122958   5.799   1.656   4.694
 7353SOL    HW222959   5.758   1.779   4.794
 7354SOL     OW22960   6.404   6.126   5.760
 7354SOL    HW122961   6.392   6.034   5.798
 7354SOL    HW222962   6.406   6.121   5.661
 7355SOL     OW22963   0.998   5.667   1.992
 7355SOL    HW122964   1.076   5.614   1.960
 7355SOL    HW222965   0.974   5.639   2.085
 7356SOL     OW22966   6.381   1.985   6.404
 7356SOL    HW122967   6.347   1.891   6.407
 7356SOL    HW222968   6.478   1.984   6.380
 7357SOL     OW22969   5.766   2.412   6.690
 7357SOL    HW122970   5.677   2.413   6.644
 7357SOL    HW222971   5.839   2.414   6.621
 7358SOL     OW22972   3.202   1.531   4.362
 7358SOL    HW122973   3.116   1.482   4.346
 7358SOL    HW222974   3.211   1.551   4.460
 7359SOL     OW22975   4.083   3.308   3.276
 7359SOL    HW122976   4.022   3.360   3.336
 7359SOL    HW222977   4.153   3.262   3.332
 7360SOL     OW22978   1.087   2.550   5.258
 7360SOL    HW122979   1.174   2.526   5.301
 7360SOL    HW222980   1.036   2.467   5.236
 7361SOL     OW22981   5.166   6.001   1.875
 7361SOL    HW122982   5.231   6.073   1.901
 7361SOL    HW222983   5.196   5.961   1.788
 7362SOL     OW22984   2.024   5.748   5.661
 7362SOL    HW122985   1.941   5.713   5.617
 7362SOL    HW222986   2.052   5.686   5.733
 7363SOL     OW22987   4.899   2.953   6.976
 7363SOL    HW122988   4.833   2.885   6.944
 7363SOL    HW222989   4.922   2.935   0.045
 7364SOL     OW22990   4.235   6.063   1.170
 7364SOL    HW122991   4.274   6.066   1.261
 7364SOL    HW222992   4.159   6.128   1.163
 7365SOL     OW22993   2.372   0.065   2.454
 7365SOL    HW122994   2.347   0.161   2.441
 7365SOL    HW222995   2.433   0.036   2.381
 7366SOL     OW22996   6.901   5.196   6.808
 7366SOL    HW122997   6.890   5.262   6.882
 7366SOL    HW222998   6.928   5.107   6.846
 7367SOL     OW22999   4.873   3.717   1.699
 7367SOL    HW123000   4.855   3.800   1.752
 7367SOL    HW223001   4.942   3.662   1.746
 7368SOL     OW23002   2.889   3.550   4.814
 7368SOL    HW123003   2.846   3.463   4.837
 7368SOL    HW223004   2.837   3.625   4.855
 7369SOL     OW23005   5.043   4.028   0.637
 7369SOL    HW123006   5.027   3.993   0.545
 7369SOL    HW223007   4.961   4.015   0.692
 7370SOL     OW23008   2.351   6.952   0.781
 7370SOL    HW123009   2.375   6.954   0.878
 7370SOL    HW223010   2.407   7.018   0.732
 7371SOL     OW23011   2.883   4.814   3.999
 7371SOL    HW123012   2.893   4.914   4.005
 7371SOL    HW223013   2.786   4.790   4.008
 7372SOL     OW23014   3.382   0.091   5.585
 7372SOL    HW123015   3.457   0.060   5.644
 7372SOL    HW223016   3.418   0.146   5.510
 7373SOL     OW23017   3.555   0.404   3.040
 7373SOL    HW123018   3.629   0.340   3.019
 7373SOL    HW223019   3.504   0.424   2.956
 7374SOL     OW23020   1.560   3.207   6.143
 7374SOL    HW123021   1.560   3.276   6.216
 7374SOL    HW223022   1.639   3.221   6.083
 7375SOL     OW23023   1.356   0.924   4.343
 7375SOL    HW123024   1.359   1.023   4.360
 7375SOL    HW223025   1.448   0.891   4.326
 7376SOL     OW23026   2.721   2.769   6.939
 7376SOL    HW123027   2.630   2.760   6.978
 7376SOL    HW223028   2.748   2.682   6.896
 7377SOL     OW23029   4.966   4.494   2.128
 7377SOL    HW123030   5.011   4.431   2.066
 7377SOL    HW223031   4.867   4.484   2.120
 7378SOL     OW23032   0.519   1.293   4.786
 7378SOL    HW123033   0.583   1.354   4.739
 7378SOL    HW223034   0.426   1.323   4.769
 7379SOL     OW23035   3.627   1.507   2.387
 7379SOL    HW123036   3.549   1.561   2.419
 7379SOL    HW223037   3.712   1.557   2.401
 7380SOL     OW23038   0.134   3.081   6.125
 7380SOL    HW123039   0.166   3.003   6.070
 7380SOL    HW223040   0.102   3.153   6.064
 7381SOL     OW23041   4.418   2.048   2.296
 7381SOL    HW123042   4.324   2.015   2.286
 7381SOL    HW223043   4.477   1.972   2.323
 7382SOL     OW23044   0.048   4.925   4.437
 7382SOL    HW123045   0.064   4.929   4.338
 7382SOL    HW223046   0.104   4.852   4.476
 7383SOL     OW23047   0.171   6.198   3.182
 7383SOL    HW123048   0.227   6.256   3.122
 7383SOL    HW223049   0.092   6.165   3.131
 7384SOL     OW23050   5.130   6.764   2.091
 7384SOL    HW123051   5.181   6.681   2.067
 7384SOL    HW223052   5.194   6.838   2.112
 7385SOL     OW23053   4.685   5.894   1.844
 7385SOL    HW123054   4.782   5.919   1.852
 7385SOL    HW223055   4.676   5.815   1.784
 7386SOL     OW23056   0.863   2.557   5.656
 7386SOL    HW123057   0.957   2.522   5.654
 7386SOL    HW223058   0.812   2.511   5.729
 7387SOL     OW23059   4.442   5.011   4.049
 7387SOL    HW123060   4.453   4.936   4.114
 7387SOL    HW223061   4.387   4.981   3.971
 7388SOL     OW23062   6.485   4.600   4.335
 7388SOL    HW123063   6.555   4.671   4.346
 7388SOL    HW223064   6.417   4.610   4.407
 7389SOL     OW23065   1.642   4.404   0.033
 7389SOL    HW123066   1.556   4.353   0.032
 7389SOL    HW223067   1.693   4.384   6.975
 7390SOL     OW23068   0.494   1.235   5.908
 7390SOL    HW123069   0.586   1.202   5.887
 7390SOL    HW223070   0.444   1.253   5.823
 7391SOL     OW23071   5.948   3.759   5.977
 7391SOL    HW123072   5.876   3.690   5.984
 7391SOL    HW223073   5.999   3.745   5.892
 7392SOL     OW23074   1.405   5.020   4.708
 7392SOL    HW123075   1.399   4.946   4.775
 7392SOL    HW223076   1.484   5.005   4.649
 7393SOL     OW23077   6.513   5.327   2.424
 7393SOL    HW123078   6.522   5.394   2.498
 7393SOL    HW223079   6.486   5.374   2.340
 7394SOL     OW23080   3.897   3.592   6.641
 7394SOL    HW123081   3.975   3.536   6.615
 7394SOL    HW223082   3.900   3.678   6.590
 7395SOL     OW23083   0.582   0.103   6.653
 7395SOL    HW123084   0.586   0.191   6.701
 7395SOL    HW223085   0.507   0.104   6.587
 7396SOL     OW23086   0.997   0.666   6.378
 7396SOL    HW123087   1.023   0.632   6.288
 7396SOL    HW223088   1.063   0.635   6.446
 7397SOL     OW23089   6.963   4.447   4.572
 7397SOL    HW123090   6.877   4.453   4.623
 7397SOL    HW223091   6.948   4.394   4.489
 7398SOL     OW23092   4.674   4.694   4.270
 7398SOL    HW123093   4.622   4.652   4.345
 7398SOL    HW223094   4.770   4.667   4.276
 7399SOL     OW23095   5.738   3.999   5.786
 7399SOL    HW123096   5.721   3.910   5.744
 7399SOL    HW223097   5.799   3.988   5.864
 7400SOL     OW23098   3.014   4.777   0.111
 7400SOL    HW123099   2.993   4.699   0.053
 7400SOL    HW223100   2.939   4.794   0.174
 7401SOL     OW23101   0.151   1.767   3.907
 7401SOL    HW123102   0.166   1.670   3.925
 7401SOL    HW223103   0.193   1.792   3.819
 7402SOL     OW23104   2.267   6.905   3.639
 7402SOL    HW123105   2.232   6.822   3.596
 7402SOL    HW223106   2.346   6.882   3.695
 7403SOL     OW23107   2.144   3.496   3.260
 7403SOL    HW123108   2.170   3.412   3.306
 7403SOL    HW223109   2.086   3.551   3.320
 7404SOL     OW23110   0.964   0.449   1.165
 7404SOL    HW123111   0.935   0.418   1.075
 7404SOL    HW223112   0.973   0.549   1.166
 7405SOL     OW23113   2.884   5.462   5.256
 7405SOL    HW123114   2.836   5.392   5.310
 7405SOL    HW223115   2.923   5.530   5.318
 7406SOL     OW23116   1.443   3.796   2.051
 7406SOL    HW123117   1.347   3.822   2.067
 7406SOL    HW223118   1.478   3.750   2.132
 7407SOL     OW23119   1.042   6.197   5.254
 7407SOL    HW123120   1.134   6.168   5.225
 7407SOL    HW223121   1.006   6.262   5.187
 7408SOL     OW23122   1.665   4.512   5.741
 7408SOL    HW123123   1.757   4.509   5.701
 7408SOL    HW223124   1.597   4.490   5.671
 7409SOL     OW23125   1.345   0.753   5.138
 7409SOL    HW123126   1.258   0.737   5.185
 7409SOL    HW223127   1.421   0.735   5.201
 7410SOL     OW23128   0.291   5.128   1.131
 7410SOL    HW123129   0.286   5.219   1.090
 7410SOL    HW223130   0.241   5.063   1.074
 7411SOL     OW23131   2.815   6.327   4.978
 7411SOL    HW123132   2.793   6.395   4.908
 7411SOL    HW223133   2.762   6.346   5.061
 7412SOL     OW23134   2.264   0.862   1.131
 7412SOL    HW123135   2.287   0.771   1.096
 7412SOL    HW223136   2.311   0.931   1.076
 7413SOL     OW23137   6.135   3.685   4.517
 7413SOL    HW123138   6.141   3.611   4.584
 7413SOL    HW223139   6.206   3.753   4.536
 7414SOL     OW23140   6.548   6.575   2.117
 7414SOL    HW123141   6.488   6.495   2.106
 7414SOL    HW223142   6.529   6.641   2.044
 7415SOL     OW23143   2.180   3.128   3.075
 7415SOL    HW123144   2.090   3.153   3.111
 7415SOL    HW223145   2.201   3.185   2.996
 7416SOL     OW23146   3.660   1.242   4.295
 7416SOL    HW123147   3.728   1.169   4.289
 7416SOL    HW223148   3.585   1.212   4.354
 7417SOL     OW23149   1.133   6.953   6.644
 7417SOL    HW123150   1.170   6.966   6.552
 7417SOL    HW223151   1.149   0.010   6.698
 7418SOL     OW23152   2.547   3.977   1.418
 7418SOL    HW123153   2.544   4.025   1.506
 7418SOL    HW223154   2.614   3.904   1.423
 7419SOL     OW23155   5.440   1.739   4.984
 7419SOL    HW123156   5.494   1.655   4.988
 7419SOL    HW223157   5.500   1.817   4.966
 7420SOL     OW23158   6.406   6.310   1.835
 7420SOL    HW123159   6.347   6.306   1.754
 7420SOL    HW223160   6.468   6.389   1.827
 7421SOL     OW23161   3.821   3.809   1.645
 7421SOL    HW123162   3.777   3.893   1.679
 7421SOL    HW223163   3.753   3.752   1.599
 7422SOL     OW23164   0.350   3.247   0.617
 7422SOL    HW123165   0.321   3.278   0.707
 7422SOL    HW223166   0.295   3.291   0.546
 7423SOL     OW23167   2.099   4.832   6.141
 7423SOL    HW123168   2.139   4.920   6.166
 7423SOL    HW223169   2.129   4.807   6.049
 7424SOL     OW23170   5.598   1.107   4.446
 7424SOL    HW123171   5.662   1.183   4.459
 7424SOL    HW223172   5.504   1.141   4.452
 7425SOL     OW23173   3.804   4.551   6.178
 7425SOL    HW123174   3.804   4.525   6.082
 7425SOL    HW223175   3.780   4.472   6.234
 7426SOL     OW23176   0.513   1.605   5.805
 7426SOL    HW123177   0.572   1.655   5.741
 7426SOL    HW223178   0.498   1.512   5.771
 7427SOL     OW23179   3.160   5.785   4.808
 7427SOL    HW123180   3.155   5.728   4.891
 7427SOL    HW223181   3.237   5.755   4.752
 7428SOL     OW23182   3.768   2.296   6.000
 7428SOL    HW123183   3.689   2.317   5.944
 7428SOL    HW223184   3.808   2.209   5.970
 7429SOL     OW23185   0.190   0.103   2.327
 7429SOL    HW123186   0.135   0.167   2.274
 7429SOL    HW223187   0.134   0.024   2.352
 7430SOL     OW23188   6.746   3.780   5.132
 7430SOL    HW123189   6.714   3.766   5.038
 7430SOL    HW223190   6.678   3.744   5.196
 7431SOL     OW23191   0.586   3.397   1.921
 7431SOL    HW123192   0.597   3.466   1.992
 7431SOL    HW223193   0.584   3.441   1.832
 7432SOL     OW23194   0.461   6.730   4.001
 7432SOL    HW123195   0.414   6.668   3.938
 7432SOL    HW223196   0.398   6.759   4.073
 7433SOL     OW23197   5.779   5.404   0.538
 7433SOL    HW123198   5.814   5.382   0.629
 7433SOL    HW223199   5.682   5.425   0.543
 7434SOL     OW23200   2.923   1.874   6.682
 7434SOL    HW123201   2.890   1.937   6.752
 7434SOL    HW223202   3.020   1.856   6.696
 7435SOL     OW23203   3.226   6.257   6.148
 7435SOL    HW123204   3.212   6.263   6.050
 7435SOL    HW223205   3.308   6.202   6.166
 7436SOL     OW23206   5.424   3.375   6.921
 7436SOL    HW123207   5.377   3.457   6.952
 7436SOL    HW223208   5.358   3.301   6.908
 7437SOL     OW23209   0.243   5.307   6.162
 7437SOL    HW123210   0.326   5.257   6.138
 7437SOL    HW223211   0.183   5.248   6.217
 7438SOL     OW23212   0.459   4.310   2.051
 7438SOL    HW123213   0.456   4.235   1.985
 7438SOL    HW223214   0.542   4.302   2.107
 7439SOL     OW23215   2.092   6.877   3.925
 7439SOL    HW123216   2.013   6.876   3.986
 7439SOL    HW223217   2.061   6.883   3.830
 7440SOL     OW23218   1.410   2.862   4.559
 7440SOL    HW123219   1.499   2.816   4.556
 7440SOL    HW223220   1.345   2.804   4.609
 7441SOL     OW23221   5.735   1.005   4.176
 7441SOL    HW123222   5.685   1.053   4.249
 7441SOL    HW223223   5.716   1.050   4.088
 7442SOL     OW23224   0.996   1.755   6.407
 7442SOL    HW123225   1.059   1.826   6.377
 7442SOL    HW223226   1.019   1.726   6.499
 7443SOL     OW23227   0.637   1.576   6.388
 7443SOL    HW123228   0.602   1.487   6.358
 7443SOL    HW223229   0.628   1.583   6.487
 7444SOL     OW23230   0.162   3.325   5.977
 7444SOL    HW123231   0.092   3.397   5.982
 7444SOL    HW223232   0.198   3.320   5.884
 7445SOL     OW23233   5.393   1.443   1.466
 7445SOL    HW123234   5.492   1.445   1.450
 7445SOL    HW223235   5.348   1.405   1.385
 7446SOL     OW23236   6.450   3.760   1.104
 7446SOL    HW123237   6.497   3.844   1.131
 7446SOL    HW223238   6.495   3.722   1.023
 7447SOL     OW23239   1.636   4.388   0.512
 7447SOL    HW123240   1.611   4.308   0.458
 7447SOL    HW223241   1.624   4.471   0.458
 7448SOL     OW23242   5.377   0.369   5.448
 7448SOL    HW123243   5.477   0.370   5.447
 7448SOL    HW223244   5.345   0.282   5.486
 7449SOL     OW23245   5.048   2.050   2.348
 7449SOL    HW123246   4.996   1.998   2.416
 7449SOL    HW223247   4.989   2.075   2.272
 7450SOL     OW23248   4.309   2.378   3.022
 7450SOL    HW123249   4.374   2.423   2.961
 7450SOL    HW223250   4.233   2.341   2.969
 7451SOL     OW23251   1.511   1.318   4.994
 7451SOL    HW123252   1.576   1.283   4.926
 7451SOL    HW223253   1.461   1.242   5.036
 7452SOL     OW23254   2.159   0.248   5.014
 7452SOL    HW123255   2.210   0.171   4.976
 7452SOL    HW223256   2.087   0.275   4.950
 7453SOL     OW23257   5.853   6.843   5.183
 7453SOL    HW123258   5.783   6.777   5.156
 7453SOL    HW223259   5.833   6.931   5.141
 7454SOL     OW23260   1.057   3.710   2.162
 7454SOL    HW123261   1.039   3.750   2.072
 7454SOL    HW223262   1.120   3.632   2.151
 7455SOL     OW23263   5.110   2.425   0.847
 7455SOL    HW123264   5.098   2.522   0.869
 7455SOL    HW223265   5.200   2.410   0.806
 7456SOL     OW23266   1.228   3.290   4.641
 7456SOL    HW123267   1.206   3.362   4.575
 7456SOL    HW223268   1.271   3.213   4.593
 7457SOL     OW23269   5.576   1.172   5.074
 7457SOL    HW123270   5.480   1.199   5.065
 7457SOL    HW223271   5.634   1.238   5.027
 7458SOL     OW23272   2.963   0.232   0.127
 7458SOL    HW123273   3.051   0.277   0.147
 7458SOL    HW223274   2.908   0.291   0.069
 7459SOL     OW23275   4.989   6.857   5.920
 7459SOL    HW123276   4.919   6.876   5.988
 7459SOL    HW223277   5.068   6.813   5.965
 7460SOL     OW23278   1.340   4.524   0.732
 7460SOL    HW123279   1.393   4.447   0.766
 7460SOL    HW223280   1.243   4.508   0.750
 7461SOL     OW23281   5.417   0.945   5.549
 7461SOL    HW123282   5.431   0.964   5.453
 7461SOL    HW223283   5.505   0.935   5.596
 7462SOL     OW23284   2.069   2.045   2.043
 7462SOL    HW123285   2.039   1.950   2.045
 7462SOL    HW223286   1.991   2.106   2.057
 7463SOL     OW23287   4.025   3.490   1.574
 7463SOL    HW123288   3.941   3.442   1.600
 7463SOL    HW223289   4.067   3.529   1.656
 7464SOL     OW23290   4.410   6.036   0.768
 7464SOL    HW123291   4.318   5.999   0.784
 7464SOL    HW223292   4.411   6.082   0.679
 7465SOL     OW23293   2.277   0.213   1.692
 7465SOL    HW123294   2.341   0.261   1.752
 7465SOL    HW223295   2.234   0.138   1.743
 7466SOL     OW23296   0.077   0.382   6.623
 7466SOL    HW123297   0.053   0.474   6.592
 7466SOL    HW223298   0.076   0.319   6.546
 7467SOL     OW23299   6.993   2.067   0.903
 7467SOL    HW123300   6.938   2.136   0.857
 7467SOL    HW223301   6.954   1.976   0.885
 7468SOL     OW23302   5.625   1.685   2.939
 7468SOL    HW123303   5.713   1.717   2.972
 7468SOL    HW223304   5.609   1.592   2.973
 7469SOL     OW23305   0.962   0.361   6.877
 7469SOL    HW123306   0.901   0.299   6.926
 7469SOL    HW223307   0.910   0.411   6.807
 7470SOL     OW23308   0.214   1.962   2.305
 7470SOL    HW123309   0.305   1.982   2.341
 7470SOL    HW223310   0.155   2.042   2.315
 7471SOL     OW23311   6.304   6.751   5.287
 7471SOL    HW123312   6.337   6.846   5.289
 7471SOL    HW223313   6.205   6.751   5.274
 7472SOL     OW23314   3.903   0.238   4.465
 7472SOL    HW123315   3.968   0.167   4.436
 7472SOL    HW223316   3.944   0.293   4.537
 7473SOL     OW23317   6.746   3.483   4.153
 7473SOL    HW123318   6.799   3.567   4.150
 7473SOL    HW223319   6.808   3.404   4.158
 7474SOL     OW23320   3.541   0.895   4.179
 7474SOL    HW123321   3.542   0.908   4.080
 7474SOL    HW223322   3.605   0.823   4.205
 7475SOL     OW23323   4.044   0.437   1.751
 7475SOL    HW123324   3.972   0.506   1.747
 7475SOL    HW223325   4.007   0.348   1.724
 7476SOL     OW23326   4.387   5.595   4.351
 7476SOL    HW123327   4.390   5.634   4.259
 7476SOL    HW223328   4.365   5.667   4.418
 7477SOL     OW23329   4.154   0.832   3.910
 7477SOL    HW123330   4.204   0.748   3.889
 7477SOL    HW223331   4.204   0.911   3.873
 7478SOL     OW23332   2.826   3.881   6.641
 7478SOL    HW123333   2.762   3.811   6.610
 7478SOL    HW223334   2.894   3.840   6.701
 7479SOL     OW23335   4.578   0.814   0.428
 7479SOL    HW123336   4.533   0.814   0.339
 7479SOL    HW223337   4.529   0.753   0.491
 7480SOL     OW23338   5.473   5.767   1.516
 7480SOL    HW123339   5.502   5.695   1.580
 7480SOL    HW223340   5.551   5.793   1.458
 7481SOL     OW23341   5.516   4.752   0.579
 7481SOL    HW123342   5.560   4.735   0.666
 7481SOL    HW223343   5.575   4.720   0.504
 7482SOL     OW23344   4.698   0.804   2.468
 7482SOL    HW123345   4.741   0.784   2.557
 7482SOL    HW223346   4.628   0.874   2.480
 7483SOL     OW23347   3.620   2.058   4.637
 7483SOL    HW123348   3.695   2.082   4.576
 7483SOL    HW223349   3.611   1.958   4.641
 7484SOL     OW23350   1.927   6.615   1.559
 7484SOL    HW123351   2.003   6.578   1.505
 7484SOL    HW223352   1.882   6.541   1.609
 7485SOL     OW23353   3.186   5.976   5.628
 7485SOL    HW123354   3.099   6.015   5.658
 7485SOL    HW223355   3.186   5.969   5.528
 7486SOL     OW23356   3.215   6.288   5.111
 7486SOL    HW123357   3.136   6.344   5.089
 7486SOL    HW223358   3.295   6.347   5.125
 7487SOL     OW23359   3.064   6.458   3.503
 7487SOL    HW123360   3.136   6.420   3.562
 7487SOL    HW223361   3.059   6.406   3.418
 7488SOL     OW23362   3.144   0.051   5.716
 7488SOL    HW123363   3.230   0.059   5.667
 7488SOL    HW223364   3.161   0.013   5.807
 7489SOL     OW23365   4.498   1.988   3.920
 7489SOL    HW123366   4.456   1.933   3.848
 7489SOL    HW223367   4.559   2.055   3.879
 7490SOL     OW23368   0.114   0.892   0.603
 7490SOL    HW123369   0.121   0.870   0.701
 7490SOL    HW223370   0.126   0.809   0.549
 7491SOL     OW23371   6.911   5.940   6.460
 7491SOL    HW123372   6.969   5.870   6.417
 7491SOL    HW223373   6.816   5.909   6.461
 7492SOL     OW23374   1.767   2.685   5.363
 7492SOL    HW123375   1.718   2.756   5.414
 7492SOL    HW223376   1.820   2.727   5.290
 7493SOL     OW23377   5.862   4.379   6.350
 7493SOL    HW123378   5.765   4.377   6.372
 7493SOL    HW223379   5.911   4.310   6.404
 7494SOL     OW23380   5.673   0.719   1.967
 7494SOL    HW123381   5.720   0.770   2.039
 7494SOL    HW223382   5.615   0.649   2.009
 7495SOL     OW23383   2.311   2.057   0.418
 7495SOL    HW123384   2.257   1.973   0.417
 7495SOL    HW223385   2.407   2.035   0.437
 7496SOL     OW23386   0.788   5.117   6.088
 7496SOL    HW123387   0.739   5.145   6.005
 7496SOL    HW223388   0.864   5.179   6.104
 7497SOL     OW23389   2.544   5.035   2.291
 7497SOL    HW123390   2.619   5.059   2.353
 7497SOL    HW223391   2.581   5.001   2.205
 7498SOL     OW23392   2.790   1.169   4.681
 7498SOL    HW123393   2.776   1.078   4.722
 7498SOL    HW223394   2.788   1.161   4.582
 7499SOL     OW23395   5.074   6.577   4.647
 7499SOL    HW123396   5.049   6.539   4.736
 7499SOL    HW223397   5.148   6.643   4.658
 7500SOL     OW23398   4.531   5.947   2.576
 7500SOL    HW123399   4.445   5.963   2.527
 7500SOL    HW223400   4.512   5.941   2.674
 7501SOL     OW23401   1.113   3.282   3.723
 7501SOL    HW123402   1.154   3.216   3.786
 7501SOL    HW223403   1.109   3.243   3.631
 7502SOL     OW23404   2.045   0.918   5.090
 7502SOL    HW123405   2.100   0.835   5.101
 7502SOL    HW223406   2.076   0.988   5.155
 7503SOL     OW23407   2.541   0.531   6.621
 7503SOL    HW123408   2.522   0.549   6.717
 7503SOL    HW223409   2.544   0.617   6.570
 7504SOL     OW23410   3.986   6.569   3.421
 7504SOL    HW123411   3.933   6.599   3.341
 7504SOL    HW223412   3.948   6.484   3.456
 7505SOL     OW23413   1.986   1.091   5.321
 7505SOL    HW123414   1.990   0.993   5.340
 7505SOL    HW223415   1.962   1.140   5.405
 7506SOL     OW23416   3.489   0.822   2.592
 7506SOL    HW123417   3.449   0.886   2.527
 7506SOL    HW223418   3.588   0.819   2.579
 7507SOL     OW23419   0.077   5.855   6.134
 7507SOL    HW123420   7.004   5.842   6.150
 7507SOL    HW223421   0.103   5.948   6.160
 7508SOL     OW23422   5.580   6.476   3.659
 7508SOL    HW123423   5.631   6.506   3.739
 7508SOL    HW223424   5.522   6.551   3.626
 7509SOL     OW23425   5.295   4.000   6.672
 7509SOL    HW123426   5.304   4.016   6.574
 7509SOL    HW223427   5.363   4.054   6.721
 7510SOL     OW23428   3.106   3.888   4.909
 7510SOL    HW123429   3.104   3.790   4.891
 7510SOL    HW223430   3.183   3.930   4.861
 7511SOL     OW23431   1.756   0.268   2.522
 7511SOL    HW123432   1.831   0.315   2.476
 7511SOL    HW223433   1.676   0.328   2.527
 7512SOL     OW23434   2.529   2.855   1.590
 7512SOL    HW123435   2.514   2.949   1.561
 7512SOL    HW223436   2.620   2.847   1.633
 7513SOL     OW23437   0.991   2.598   5.973
 7513SOL    HW123438   0.943   2.518   5.938
 7513SOL    HW223439   0.931   2.677   5.970
 7514SOL     OW23440   2.983   6.100   1.774
 7514SOL    HW123441   3.004   6.071   1.868
 7514SOL    HW223442   2.884   6.103   1.762
 7515SOL     OW23443   0.558   6.977   2.960
 7515SOL    HW123444   0.604   0.041   2.957
 7515SOL    HW223445   0.492   6.971   2.886
 7516SOL     OW23446   6.923   0.122   4.209
 7516SOL    HW123447   6.893   0.068   4.288
 7516SOL    HW223448   6.966   0.061   4.142
 7517SOL     OW23449   0.293   3.808   1.384
 7517SOL    HW123450   0.364   3.740   1.373
 7517SOL    HW223451   0.267   3.845   1.294
 7518SOL     OW23452   4.334   5.592   3.432
 7518SOL    HW123453   4.326   5.493   3.417
 7518SOL    HW223454   4.244   5.630   3.452
 7519SOL     OW23455   1.263   7.008   5.044
 7519SOL    HW123456   1.319   6.940   4.998
 7519SOL    HW223457   1.203   6.963   5.110
 7520SOL     OW23458   1.664   6.755   2.756
 7520SOL    HW123459   1.678   6.852   2.737
 7520SOL    HW223460   1.741   6.703   2.720
 7521SOL     OW23461   4.440   4.469   5.355
 7521SOL    HW123462   4.424   4.448   5.452
 7521SOL    HW223463   4.355   4.458   5.304
 7522SOL     OW23464   2.073   1.252   7.020
 7522SOL    HW123465   2.149   1.268   0.057
 7522SOL    HW223466   2.075   1.321   6.948
 7523SOL     OW23467   5.659   0.304   5.738
 7523SOL    HW123468   5.612   0.318   5.825
 7523SOL    HW223469   5.731   0.373   5.729
 7524SOL     OW23470   0.119   1.494   5.810
 7524SOL    HW123471   0.155   1.547   5.733
 7524SOL    HW223472   0.019   1.495   5.808
 7525SOL     OW23473   2.160   0.294   0.446
 7525SOL    HW123474   2.230   0.223   0.444
 7525SOL    HW223475   2.090   0.270   0.514
 7526SOL     OW23476   3.500   3.274   4.769
 7526SOL    HW123477   3.580   3.334   4.759
 7526SOL    HW223478   3.529   3.179   4.761
 7527SOL     OW23479   5.155   4.167   2.791
 7527SOL    HW123480   5.149   4.202   2.697
 7527SOL    HW223481   5.149   4.243   2.855
 7528SOL     OW23482   4.752   3.034   0.889
 7528SOL    HW123483   4.825   2.993   0.944
 7528SOL    HW223484   4.700   2.962   0.844
 7529SOL     OW23485   4.299   1.069   3.853
 7529SOL    HW123486   4.288   1.166   3.830
 7529SOL    HW223487   4.379   1.057   3.912
 7530SOL     OW23488   6.827   3.770   2.254
 7530SOL    HW123489   6.883   3.702   2.207
 7530SOL    HW223490   6.731   3.758   2.228
 7531SOL     OW23491   4.083   1.856   3.583
 7531SOL    HW123492   4.090   1.952   3.554
 7531SOL    HW223493   4.111   1.848   3.679
 7532SOL     OW23494   5.585   6.069   2.225
 7532SOL    HW123495   5.545   5.978   2.230
 7532SOL    HW223496   5.617   6.096   2.316
 7533SOL     OW23497   3.020   1.197   4.106
 7533SOL    HW123498   2.979   1.111   4.136
 7533SOL    HW223499   3.119   1.186   4.100
 7534SOL     OW23500   4.073   6.229   5.703
 7534SOL    HW123501   4.049   6.250   5.609
 7534SOL    HW223502   3.994   6.187   5.749
 7535SOL     OW23503   2.920   2.239   5.512
 7535SOL    HW123504   2.981   2.160   5.504
 7535SOL    HW223505   2.857   2.240   5.434
 7536SOL     OW23506   4.732   5.233   4.902
 7536SOL    HW123507   4.731   5.133   4.899
 7536SOL    HW223508   4.827   5.265   4.905
 7537SOL     OW23509   1.949   4.204   4.627
 7537SOL    HW123510   1.945   4.111   4.664
 7537SOL    HW223511   1.972   4.200   4.530
 7538SOL     OW23512   3.242   2.989   2.918
 7538SOL    HW123513   3.156   3.008   2.966
 7538SOL    HW223514   3.314   2.971   2.985
 7539SOL     OW23515   1.747   3.133   5.145
 7539SOL    HW123516   1.657   3.121   5.102
 7539SOL    HW223517   1.811   3.170   5.078
 7540SOL     OW23518   2.583   1.026   6.940
 7540SOL    HW123519   2.522   1.057   7.013
 7540SOL    HW223520   2.580   1.091   6.864
 7541SOL     OW23521   6.296   2.553   5.565
 7541SOL    HW123522   6.261   2.613   5.637
 7541SOL    HW223523   6.376   2.504   5.599
 7542SOL     OW23524   1.287   6.947   5.833
 7542SOL    HW123525   1.333   6.858   5.831
 7542SOL    HW223526   1.354   7.019   5.815
 7543SOL     OW23527   4.285   2.812   0.525
 7543SOL    HW123528   4.206   2.851   0.572
 7543SOL    HW223529   4.316   2.730   0.573
 7544SOL     OW23530   1.274   2.049   2.763
 7544SOL    HW123531   1.328   2.012   2.838
 7544SOL    HW223532   1.218   2.125   2.796
 7545SOL     OW23533   4.792   6.999   2.605
 7545SOL    HW123534   4.773   6.916   2.553
 7545SOL    HW223535   4.766   6.985   2.701
 7546SOL     OW23536   5.216   0.908   0.344
 7546SOL    HW123537   5.139   0.928   0.283
 7546SOL    HW223538   5.256   0.993   0.377
 7547SOL     OW23539   3.890   0.640   0.247
 7547SOL    HW123540   3.897   0.707   0.321
 7547SOL    HW223541   3.944   0.560   0.270
 7548SOL     OW23542   2.238   1.837   1.205
 7548SOL    HW123543   2.260   1.933   1.184
 7548SOL    HW223544   2.253   1.821   1.303
 7549SOL     OW23545   5.444   1.431   2.513
 7549SOL    HW123546   5.496   1.446   2.429
 7549SOL    HW223547   5.375   1.503   2.524
 7550SOL     OW23548   1.621   5.454   2.349
 7550SOL    HW123549   1.561   5.530   2.376
 7550SOL    HW223550   1.586   5.369   2.389
 7551SOL     OW23551   4.483   3.515   6.985
 7551SOL    HW123552   4.408   3.457   7.016
 7551SOL    HW223553   4.567   3.491   0.008
 7552SOL     OW23554   2.252   5.717   4.407
 7552SOL    HW123555   2.246   5.749   4.501
 7552SOL    HW223556   2.331   5.758   4.362
 7553SOL     OW23557   4.047   4.604   5.654
 7553SOL    HW123558   3.978   4.659   5.700
 7553SOL    HW223559   4.006   4.517   5.624
 7554SOL     OW23560   5.142   1.624   0.824
 7554SOL    HW123561   5.066   1.566   0.794
 7554SOL    HW223562   5.124   1.656   0.917
 7555SOL     OW23563   0.583   5.348   5.537
 7555SOL    HW123564   0.581   5.260   5.490
 7555SOL    HW223565   0.506   5.354   5.600
 7556SOL     OW23566   0.912   3.132   4.793
 7556SOL    HW123567   0.966   3.207   4.756
 7556SOL    HW223568   0.921   3.052   4.734
 7557SOL     OW23569   4.987   4.103   6.109
 7557SOL    HW123570   4.921   4.135   6.177
 7557SOL    HW223571   5.023   4.182   6.059
 7558SOL     OW23572   2.045   2.559   4.149
 7558SOL    HW123573   2.032   2.599   4.240
 7558SOL    HW223574   2.133   2.511   4.146
 7559SOL     OW23575   6.271   5.154   0.845
 7559SOL    HW123576   6.271   5.062   0.885
 7559SOL    HW223577   6.336   5.211   0.895
 7560SOL     OW23578   4.901   0.001   1.081
 7560SOL    HW123579   4.866   0.088   1.047
 7560SOL    HW223580   4.825   6.965   1.100
 7561SOL     OW23581   0.624   3.334   0.739
 7561SOL    HW123582   0.621   3.353   0.838
 7561SOL    HW223583   0.531   3.334   0.703
 7562SOL     OW23584   5.660   6.673   5.119
 7562SOL    HW123585   5.660   6.620   5.204
 7562SOL    HW223586   5.570   6.711   5.104
 7563SOL     OW23587   2.754   0.460   2.008
 7563SOL    HW123588   2.845   0.453   1.967
 7563SOL    HW223589   2.759   0.441   2.106
 7564SOL     OW23590   5.466   6.655   3.115
 7564SOL    HW123591   5.483   6.752   3.098
 7564SOL    HW223592   5.514   6.600   3.047
 7565SOL     OW23593   5.223   5.220   6.491
 7565SOL    HW123594   5.210   5.267   6.579
 7565SOL    HW223595   5.236   5.288   6.419
 7566SOL     OW23596   0.118   5.153   4.152
 7566SOL    HW123597   0.216   5.152   4.132
 7566SOL    HW223598   0.069   5.201   4.079
 7567SOL     OW23599   2.326   4.201   5.874
 7567SOL    HW123600   2.377   4.272   5.922
 7567SOL    HW223601   2.372   4.178   5.788
 7568SOL     OW23602   5.641   5.804   3.696
 7568SOL    HW123603   5.601   5.764   3.778
 7568SOL    HW223604   5.576   5.867   3.654
 7569SOL     OW23605   4.158   5.864   6.710
 7569SOL    HW123606   4.144   5.800   6.786
 7569SOL    HW223607   4.183   5.813   6.628
 7570SOL     OW23608   5.950   4.378   4.534
 7570SOL    HW123609   5.871   4.347   4.481
 7570SOL    HW223610   5.953   4.478   4.535
 7571SOL     OW23611   5.473   3.765   2.062
 7571SOL    HW123612   5.382   3.751   2.025
 7571SOL    HW223613   5.467   3.795   2.157
 7572SOL     OW23614   5.068   0.816   4.200
 7572SOL    HW123615   5.003   0.892   4.211
 7572SOL    HW223616   5.020   0.729   4.213
 7573SOL     OW23617   0.093   5.842   4.711
 7573SOL    HW123618   0.032   5.845   4.791
 7573SOL    HW223619   0.043   5.804   4.633
 7574SOL     OW23620   6.400   1.065   3.476
 7574SOL    HW123621   6.476   1.092   3.535
 7574SOL    HW223622   6.412   0.970   3.447
 7575SOL     OW23623   4.276   1.211   5.895
 7575SOL    HW123624   4.296   1.150   5.817
 7575SOL    HW223625   4.230   1.293   5.861
 7576SOL     OW23626   5.838   4.738   0.195
 7576SOL    HW123627   5.795   4.815   0.147
 7576SOL    HW223628   5.926   4.717   0.153
 7577SOL     OW23629   6.481   0.929   4.434
 7577SOL    HW123630   6.565   0.918   4.488
 7577SOL    HW223631   6.505   0.966   4.344
 7578SOL     OW23632   2.271   6.332   4.470
 7578SOL    HW123633   2.220   6.310   4.387
 7578SOL    HW223634   2.277   6.431   4.481
 7579SOL     OW23635   4.080   2.185   2.468
 7579SOL    HW123636   4.106   2.218   2.559
 7579SOL    HW223637   3.981   2.179   2.462
 7580SOL     OW23638   1.418   3.648   3.116
 7580SOL    HW123639   1.461   3.711   3.181
 7580SOL    HW223640   1.433   3.554   3.145
 7581SOL     OW23641   5.288   1.540   0.578
 7581SOL    HW123642   5.339   1.624   0.560
 7581SOL    HW223643   5.213   1.560   0.642
 7582SOL     OW23644   3.960   1.649   0.312
 7582SOL    HW123645   3.967   1.580   0.240
 7582SOL    HW223646   3.863   1.669   0.330
 7583SOL     OW23647   5.874   4.047   1.944
 7583SOL    HW123648   5.819   4.065   2.025
 7583SOL    HW223649   5.937   3.971   1.962
 7584SOL     OW23650   2.783   6.859   1.208
 7584SOL    HW123651   2.775   6.950   1.249
 7584SOL    HW223652   2.790   6.791   1.280
 7585SOL     OW23653   1.688   4.154   6.735
 7585SOL    HW123654   1.720   4.078   6.678
 7585SOL    HW223655   1.629   4.119   6.807
 7586SOL     OW23656   2.972   0.004   2.614
 7586SOL    HW123657   3.027   6.957   2.654
 7586SOL    HW223658   2.875   7.007   2.626
 7587SOL     OW23659   2.089   1.938   7.007
 7587SOL    HW123660   2.058   1.866   0.043
 7587SOL    HW223661   2.140   1.898   6.931
 7588SOL     OW23662   0.551   5.205   1.956
 7588SOL    HW123663   0.523   5.298   1.979
 7588SOL    HW223664   0.624   5.176   2.019
 7589SOL     OW23665   6.047   5.843   0.206
 7589SOL    HW123666   6.069   5.783   0.129
 7589SOL    HW223667   5.982   5.913   0.176
 7590SOL     OW23668   2.623   1.835   5.502
 7590SOL    HW123669   2.534   1.880   5.511
 7590SOL    HW223670   2.642   1.817   5.406
 7591SOL     OW23671   0.399   4.725   0.323
 7591SOL    HW123672   0.438   4.763   0.239
 7591SOL    HW223673   0.372   4.800   0.383
 7592SOL     OW23674   6.332   4.962   6.914
 7592SOL    HW123675   6.313   4.865   6.895
 7592SOL    HW223676   6.248   5.015   6.903
 7593SOL     OW23677   5.587   2.718   0.089
 7593SOL    HW123678   5.590   2.716   0.188
 7593SOL    HW223679   5.510   2.664   0.056
 7594SOL     OW23680   0.916   5.326   3.151
 7594SOL    HW123681   0.966   5.413   3.154
 7594SOL    HW223682   0.856   5.320   3.231
 7595SOL     OW23683   0.276   3.894   6.294
 7595SOL    HW123684   0.325   3.978   6.316
 7595SOL    HW223685   0.342   3.820   6.279
 7596SOL     OW23686   5.252   4.940   2.745
 7596SOL    HW123687   5.175   4.898   2.793
 7596SOL    HW223688   5.338   4.904   2.783
 7597SOL     OW23689   3.393   5.463   2.184
 7597SOL    HW123690   3.372   5.485   2.089
 7597SOL    HW223691   3.355   5.534   2.244
 7598SOL     OW23692   6.787   0.377   2.743
 7598SOL    HW123693   6.707   0.384   2.802
 7598SOL    HW223694   6.815   0.468   2.713
 7599SOL     OW23695   5.863   1.447   3.070
 7599SOL    HW123696   5.907   1.473   3.156
 7599SOL    HW223697   5.922   1.472   2.993
 7600SOL     OW23698   1.710   0.161   2.280
 7600SOL    HW123699   1.727   0.198   2.371
 7600SOL    HW223700   1.723   0.062   2.281
 7601SOL     OW23701   2.140   5.904   3.588
 7601SOL    HW123702   2.222   5.959   3.572
 7601SOL    HW223703   2.061   5.948   3.544
 7602SOL     OW23704   2.259   4.375   4.786
 7602SOL    HW123705   2.294   4.300   4.730
 7602SOL    HW223706   2.322   4.453   4.781
 7603SOL     OW23707   1.215   6.236   6.957
 7603SOL    HW123708   1.257   6.145   6.959
 7603SOL    HW223709   1.116   6.226   6.956
 7604SOL     OW23710   3.691   5.828   4.016
 7604SOL    HW123711   3.749   5.851   3.938
 7604SOL    HW223712   3.601   5.871   4.005
 7605SOL     OW23713   1.692   5.198   0.093
 7605SOL    HW123714   1.722   5.138   0.168
 7605SOL    HW223715   1.651   5.142   0.021
 7606SOL     OW23716   0.317   2.888   2.260
 7606SOL    HW123717   0.372   2.888   2.176
 7606SOL    HW223718   0.273   2.977   2.271
 7607SOL     OW23719   4.692   6.862   0.521
 7607SOL    HW123720   4.754   6.783   0.520
 7607SOL    HW223721   4.730   6.933   0.580
 7608SOL     OW23722   3.041   3.951   3.046
 7608SOL    HW123723   3.065   4.004   3.126
 7608SOL    HW223724   3.062   4.003   2.963
 7609SOL     OW23725   6.895   3.589   3.615
 7609SOL    HW123726   6.886   3.683   3.581
 7609SOL    HW223727   6.945   3.535   3.547
 7610SOL     OW23728   6.030   0.414   1.354
 7610SOL    HW123729   5.983   0.328   1.332
 7610SOL    HW223730   5.963   0.484   1.375
 7611SOL     OW23731   1.385   1.701   6.968
 7611SOL    HW123732   1.368   1.788   6.923
 7611SOL    HW223733   1.452   1.649   6.916
 7612SOL     OW23734   3.750   1.346   4.066
 7612SOL    HW123735   3.705   1.330   4.154
 7612SOL    HW223736   3.681   1.361   3.995
 7613SOL     OW23737   4.954   1.444   1.311
 7613SOL    HW123738   4.982   1.396   1.228
 7613SOL    HW223739   4.860   1.417   1.334
 7614SOL     OW23740   3.964   2.247   1.841
 7614SOL    HW123741   4.019   2.328   1.821
 7614SOL    HW223742   3.872   2.275   1.867
 7615SOL     OW23743   4.482   5.202   6.533
 7615SOL    HW123744   4.506   5.290   6.574
 7615SOL    HW223745   4.468   5.214   6.435
 7616SOL     OW23746   0.838   4.307   4.492
 7616SOL    HW123747   0.881   4.243   4.554
 7616SOL    HW223748   0.757   4.265   4.451
 7617SOL     OW23749   2.915   5.963   3.743
 7617SOL    HW123750   2.961   6.015   3.670
 7617SOL    HW223751   2.901   5.869   3.713
 7618SOL     OW23752   1.326   2.158   6.418
 7618SOL    HW123753   1.398   2.210   6.370
 7618SOL    HW223754   1.308   2.201   6.506
 7619SOL     OW23755   5.605   3.032   5.543
 7619SOL    HW123756   5.528   3.091   5.570
 7619SOL    HW223757   5.680   3.043   5.608
 7620SOL     OW23758   3.752   0.400   0.750
 7620SOL    HW123759   3.691   0.329   0.714
 7620SOL    HW223760   3.809   0.361   0.822
 7621SOL     OW23761   1.032   0.502   0.435
 7621SOL    HW123762   0.935   0.488   0.454
 7621SOL    HW223763   1.042   0.577   0.370
 7622SOL     OW23764   4.965   2.755   1.658
 7622SOL    HW123765   4.921   2.845   1.664
 7622SOL    HW223766   5.005   2.743   1.568
 7623SOL     OW23767   4.457   5.851   6.387
 7623SOL    HW123768   4.507   5.784   6.441
 7623SOL    HW223769   4.366   5.865   6.426
 7624SOL     OW23770   0.242   2.357   3.577
 7624SOL    HW123771   0.340   2.377   3.584
 7624SOL    HW223772   0.221   2.323   3.486
 7625SOL     OW23773   5.662   1.333   0.714
 7625SOL    HW123774   5.714   1.248   0.706
 7625SOL    HW223775   5.690   1.381   0.798
 7626SOL     OW23776   0.134   6.748   5.201
 7626SOL    HW123777   0.133   6.741   5.102
 7626SOL    HW223778   0.069   6.683   5.240
 7627SOL     OW23779   6.139   3.174   0.801
 7627SOL    HW123780   6.201   3.230   0.746
 7627SOL    HW223781   6.132   3.212   0.893
 7628SOL     OW23782   2.778   0.595   1.718
 7628SOL    HW123783   2.697   0.620   1.666
 7628SOL    HW223784   2.754   0.526   1.787
 7629SOL     OW23785   6.413   6.156   2.185
 7629SOL    HW123786   6.442   6.100   2.263
 7629SOL    HW223787   6.458   6.125   2.102
 7630SOL     OW23788   6.492   6.656   2.418
 7630SOL    HW123789   6.406   6.604   2.422
 7630SOL    HW223790   6.555   6.612   2.355
 7631SOL     OW23791   1.145   1.958   5.013
 7631SOL    HW123792   1.113   1.920   5.099
 7631SOL    HW223793   1.076   2.020   4.976
 7632SOL     OW23794   4.304   1.939   1.144
 7632SOL    HW123795   4.273   1.996   1.220
 7632SOL    HW223796   4.276   1.980   1.057
 7633SOL     OW23797   5.319   3.255   0.211
 7633SOL    HW123798   5.342   3.172   0.160
 7633SOL    HW223799   5.402   3.306   0.231
 7634SOL     OW23800   1.419   1.155   2.404
 7634SOL    HW123801   1.458   1.067   2.430
 7634SOL    HW223802   1.319   1.149   2.409
 7635SOL     OW23803   2.663   5.481   5.533
 7635SOL    HW123804   2.702   5.389   5.538
 7635SOL    HW223805   2.728   5.547   5.572
 7636SOL     OW23806   1.327   1.311   3.880
 7636SOL    HW123807   1.291   1.315   3.787
 7636SOL    HW223808   1.407   1.251   3.883
 7637SOL     OW23809   1.554   6.749   4.015
 7637SOL    HW123810   1.576   6.827   4.074
 7637SOL    HW223811   1.531   6.782   3.924
 7638SOL     OW23812   5.797   5.747   1.713
 7638SOL    HW123813   5.884   5.764   1.759
 7638SOL    HW223814   5.722   5.779   1.772
 7639SOL     OW23815   0.738   1.833   6.487
 7639SOL    HW123816   0.829   1.794   6.467
 7639SOL    HW223817   0.711   1.893   6.413
 7640SOL     OW23818   2.463   2.500   0.700
 7640SOL    HW123819   2.418   2.414   0.724
 7640SOL    HW223820   2.446   2.568   0.771
 7641SOL     OW23821   0.495   4.637   1.880
 7641SOL    HW123822   0.442   4.643   1.964
 7641SOL    HW223823   0.529   4.728   1.855
 7642SOL     OW23824   2.617   1.929   2.437
 7642SOL    HW123825   2.530   1.944   2.392
 7642SOL    HW223826   2.636   2.005   2.500
 7643SOL     OW23827   4.519   2.336   3.416
 7643SOL    HW123828   4.497   2.412   3.477
 7643SOL    HW223829   4.505   2.250   3.464
 7644SOL     OW23830   6.375   2.516   2.428
 7644SOL    HW123831   6.398   2.590   2.491
 7644SOL    HW223832   6.372   2.429   2.478
 7645SOL     OW23833   4.683   5.390   6.637
 7645SOL    HW123834   4.775   5.378   6.601
 7645SOL    HW223835   4.686   5.389   6.737
 7646SOL     OW23836   1.646   2.286   2.211
 7646SOL    HW123837   1.573   2.321   2.153
 7646SOL    HW223838   1.682   2.360   2.268
 7647SOL     OW23839   1.271   3.222   1.474
 7647SOL    HW123840   1.207   3.254   1.404
 7647SOL    HW223841   1.298   3.299   1.532
 7648SOL     OW23842   4.299   1.566   3.375
 7648SOL    HW123843   4.235   1.499   3.337
 7648SOL    HW223844   4.252   1.622   3.443
 7649SOL     OW23845   0.688   0.538   2.340
 7649SOL    HW123846   0.716   0.507   2.431
 7649SOL    HW223847   0.662   0.459   2.284
 7650SOL     OW23848   6.240   3.098   2.099
 7650SOL    HW123849   6.299   3.078   2.021
 7650SOL    HW223850   6.279   3.057   2.181
 7651SOL     OW23851   2.454   0.351   0.007
 7651SOL    HW123852   2.490   0.299   6.955
 7651SOL    HW223853   2.354   0.343   0.010
 7652SOL     OW23854   5.881   3.506   4.148
 7652SOL    HW123855   5.823   3.582   4.175
 7652SOL    HW223856   5.976   3.526   4.173
 7653SOL     OW23857   2.264   1.079   0.955
 7653SOL    HW123858   2.165   1.087   0.957
 7653SOL    HW223859   2.304   1.170   0.943
 7654SOL     OW23860   4.767   2.320   3.254
 7654SOL    HW123861   4.697   2.331   3.325
 7654SOL    HW223862   4.722   2.304   3.166
 7655SOL     OW23863   3.956   0.046   4.226
 7655SOL    HW123864   3.982   0.033   4.130
 7655SOL    HW223865   3.900   0.128   4.234
 7656SOL     OW23866   0.376   5.577   5.856
 7656SOL    HW123867   0.466   5.562   5.897
 7656SOL    HW223868   0.317   5.622   5.922
 7657SOL     OW23869   3.097   2.121   3.035
 7657SOL    HW123870   3.051   2.130   2.947
 7657SOL    HW223871   3.190   2.087   3.022
 7658SOL     OW23872   4.505   0.422   6.495
 7658SOL    HW123873   4.499   0.323   6.511
 7658SOL    HW223874   4.521   0.440   6.398
 7659SOL     OW23875   5.836   6.830   0.862
 7659SOL    HW123876   5.904   6.843   0.790
 7659SOL    HW223877   5.868   6.872   0.946
 7660SOL     OW23878   5.587   6.041   3.926
 7660SOL    HW123879   5.575   6.009   3.832
 7660SOL    HW223880   5.575   6.141   3.929
 7661SOL     OW23881   6.080   2.154   4.599
 7661SOL    HW123882   6.095   2.218   4.674
 7661SOL    HW223883   6.162   2.099   4.584
 7662SOL     OW23884   1.530   2.685   1.740
 7662SOL    HW123885   1.591   2.669   1.818
 7662SOL    HW223886   1.514   2.600   1.692
 7663SOL     OW23887   6.930   5.520   6.633
 7663SOL    HW123888   6.831   5.519   6.645
 7663SOL    HW223889   6.975   5.514   6.722
 7664SOL     OW23890   3.072   6.145   2.521
 7664SOL    HW123891   3.003   6.167   2.589
 7664SOL    HW223892   3.068   6.048   2.497
 7665SOL     OW23893   3.206   0.134   3.707
 7665SOL    HW123894   3.251   0.171   3.625
 7665SOL    HW223895   3.126   0.080   3.680
 7666SOL     OW23896   0.185   6.655   1.371
 7666SOL    HW123897   0.169   6.643   1.469
 7666SOL    HW223898   0.279   6.685   1.356
 7667SOL     OW23899   4.874   6.044   6.889
 7667SOL    HW123900   4.863   6.140   6.912
 7667SOL    HW223901   4.886   5.991   6.973
 7668SOL     OW23902   3.338   4.192   1.391
 7668SOL    HW123903   3.425   4.147   1.412
 7668SOL    HW223904   3.280   4.129   1.340
 7669SOL     OW23905   5.517   0.899   4.617
 7669SOL    HW123906   5.445   0.854   4.565
 7669SOL    HW223907   5.549   0.980   4.568
 7670SOL     OW23908   1.329   5.465   6.646
 7670SOL    HW123909   1.402   5.398   6.660
 7670SOL    HW223910   1.326   5.493   6.550
 7671SOL     OW23911   4.805   1.244   4.225
 7671SOL    HW123912   4.748   1.325   4.242
 7671SOL    HW223913   4.894   1.257   4.268
 7672SOL     OW23914   6.029   0.136   3.857
 7672SOL    HW123915   6.089   0.196   3.804
 7672SOL    HW223916   6.009   0.053   3.805
 7673SOL     OW23917   1.449   4.872   0.811
 7673SOL    HW123918   1.511   4.851   0.887
 7673SOL    HW223919   1.468   4.810   0.735
 7674SOL     OW23920   6.700   1.905   4.644
 7674SOL    HW123921   6.725   1.992   4.687
 7674SOL    HW223922   6.671   1.923   4.550
 7675SOL     OW23923   5.198   0.584   2.183
 7675SOL    HW123924   5.247   0.559   2.266
 7675SOL    HW223925   5.100   0.587   2.202
 7676SOL     OW23926   0.618   1.650   6.672
 7676SOL    HW123927   0.679   1.714   6.626
 7676SOL    HW223928   0.524   1.686   6.670
 7677SOL     OW23929   1.413   3.005   2.043
 7677SOL    HW123930   1.504   3.011   2.000
 7677SOL    HW223931   1.357   2.940   1.992
 7678SOL     OW23932   1.390   0.897   6.475
 7678SOL    HW123933   1.401   0.840   6.394
 7678SOL    HW223934   1.433   0.986   6.459
 7679SOL     OW23935   1.068   5.534   4.887
 7679SOL    HW123936   1.145   5.595   4.906
 7679SOL    HW223937   1.025   5.508   4.974
 7680SOL     OW23938   2.982   3.297   6.808
 7680SOL    HW123939   2.949   3.346   6.889
 7680SOL    HW223940   3.023   3.210   6.837
 7681SOL     OW23941   3.123   0.463   0.561
 7681SOL    HW123942   3.093   0.497   0.471
 7681SOL    HW223943   3.118   0.363   0.561
 7682SOL     OW23944   2.483   6.605   1.920
 7682SOL    HW123945   2.433   6.542   1.979
 7682SOL    HW223946   2.550   6.554   1.866
 7683SOL     OW23947   6.507   2.741   2.942
 7683SOL    HW123948   6.434   2.808   2.935
 7683SOL    HW223949   6.467   2.649   2.947
 7684SOL     OW23950   5.727   2.723   6.626
 7684SOL    HW123951   5.699   2.674   6.543
 7684SOL    HW223952   5.790   2.665   6.679
 7685SOL     OW23953   4.023   2.838   0.378
 7685SOL    HW123954   4.114   2.865   0.346
 7685SOL    HW223955   3.997   2.752   0.336
 7686SOL     OW23956   4.164   0.103   2.734
 7686SOL    HW123957   4.243   0.080   2.790
 7686SOL    HW223958   4.160   0.042   2.655
 7687SOL     OW23959   5.221   5.681   5.776
 7687SOL    HW123960   5.200   5.621   5.853
 7687SOL    HW223961   5.270   5.630   5.705
 7688SOL     OW23962   6.957   6.833   5.931
 7688SOL    HW123963   6.993   6.743   5.906
 7688SOL    HW223964   0.003   6.902   5.917
 7689SOL     OW23965   4.790   5.948   4.187
 7689SOL    HW123966   4.816   5.886   4.113
 7689SOL    HW223967   4.784   5.898   4.273
 7690SOL     OW23968   5.260   5.320   3.023
 7690SOL    HW123969   5.189   5.250   3.020
 7690SOL    HW223970   5.332   5.293   3.086
 7691SOL     OW23971   4.886   2.987   4.011
 7691SOL    HW123972   4.918   3.079   3.993
 7691SOL    HW223973   4.827   2.957   3.936
 7692SOL     OW23974   1.165   6.637   0.779
 7692SOL    HW123975   1.114   6.660   0.861
 7692SOL    HW223976   1.243   6.580   0.803
 7693SOL     OW23977   4.116   0.883   6.556
 7693SOL    HW123978   4.075   0.796   6.585
 7693SOL    HW223979   4.208   0.866   6.520
 7694SOL     OW23980   0.454   4.613   3.781
 7694SOL    HW123981   0.540   4.635   3.826
 7694SOL    HW223982   0.422   4.523   3.811
 7695SOL     OW23983   3.882   0.635   0.875
 7695SOL    HW123984   3.838   0.711   0.924
 7695SOL    HW223985   3.813   0.565   0.854
 7696SOL     OW23986   6.983   2.165   4.164
 7696SOL    HW123987   0.041   2.114   4.146
 7696SOL    HW223988   6.985   2.251   4.114
 7697SOL     OW23989   2.110   1.545   3.315
 7697SOL    HW123990   2.051   1.468   3.291
 7697SOL    HW223991   2.117   1.606   3.236
 7698SOL     OW23992   6.839   3.023   4.626
 7698SOL    HW123993   6.928   3.057   4.594
 7698SOL    HW223994   6.801   3.088   4.692
 7699SOL     OW23995   2.153   5.844   6.960
 7699SOL    HW123996   2.207   5.783   6.902
 7699SOL    HW223997   2.098   5.789   7.023
 7700SOL     OW23998   4.541   6.865   5.233
 7700SOL    HW123999   4.636   6.868   5.201
 7700SOL    HW224000   4.536   6.903   5.325
 7701SOL     OW24001   6.343   0.990   5.934
 7701SOL    HW124002   6.299   1.067   5.887
 7701SOL    HW224003   6.293   0.971   6.019
 7702SOL     OW24004   3.481   6.403   5.965
 7702SOL    HW124005   3.457   6.319   6.015
 7702SOL    HW224006   3.456   6.483   6.021
 7703SOL     OW24007   6.456   1.658   5.430
 7703SOL    HW124008   6.402   1.580   5.462
 7703SOL    HW224009   6.506   1.698   5.507
 7704SOL     OW24010   4.198   4.959   6.242
 7704SOL    HW124011   4.185   4.975   6.340
 7704SOL    HW224012   4.172   4.866   6.219
 7705SOL     OW24013   3.477   4.819   5.218
 7705SOL    HW124014   3.429   4.853   5.137
 7705SOL    HW224015   3.527   4.894   5.261
 7706SOL     OW24016   6.093   0.663   5.489
 7706SOL    HW124017   6.139   0.750   5.505
 7706SOL    HW224018   6.162   0.592   5.473
 7707SOL     OW24019   0.237   5.524   6.348
 7707SOL    HW124020   0.224   5.468   6.266
 7707SOL    HW224021   0.245   5.464   6.428
 7708SOL     OW24022   5.087   6.119   5.059
 7708SOL    HW124023   5.105   6.192   4.993
 7708SOL    HW224024   4.989   6.099   5.061
 7709SOL     OW24025   4.578   2.556   2.201
 7709SOL    HW124026   4.497   2.499   2.216
 7709SOL    HW224027   4.657   2.498   2.180
 7710SOL     OW24028   2.679   6.894   0.654
 7710SOL    HW124029   2.751   6.942   0.603
 7710SOL    HW224030   2.716   6.858   0.739
 7711SOL     OW24031   6.001   6.416   5.617
 7711SOL    HW124032   6.074   6.482   5.597
 7711SOL    HW224033   6.042   6.329   5.646
 7712SOL     OW24034   6.316   5.356   1.407
 7712SOL    HW124035   6.400   5.332   1.360
 7712SOL    HW224036   6.238   5.348   1.345
 7713SOL     OW24037   1.936   4.040   0.524
 7713SOL    HW124038   1.928   4.112   0.593
 7713SOL    HW224039   2.020   3.988   0.539
 7714SOL     OW24040   6.458   4.450   4.115
 7714SOL    HW124041   6.487   4.504   4.194
 7714SOL    HW224042   6.376   4.490   4.075
 7715SOL     OW24043   4.726   1.011   1.196
 7715SOL    HW124044   4.803   1.055   1.241
 7715SOL    HW224045   4.696   1.067   1.119
 7716SOL     OW24046   4.620   2.657   2.461
 7716SOL    HW124047   4.608   2.638   2.363
 7716SOL    HW224048   4.563   2.594   2.514
 7717SOL     OW24049   2.694   1.419   4.748
 7717SOL    HW124050   2.720   1.343   4.690
 7717SOL    HW224051   2.712   1.396   4.844
 7718SOL     OW24052   1.877   1.659   3.008
 7718SOL    HW124053   1.802   1.608   3.050
 7718SOL    HW224054   1.865   1.660   2.909
 7719SOL     OW24055   7.003   3.006   4.262
 7719SOL    HW124056   6.979   2.915   4.296
 7719SOL    HW224057   0.067   3.004   4.219
 7720SOL     OW24058   6.157   6.333   0.670
 7720SOL    HW124059   6.153   6.249   0.616
 7720SOL    HW224060   6.069   6.381   0.663
 7721SOL     OW24061   1.989   4.121   2.796
 7721SOL    HW124062   2.001   4.206   2.745
 7721SOL    HW224063   2.078   4.076   2.808
 7722SOL     OW24064   6.644   5.390   3.133
 7722SOL    HW124065   6.659   5.313   3.070
 7722SOL    HW224066   6.599   5.465   3.084
 7723SOL     OW24067   6.985   3.368   0.459
 7723SOL    HW124068   6.919   3.438   0.487
 7723SOL    HW224069   6.939   3.302   0.400
 7724SOL     OW24070   1.686   4.396   1.762
 7724SOL    HW124071   1.775   4.438   1.746
 7724SOL    HW224072   1.694   4.297   1.750
 7725SOL     OW24073   5.249   2.626   3.182
 7725SOL    HW124074   5.182   2.578   3.125
 7725SOL    HW224075   5.321   2.562   3.208
 7726SOL     OW24076   0.172   4.595   3.437
 7726SOL    HW124077   0.149   4.518   3.378
 7726SOL    HW224078   0.271   4.599   3.451
 7727SOL     OW24079   6.001   2.187   4.007
 7727SOL    HW124080   6.023   2.274   4.052
 7727SOL    HW224081   6.081   2.154   3.957
 7728SOL     OW24082   1.521   3.244   2.779
 7728SOL    HW124083   1.597   3.260   2.717
 7728SOL    HW224084   1.436   3.280   2.738
 7729SOL     OW24085   5.730   2.407   1.093
 7729SOL    HW124086   5.702   2.464   1.170
 7729SOL    HW224087   5.708   2.453   1.007
 7730SOL     OW24088   5.667   6.228   2.970
 7730SOL    HW124089   5.579   6.182   2.960
 7730SOL    HW224090   5.705   6.209   3.061
 7731SOL     OW24091   6.313   1.127   0.377
 7731SOL    HW124092   6.290   1.036   0.344
 7731SOL    HW224093   6.290   1.194   0.306
 7732SOL     OW24094   5.021   5.848   0.567
 7732SOL    HW124095   5.065   5.894   0.644
 7732SOL    HW224096   5.026   5.906   0.486
 7733SOL     OW24097   3.970   6.869   1.192
 7733SOL    HW124098   4.056   6.832   1.228
 7733SOL    HW224099   3.976   6.969   1.186
 7734SOL     OW24100   1.773   3.255   3.274
 7734SOL    HW124101   1.805   3.178   3.219
 7734SOL    HW224102   1.788   3.340   3.224
 7735SOL     OW24103   4.699   4.688   6.596
 7735SOL    HW124104   4.705   4.689   6.696
 7735SOL    HW224105   4.739   4.773   6.560
 7736SOL     OW24106   5.266   4.656   0.581
 7736SOL    HW124107   5.345   4.714   0.561
 7736SOL    HW224108   5.195   4.710   0.626
 7737SOL     OW24109   4.830   2.093   1.140
 7737SOL    HW124110   4.910   2.047   1.101
 7737SOL    HW224111   4.832   2.189   1.113
 7738SOL     OW24112   2.300   6.148   0.832
 7738SOL    HW124113   2.297   6.134   0.733
 7738SOL    HW224114   2.390   6.185   0.857
 7739SOL     OW24115   0.910   2.556   0.269
 7739SOL    HW124116   0.998   2.583   0.310
 7739SOL    HW224117   0.853   2.512   0.338
 7740SOL     OW24118   6.916   6.851   2.609
 7740SOL    HW124119   6.894   6.789   2.684
 7740SOL    HW224120   6.896   6.945   2.637
 7741SOL     OW24121   1.681   5.353   4.190
 7741SOL    HW124122   1.635   5.438   4.215
 7741SOL    HW224123   1.766   5.373   4.143
 7742SOL     OW24124   6.050   2.356   2.998
 7742SOL    HW124125   6.036   2.394   3.089
 7742SOL    HW224126   5.973   2.379   2.939
 7743SOL     OW24127   4.364   3.308   5.787
 7743SOL    HW124128   4.355   3.278   5.692
 7743SOL    HW224129   4.311   3.246   5.846
 7744SOL     OW24130   6.934   6.303   4.078
 7744SOL    HW124131   6.865   6.271   4.012
 7744SOL    HW224132   7.023   6.306   4.034
 7745SOL     OW24133   3.930   2.514   6.096
 7745SOL    HW124134   3.904   2.610   6.090
 7745SOL    HW224135   3.878   2.461   6.028
 7746SOL     OW24136   1.680   0.246   0.539
 7746SOL    HW124137   1.714   0.153   0.527
 7746SOL    HW224138   1.600   0.260   0.482
 7747SOL     OW24139   4.926   6.563   1.238
 7747SOL    HW124140   4.868   6.520   1.169
 7747SOL    HW224141   4.870   6.619   1.299
 7748SOL     OW24142   2.973   3.613   6.165
 7748SOL    HW124143   2.884   3.582   6.199
 7748SOL    HW224144   3.021   3.663   6.238
 7749SOL     OW24145   4.817   3.132   5.655
 7749SOL    HW124146   4.723   3.142   5.623
 7749SOL    HW224147   4.873   3.091   5.583
 7750SOL     OW24148   0.624   6.455   1.342
 7750SOL    HW124149   0.674   6.386   1.396
 7750SOL    HW224150   0.578   6.518   1.404
 7751SOL     OW24151   0.788   1.753   2.123
 7751SOL    HW124152   0.775   1.840   2.171
 7751SOL    HW224153   0.698   1.714   2.101
 7752SOL     OW24154   5.314   0.684   4.560
 7752SOL    HW124155   5.307   0.598   4.610
 7752SOL    HW224156   5.305   0.666   4.462
 7753SOL     OW24157   1.941   1.375   4.809
 7753SOL    HW124158   1.906   1.435   4.881
 7753SOL    HW224159   1.932   1.421   4.721
 7754SOL     OW24160   3.884   5.947   1.554
 7754SOL    HW124161   3.887   5.896   1.468
 7754SOL    HW224162   3.789   5.973   1.573
 7755SOL     OW24163   2.291   4.346   6.620
 7755SOL    HW124164   2.376   4.398   6.612
 7755SOL    HW224165   2.310   4.249   6.609
 7756SOL     OW24166   2.258   5.782   1.520
 7756SOL    HW124167   2.270   5.881   1.527
 7756SOL    HW224168   2.162   5.759   1.532
 7757SOL     OW24169   0.237   4.661   2.537
 7757SOL    HW124170   0.274   4.748   2.569
 7757SOL    HW224171   0.149   4.644   2.579
 7758SOL     OW24172   1.418   1.055   5.706
 7758SOL    HW124173   1.493   1.003   5.666
 7758SOL    HW224174   1.452   1.141   5.742
 7759SOL     OW24175   3.065   2.506   6.206
 7759SOL    HW124176   2.972   2.471   6.205
 7759SOL    HW224177   3.110   2.481   6.120
 7760SOL     OW24178   4.522   2.256   1.492
 7760SOL    HW124179   4.547   2.185   1.426
 7760SOL    HW224180   4.437   2.232   1.538
 7761SOL     OW24181   4.992   5.823   4.471
 7761SOL    HW124182   5.076   5.877   4.475
 7761SOL    HW224183   4.966   5.794   4.563
 7762SOL     OW24184   0.107   0.472   3.798
 7762SOL    HW124185   0.089   0.423   3.713
 7762SOL    HW224186   0.028   0.529   3.821
 7763SOL     OW24187   2.685   0.497   4.990
 7763SOL    HW124188   2.606   0.503   4.928
 7763SOL    HW224189   2.769   0.507   4.937
 7764SOL     OW24190   3.274   3.851   5.594
 7764SOL    HW124191   3.313   3.930   5.640
 7764SOL    HW224192   3.327   3.769   5.618
 7765SOL     OW24193   6.884   3.248   4.282
 7765SOL    HW124194   6.963   3.298   4.316
 7765SOL    HW224195   6.914   3.164   4.237
 7766SOL     OW24196   0.861   4.753   0.518
 7766SOL    HW124197   0.891   4.797   0.602
 7766SOL    HW224198   0.762   4.736   0.522
 7767SOL     OW24199   2.899   0.519   3.017
 7767SOL    HW124200   2.974   0.458   2.994
 7767SOL    HW224201   2.825   0.508   2.951
 7768SOL     OW24202   4.289   4.716   3.009
 7768SOL    HW124203   4.236   4.681   2.932
 7768SOL    HW224204   4.384   4.684   3.001
 7769SOL     OW24205   3.439   2.467   5.364
 7769SOL    HW124206   3.363   2.441   5.305
 7769SOL    HW224207   3.520   2.414   5.338
 7770SOL     OW24208   1.169   3.516   4.468
 7770SOL    HW124209   1.101   3.468   4.412
 7770SOL    HW224210   1.239   3.554   4.408
 7771SOL     OW24211   3.152   2.768   6.271
 7771SOL    HW124212   3.132   2.670   6.277
 7771SOL    HW224213   3.180   2.790   6.178
 7772SOL     OW24214   4.937   1.086   1.346
 7772SOL    HW124215   4.883   1.068   1.428
 7772SOL    HW224216   4.988   1.004   1.320
 7773SOL     OW24217   2.969   6.022   0.213
 7773SOL    HW124218   2.999   5.949   0.151
 7773SOL    HW224219   2.959   5.986   0.305
 7774SOL     OW24220   4.620   1.357   2.783
 7774SOL    HW124221   4.651   1.270   2.821
 7774SOL    HW224222   4.696   1.403   2.737
 7775SOL     OW24223   3.072   0.553   0.309
 7775SOL    HW124224   2.972   0.554   0.309
 7775SOL    HW224225   3.105   0.480   0.249
 7776SOL     OW24226   0.802   6.479   5.562
 7776SOL    HW124227   0.884   6.522   5.600
 7776SOL    HW224228   0.721   6.531   5.589
 7777SOL     OW24229   5.228   5.281   3.466
 7777SOL    HW124230   5.243   5.252   3.560
 7777SOL    HW224231   5.129   5.289   3.450
 7778SOL     OW24232   5.955   4.131   2.873
 7778SOL    HW124233   6.029   4.077   2.913
 7778SOL    HW224234   5.941   4.213   2.928
 7779SOL     OW24235   3.057   5.955   2.026
 7779SOL    HW124236   3.087   6.029   2.086
 7779SOL    HW224237   3.070   5.867   2.072
 7780SOL     OW24238   6.698   6.032   5.437
 7780SOL    HW124239   6.751   6.015   5.354
 7780SOL    HW224240   6.753   6.006   5.517
 7781SOL     OW24241   1.396   2.900   0.571
 7781SOL    HW124242   1.359   2.810   0.594
 7781SOL    HW224243   1.491   2.905   0.600
 7782SOL     OW24244   6.394   4.869   3.553
 7782SOL    HW124245   6.381   4.776   3.517
 7782SOL    HW224246   6.391   4.934   3.478
 7783SOL     OW24247   1.279   0.430   5.264
 7783SOL    HW124248   1.203   0.374   5.298
 7783SOL    HW224249   1.249   0.524   5.251
 7784SOL     OW24250   2.501   2.269   2.178
 7784SOL    HW124251   2.595   2.245   2.157
 7784SOL    HW224252   2.462   2.319   2.100
 7785SOL     OW24253   0.869   6.405   2.234
 7785SOL    HW124254   0.941   6.431   2.298
 7785SOL    HW224255   0.906   6.342   2.166
 7786SOL     OW24256   4.477   0.204   6.205
 7786SOL    HW124257   4.470   0.181   6.302
 7786SOL    HW224258   4.482   0.303   6.194
 7787SOL     OW24259   2.848   2.744   1.272
 7787SOL    HW124260   2.765   2.731   1.325
 7787SOL    HW224261   2.898   2.823   1.308
 7788SOL     OW24262   0.882   4.449   1.438
 7788SOL    HW124263   0.903   4.514   1.511
 7788SOL    HW224264   0.857   4.361   1.478
 7789SOL     OW24265   3.304   0.838   6.554
 7789SOL    HW124266   3.205   0.837   6.540
 7789SOL    HW224267   3.338   0.932   6.550
 7790SOL     OW24268   5.364   4.819   1.898
 7790SOL    HW124269   5.374   4.891   1.829
 7790SOL    HW224270   5.268   4.811   1.925
 7791SOL     OW24271   2.091   5.297   1.950
 7791SOL    HW124272   2.062   5.287   2.045
 7791SOL    HW224273   2.173   5.242   1.935
 7792SOL     OW24274   1.145   1.862   2.352
 7792SOL    HW124275   1.109   1.861   2.259
 7792SOL    HW224276   1.101   1.935   2.404
 7793SOL     OW24277   4.816   1.791   0.239
 7793SOL    HW124278   4.757   1.800   0.319
 7793SOL    HW224279   4.763   1.814   0.157
 7794SOL     OW24280   0.794   5.431   2.826
 7794SOL    HW124281   0.826   5.347   2.870
 7794SOL    HW224282   0.833   5.510   2.874
 7795SOL     OW24283   3.093   5.234   5.881
 7795SOL    HW124284   3.133   5.209   5.969
 7795SOL    HW224285   3.159   5.217   5.808
 7796SOL     OW24286   3.579   3.224   6.409
 7796SOL    HW124287   3.524   3.297   6.451
 7796SOL    HW224288   3.519   3.150   6.380
 7797SOL     OW24289   0.945   5.864   3.425
 7797SOL    HW124290   1.036   5.888   3.459
 7797SOL    HW224291   0.896   5.813   3.495
 7798SOL     OW24292   0.621   2.171   0.882
 7798SOL    HW124293   0.690   2.118   0.931
 7798SOL    HW224294   0.567   2.110   0.823
 7799SOL     OW24295   2.708   6.247   3.541
 7799SOL    HW124296   2.687   6.151   3.562
 7799SOL    HW224297   2.623   6.295   3.519
 7800SOL     OW24298   6.891   6.316   1.246
 7800SOL    HW124299   6.983   6.333   1.281
 7800SOL    HW224300   6.895   6.249   1.172
 7801SOL     OW24301   2.079   2.553   2.589
 7801SOL    HW124302   2.114   2.513   2.504
 7801SOL    HW224303   2.153   2.601   2.636
 7802SOL     OW24304   6.950   3.899   5.565
 7802SOL    HW124305   6.967   3.997   5.572
 7802SOL    HW224306   6.852   3.883   5.558
 7803SOL     OW24307   4.811   2.230   5.370
 7803SOL    HW124308   4.814   2.330   5.371
 7803SOL    HW224309   4.746   2.199   5.300
 7804SOL     OW24310   2.670   2.001   5.056
 7804SOL    HW124311   2.603   2.059   5.009
 7804SOL    HW224312   2.760   2.015   5.015
 7805SOL     OW24313   5.279   2.823   1.176
 7805SOL    HW124314   5.296   2.792   1.269
 7805SOL    HW224315   5.332   2.907   1.159
 7806SOL     OW24316   6.609   2.444   5.814
 7806SOL    HW124317   6.601   2.522   5.877
 7806SOL    HW224318   6.579   2.361   5.861
 7807SOL     OW24319   2.095   5.245   5.979
 7807SOL    HW124320   2.162   5.201   5.920
 7807SOL    HW224321   2.114   5.343   5.984
 7808SOL     OW24322   5.485   4.370   2.654
 7808SOL    HW124323   5.453   4.397   2.745
 7808SOL    HW224324   5.511   4.452   2.602
 7809SOL     OW24325   4.967   5.351   3.384
 7809SOL    HW124326   4.968   5.251   3.391
 7809SOL    HW224327   4.883   5.386   3.425
 7810SOL     OW24328   4.175   6.103   5.343
 7810SOL    HW124329   4.119   6.023   5.367
 7810SOL    HW224330   4.260   6.100   5.396
 7811SOL     OW24331   1.045   5.738   2.404
 7811SOL    HW124332   1.096   5.710   2.485
 7811SOL    HW224333   1.008   5.830   2.417
 7812SOL     OW24334   2.424   3.046   5.641
 7812SOL    HW124335   2.392   3.020   5.732
 7812SOL    HW224336   2.435   3.145   5.636
 7813SOL     OW24337   5.856   1.465   1.205
 7813SOL    HW124338   5.930   1.451   1.271
 7813SOL    HW224339   5.828   1.561   1.206
 7814SOL     OW24340   6.865   2.848   2.098
 7814SOL    HW124341   6.774   2.888   2.085
 7814SOL    HW224342   6.928   2.885   2.030
 7815SOL     OW24343   6.265   2.797   5.147
 7815SOL    HW124344   6.354   2.836   5.126
 7815SOL    HW224345   6.276   2.710   5.194
 7816SOL     OW24346   0.312   1.451   5.146
 7816SOL    HW124347   0.263   1.461   5.232
 7816SOL    HW224348   0.352   1.539   5.120
 7817SOL     OW24349   2.907   2.815   6.393
 7817SOL    HW124350   2.915   2.912   6.416
 7817SOL    HW224351   2.995   2.782   6.358
 7818SOL     OW24352   5.746   1.209   2.402
 7818SOL    HW124353   5.653   1.220   2.367
 7818SOL    HW224354   5.768   1.112   2.407
 7819SOL     OW24355   1.037   3.690   4.109
 7819SOL    HW124356   1.136   3.698   4.097
 7819SOL    HW224357   1.013   3.597   4.137
 7820SOL     OW24358   1.487   0.491   5.842
 7820SOL    HW124359   1.569   0.499   5.899
 7820SOL    HW224360   1.509   0.517   5.748
 7821SOL     OW24361   6.300   5.615   6.827
 7821SOL    HW124362   6.369   5.547   6.803
 7821SOL    HW224363   6.340   5.682   6.890
 7822SOL     OW24364   1.426   1.108   4.682
 7822SOL    HW124365   1.384   1.175   4.743
 7822SOL    HW224366   1.432   1.146   4.590
 7823SOL     OW24367   1.530   4.125   6.971
 7823SOL    HW124368   1.462   4.193   7.000
 7823SOL    HW224369   1.571   4.083   0.026
 7824SOL     OW24370   4.884   2.427   2.393
 7824SOL    HW124371   4.843   2.424   2.302
 7824SOL    HW224372   4.811   2.437   2.462
 7825SOL     OW24373   3.195   2.988   1.315
 7825SOL    HW124374   3.227   3.049   1.387
 7825SOL    HW224375   3.237   2.898   1.326
 7826SOL     OW24376   6.590   0.948   0.584
 7826SOL    HW124377   6.536   1.028   0.613
 7826SOL    HW224378   6.529   0.881   0.541
 7827SOL     OW24379   5.148   5.292   1.448
 7827SOL    HW124380   5.104   5.208   1.417
 7827SOL    HW224381   5.113   5.316   1.539
 7828SOL     OW24382   0.397   6.430   0.982
 7828SOL    HW124383   0.402   6.400   0.887
 7828SOL    HW224384   0.450   6.367   1.040
 7829SOL     OW24385   3.353   2.785   1.373
 7829SOL    HW124386   3.350   2.690   1.402
 7829SOL    HW224387   3.427   2.832   1.421
 7830SOL     OW24388   6.013   3.319   0.233
 7830SOL    HW124389   6.048   3.266   0.155
 7830SOL    HW224390   6.039   3.415   0.223
 7831SOL     OW24391   1.408   3.276   0.642
 7831SOL    HW124392   1.408   3.231   0.552
 7831SOL    HW224393   1.416   3.206   0.713
 7832SOL     OW24394   2.458   2.294   5.290
 7832SOL    HW124395   2.366   2.318   5.322
 7832SOL    HW224396   2.524   2.307   5.365
 7833SOL     OW24397   0.747   6.907   0.339
 7833SOL    HW124398   0.708   6.817   0.358
 7833SOL    HW224399   0.715   6.939   0.250
 7834SOL     OW24400   1.004   0.980   1.340
 7834SOL    HW124401   0.947   1.060   1.319
 7834SOL    HW224402   0.952   0.917   1.398
 7835SOL     OW24403   2.142   3.017   4.861
 7835SOL    HW124404   2.073   3.087   4.878
 7835SOL    HW224405   2.210   3.019   4.935
 7836SOL     OW24406   3.042   6.464   6.814
 7836SOL    HW124407   2.956   6.488   6.858
 7836SOL    HW224408   3.119   6.496   6.870
 7837SOL     OW24409   6.172   6.401   2.836
 7837SOL    HW124410   6.109   6.329   2.805
 7837SOL    HW224411   6.234   6.363   2.904
 7838SOL     OW24412   4.313   6.563   4.985
 7838SOL    HW124413   4.308   6.628   4.910
 7838SOL    HW224414   4.325   6.471   4.949
 7839SOL     OW24415   6.064   4.853   4.749
 7839SOL    HW124416   6.125   4.800   4.809
 7839SOL    HW224417   5.999   4.904   4.805
 7840SOL     OW24418   5.122   2.720   4.061
 7840SOL    HW124419   5.094   2.711   3.965
 7840SOL    HW224420   5.060   2.667   4.118
 7841SOL     OW24421   0.141   1.670   6.321
 7841SOL    HW124422   0.167   1.633   6.411
 7841SOL    HW224423   0.160   1.603   6.250
 7842SOL     OW24424   2.083   1.601   2.792
 7842SOL    HW124425   2.174   1.562   2.803
 7842SOL    HW224426   2.014   1.529   2.804
 7843SOL     OW24427   5.731   3.806   1.269
 7843SOL    HW124428   5.798   3.863   1.222
 7843SOL    HW224429   5.656   3.863   1.302
 7844SOL     OW24430   3.957   0.772   3.384
 7844SOL    HW124431   3.908   0.739   3.303
 7844SOL    HW224432   4.029   0.707   3.408
 7845SOL     OW24433   6.531   1.387   4.334
 7845SOL    HW124434   6.588   1.346   4.262
 7845SOL    HW224435   6.537   1.487   4.327
 7846SOL     OW24436   2.522   0.363   1.803
 7846SOL    HW124437   2.499   0.378   1.707
 7846SOL    HW224438   2.591   0.291   1.809
 7847SOL     OW24439   6.566   0.227   0.390
 7847SOL    HW124440   6.577   0.269   0.480
 7847SOL    HW224441   6.612   0.282   0.321
 7848SOL     OW24442   4.317   3.733   1.642
 7848SOL    HW124443   4.250   3.806   1.635
 7848SOL    HW224444   4.410   3.771   1.640
 7849SOL     OW24445   5.623   3.000   4.725
 7849SOL    HW124446   5.635   3.049   4.811
 7849SOL    HW224447   5.676   3.045   4.653
 7850SOL     OW24448   0.226   1.037   5.522
 7850SOL    HW124449   0.148   1.080   5.567
 7850SOL    HW224450   0.206   1.026   5.424
 7851SOL     OW24451   5.765   0.292   0.431
 7851SOL    HW124452   5.756   0.237   0.348
 7851SOL    HW224453   5.834   0.251   0.490
 7852SOL     OW24454   2.848   6.320   0.113
 7852SOL    HW124455   2.881   6.369   0.194
 7852SOL    HW224456   2.923   6.270   0.072
 7853SOL     OW24457   2.905   2.763   0.424
 7853SOL    HW124458   2.996   2.751   0.464
 7853SOL    HW224459   2.890   2.691   0.356
 7854SOL     OW24460   3.583   3.567   2.245
 7854SOL    HW124461   3.667   3.535   2.289
 7854SOL    HW224462   3.607   3.625   2.167
 7855SOL     OW24463   4.633   5.439   6.890
 7855SOL    HW124464   4.650   5.538   6.892
 7855SOL    HW224465   4.649   5.400   6.980
 7856SOL     OW24466   5.547   3.465   5.295
 7856SOL    HW124467   5.607   3.386   5.304
 7856SOL    HW224468   5.452   3.434   5.288
 7857SOL     OW24469   5.964   1.766   5.813
 7857SOL    HW124470   5.916   1.729   5.733
 7857SOL    HW224471   5.941   1.862   5.825
 7858SOL     OW24472   5.887   4.082   3.225
 7858SOL    HW124473   5.852   4.058   3.315
 7858SOL    HW224474   5.828   4.042   3.154
 7859SOL     OW24475   0.879   4.658   5.689
 7859SOL    HW124476   0.840   4.705   5.768
 7859SOL    HW224477   0.927   4.723   5.631
 7860SOL     OW24478   3.829   6.999   1.547
 7860SOL    HW124479   3.756   6.990   1.479
 7860SOL    HW224480   3.871   6.909   1.563
 7861SOL     OW24481   4.228   5.066   1.007
 7861SOL    HW124482   4.155   5.076   1.075
 7861SOL    HW224483   4.189   5.031   0.921
 7862SOL     OW24484   2.879   4.077   1.727
 7862SOL    HW124485   2.924   4.166   1.727
 7862SOL    HW224486   2.780   4.090   1.720
 7863SOL     OW24487   6.334   6.040   1.884
 7863SOL    HW124488   6.388   6.123   1.871
 7863SOL    HW224489   6.295   6.011   1.796
 7864SOL     OW24490   0.590   5.481   4.520
 7864SOL    HW124491   0.514   5.541   4.491
 7864SOL    HW224492   0.568   5.386   4.497
 7865SOL     OW24493   3.455   6.394   3.275
 7865SOL    HW124494   3.508   6.466   3.320
 7865SOL    HW224495   3.389   6.435   3.211
 7866SOL     OW24496   2.584   1.880   3.433
 7866SOL    HW124497   2.676   1.914   3.454
 7866SOL    HW224498   2.550   1.925   3.351
 7867SOL     OW24499   6.523   5.118   2.082
 7867SOL    HW124500   6.500   5.070   2.166
 7867SOL    HW224501   6.585   5.061   2.027
 7868SOL     OW24502   5.412   6.331   1.143
 7868SOL    HW124503   5.439   6.254   1.201
 7868SOL    HW224504   5.417   6.416   1.195
 7869SOL     OW24505   0.314   2.842   1.780
 7869SOL    HW124506   0.287   2.749   1.804
 7869SOL    HW224507   0.301   2.856   1.681
 7870SOL     OW24508   6.595   5.304   3.696
 7870SOL    HW124509   6.588   5.205   3.691
 7870SOL    HW224510   6.504   5.343   3.714
 7871SOL     OW24511   5.929   2.901   3.208
 7871SOL    HW124512   6.017   2.899   3.255
 7871SOL    HW224513   5.860   2.943   3.267
 7872SOL     OW24514   6.951   3.194   2.885
 7872SOL    HW124515   6.917   3.099   2.883
 7872SOL    HW224516   6.874   3.257   2.889
 7873SOL     OW24517   0.242   6.056   5.945
 7873SOL    HW124518   0.235   6.148   5.906
 7873SOL    HW224519   0.302   6.000   5.888
 7874SOL     OW24520   5.878   1.880   0.256
 7874SOL    HW124521   5.945   1.954   0.251
 7874SOL    HW224522   5.790   1.912   0.220
 7875SOL     OW24523   4.658   3.787   6.184
 7875SOL    HW124524   4.647   3.880   6.148
 7875SOL    HW224525   4.608   3.724   6.125
 7876SOL     OW24526   6.706   0.097   3.942
 7876SOL    HW124527   6.682   0.002   3.962
 7876SOL    HW224528   6.771   0.130   4.011
 7877SOL     OW24529   6.770   2.605   2.963
 7877SOL    HW124530   6.702   2.679   2.960
 7877SOL    HW224531   6.830   2.617   3.041
 7878SOL     OW24532   4.740   4.270   2.385
 7878SOL    HW124533   4.692   4.182   2.380
 7878SOL    HW224534   4.836   4.257   2.360
 7879SOL     OW24535   5.062   6.870   3.730
 7879SOL    HW124536   4.975   6.855   3.682
 7879SOL    HW224537   5.067   6.966   3.759
 7880SOL     OW24538   0.438   6.624   6.494
 7880SOL    HW124539   0.435   6.543   6.434
 7880SOL    HW224540   0.479   6.700   6.444
 7881SOL     OW24541   0.271   3.826   5.157
 7881SOL    HW124542   0.209   3.760   5.116
 7881SOL    HW224543   0.231   3.862   5.242
 7882SOL     OW24544   0.420   2.961   2.926
 7882SOL    HW124545   0.341   2.905   2.903
 7882SOL    HW224546   0.417   3.046   2.872
 7883SOL     OW24547   2.376   1.136   2.949
 7883SOL    HW124548   2.330   1.188   3.022
 7883SOL    HW224549   2.312   1.071   2.909
 7884SOL     OW24550   1.598   4.383   3.683
 7884SOL    HW124551   1.566   4.422   3.770
 7884SOL    HW224552   1.644   4.296   3.700
 7885SOL     OW24553   5.827   5.702   3.131
 7885SOL    HW124554   5.860   5.623   3.182
 7885SOL    HW224555   5.899   5.771   3.126
 7886SOL     OW24556   4.830   3.027   1.688
 7886SOL    HW124557   4.829   3.125   1.669
 7886SOL    HW224558   4.801   3.011   1.783
 7887SOL     OW24559   4.199   3.399   0.558
 7887SOL    HW124560   4.192   3.499   0.555
 7887SOL    HW224561   4.110   3.361   0.582
 7888SOL     OW24562   5.879   1.407   4.145
 7888SOL    HW124563   5.939   1.394   4.225
 7888SOL    HW224564   5.887   1.501   4.112
 7889SOL     OW24565   5.600   5.016   0.421
 7889SOL    HW124566   5.566   4.943   0.480
 7889SOL    HW224567   5.693   5.042   0.450
 7890SOL     OW24568   1.290   2.938   4.089
 7890SOL    HW124569   1.237   2.974   4.166
 7890SOL    HW224570   1.315   3.013   4.028
 7891SOL     OW24571   0.167   2.023   4.116
 7891SOL    HW124572   0.148   1.948   4.052
 7891SOL    HW224573   0.253   2.067   4.091
 7892SOL     OW24574   1.401   3.496   5.940
 7892SOL    HW124575   1.429   3.416   5.993
 7892SOL    HW224576   1.460   3.574   5.964
 7893SOL     OW24577   6.083   0.562   2.210
 7893SOL    HW124578   6.152   0.618   2.164
 7893SOL    HW224579   6.077   0.591   2.306
 7894SOL     OW24580   2.453   1.141   5.946
 7894SOL    HW124581   2.543   1.109   5.914
 7894SOL    HW224582   2.461   1.171   6.041
 7895SOL     OW24583   3.772   6.187   3.455
 7895SOL    HW124584   3.727   6.220   3.372
 7895SOL    HW224585   3.733   6.099   3.481
 7896SOL     OW24586   4.135   2.593   1.618
 7896SOL    HW124587   4.199   2.585   1.542
 7896SOL    HW224588   4.106   2.688   1.628
 7897SOL     OW24589   3.999   4.158   6.663
 7897SOL    HW124590   3.918   4.115   6.703
 7897SOL    HW224591   4.071   4.167   6.732
 7898SOL     OW24592   4.981   0.254   4.217
 7898SOL    HW124593   4.967   0.292   4.125
 7898SOL    HW224594   4.901   0.201   4.244
 7899SOL     OW24595   5.080   4.783   1.368
 7899SOL    HW124596   5.175   4.782   1.400
 7899SOL    HW224597   5.020   4.757   1.444
 7900SOL     OW24598   0.560   3.674   0.726
 7900SOL    HW124599   0.478   3.626   0.756
 7900SOL    HW224600   0.626   3.607   0.690
 7901SOL     OW24601   5.283   1.110   6.030
 7901SOL    HW124602   5.188   1.140   6.037
 7901SOL    HW224603   5.307   1.095   5.934
 7902SOL     OW24604   0.637   6.212   2.557
 7902SOL    HW124605   0.647   6.149   2.634
 7902SOL    HW224606   0.589   6.166   2.483
 7903SOL     OW24607   2.276   1.515   4.779
 7903SOL    HW124608   2.198   1.570   4.807
 7903SOL    HW224609   2.277   1.508   4.679
 7904SOL     OW24610   6.284   0.725   2.413
 7904SOL    HW124611   6.206   0.708   2.473
 7904SOL    HW224612   6.369   0.721   2.466
 7905SOL     OW24613   5.958   0.800   0.204
 7905SOL    HW124614   5.919   0.851   0.127
 7905SOL    HW224615   5.965   0.704   0.180
 7906SOL     OW24616   1.380   5.202   1.002
 7906SOL    HW124617   1.342   5.127   1.057
 7906SOL    HW224618   1.335   5.203   0.913
 7907SOL     OW24619   6.092   0.106   3.065
 7907SOL    HW124620   6.045   0.019   3.049
 7907SOL    HW224621   6.156   0.096   3.141
 7908SOL     OW24622   0.735   0.704   6.617
 7908SOL    HW124623   0.681   0.666   6.691
 7908SOL    HW224624   0.675   0.753   6.553
 7909SOL     OW24625   5.733   3.853   2.341
 7909SOL    HW124626   5.752   3.865   2.438
 7909SOL    HW224627   5.642   3.812   2.330
 7910SOL     OW24628   2.003   3.765   0.847
 7910SOL    HW124629   2.050   3.688   0.890
 7910SOL    HW224630   1.908   3.740   0.828
 7911SOL     OW24631   1.095   3.865   0.697
 7911SOL    HW124632   1.028   3.792   0.685
 7911SOL    HW224633   1.180   3.841   0.651
 7912SOL     OW24634   5.449   5.684   0.349
 7912SOL    HW124635   5.438   5.613   0.279
 7912SOL    HW224636   5.366   5.688   0.405
 7913SOL     OW24637   0.329   3.523   0.741
 7913SOL    HW124638   0.284   3.478   0.818
 7913SOL    HW224639   0.260   3.565   0.682
 7914SOL     OW24640   6.213   5.439   5.156
 7914SOL    HW124641   6.243   5.467   5.247
 7914SOL    HW224642   6.215   5.518   5.094
 7915SOL     OW24643   3.593   6.913   2.499
 7915SOL    HW124644   3.640   6.838   2.452
 7915SOL    HW224645   3.658   6.985   2.521
 7916SOL     OW24646   1.280   0.340   4.790
 7916SOL    HW124647   1.233   0.426   4.767
 7916SOL    HW224648   1.358   0.328   4.729
 7917SOL     OW24649   4.011   2.835   6.951
 7917SOL    HW124650   3.998   2.781   0.009
 7917SOL    HW224651   3.958   2.795   6.877
 7918SOL     OW24652   2.110   1.007   4.842
 7918SOL    HW124653   2.073   0.968   4.926
 7918SOL    HW224654   2.145   1.099   4.859
 7919SOL     OW24655   1.144   5.172   2.878
 7919SOL    HW124656   1.175   5.080   2.852
 7919SOL    HW224657   1.151   5.183   2.977
 7920SOL     OW24658   4.556   0.533   1.248
 7920SOL    HW124659   4.560   0.631   1.267
 7920SOL    HW224660   4.521   0.485   1.329
 7921SOL     OW24661   5.303   1.435   1.716
 7921SOL    HW124662   5.347   1.426   1.626
 7921SOL    HW224663   5.210   1.468   1.704
 7922SOL     OW24664   0.683   6.235   0.324
 7922SOL    HW124665   0.697   6.329   0.291
 7922SOL    HW224666   0.730   6.171   0.263
 7923SOL     OW24667   3.726   1.312   6.885
 7923SOL    HW124668   3.706   1.269   6.797
 7923SOL    HW224669   3.669   1.270   6.957
 7924SOL     OW24670   6.102   6.696   1.514
 7924SOL    HW124671   6.152   6.777   1.546
 7924SOL    HW224672   6.165   6.633   1.470
 7925SOL     OW24673   2.567   6.567   0.904
 7925SOL    HW124674   2.508   6.644   0.930
 7925SOL    HW224675   2.662   6.596   0.906
 7926SOL     OW24676   5.564   0.454   6.371
 7926SOL    HW124677   5.475   0.492   6.395
 7926SOL    HW224678   5.565   0.356   6.391
 7927SOL     OW24679   5.029   0.097   2.492
 7927SOL    HW124680   5.041   0.107   2.393
 7927SOL    HW224681   4.941   0.053   2.511
 7928SOL     OW24682   6.571   0.836   3.139
 7928SOL    HW124683   6.514   0.917   3.153
 7928SOL    HW224684   6.629   0.850   3.059
 7929SOL     OW24685   4.338   3.898   5.978
 7929SOL    HW124686   4.311   3.802   5.970
 7929SOL    HW224687   4.322   3.929   6.072
 7930SOL     OW24688   4.005   5.895   5.487
 7930SOL    HW124689   3.951   5.852   5.415
 7930SOL    HW224690   4.056   5.825   5.537
 7931SOL     OW24691   2.736   2.529   0.624
 7931SOL    HW124692   2.743   2.499   0.529
 7931SOL    HW224693   2.643   2.513   0.657
 7932SOL     OW24694   6.998   5.326   1.291
 7932SOL    HW124695   0.010   5.288   1.206
 7932SOL    HW224696   6.985   5.425   1.280
 7933SOL     OW24697   6.461   1.401   5.939
 7933SOL    HW124698   6.425   1.490   5.911
 7933SOL    HW224699   6.559   1.398   5.921
 7934SOL     OW24700   1.438   4.523   1.063
 7934SOL    HW124701   1.484   4.494   0.979
 7934SOL    HW224702   1.500   4.511   1.140
 7935SOL     OW24703   5.753   3.851   2.631
 7935SOL    HW124704   5.707   3.936   2.659
 7935SOL    HW224705   5.807   3.816   2.707
 7936SOL     OW24706   3.554   6.286   4.229
 7936SOL    HW124707   3.640   6.253   4.190
 7936SOL    HW224708   3.507   6.343   4.163
 7937SOL     OW24709   2.534   5.829   5.811
 7937SOL    HW124710   2.619   5.868   5.777
 7937SOL    HW224711   2.457   5.885   5.780
 7938SOL     OW24712   4.484   6.883   4.812
 7938SOL    HW124713   4.574   6.914   4.782
 7938SOL    HW224714   4.413   6.927   4.757
 7939SOL     OW24715   0.576   1.538   4.660
 7939SOL    HW124716   0.614   1.608   4.720
 7939SOL    HW224717   0.502   1.578   4.606
 7940SOL     OW24718   4.871   1.470   2.681
 7940SOL    HW124719   4.958   1.439   2.720
 7940SOL    HW224720   4.888   1.518   2.595
 7941SOL     OW24721   4.192   6.548   2.065
 7941SOL    HW124722   4.139   6.515   1.987
 7941SOL    HW224723   4.264   6.610   2.032
 7942SOL     OW24724   0.665   2.969   1.604
 7942SOL    HW124725   0.591   3.026   1.638
 7942SOL    HW224726   0.751   2.994   1.649
 7943SOL     OW24727   2.668   5.267   6.264
 7943SOL    HW124728   2.700   5.223   6.348
 7943SOL    HW224729   2.729   5.244   6.188
 7944SOL     OW24730   0.681   2.879   1.140
 7944SOL    HW124731   0.609   2.811   1.150
 7944SOL    HW224732   0.703   2.891   1.043
 7945SOL     OW24733   5.800   4.963   2.352
 7945SOL    HW124734   5.815   4.996   2.259
 7945SOL    HW224735   5.746   5.031   2.402
 7946SOL     OW24736   3.903   0.768   5.661
 7946SOL    HW124737   3.971   0.788   5.731
 7946SOL    HW224738   3.946   0.770   5.570
 7947SOL     OW24739   1.375   3.091   5.348
 7947SOL    HW124740   1.350   2.998   5.319
 7947SOL    HW224741   1.462   3.089   5.397
 7948SOL     OW24742   1.540   4.693   2.545
 7948SOL    HW124743   1.540   4.778   2.598
 7948SOL    HW224744   1.489   4.623   2.595
 7949SOL     OW24745   4.435   5.134   6.243
 7949SOL    HW124746   4.404   5.167   6.154
 7949SOL    HW224747   4.373   5.062   6.274
 7950SOL     OW24748   6.171   5.436   5.713
 7950SOL    HW124749   6.133   5.412   5.624
 7950SOL    HW224750   6.271   5.425   5.711
 7951SOL     OW24751   2.955   5.276   2.407
 7951SOL    HW124752   2.900   5.359   2.409
 7951SOL    HW224753   2.901   5.200   2.371
 7952SOL     OW24754   5.583   3.347   0.250
 7952SOL    HW124755   5.662   3.289   0.268
 7952SOL    HW224756   5.602   3.408   0.174
 7953SOL     OW24757   4.039   2.023   0.570
 7953SOL    HW124758   4.133   2.025   0.605
 7953SOL    HW224759   3.989   1.948   0.613
 7954SOL     OW24760   3.831   3.058   6.833
 7954SOL    HW124761   3.929   3.052   6.852
 7954SOL    HW224762   3.795   3.146   6.866
 7955SOL     OW24763   1.515   1.608   6.714
 7955SOL    HW124764   1.471   1.520   6.733
 7955SOL    HW224765   1.596   1.618   6.772
 7956SOL     OW24766   6.647   0.662   1.861
 7956SOL    HW124767   6.607   0.589   1.917
 7956SOL    HW224768   6.737   0.633   1.829
 7957SOL     OW24769   4.758   0.603   5.470
 7957SOL    HW124770   4.715   0.662   5.401
 7957SOL    HW224771   4.813   0.533   5.424
 7958SOL     OW24772   5.693   3.644   6.870
 7958SOL    HW124773   5.687   3.562   6.814
 7958SOL    HW224774   5.698   3.724   6.811
 7959SOL     OW24775   4.966   1.018   6.307
 7959SOL    HW124776   4.948   1.113   6.335
 7959SOL    HW224777   5.050   1.014   6.254
 7960SOL     OW24778   6.597   1.166   6.600
 7960SOL    HW124779   6.610   1.174   6.501
 7960SOL    HW224780   6.654   1.092   6.635
 7961SOL     OW24781   6.470   6.931   6.874
 7961SOL    HW124782   6.428   6.842   6.858
 7961SOL    HW224783   6.405   6.991   6.920
 7962SOL     OW24784   6.622   6.906   5.797
 7962SOL    HW124785   6.614   6.828   5.858
 7962SOL    HW224786   6.590   6.988   5.843
 7963SOL     OW24787   6.280   4.374   4.391
 7963SOL    HW124788   6.306   4.322   4.473
 7963SOL    HW224789   6.335   4.342   4.314
 7964SOL     OW24790   6.625   3.536   1.826
 7964SOL    HW124791   6.647   3.553   1.729
 7964SOL    HW224792   6.536   3.575   1.847
 7965SOL     OW24793   4.459   1.869   6.674
 7965SOL    HW124794   4.517   1.889   6.594
 7965SOL    HW224795   4.374   1.826   6.643
 7966SOL     OW24796   4.097   4.233   5.273
 7966SOL    HW124797   4.006   4.261   5.243
 7966SOL    HW224798   4.166   4.286   5.224
 7967SOL     OW24799   1.684   5.334   1.972
 7967SOL    HW124800   1.679   5.433   1.980
 7967SOL    HW224801   1.709   5.294   2.060
 7968SOL     OW24802   6.613   1.964   4.398
 7968SOL    HW124803   6.657   1.899   4.336
 7968SOL    HW224804   6.608   2.054   4.355
 7969SOL     OW24805   4.570   6.136   0.019
 7969SOL    HW124806   4.641   6.076   7.009
 7969SOL    HW224807   4.612   6.208   0.074
 7970SOL     OW24808   6.410   3.049   2.573
 7970SOL    HW124809   6.505   3.032   2.598
 7970SOL    HW224810   6.375   3.126   2.627
 7971SOL     OW24811   3.471   1.267   1.044
 7971SOL    HW124812   3.487   1.365   1.028
 7971SOL    HW224813   3.542   1.231   1.104
 7972SOL     OW24814   3.855   3.049   2.948
 7972SOL    HW124815   3.855   3.113   3.024
 7972SOL    HW224816   3.810   2.964   2.976
 7973SOL     OW24817   6.143   3.996   3.222
 7973SOL    HW124818   6.062   4.055   3.220
 7973SOL    HW224819   6.187   4.003   3.312
 7974SOL     OW24820   6.138   1.414   5.626
 7974SOL    HW124821   6.157   1.500   5.580
 7974SOL    HW224822   6.073   1.429   5.700
 7975SOL     OW24823   4.945   1.835   0.746
 7975SOL    HW124824   5.032   1.850   0.700
 7975SOL    HW224825   4.959   1.829   0.845
 7976SOL     OW24826   1.549   6.635   6.919
 7976SOL    HW124827   1.536   6.721   6.967
 7976SOL    HW224828   1.618   6.580   6.967
 7977SOL     OW24829   5.760   6.303   3.479
 7977SOL    HW124830   5.795   6.230   3.538
 7977SOL    HW224831   5.711   6.369   3.536
 7978SOL     OW24832   0.364   4.302   1.262
 7978SOL    HW124833   0.286   4.362   1.277
 7978SOL    HW224834   0.448   4.348   1.291
 7979SOL     OW24835   1.929   3.663   4.589
 7979SOL    HW124836   1.933   3.713   4.502
 7979SOL    HW224837   2.002   3.696   4.649
 7980SOL     OW24838   3.487   4.540   5.896
 7980SOL    HW124839   3.447   4.521   5.807
 7980SOL    HW224840   3.530   4.631   5.895
 7981SOL     OW24841   1.711   5.221   3.274
 7981SOL    HW124842   1.688   5.124   3.273
 7981SOL    HW224843   1.726   5.251   3.368
 7982SOL     OW24844   1.386   1.847   6.294
 7982SOL    HW124845   1.322   1.841   6.218
 7982SOL    HW224846   1.388   1.760   6.343
 7983SOL     OW24847   5.186   1.167   0.910
 7983SOL    HW124848   5.208   1.142   1.005
 7983SOL    HW224849   5.268   1.204   0.866
 7984SOL     OW24850   0.953   1.619   1.806
 7984SOL    HW124851   0.899   1.703   1.814
 7984SOL    HW224852   0.894   1.540   1.824
 7985SOL     OW24853   2.241   2.416   5.411
 7985SOL    HW124854   2.245   2.505   5.367
 7985SOL    HW224855   2.246   2.427   5.510
 7986SOL     OW24856   3.279   1.174   4.162
 7986SOL    HW124857   3.276   1.229   4.245
 7986SOL    HW224858   3.356   1.204   4.105
 7987SOL     OW24859   1.420   3.515   0.946
 7987SOL    HW124860   1.338   3.504   0.890
 7987SOL    HW224861   1.394   3.535   1.040
 7988SOL     OW24862   0.056   1.346   1.687
 7988SOL    HW124863   0.129   1.291   1.647
 7988SOL    HW224864   0.054   1.333   1.786
 7989SOL     OW24865   1.236   4.040   0.347
 7989SOL    HW124866   1.315   3.984   0.327
 7989SOL    HW224867   1.233   4.061   0.445
 7990SOL     OW24868   2.520   6.723   5.172
 7990SOL    HW124869   2.529   6.626   5.152
 7990SOL    HW224870   2.516   6.737   5.271
 7991SOL     OW24871   5.193   1.621   5.029
 7991SOL    HW124872   5.281   1.662   5.003
 7991SOL    HW224873   5.150   1.581   4.949
 7992SOL     OW24874   2.081   0.531   0.618
 7992SOL    HW124875   2.115   0.500   0.528
 7992SOL    HW224876   2.019   0.608   0.605
 7993SOL     OW24877   6.757   6.877   1.467
 7993SOL    HW124878   6.832   6.810   1.474
 7993SOL    HW224879   6.742   6.898   1.370
 7994SOL     OW24880   5.342   0.577   3.181
 7994SOL    HW124881   5.361   0.634   3.101
 7994SOL    HW224882   5.389   0.489   3.171
 7995SOL     OW24883   7.010   4.468   2.072
 7995SOL    HW124884   0.012   4.551   2.024
 7995SOL    HW224885   6.944   4.418   2.017
 7996SOL     OW24886   4.105   6.999   3.228
 7996SOL    HW124887   4.010   7.004   3.257
 7996SOL    HW224888   4.131   0.059   3.184
 7997SOL     OW24889   0.893   1.718   6.988
 7997SOL    HW124890   0.848   1.633   6.960
 7997SOL    HW224891   0.963   1.696   0.031
 7998SOL     OW24892   2.815   0.552   0.337
 7998SOL    HW124893   2.808   0.476   0.402
 7998SOL    HW224894   2.723   0.579   0.307
 7999SOL     OW24895   1.203   1.844   5.410
 7999SOL    HW124896   1.240   1.860   5.318
 7999SOL    HW224897   1.278   1.820   5.472
 8000SOL     OW24898   5.579   6.301   6.149
 8000SOL    HW124899   5.642   6.276   6.222
 8000SOL    HW224900   5.513   6.368   6.185
 8001SOL     OW24901   4.911   0.556   1.100
 8001SOL    HW124902   4.944   0.539   1.193
 8001SOL    HW224903   4.873   0.648   1.094
 8002SOL     OW24904   0.492   0.902   6.020
 8002SOL    HW124905   0.403   0.930   5.982
 8002SOL    HW224906   0.565   0.941   5.964
 8003SOL     OW24907   1.913   6.677   2.594
 8003SOL    HW124908   1.989   6.613   2.603
 8003SOL    HW224909   1.942   6.768   2.625
 8004SOL     OW24910   1.273   2.607   3.779
 8004SOL    HW124911   1.197   2.565   3.829
 8004SOL    HW224912   1.349   2.624   3.843
 8005SOL     OW24913   2.353   0.059   3.381
 8005SOL    HW124914   2.435   0.116   3.375
 8005SOL    HW224915   2.376   6.992   3.350
 8006SOL     OW24916   3.711   5.229   4.794
 8006SOL    HW124917   3.795   5.202   4.746
 8006SOL    HW224918   3.649   5.274   4.730
 8007SOL     OW24919   6.108   1.610   6.258
 8007SOL    HW124920   6.128   1.513   6.242
 8007SOL    HW224921   6.075   1.652   6.174
 8008SOL     OW24922   4.091   6.507   6.932
 8008SOL    HW124923   4.073   6.557   6.847
 8008SOL    HW224924   4.138   6.422   6.911
 8009SOL     OW24925   4.899   1.516   0.760
 8009SOL    HW124926   4.864   1.450   0.827
 8009SOL    HW224927   4.823   1.570   0.723
 8010SOL     OW24928   2.520   2.519   5.151
 8010SOL    HW124929   2.536   2.593   5.217
 8010SOL    HW224930   2.481   2.440   5.198
 8011SOL     OW24931   3.427   2.095   2.229
 8011SOL    HW124932   3.487   2.137   2.161
 8011SOL    HW224933   3.381   2.016   2.189
 8012SOL     OW24934   0.896   3.167   5.610
 8012SOL    HW124935   0.934   3.120   5.531
 8012SOL    HW224936   0.960   3.237   5.641
 8013SOL     OW24937   1.658   2.025   3.569
 8013SOL    HW124938   1.752   2.023   3.604
 8013SOL    HW224939   1.595   2.046   3.644
 8014SOL     OW24940   2.084   1.074   3.261
 8014SOL    HW124941   2.170   1.082   3.311
 8014SOL    HW224942   2.103   1.060   3.164
 8015SOL     OW24943   1.833   0.278   5.794
 8015SOL    HW124944   1.785   0.331   5.864
 8015SOL    HW224945   1.815   0.181   5.806
 8016SOL     OW24946   4.317   1.452   5.516
 8016SOL    HW124947   4.416   1.448   5.502
 8016SOL    HW224948   4.281   1.537   5.477
 8017SOL     OW24949   6.923   0.160   0.245
 8017SOL    HW124950   6.937   0.090   0.315
 8017SOL    HW224951   6.861   0.231   0.281
 8018SOL     OW24952   4.116   1.982   0.309
 8018SOL    HW124953   4.136   1.887   0.284
 8018SOL    HW224954   4.064   1.984   0.394
 8019SOL     OW24955   3.339   3.534   1.060
 8019SOL    HW124956   3.380   3.522   1.150
 8019SOL    HW224957   3.337   3.446   1.013
 8020SOL     OW24958   6.497   0.420   4.892
 8020SOL    HW124959   6.562   0.423   4.968
 8020SOL    HW224960   6.443   0.336   4.897
 8021SOL     OW24961   1.830   2.463   2.341
 8021SOL    HW124962   1.923   2.429   2.353
 8021SOL    HW224963   1.833   2.559   2.314
 8022SOL     OW24964   5.712   1.153   2.057
 8022SOL    HW124965   5.626   1.103   2.066
 8022SOL    HW224966   5.693   1.251   2.058
 8023SOL     OW24967   5.074   6.280   3.461
 8023SOL    HW124968   5.047   6.372   3.430
 8023SOL    HW224969   5.015   6.212   3.417
 8024SOL     OW24970   1.814   6.165   6.312
 8024SOL    HW124971   1.761   6.141   6.230
 8024SOL    HW224972   1.893   6.220   6.284
 8025SOL     OW24973   1.703   4.811   2.046
 8025SOL    HW124974   1.700   4.872   1.967
 8025SOL    HW224975   1.676   4.719   2.018
 8026SOL     OW24976   0.263   4.835   0.033
 8026SOL    HW124977   0.283   4.740   0.054
 8026SOL    HW224978   0.279   4.853   6.962
 8027SOL     OW24979   4.163   5.984   5.868
 8027SOL    HW124980   4.114   5.997   5.954
 8027SOL    HW224981   4.230   5.911   5.878
 8028SOL     OW24982   3.383   5.402   4.258
 8028SOL    HW124983   3.303   5.349   4.286
 8028SOL    HW224984   3.354   5.494   4.230
 8029SOL     OW24985   6.161   1.181   1.424
 8029SOL    HW124986   6.208   1.109   1.475
 8029SOL    HW224987   6.205   1.192   1.334
 8030SOL     OW24988   6.057   4.872   0.891
 8030SOL    HW124989   6.156   4.887   0.884
 8030SOL    HW224990   6.039   4.799   0.957
 8031SOL     OW24991   5.839   0.614   2.950
 8031SOL    HW124992   5.884   0.702   2.933
 8031SOL    HW224993   5.866   0.549   2.880
 8032SOL     OW24994   5.459   2.960   1.429
 8032SOL    HW124995   5.530   3.023   1.460
 8032SOL    HW224996   5.416   2.916   1.508
 8033SOL     OW24997   3.541   4.295   0.582
 8033SOL    HW124998   3.628   4.258   0.550
 8033SOL    HW224999   3.522   4.381   0.536
 8034SOL     OW25000   5.959   0.248   4.873
 8034SOL    HW125001   5.997   0.271   4.783
 8034SOL    HW225002   5.911   0.328   4.909
 8035SOL     OW25003   4.653   1.030   2.937
 8035SOL    HW125004   4.733   0.986   2.896
 8035SOL    HW225005   4.680   1.117   2.978
 8036SOL     OW25006   6.794   2.618   4.298
 8036SOL    HW125007   6.856   2.544   4.323
 8036SOL    HW225008   6.774   2.614   4.201
 8037SOL     OW25009   1.518   3.028   6.382
 8037SOL    HW125010   1.549   3.052   6.290
 8037SOL    HW225011   1.419   3.037   6.388
 8038SOL     OW25012   6.133   6.170   2.455
 8038SOL    HW125013   6.137   6.258   2.406
 8038SOL    HW225014   6.089   6.102   2.396
 8039SOL     OW25015   0.741   2.448   5.899
 8039SOL    HW125016   0.676   2.498   5.957
 8039SOL    HW225017   0.737   2.350   5.921
 8040SOL     OW25018   1.655   5.908   5.662
 8040SOL    HW125019   1.678   5.940   5.570
 8040SOL    HW225020   1.667   5.809   5.667
 8041SOL     OW25021   3.384   1.520   3.093
 8041SOL    HW125022   3.297   1.517   3.141
 8041SOL    HW225023   3.458   1.498   3.157
 8042SOL     OW25024   4.366   4.439   6.427
 8042SOL    HW125025   4.419   4.419   6.510
 8042SOL    HW225026   4.358   4.357   6.371
 8043SOL     OW25027   4.932   4.808   1.149
 8043SOL    HW125028   4.882   4.729   1.114
 8043SOL    HW225029   4.956   4.792   1.245
 8044SOL     OW25030   4.110   3.548   1.284
 8044SOL    HW125031   4.124   3.553   1.383
 8044SOL    HW225032   4.135   3.457   1.252
 8045SOL     OW25033   0.472   1.083   2.912
 8045SOL    HW125034   0.446   1.158   2.972
 8045SOL    HW225035   0.571   1.088   2.894
 8046SOL     OW25036   0.525   5.439   2.108
 8046SOL    HW125037   0.556   5.486   2.191
 8046SOL    HW225038   0.430   5.464   2.089
 8047SOL     OW25039   3.826   6.968   6.045
 8047SOL    HW125040   3.786   6.893   5.992
 8047SOL    HW225041   3.923   6.977   6.023
 8048SOL     OW25042   3.632   3.704   0.179
 8048SOL    HW125043   3.602   3.757   0.259
 8048SOL    HW225044   3.554   3.689   0.118
 8049SOL     OW25045   1.593   0.209   0.796
 8049SOL    HW125046   1.628   0.234   0.706
 8049SOL    HW225047   1.669   0.197   0.859
 8050SOL     OW25048   1.619   4.009   4.227
 8050SOL    HW125049   1.529   4.053   4.225
 8050SOL    HW225050   1.627   3.954   4.310
 8051SOL     OW25051   4.421   6.020   4.237
 8051SOL    HW125052   4.331   5.980   4.257
 8051SOL    HW225053   4.474   5.956   4.181
 8052SOL     OW25054   1.994   1.663   2.194
 8052SOL    HW125055   1.918   1.714   2.152
 8052SOL    HW225056   1.957   1.600   2.263
 8053SOL     OW25057   3.133   3.164   6.563
 8053SOL    HW125058   3.089   3.171   6.473
 8053SOL    HW225059   3.067   3.186   6.634
 8054SOL     OW25060   5.369   4.088   5.087
 8054SOL    HW125061   5.430   4.029   5.035
 8054SOL    HW225062   5.294   4.033   5.125
 8055SOL     OW25063   0.266   0.833   5.284
 8055SOL    HW125064   0.334   0.891   5.240
 8055SOL    HW225065   0.301   0.739   5.290
 8056SOL     OW25066   2.549   0.236   3.376
 8056SOL    HW125067   2.545   0.336   3.374
 8056SOL    HW225068   2.642   0.206   3.395
 8057SOL     OW25069   2.282   2.260   1.628
 8057SOL    HW125070   2.325   2.176   1.594
 8057SOL    HW225071   2.203   2.236   1.685
 8058SOL     OW25072   3.044   6.609   3.767
 8058SOL    HW125073   3.108   6.534   3.751
 8058SOL    HW225074   2.951   6.577   3.751
 8059SOL     OW25075   2.676   2.369   5.901
 8059SOL    HW125076   2.745   2.314   5.853
 8059SOL    HW225077   2.632   2.313   5.971
 8060SOL     OW25078   6.700   0.563   6.430
 8060SOL    HW125079   6.744   0.588   6.517
 8060SOL    HW225080   6.636   0.634   6.404
 8061SOL     OW25081   0.484   0.925   1.955
 8061SOL    HW125082   0.550   0.868   1.908
 8061SOL    HW225083   0.409   0.867   1.990
 8062SOL     OW25084   4.112   5.466   5.058
 8062SOL    HW125085   4.161   5.553   5.047
 8062SOL    HW225086   4.031   5.466   4.999
 8063SOL     OW25087   3.445   0.605   3.409
 8063SOL    HW125088   3.532   0.579   3.366
 8063SOL    HW225089   3.373   0.606   3.340
 8064SOL     OW25090   6.435   3.406   0.006
 8064SOL    HW125091   6.469   3.447   0.090
 8064SOL    HW225092   6.430   3.306   0.017
 8065SOL     OW25093   3.647   0.066   4.540
 8065SOL    HW125094   3.595   0.109   4.614
 8065SOL    HW225095   3.685   0.137   4.481
 8066SOL     OW25096   6.700   1.462   4.670
 8066SOL    HW125097   6.627   1.471   4.602
 8066SOL    HW225098   6.789   1.468   4.625
 8067SOL     OW25099   5.294   3.225   3.798
 8067SOL    HW125100   5.352   3.270   3.866
 8067SOL    HW225101   5.310   3.127   3.801
 8068SOL     OW25102   0.196   4.371   1.739
 8068SOL    HW125103   0.128   4.308   1.701
 8068SOL    HW225104   0.237   4.330   1.821
 8069SOL     OW25105   2.800   5.073   2.380
 8069SOL    HW125106   2.791   5.059   2.478
 8069SOL    HW225107   2.849   4.995   2.340
 8070SOL     OW25108   4.386   4.810   0.696
 8070SOL    HW125109   4.436   4.749   0.634
 8070SOL    HW225110   4.288   4.808   0.672
 8071SOL     OW25111   4.111   6.841   5.556
 8071SOL    HW125112   4.026   6.853   5.607
 8071SOL    HW225113   4.097   6.869   5.461
 8072SOL     OW25114   2.599   2.790   0.240
 8072SOL    HW125115   2.626   2.885   0.254
 8072SOL    HW225116   2.597   2.742   0.327
 8073SOL     OW25117   2.677   0.108   6.558
 8073SOL    HW125118   2.741   0.032   6.550
 8073SOL    HW225119   2.686   0.168   6.479
 8074SOL     OW25120   1.839   1.841   0.561
 8074SOL    HW125121   1.872   1.876   0.473
 8074SOL    HW225122   1.897   1.766   0.591
 8075SOL     OW25123   0.282   6.204   6.853
 8075SOL    HW125124   0.330   6.142   6.792
 8075SOL    HW225125   0.184   6.199   6.836
 8076SOL     OW25126   7.007   6.974   6.611
 8076SOL    HW125127   6.992   0.020   6.679
 8076SOL    HW225128   6.936   6.979   6.541
 8077SOL     OW25129   4.010   5.883   1.810
 8077SOL    HW125130   3.965   5.909   1.895
 8077SOL    HW225131   3.953   5.908   1.732
 8078SOL     OW25132   1.094   1.516   0.984
 8078SOL    HW125133   1.153   1.597   0.990
 8078SOL    HW225134   0.999   1.543   0.998
 8079SOL     OW25135   0.694   1.301   4.446
 8079SOL    HW125136   0.755   1.368   4.489
 8079SOL    HW225137   0.725   1.208   4.468
 8080SOL     OW25138   0.973   3.035   2.639
 8080SOL    HW125139   0.960   3.032   2.738
 8080SOL    HW225140   0.906   2.976   2.595
 8081SOL     OW25141   5.758   4.406   4.990
 8081SOL    HW125142   5.855   4.407   4.968
 8081SOL    HW225143   5.729   4.497   5.021
 8082SOL     OW25144   2.459   1.021   2.404
 8082SOL    HW125145   2.499   1.110   2.379
 8082SOL    HW225146   2.487   0.952   2.337
 8083SOL     OW25147   5.501   2.287   4.384
 8083SOL    HW125148   5.522   2.342   4.303
 8083SOL    HW225149   5.518   2.190   4.364
 8084SOL     OW25150   1.956   0.329   6.104
 8084SOL    HW125151   2.014   0.396   6.149
 8084SOL    HW225152   2.011   0.250   6.075
 8085SOL     OW25153   0.374   5.809   3.181
 8085SOL    HW125154   0.317   5.868   3.125
 8085SOL    HW225155   0.454   5.860   3.214
 8086SOL     OW25156   0.247   1.142   1.593
 8086SOL    HW125157   0.313   1.175   1.661
 8086SOL    HW225158   0.187   1.074   1.636
 8087SOL     OW25159   1.023   0.684   6.715
 8087SOL    HW125160   1.014   0.650   6.809
 8087SOL    HW225161   0.933   0.714   6.682
 8088SOL     OW25162   5.433   6.516   6.259
 8088SOL    HW125163   5.471   6.603   6.292
 8088SOL    HW225164   5.375   6.533   6.179
 8089SOL     OW25165   5.827   2.930   6.431
 8089SOL    HW125166   5.812   2.893   6.522
 8089SOL    HW225167   5.759   3.001   6.412
 8090SOL     OW25168   3.974   1.785   6.697
 8090SOL    HW125169   3.960   1.730   6.779
 8090SOL    HW225170   3.913   1.753   6.624
 8091SOL     OW25171   1.686   4.289   4.118
 8091SOL    HW125172   1.638   4.204   4.138
 8091SOL    HW225173   1.693   4.344   4.202
 8092SOL     OW25174   4.674   2.088   5.154
 8092SOL    HW125175   4.584   2.059   5.123
 8092SOL    HW225176   4.734   2.008   5.162
 8093SOL     OW25177   3.020   5.941   3.328
 8093SOL    HW125178   3.098   5.880   3.315
 8093SOL    HW225179   2.951   5.922   3.258
 8094SOL     OW25180   1.130   3.727   4.990
 8094SOL    HW125181   1.145   3.822   5.017
 8094SOL    HW225182   1.215   3.689   4.952
 8095SOL     OW25183   1.432   4.544   5.334
 8095SOL    HW125184   1.476   4.510   5.251
 8095SOL    HW225185   1.382   4.627   5.313
 8096SOL     OW25186   1.403   6.977   1.859
 8096SOL    HW125187   1.365   6.995   1.950
 8096SOL    HW225188   1.463   0.026   1.832
 8097SOL     OW25189   3.539   6.915   5.193
 8097SOL    HW125190   3.559   6.911   5.095
 8097SOL    HW225191   3.488   6.999   5.213
 8098SOL     OW25192   0.716   6.151   3.998
 8098SOL    HW125193   0.729   6.052   3.998
 8098SOL    HW225194   0.706   6.183   4.092
 8099SOL     OW25195   4.322   5.518   4.070
 8099SOL    HW125196   4.414   5.478   4.075
 8099SOL    HW225197   4.264   5.476   4.140
 8100SOL     OW25198   5.749   1.262   6.334
 8100SOL    HW125199   5.693   1.183   6.360
 8100SOL    HW225200   5.718   1.343   6.385
 8101SOL     OW25201   2.552   5.726   0.636
 8101SOL    HW125202   2.546   5.633   0.599
 8101SOL    HW225203   2.604   5.724   0.722
 8102SOL     OW25204   0.878   3.162   4.369
 8102SOL    HW125205   0.795   3.165   4.424
 8102SOL    HW225206   0.900   3.254   4.337
 8103SOL     OW25207   3.710   0.878   2.131
 8103SOL    HW125208   3.737   0.958   2.078
 8103SOL    HW225209   3.760   0.798   2.097
 8104SOL     OW25210   1.889   6.858   5.699
 8104SOL    HW125211   1.969   6.800   5.713
 8104SOL    HW225212   1.837   6.825   5.620
 8105SOL     OW25213   0.069   2.139   2.885
 8105SOL    HW125214   0.048   2.224   2.837
 8105SOL    HW225215   0.116   2.077   2.822
 8106SOL     OW25216   2.866   6.546   4.217
 8106SOL    HW125217   2.932   6.542   4.143
 8106SOL    HW225218   2.877   6.466   4.276
 8107SOL     OW25219   1.689   5.925   4.685
 8107SOL    HW125220   1.685   5.837   4.733
 8107SOL    HW225221   1.784   5.954   4.677
 8108SOL     OW25222   6.444   1.531   6.620
 8108SOL    HW125223   6.498   1.501   6.542
 8108SOL    HW225224   6.504   1.571   6.690
 8109SOL     OW25225   0.062   3.767   6.393
 8109SOL    HW125226   0.145   3.822   6.380
 8109SOL    HW225227   0.029   3.778   6.486
 8110SOL     OW25228   3.975   4.954   1.262
 8110SOL    HW125229   4.047   4.915   1.319
 8110SOL    HW225230   3.886   4.923   1.294
 8111SOL     OW25231   5.988   0.910   3.617
 8111SOL    HW125232   6.025   0.996   3.582
 8111SOL    HW225233   6.002   0.906   3.716
 8112SOL     OW25234   0.150   2.999   4.763
 8112SOL    HW125235   0.114   2.912   4.731
 8112SOL    HW225236   0.092   3.034   4.837
 8113SOL     OW25237   6.459   3.174   1.477
 8113SOL    HW125238   6.548   3.214   1.498
 8113SOL    HW225239   6.389   3.217   1.533
 8114SOL     OW25240   1.001   4.446   2.415
 8114SOL    HW125241   1.052   4.361   2.426
 8114SOL    HW225242   0.934   4.436   2.343
 8115SOL     OW25243   2.760   6.809   6.256
 8115SOL    HW125244   2.842   6.752   6.248
 8115SOL    HW225245   2.681   6.760   6.219
 8116SOL     OW25246   3.995   5.521   0.595
 8116SOL    HW125247   4.020   5.427   0.618
 8116SOL    HW225248   4.074   5.581   0.608
 8117SOL     OW25249   2.222   6.698   3.060
 8117SOL    HW125250   2.186   6.608   3.035
 8117SOL    HW225251   2.269   6.738   2.981
 8118SOL     OW25252   6.345   4.350   6.494
 8118SOL    HW125253   6.261   4.299   6.473
 8118SOL    HW225254   6.378   4.325   6.584
 8119SOL     OW25255   4.989   6.174   6.089
 8119SOL    HW125256   4.982   6.192   5.991
 8119SOL    HW225257   5.079   6.202   6.122
 8120SOL     OW25258   2.393   5.216   0.801
 8120SOL    HW125259   2.384   5.128   0.753
 8120SOL    HW225260   2.303   5.248   0.828
 8121SOL     OW25261   1.022   4.115   3.007
 8121SOL    HW125262   1.114   4.116   2.967
 8121SOL    HW225263   0.956   4.145   2.939
 8122SOL     OW25264   0.887   4.304   2.871
 8122SOL    HW125265   0.830   4.385   2.856
 8122SOL    HW225266   0.856   4.230   2.812
 8123SOL     OW25267   0.711   1.235   7.002
 8123SOL    HW125268   0.794   1.186   6.977
 8123SOL    HW225269   0.701   1.315   6.943
 8124SOL     OW25270   5.478   6.370   4.161
 8124SOL    HW125271   5.481   6.329   4.070
 8124SOL    HW225272   5.430   6.457   4.158
 8125SOL     OW25273   1.290   0.987   2.826
 8125SOL    HW125274   1.372   0.952   2.870
 8125SOL    HW225275   1.271   0.934   2.743
 8126SOL     OW25276   4.484   5.001   3.650
 8126SOL    HW125277   4.567   4.954   3.620
 8126SOL    HW225278   4.502   5.099   3.658
 8127SOL     OW25279   2.782   2.472   6.884
 8127SOL    HW125280   2.775   2.405   6.810
 8127SOL    HW225281   2.846   2.438   6.953
 8128SOL     OW25282   3.264   2.315   1.574
 8128SOL    HW125283   3.300   2.407   1.590
 8128SOL    HW225284   3.176   2.305   1.620
 8129SOL     OW25285   1.819   2.159   6.942
 8129SOL    HW125286   1.775   2.093   6.882
 8129SOL    HW225287   1.918   2.154   6.931
 8130SOL     OW25288   1.650   5.880   0.121
 8130SOL    HW125289   1.650   5.789   0.080
 8130SOL    HW225290   1.581   5.937   0.077
 8131SOL     OW25291   2.999   2.523   1.205
 8131SOL    HW125292   3.074   2.551   1.145
 8131SOL    HW225293   2.942   2.602   1.227
 8132SOL     OW25294   6.461   6.710   4.486
 8132SOL    HW125295   6.409   6.647   4.544
 8132SOL    HW225296   6.470   6.671   4.394
 8133SOL     OW25297   4.129   5.414   2.196
 8133SOL    HW125298   4.089   5.480   2.259
 8133SOL    HW225299   4.166   5.336   2.247
 8134SOL     OW25300   6.017   1.143   6.123
 8134SOL    HW125301   6.013   1.114   6.027
 8134SOL    HW225302   5.970   1.075   6.179
 8135SOL     OW25303   1.813   0.780   1.660
 8135SOL    HW125304   1.716   0.802   1.664
 8135SOL    HW225305   1.838   0.722   1.738
 8136SOL     OW25306   5.568   5.475   2.629
 8136SOL    HW125307   5.501   5.515   2.566
 8136SOL    HW225308   5.520   5.425   2.701
 8137SOL     OW25309   2.949   0.868   5.353
 8137SOL    HW125310   2.849   0.865   5.352
 8137SOL    HW225311   2.981   0.931   5.282
 8138SOL     OW25312   5.661   1.374   1.407
 8138SOL    HW125313   5.720   1.397   1.329
 8138SOL    HW225314   5.714   1.380   1.491
 8139SOL     OW25315   0.355   1.677   2.445
 8139SOL    HW125316   0.405   1.593   2.465
 8139SOL    HW225317   0.273   1.682   2.501
 8140SOL     OW25318   4.249   1.117   4.217
 8140SOL    HW125319   4.336   1.118   4.167
 8140SOL    HW225320   4.176   1.153   4.159
 8141SOL     OW25321   3.737   5.333   5.415
 8141SOL    HW125322   3.701   5.327   5.508
 8141SOL    HW225323   3.764   5.427   5.395
 8142SOL     OW25324   6.116   4.680   0.096
 8142SOL    HW125325   6.080   4.609   0.037
 8142SOL    HW225326   6.193   4.644   0.149
 8143SOL     OW25327   6.360   4.510   6.288
 8143SOL    HW125328   6.367   4.441   6.360
 8143SOL    HW225329   6.354   4.601   6.330
 8144SOL     OW25330   5.516   0.205   0.126
 8144SOL    HW125331   5.517   0.303   0.108
 8144SOL    HW225332   5.566   0.186   0.210
 8145SOL     OW25333   6.066   5.853   2.778
 8145SOL    HW125334   6.031   5.759   2.779
 8145SOL    HW225335   6.027   5.903   2.701
 8146SOL     OW25336   3.524   1.034   5.684
 8146SOL    HW125337   3.526   1.132   5.701
 8146SOL    HW225338   3.444   1.011   5.629
 8147SOL     OW25339   5.340   1.754   3.284
 8147SOL    HW125340   5.367   1.792   3.195
 8147SOL    HW225341   5.419   1.754   3.345
 8148SOL     OW25342   5.397   3.260   2.782
 8148SOL    HW125343   5.390   3.323   2.704
 8148SOL    HW225344   5.315   3.203   2.786
 8149SOL     OW25345   3.123   5.872   2.691
 8149SOL    HW125346   3.207   5.913   2.728
 8149SOL    HW225347   3.109   5.782   2.733
 8150SOL     OW25348   0.109   4.756   1.072
 8150SOL    HW125349   0.150   4.835   1.026
 8150SOL    HW225350   0.165   4.675   1.056
 8151SOL     OW25351   0.884   1.916   3.428
 8151SOL    HW125352   0.961   1.867   3.468
 8151SOL    HW225353   0.851   1.986   3.491
 8152SOL     OW25354   1.563   1.322   3.014
 8152SOL    HW125355   1.587   1.347   2.920
 8152SOL    HW225356   1.485   1.378   3.043
 8153SOL     OW25357   3.115   0.100   2.375
 8153SOL    HW125358   3.039   0.115   2.312
 8153SOL    HW225359   3.080   0.067   2.463
 8154SOL     OW25360   2.565   6.256   4.212
 8154SOL    HW125361   2.600   6.175   4.165
 8154SOL    HW225362   2.538   6.231   4.305
 8155SOL     OW25363   3.057   3.032   2.208
 8155SOL    HW125364   3.102   3.017   2.296
 8155SOL    HW225365   3.032   2.944   2.168
 8156SOL     OW25366   5.603   0.468   4.823
 8156SOL    HW125367   5.576   0.564   4.832
 8156SOL    HW225368   5.691   0.454   4.869
 8157SOL     OW25369   5.716   5.106   6.764
 8157SOL    HW125370   5.792   5.071   6.710
 8157SOL    HW225371   5.702   5.203   6.744
 8158SOL     OW25372   1.046   5.825   1.231
 8158SOL    HW125373   0.948   5.806   1.227
 8158SOL    HW225374   1.078   5.857   1.142
 8159SOL     OW25375   2.014   5.275   2.210
 8159SOL    HW125376   1.951   5.263   2.287
 8159SOL    HW225377   2.106   5.294   2.244
 8160SOL     OW25378   4.949   1.975   1.388
 8160SOL    HW125379   4.895   1.891   1.395
 8160SOL    HW225380   4.910   2.034   1.317
 8161SOL     OW25381   4.799   1.148   0.625
 8161SOL    HW125382   4.898   1.143   0.632
 8161SOL    HW225383   4.772   1.240   0.596
 8162SOL     OW25384   5.705   0.186   1.184
 8162SOL    HW125385   5.653   0.199   1.100
 8162SOL    HW225386   5.715   0.274   1.231
 8163SOL     OW25387   2.542   4.335   5.292
 8163SOL    HW125388   2.552   4.393   5.211
 8163SOL    HW225389   2.465   4.273   5.280
 8164SOL     OW25390   5.458   2.845   1.680
 8164SOL    HW125391   5.408   2.907   1.741
 8164SOL    HW225392   5.425   2.751   1.694
 8165SOL     OW25393   2.051   4.293   1.081
 8165SOL    HW125394   2.009   4.212   1.040
 8165SOL    HW225395   2.027   4.373   1.026
 8166SOL     OW25396   2.225   0.767   2.260
 8166SOL    HW125397   2.141   0.812   2.289
 8166SOL    HW225398   2.254   0.703   2.331
 8167SOL     OW25399   5.920   2.672   3.523
 8167SOL    HW125400   5.977   2.590   3.528
 8167SOL    HW225401   5.861   2.676   3.604
 8168SOL     OW25402   3.289   1.386   2.877
 8168SOL    HW125403   3.278   1.291   2.906
 8168SOL    HW225404   3.323   1.441   2.954
 8169SOL     OW25405   4.580   3.847   0.722
 8169SOL    HW125406   4.654   3.813   0.780
 8169SOL    HW225407   4.594   3.944   0.702
 8170SOL     OW25408   1.376   6.142   3.933
 8170SOL    HW125409   1.423   6.162   3.847
 8170SOL    HW225410   1.278   6.159   3.922
 8171SOL     OW25411   0.390   1.804   6.492
 8171SOL    HW125412   0.438   1.892   6.503
 8171SOL    HW225413   0.419   1.761   6.407
 8172SOL     OW25414   0.212   7.021   0.342
 8172SOL    HW125415   0.192   6.945   0.281
 8172SOL    HW225416   0.129   0.021   0.392
 8173SOL     OW25417   3.700   2.561   6.998
 8173SOL    HW125418   3.746   2.596   6.917
 8173SOL    HW225419   3.655   2.637   0.020
 8174SOL     OW25420   5.655   1.919   1.040
 8174SOL    HW125421   5.602   1.999   1.070
 8174SOL    HW225422   5.729   1.949   0.981
 8175SOL     OW25423   6.951   2.541   6.199
 8175SOL    HW125424   6.937   2.443   6.185
 8175SOL    HW225425   6.922   2.591   6.116
 8176SOL     OW25426   2.709   5.971   2.028
 8176SOL    HW125427   2.778   5.988   2.099
 8176SOL    HW225428   2.626   6.022   2.049
 8177SOL     OW25429   0.994   6.212   4.033
 8177SOL    HW125430   1.011   6.265   3.950
 8177SOL    HW225431   0.898   6.182   4.035
 8178SOL     OW25432   2.172   6.773   6.271
 8178SOL    HW125433   2.271   6.761   6.267
 8178SOL    HW225434   2.150   6.846   6.336
 8179SOL     OW25435   3.251   2.920   0.264
 8179SOL    HW125436   3.306   2.859   0.320
 8179SOL    HW225437   3.310   2.982   0.213
 8180SOL     OW25438   0.447   6.995   4.449
 8180SOL    HW125439   0.379   6.955   4.388
 8180SOL    HW225440   0.523   6.931   4.460
 8181SOL     OW25441   2.773   2.290   2.832
 8181SOL    HW125442   2.805   2.385   2.826
 8181SOL    HW225443   2.851   2.229   2.839
 8182SOL     OW25444   3.048   2.162   6.029
 8182SOL    HW125445   3.025   2.188   5.935
 8182SOL    HW225446   3.138   2.119   6.030
 8183SOL     OW25447   1.132   3.808   5.357
 8183SOL    HW125448   1.064   3.754   5.407
 8183SOL    HW225449   1.221   3.800   5.403
 8184SOL     OW25450   6.979   0.758   5.355
 8184SOL    HW125451   0.012   0.743   5.435
 8184SOL    HW225452   6.889   0.717   5.371
 8185SOL     OW25453   2.882   1.122   1.881
 8185SOL    HW125454   2.859   1.158   1.971
 8185SOL    HW225455   2.900   1.197   1.818
 8186SOL     OW25456   3.174   6.279   5.847
 8186SOL    HW125457   3.237   6.202   5.835
 8186SOL    HW225458   3.115   6.287   5.766
 8187SOL     OW25459   1.474   2.046   5.633
 8187SOL    HW125460   1.441   1.955   5.607
 8187SOL    HW225461   1.573   2.043   5.647
 8188SOL     OW25462   5.806   2.198   2.714
 8188SOL    HW125463   5.812   2.100   2.696
 8188SOL    HW225464   5.719   2.233   2.678
 8189SOL     OW25465   5.516   4.145   2.370
 8189SOL    HW125466   5.562   4.147   2.281
 8189SOL    HW225467   5.585   4.139   2.442
 8190SOL     OW25468   5.162   3.619   3.706
 8190SOL    HW125469   5.204   3.585   3.791
 8190SOL    HW225470   5.089   3.557   3.678
 8191SOL     OW25471   1.046   5.577   4.048
 8191SOL    HW125472   1.141   5.610   4.046
 8191SOL    HW225473   0.998   5.612   3.967
 8192SOL     OW25474   2.269   5.698   1.958
 8192SOL    HW125475   2.331   5.645   2.016
 8192SOL    HW225476   2.219   5.636   1.898
 8193SOL     OW25477   4.832   6.788   4.947
 8193SOL    HW125478   4.837   6.829   5.039
 8193SOL    HW225479   4.745   6.740   4.937
 8194SOL     OW25480   6.416   1.203   6.792
 8194SOL    HW125481   6.467   1.194   6.707
 8194SOL    HW225482   6.344   1.271   6.780
 8195SOL     OW25483   6.690   6.960   7.019
 8195SOL    HW125484   6.665   6.987   0.087
 8195SOL    HW225485   6.609   6.926   6.972
 8196SOL     OW25486   3.637   6.499   6.600
 8196SOL    HW125487   3.572   6.564   6.638
 8196SOL    HW225488   3.703   6.546   6.541
 8197SOL     OW25489   6.546   0.669   6.160
 8197SOL    HW125490   6.532   0.721   6.245
 8197SOL    HW225491   6.469   0.605   6.148
 8198SOL     OW25492   2.761   6.459   3.293
 8198SOL    HW125493   2.675   6.442   3.340
 8198SOL    HW225494   2.807   6.372   3.275
 8199SOL     OW25495   0.479   3.904   6.963
 8199SOL    HW125496   0.484   3.897   0.037
 8199SOL    HW225497   0.445   3.994   6.938
 8200SOL     OW25498   4.578   4.055   1.670
 8200SOL    HW125499   4.521   4.111   1.729
 8200SOL    HW225500   4.674   4.080   1.682
 8201SOL     OW25501   5.576   0.118   3.821
 8201SOL    HW125502   5.612   0.076   3.904
 8201SOL    HW225503   5.619   0.076   3.741
 8202SOL     OW25504   1.336   4.560   3.338
 8202SOL    HW125505   1.428   4.560   3.299
 8202SOL    HW225506   1.335   4.617   3.420
 8203SOL     OW25507   4.977   3.901   1.504
 8203SOL    HW125508   5.007   3.910   1.408
 8203SOL    HW225509   4.943   3.809   1.519
 8204SOL     OW25510   3.211   6.691   2.458
 8204SOL    HW125511   3.173   6.630   2.389
 8204SOL    HW225512   3.251   6.771   2.413
 8205SOL     OW25513   5.484   5.344   1.844
 8205SOL    HW125514   5.500   5.421   1.782
 8205SOL    HW225515   5.562   5.334   1.905
 8206SOL     OW25516   4.170   2.343   5.514
 8206SOL    HW125517   4.249   2.283   5.527
 8206SOL    HW225518   4.107   2.332   5.591
 8207SOL     OW25519   3.432   4.788   6.136
 8207SOL    HW125520   3.454   4.690   6.137
 8207SOL    HW225521   3.434   4.823   6.230
 8208SOL     OW25522   1.729   5.114   1.596
 8208SOL    HW125523   1.772   5.098   1.507
 8208SOL    HW225524   1.788   5.173   1.652
 8209SOL     OW25525   1.397   1.067   5.396
 8209SOL    HW125526   1.495   1.086   5.401
 8209SOL    HW225527   1.369   1.019   5.480
 8210SOL     OW25528   2.047   1.366   0.623
 8210SOL    HW125529   2.067   1.423   0.703
 8210SOL    HW225530   1.956   1.326   0.634
 8211SOL     OW25531   3.032   3.190   4.427
 8211SOL    HW125532   2.944   3.178   4.381
 8211SOL    HW225533   3.032   3.277   4.477
 8212SOL     OW25534   2.161   6.932   1.220
 8212SOL    HW125535   2.201   7.015   1.182
 8212SOL    HW225536   2.144   6.944   1.317
 8213SOL     OW25537   4.201   4.293   1.700
 8213SOL    HW125538   4.170   4.377   1.744
 8213SOL    HW225539   4.270   4.249   1.757
 8214SOL     OW25540   3.182   5.696   4.025
 8214SOL    HW125541   3.241   5.693   4.105
 8214SOL    HW225542   3.234   5.731   3.947
 8215SOL     OW25543   3.824   6.432   6.990
 8215SOL    HW125544   3.889   6.497   6.950
 8215SOL    HW225545   3.830   6.345   6.943
 8216SOL     OW25546   4.526   6.141   2.155
 8216SOL    HW125547   4.587   6.213   2.188
 8216SOL    HW225548   4.521   6.068   2.223
 8217SOL     OW25549   2.611   5.391   3.689
 8217SOL    HW125550   2.666   5.324   3.739
 8217SOL    HW225551   2.607   5.365   3.592
 8218SOL     OW25552   1.701   0.431   4.753
 8218SOL    HW125553   1.652   0.481   4.824
 8218SOL    HW225554   1.741   0.348   4.792
 8219SOL     OW25555   3.961   3.962   0.394
 8219SOL    HW125556   4.019   3.897   0.443
 8219SOL    HW225557   3.999   3.979   0.303
 8220SOL     OW25558   3.660   4.148   4.768
 8220SOL    HW125559   3.735   4.135   4.833
 8220SOL    HW225560   3.586   4.199   4.813
 8221SOL     OW25561   6.323   3.366   3.585
 8221SOL    HW125562   6.377   3.413   3.514
 8221SOL    HW225563   6.353   3.271   3.592
 8222SOL     OW25564   5.958   2.645   1.327
 8222SOL    HW125565   5.930   2.681   1.238
 8222SOL    HW225566   6.015   2.712   1.374
 8223SOL     OW25567   0.173   5.746   5.522
 8223SOL    HW125568   0.113   5.805   5.468
 8223SOL    HW225569   0.165   5.769   5.619
 8224SOL     OW25570   5.218   2.407   0.003
 8224SOL    HW125571   5.281   2.337   0.037
 8224SOL    HW225572   5.158   2.367   6.959
 8225SOL     OW25573   4.674   1.947   0.462
 8225SOL    HW125574   4.588   1.998   0.458
 8225SOL    HW225575   4.724   1.972   0.545
 8226SOL     OW25576   3.646   0.455   0.389
 8226SOL    HW125577   3.730   0.421   0.431
 8226SOL    HW225578   3.647   0.433   0.291
 8227SOL     OW25579   5.153   2.183   2.864
 8227SOL    HW125580   5.161   2.242   2.783
 8227SOL    HW225581   5.077   2.216   2.921
 8228SOL     OW25582   1.043   1.132   5.480
 8228SOL    HW125583   0.995   1.138   5.392
 8228SOL    HW225584   1.107   1.056   5.477
 8229SOL     OW25585   4.168   4.547   0.839
 8229SOL    HW125586   4.155   4.616   0.768
 8229SOL    HW225587   4.086   4.542   0.896
 8230SOL     OW25588   4.265   1.021   5.692
 8230SOL    HW125589   4.317   1.045   5.611
 8230SOL    HW225590   4.270   0.922   5.707
 8231SOL     OW25591   2.732   1.242   2.610
 8231SOL    HW125592   2.709   1.202   2.699
 8231SOL    HW225593   2.785   1.326   2.624
 8232SOL     OW25594   4.406   6.667   2.315
 8232SOL    HW125595   4.383   6.620   2.400
 8232SOL    HW225596   4.427   6.600   2.244
 8233SOL     OW25597   0.669   0.834   5.158
 8233SOL    HW125598   0.651   0.738   5.177
 8233SOL    HW225599   0.584   0.877   5.126
 8234SOL     OW25600   2.155   2.499   0.418
 8234SOL    HW125601   2.246   2.539   0.421
 8234SOL    HW225602   2.095   2.556   0.362
 8235SOL     OW25603   6.938   5.516   0.515
 8235SOL    HW125604   6.880   5.539   0.593
 8235SOL    HW225605   6.966   5.600   0.469
 8236SOL     OW25606   1.025   6.739   6.312
 8236SOL    HW125607   1.010   6.707   6.218
 8236SOL    HW225608   1.067   6.829   6.310
 8237SOL     OW25609   4.361   5.486   6.342
 8237SOL    HW125610   4.308   5.462   6.423
 8237SOL    HW225611   4.458   5.492   6.365
 8238SOL     OW25612   2.072   4.576   0.933
 8238SOL    HW125613   2.146   4.572   1.000
 8238SOL    HW225614   2.094   4.516   0.856
 8239SOL     OW25615   0.513   1.841   5.386
 8239SOL    HW125616   0.428   1.848   5.438
 8239SOL    HW225617   0.516   1.913   5.317
 8240SOL     OW25618   3.555   3.827   4.869
 8240SOL    HW125619   3.515   3.869   4.951
 8240SOL    HW225620   3.653   3.847   4.865
 8241SOL     OW25621   2.130   3.938   6.674
 8241SOL    HW125622   2.144   3.938   6.575
 8241SOL    HW225623   2.216   3.961   6.719
 8242SOL     OW25624   0.498   3.389   4.404
 8242SOL    HW125625   0.534   3.355   4.317
 8242SOL    HW225626   0.442   3.470   4.388
 8243SOL     OW25627   0.739   5.178   4.909
 8243SOL    HW125628   0.736   5.257   4.848
 8243SOL    HW225629   0.831   5.168   4.946
 8244SOL     OW25630   1.731   0.206   3.628
 8244SOL    HW125631   1.713   0.172   3.536
 8244SOL    HW225632   1.764   0.301   3.622
 8245SOL     OW25633   5.557   1.483   3.951
 8245SOL    HW125634   5.562   1.579   3.976
 8245SOL    HW225635   5.575   1.426   4.031
 8246SOL     OW25636   1.431   4.524   6.861
 8246SOL    HW125637   1.522   4.563   6.874
 8246SOL    HW225638   1.424   4.484   6.770
 8247SOL     OW25639   3.396   5.472   3.220
 8247SOL    HW125640   3.376   5.375   3.209
 8247SOL    HW225641   3.338   5.526   3.159
 8248SOL     OW25642   0.716   5.165   3.001
 8248SOL    HW125643   0.792   5.171   3.065
 8248SOL    HW225644   0.657   5.245   3.012
 8249SOL     OW25645   2.648   2.006   6.055
 8249SOL    HW125646   2.713   2.056   6.113
 8249SOL    HW225647   2.690   1.921   6.023
 8250SOL     OW25648   1.762   1.643   6.560
 8250SOL    HW125649   1.774   1.638   6.461
 8250SOL    HW225650   1.667   1.623   6.584
 8251SOL     OW25651   6.993   2.185   4.719
 8251SOL    HW125652   6.985   2.284   4.711
 8251SOL    HW225653   6.907   2.142   4.692
 8252SOL     OW25654   1.682   2.378   6.745
 8252SOL    HW125655   1.764   2.321   6.751
 8252SOL    HW225656   1.703   2.460   6.691
 8253SOL     OW25657   3.986   6.025   0.553
 8253SOL    HW125658   3.959   6.121   0.561
 8253SOL    HW225659   4.010   6.006   0.457
 8254SOL     OW25660   5.202   5.502   0.229
 8254SOL    HW125661   5.241   5.472   0.142
 8254SOL    HW225662   5.231   5.441   0.302
 8255SOL     OW25663   0.396   6.284   6.347
 8255SOL    HW125664   0.381   6.188   6.325
 8255SOL    HW225665   0.483   6.314   6.308
 8256SOL     OW25666   1.801   5.853   3.189
 8256SOL    HW125667   1.794   5.852   3.288
 8256SOL    HW225668   1.750   5.931   3.153
 8257SOL     OW25669   4.785   3.980   3.784
 8257SOL    HW125670   4.836   3.933   3.713
 8257SOL    HW225671   4.703   3.928   3.807
 8258SOL     OW25672   6.690   3.124   1.813
 8258SOL    HW125673   6.764   3.167   1.865
 8258SOL    HW225674   6.704   3.141   1.715
 8259SOL     OW25675   4.190   1.269   3.699
 8259SOL    HW125676   4.097   1.298   3.717
 8259SOL    HW225677   4.253   1.346   3.713
 8260SOL     OW25678   3.375   0.610   1.177
 8260SOL    HW125679   3.280   0.640   1.171
 8260SOL    HW225680   3.398   0.554   1.098
 8261SOL     OW25681   5.464   0.322   3.131
 8261SOL    HW125682   5.477   0.309   3.033
 8261SOL    HW225683   5.377   0.284   3.160
 8262SOL     OW25684   6.621   4.042   1.775
 8262SOL    HW125685   6.670   3.957   1.796
 8262SOL    HW225686   6.572   4.074   1.857
 8263SOL     OW25687   0.276   2.416   6.034
 8263SOL    HW125688   0.325   2.503   6.024
 8263SOL    HW225689   0.342   2.342   6.047
 8264SOL     OW25690   2.118   6.287   2.819
 8264SOL    HW125691   2.080   6.337   2.897
 8264SOL    HW225692   2.128   6.349   2.741
 8265SOL     OW25693   5.652   0.896   0.440
 8265SOL    HW125694   5.741   0.880   0.398
 8265SOL    HW225695   5.600   0.960   0.383
 8266SOL     OW25696   2.144   0.321   3.462
 8266SOL    HW125697   2.059   0.317   3.409
 8266SOL    HW225698   2.201   0.396   3.427
 8267SOL     OW25699   1.692   4.016   3.102
 8267SOL    HW125700   1.699   4.017   3.002
 8267SOL    HW225701   1.714   3.925   3.136
 8268SOL     OW25702   3.114   4.670   6.698
 8268SOL    HW125703   3.200   4.710   6.730
 8268SOL    HW225704   3.045   4.742   6.693
 8269SOL     OW25705   4.870   2.085   3.370
 8269SOL    HW125706   4.885   1.999   3.323
 8269SOL    HW225707   4.821   2.148   3.310
 8270SOL     OW25708   3.351   0.367   5.939
 8270SOL    HW125709   3.334   0.457   5.979
 8270SOL    HW225710   3.345   0.373   5.840
 8271SOL     OW25711   4.173   6.505   5.461
 8271SOL    HW125712   4.198   6.541   5.551
 8271SOL    HW225713   4.180   6.578   5.392
 8272SOL     OW25714   0.777   6.871   1.577
 8272SOL    HW125715   0.869   6.911   1.579
 8272SOL    HW225716   0.729   6.902   1.495
 8273SOL     OW25717   2.644   6.840   6.773
 8273SOL    HW125718   2.705   6.919   6.777
 8273SOL    HW225719   2.692   6.762   6.734
 8274SOL     OW25720   4.991   6.442   6.299
 8274SOL    HW125721   4.959   6.465   6.207
 8274SOL    HW225722   5.005   6.343   6.305
 8275SOL     OW25723   5.922   0.900   4.375
 8275SOL    HW125724   5.870   0.847   4.442
 8275SOL    HW225725   5.859   0.956   4.322
 8276SOL     OW25726   6.714   2.703   6.384
 8276SOL    HW125727   6.618   2.691   6.359
 8276SOL    HW225728   6.772   2.652   6.320
 8277SOL     OW25729   1.301   5.565   6.379
 8277SOL    HW125730   1.221   5.522   6.337
 8277SOL    HW225731   1.369   5.586   6.308
 8278SOL     OW25732   3.797   1.264   0.415
 8278SOL    HW125733   3.748   1.344   0.382
 8278SOL    HW225734   3.830   1.280   0.508
 8279SOL     OW25735   4.928   5.414   5.707
 8279SOL    HW125736   4.992   5.342   5.733
 8279SOL    HW225737   4.839   5.374   5.687
 8280SOL     OW25738   5.608   2.980   6.998
 8280SOL    HW125739   5.535   3.012   0.033
 8280SOL    HW225740   5.622   2.882   7.012
 8281SOL     OW25741   2.111   4.926   6.833
 8281SOL    HW125742   2.188   4.948   6.772
 8281SOL    HW225743   2.081   5.009   6.879
 8282SOL     OW25744   2.972   2.577   0.781
 8282SOL    HW125745   2.890   2.561   0.726
 8282SOL    HW225746   3.052   2.581   0.721
 8283SOL     OW25747   0.329   5.065   2.815
 8283SOL    HW125748   0.288   5.155   2.830
 8283SOL    HW225749   0.364   5.029   2.901
 8284SOL     OW25750   2.398   2.004   2.267
 8284SOL    HW125751   2.397   2.101   2.245
 8284SOL    HW225752   2.433   1.952   2.188
 8285SOL     OW25753   3.417   4.228   6.293
 8285SOL    HW125754   3.440   4.276   6.208
 8285SOL    HW225755   3.437   4.287   6.371
 8286SOL     OW25756   5.341   1.032   5.294
 8286SOL    HW125757   5.351   1.129   5.317
 8286SOL    HW225758   5.265   1.020   5.230
 8287SOL     OW25759   1.892   0.626   3.268
 8287SOL    HW125760   1.876   0.708   3.323
 8287SOL    HW225761   1.969   0.641   3.207
 8288SOL     OW25762   1.326   1.498   2.839
 8288SOL    HW125763   1.328   1.597   2.829
 8288SOL    HW225764   1.240   1.470   2.881
 8289SOL     OW25765   6.421   1.421   5.609
 8289SOL    HW125766   6.449   1.494   5.671
 8289SOL    HW225767   6.321   1.411   5.611
 8290SOL     OW25768   3.954   2.387   1.569
 8290SOL    HW125769   4.027   2.451   1.594
 8290SOL    HW225770   3.985   2.293   1.582
 8291SOL     OW25771   5.794   5.883   6.022
 8291SOL    HW125772   5.829   5.856   6.111
 8291SOL    HW225773   5.745   5.806   5.981
 8292SOL     OW25774   0.793   3.599   4.334
 8292SOL    HW125775   0.878   3.626   4.380
 8292SOL    HW225776   0.728   3.675   4.337
 8293SOL     OW25777   3.101   5.413   3.140
 8293SOL    HW125778   3.068   5.390   3.231
 8293SOL    HW225779   3.073   5.506   3.116
 8294SOL     OW25780   5.899   4.015   6.053
 8294SOL    HW125781   5.913   3.916   6.047
 8294SOL    HW225782   5.987   4.061   6.060
 8295SOL     OW25783   4.694   4.423   2.141
 8295SOL    HW125784   4.699   4.361   2.219
 8295SOL    HW225785   4.643   4.379   2.067
 8296SOL     OW25786   3.939   6.572   1.358
 8296SOL    HW125787   3.939   6.650   1.295
 8296SOL    HW225788   3.883   6.498   1.319
 8297SOL     OW25789   6.100   4.563   2.812
 8297SOL    HW125790   6.185   4.565   2.865
 8297SOL    HW225791   6.109   4.622   2.732
 8298SOL     OW25792   6.167   0.255   6.326
 8298SOL    HW125793   6.185   0.313   6.406
 8298SOL    HW225794   6.242   0.190   6.315
 8299SOL     OW25795   0.866   3.361   1.152
 8299SOL    HW125796   0.900   3.280   1.199
 8299SOL    HW225797   0.943   3.410   1.110
 8300SOL     OW25798   5.888   5.384   3.031
 8300SOL    HW125799   5.846   5.338   3.109
 8300SOL    HW225800   5.976   5.423   3.058
 8301SOL     OW25801   4.446   6.412   0.229
 8301SOL    HW125802   4.361   6.437   0.274
 8301SOL    HW225803   4.514   6.485   0.243
 8302SOL     OW25804   3.865   6.555   5.355
 8302SOL    HW125805   3.888   6.597   5.267
 8302SOL    HW225806   3.788   6.605   5.395
 8303SOL     OW25807   0.090   5.909   3.055
 8303SOL    HW125808   0.082   5.826   3.110
 8303SOL    HW225809   0.022   5.975   3.085
 8304SOL     OW25810   5.607   3.899   3.502
 8304SOL    HW125811   5.589   3.885   3.404
 8304SOL    HW225812   5.592   3.812   3.550
 8305SOL     OW25813   5.217   5.643   4.725
 8305SOL    HW125814   5.179   5.562   4.679
 8305SOL    HW225815   5.294   5.678   4.672
 8306SOL     OW25816   6.672   0.717   2.222
 8306SOL    HW125817   6.657   0.815   2.226
 8306SOL    HW225818   6.596   0.673   2.174
 8307SOL     OW25819   2.449   4.809   2.951
 8307SOL    HW125820   2.434   4.802   2.852
 8307SOL    HW225821   2.493   4.897   2.972
 8308SOL     OW25822   1.382   5.245   6.952
 8308SOL    HW125823   1.428   5.173   7.004
 8308SOL    HW225824   1.296   5.270   6.996
 8309SOL     OW25825   6.157   4.516   4.039
 8309SOL    HW125826   6.112   4.485   3.955
 8309SOL    HW225827   6.119   4.466   4.117
 8310SOL     OW25828   0.867   6.555   6.999
 8310SOL    HW125829   0.936   6.595   0.034
 8310SOL    HW225830   0.834   6.625   6.935
 8311SOL     OW25831   5.197   0.529   3.495
 8311SOL    HW125832   5.228   0.535   3.589
 8311SOL    HW225833   5.246   0.596   3.439
 8312SOL     OW25834   5.319   1.780   6.338
 8312SOL    HW125835   5.238   1.830   6.368
 8312SOL    HW225836   5.373   1.753   6.418
 8313SOL     OW25837   4.647   1.682   4.659
 8313SOL    HW125838   4.701   1.649   4.582
 8313SOL    HW225839   4.550   1.680   4.635
 8314SOL     OW25840   4.900   5.939   5.749
 8314SOL    HW125841   4.938   5.927   5.658
 8314SOL    HW225842   4.888   5.850   5.793
 8315SOL     OW25843   3.909   3.614   5.001
 8315SOL    HW125844   3.883   3.524   5.037
 8315SOL    HW225845   3.999   3.639   5.036
 8316SOL     OW25846   1.688   2.638   6.579
 8316SOL    HW125847   1.777   2.682   6.562
 8316SOL    HW225848   1.655   2.596   6.495
 8317SOL     OW25849   2.219   1.410   3.598
 8317SOL    HW125850   2.304   1.367   3.566
 8317SOL    HW225851   2.145   1.343   3.595
 8318SOL     OW25852   4.179   0.078   6.562
 8318SOL    HW125853   4.273   0.093   6.529
 8318SOL    HW225854   4.118   0.146   6.522
 8319SOL     OW25855   1.697   6.541   6.666
 8319SOL    HW125856   1.666   6.446   6.659
 8319SOL    HW225857   1.646   6.587   6.738
 8320SOL     OW25858   3.008   3.925   4.642
 8320SOL    HW125859   3.057   3.991   4.585
 8320SOL    HW225860   3.031   3.940   4.738
 8321SOL     OW25861   6.390   6.515   0.405
 8321SOL    HW125862   6.381   6.504   0.504
 8321SOL    HW225863   6.303   6.492   0.361
 8322SOL     OW25864   0.200   0.877   6.981
 8322SOL    HW125865   0.270   0.855   0.023
 8322SOL    HW225866   0.138   0.947   7.018
 8323SOL     OW25867   4.629   4.781   0.873
 8323SOL    HW125868   4.561   4.790   0.800
 8323SOL    HW225869   4.598   4.829   0.955
 8324SOL     OW25870   5.467   6.873   6.774
 8324SOL    HW125871   5.543   6.917   6.727
 8324SOL    HW225872   5.468   6.897   6.871
 8325SOL     OW25873   1.239   5.755   5.763
 8325SOL    HW125874   1.297   5.712   5.832
 8325SOL    HW225875   1.237   5.698   5.681
 8326SOL     OW25876   1.297   4.153   1.741
 8326SOL    HW125877   1.300   4.064   1.694
 8326SOL    HW225878   1.360   4.152   1.818
 8327SOL     OW25879   1.158   6.766   4.547
 8327SOL    HW125880   1.184   6.719   4.632
 8327SOL    HW225881   1.088   6.713   4.500
 8328SOL     OW25882   1.879   0.348   6.761
 8328SOL    HW125883   1.891   0.273   6.826
 8328SOL    HW225884   1.968   0.388   6.739
 8329SOL     OW25885   1.436   2.703   5.211
 8329SOL    HW125886   1.375   2.773   5.247
 8329SOL    HW225887   1.451   2.632   5.281
 8330SOL     OW25888   3.128   1.471   6.507
 8330SOL    HW125889   3.185   1.542   6.467
 8330SOL    HW225890   3.161   1.450   6.599
 8331SOL     OW25891   2.043   2.435   6.831
 8331SOL    HW125892   2.064   2.391   6.918
 8331SOL    HW225893   2.011   2.366   6.766
 8332SOL     OW25894   6.081   5.396   1.818
 8332SOL    HW125895   6.150   5.469   1.822
 8332SOL    HW225896   6.116   5.321   1.762
 8333SOL     OW25897   2.497   4.973   1.304
 8333SOL    HW125898   2.524   5.068   1.319
 8333SOL    HW225899   2.436   4.944   1.379
 8334SOL     OW25900   3.947   1.928   6.168
 8334SOL    HW125901   3.922   2.022   6.191
 8334SOL    HW225902   4.028   1.928   6.110
 8335SOL     OW25903   5.130   3.616   6.090
 8335SOL    HW125904   5.123   3.711   6.119
 8335SOL    HW225905   5.039   3.573   6.097
 8336SOL     OW25906   1.318   3.708   3.546
 8336SOL    HW125907   1.304   3.651   3.627
 8336SOL    HW225908   1.263   3.672   3.471
 8337SOL     OW25909   0.294   1.328   4.170
 8337SOL    HW125910   0.315   1.263   4.097
 8337SOL    HW225911   0.377   1.375   4.199
 8338SOL     OW25912   4.570   5.459   2.698
 8338SOL    HW125913   4.661   5.424   2.673
 8338SOL    HW225914   4.569   5.559   2.691
 8339SOL     OW25915   6.247   0.112   0.461
 8339SOL    HW125916   6.266   0.015   0.480
 8339SOL    HW225917   6.193   0.119   0.377
 8340SOL     OW25918   5.857   2.751   0.404
 8340SOL    HW125919   5.866   2.836   0.457
 8340SOL    HW225920   5.760   2.730   0.392
 8341SOL     OW25921   3.192   1.363   0.702
 8341SOL    HW125922   3.104   1.403   0.726
 8341SOL    HW225923   3.257   1.435   0.678
 8342SOL     OW25924   4.694   0.486   0.138
 8342SOL    HW125925   4.597   0.506   0.122
 8342SOL    HW225926   4.709   0.387   0.134
 8343SOL     OW25927   5.977   4.074   3.766
 8343SOL    HW125928   5.997   4.108   3.857
 8343SOL    HW225929   5.908   4.001   3.772
 8344SOL     OW25930   1.480   4.961   5.139
 8344SOL    HW125931   1.468   5.060   5.139
 8344SOL    HW225932   1.578   4.939   5.137
 8345SOL     OW25933   4.817   0.675   2.695
 8345SOL    HW125934   4.880   0.613   2.648
 8345SOL    HW225935   4.747   0.622   2.742
 8346SOL     OW25936   5.018   3.033   5.464
 8346SOL    HW125937   5.091   3.010   5.400
 8346SOL    HW225938   5.010   3.133   5.469
 8347SOL     OW25939   2.569   0.204   6.161
 8347SOL    HW125940   2.617   0.245   6.238
 8347SOL    HW225941   2.515   0.125   6.193
 8348SOL     OW25942   3.600   6.966   1.838
 8348SOL    HW125943   3.599   7.001   1.932
 8348SOL    HW225944   3.652   0.004   1.781
 8349SOL     OW25945   0.837   6.611   2.009
 8349SOL    HW125946   0.793   6.698   1.987
 8349SOL    HW225947   0.936   6.626   2.019
 8350SOL     OW25948   2.394   6.887   6.945
 8350SOL    HW125949   2.443   6.916   0.002
 8350SOL    HW225950   2.459   6.882   6.869
 8351SOL     OW25951   6.645   3.976   3.676
 8351SOL    HW125952   6.648   4.040   3.752
 8351SOL    HW225953   6.616   3.886   3.709
 8352SOL     OW25954   2.540   5.487   1.438
 8352SOL    HW125955   2.564   5.438   1.522
 8352SOL    HW225956   2.616   5.545   1.410
 8353SOL     OW25957   1.846   3.827   2.392
 8353SOL    HW125958   1.939   3.796   2.370
 8353SOL    HW225959   1.845   3.927   2.396
 8354SOL     OW25960   3.387   0.159   3.937
 8354SOL    HW125961   3.466   0.209   3.902
 8354SOL    HW225962   3.314   0.159   3.868
 8355SOL     OW25963   2.014   6.090   5.928
 8355SOL    HW125964   2.065   6.167   5.888
 8355SOL    HW225965   1.923   6.085   5.886
 8356SOL     OW25966   1.752   5.591   1.212
 8356SOL    HW125967   1.669   5.535   1.206
 8356SOL    HW225968   1.736   5.667   1.275
 8357SOL     OW25969   4.445   6.082   5.928
 8357SOL    HW125970   4.353   6.054   5.901
 8357SOL    HW225971   4.512   6.034   5.871
 8358SOL     OW25972   0.985   2.650   4.834
 8358SOL    HW125973   0.973   2.740   4.794
 8358SOL    HW225974   1.052   2.655   4.908
 8359SOL     OW25975   3.121   2.024   5.445
 8359SOL    HW125976   3.103   2.032   5.347
 8359SOL    HW225977   3.144   1.929   5.467
 8360SOL     OW25978   4.843   0.813   1.060
 8360SOL    HW125979   4.800   0.883   1.117
 8360SOL    HW225980   4.899   0.856   0.989
 8361SOL     OW25981   3.262   0.079   0.137
 8361SOL    HW125982   3.350   0.037   0.115
 8361SOL    HW225983   3.227   0.041   0.222
 8362SOL     OW25984   6.747   3.803   1.728
 8362SOL    HW125985   6.797   3.786   1.643
 8362SOL    HW225986   6.772   3.734   1.796
 8363SOL     OW25987   2.445   2.783   0.030
 8363SOL    HW125988   2.374   2.713   0.020
 8363SOL    HW225989   2.493   2.769   0.117
 8364SOL     OW25990   0.023   2.508   4.351
 8364SOL    HW125991   0.121   2.521   4.363
 8364SOL    HW225992   0.003   2.484   4.256
 8365SOL     OW25993   2.125   2.549   3.003
 8365SOL    HW125994   2.042   2.599   2.977
 8365SOL    HW225995   2.198   2.569   2.939
 8366SOL     OW25996   5.312   5.951   1.612
 8366SOL    HW125997   5.379   5.883   1.583
 8366SOL    HW225998   5.230   5.943   1.555
 8367SOL     OW25999   4.281   5.045   4.537
 8367SOL    HW126000   4.245   4.968   4.589
 8367SOL    HW226001   4.246   5.041   4.443
 8368SOL     OW26002   0.050   6.217   0.626
 8368SOL    HW126003   0.079   6.126   0.596
 8368SOL    HW226004   0.085   6.235   0.718
 8369SOL     OW26005   2.004   1.003   0.383
 8369SOL    HW126006   1.908   1.032   0.386
 8369SOL    HW226007   2.033   0.996   0.287
 8370SOL     OW26008   2.735   2.459   0.378
 8370SOL    HW126009   2.787   2.374   0.368
 8370SOL    HW226010   2.760   2.521   0.303
 8371SOL     OW26011   2.139   4.432   5.954
 8371SOL    HW126012   2.207   4.463   6.020
 8371SOL    HW226013   2.052   4.416   6.000
 8372SOL     OW26014   1.874   5.595   2.402
 8372SOL    HW126015   1.798   5.537   2.374
 8372SOL    HW226016   1.852   5.642   2.488
 8373SOL     OW26017   0.314   0.818   4.159
 8373SOL    HW126018   0.340   0.896   4.217
 8373SOL    HW226019   0.354   0.830   4.068
 8374SOL     OW26020   1.554   0.535   4.957
 8374SOL    HW126021   1.489   0.596   4.913
 8374SOL    HW226022   1.521   0.511   5.048
 8375SOL     OW26023   4.137   1.464   4.648
 8375SOL    HW126024   4.235   1.445   4.651
 8375SOL    HW226025   4.105   1.490   4.739
 8376SOL     OW26026   1.604   0.478   2.898
 8376SOL    HW126027   1.534   0.457   2.966
 8376SOL    HW226028   1.619   0.577   2.895
 8377SOL     OW26029   5.004   5.674   6.688
 8377SOL    HW126030   5.011   5.671   6.787
 8377SOL    HW226031   5.094   5.694   6.648
 8378SOL     OW26032   6.432   5.941   3.664
 8378SOL    HW126033   6.366   5.939   3.739
 8378SOL    HW226034   6.464   6.036   3.651
 8379SOL     OW26035   5.972   1.072   2.081
 8379SOL    HW126036   5.878   1.085   2.051
 8379SOL    HW226037   6.012   1.161   2.107
 8380SOL     OW26038   6.637   5.493   0.426
 8380SOL    HW126039   6.684   5.433   0.491
 8380SOL    HW226040   6.621   5.444   0.341
 8381SOL     OW26041   0.030   1.668   2.581
 8381SOL    HW126042   0.045   1.723   2.662
 8381SOL    HW226043   0.087   1.585   2.586
 8382SOL     OW26044   2.523   0.258   0.414
 8382SOL    HW126045   2.545   0.332   0.351
 8382SOL    HW226046   2.456   0.196   0.371
 8383SOL     OW26047   2.666   6.104   5.387
 8383SOL    HW126048   2.759   6.136   5.369
 8383SOL    HW226049   2.610   6.179   5.422
 8384SOL     OW26050   0.578   2.895   0.424
 8384SOL    HW126051   0.506   2.844   0.377
 8384SOL    HW226052   0.660   2.896   0.367
 8385SOL     OW26053   4.071   4.030   0.639
 8385SOL    HW126054   4.148   3.968   0.654
 8385SOL    HW226055   4.069   4.058   0.544
 8386SOL     OW26056   1.270   5.562   1.931
 8386SOL    HW126057   1.303   5.495   1.865
 8386SOL    HW226058   1.316   5.650   1.916
 8387SOL     OW26059   1.643   1.269   2.035
 8387SOL    HW126060   1.631   1.273   2.135
 8387SOL    HW226061   1.736   1.297   2.011
 8388SOL     OW26062   3.261   6.873   0.852
 8388SOL    HW126063   3.337   6.871   0.787
 8388SOL    HW226064   3.297   6.869   0.946
 8389SOL     OW26065   1.253   2.564   4.411
 8389SOL    HW126066   1.258   2.541   4.508
 8389SOL    HW226067   1.301   2.650   4.394
 8390SOL     OW26068   2.014   0.820   5.401
 8390SOL    HW126069   2.066   0.736   5.391
 8390SOL    HW226070   1.967   0.820   5.490
 8391SOL     OW26071   4.813   5.415   1.462
 8391SOL    HW126072   4.867   5.393   1.381
 8391SOL    HW226073   4.826   5.344   1.531
 8392SOL     OW26074   5.767   6.628   5.467
 8392SOL    HW126075   5.771   6.727   5.478
 8392SOL    HW226076   5.770   6.584   5.557
 8393SOL     OW26077   0.533   6.187   3.101
 8393SOL    HW126078   0.601   6.113   3.101
 8393SOL    HW226079   0.554   6.252   3.173
 8394SOL     OW26080   0.718   1.766   2.971
 8394SOL    HW126081   0.658   1.817   2.909
 8394SOL    HW226082   0.805   1.749   2.925
 8395SOL     OW26083   0.235   6.438   4.787
 8395SOL    HW126084   0.255   6.400   4.878
 8395SOL    HW226085   0.321   6.460   4.741
 8396SOL     OW26086   4.775   4.174   2.708
 8396SOL    HW126087   4.723   4.256   2.685
 8396SOL    HW226088   4.812   4.183   2.801
 8397SOL     OW26089   2.061   5.854   3.097
 8397SOL    HW126090   1.973   5.878   3.138
 8397SOL    HW226091   2.047   5.825   3.002
 8398SOL     OW26092   4.474   1.583   0.113
 8398SOL    HW126093   4.384   1.609   0.077
 8398SOL    HW226094   4.501   1.648   0.184
 8399SOL     OW26095   5.341   6.201   0.322
 8399SOL    HW126096   5.389   6.113   0.317
 8399SOL    HW226097   5.292   6.217   0.237
 8400SOL     OW26098   0.021   0.072   2.747
 8400SOL    HW126099   6.974   0.113   2.802
 8400SOL    HW226100   0.065   0.143   2.692
 8401SOL     OW26101   3.667   3.965   6.129
 8401SOL    HW126102   3.757   3.931   6.103
 8401SOL    HW226103   3.598   3.930   6.066
 8402SOL     OW26104   4.285   1.923   6.322
 8402SOL    HW126105   4.258   1.872   6.403
 8402SOL    HW226106   4.251   2.017   6.330
 8403SOL     OW26107   1.465   1.477   4.278
 8403SOL    HW126108   1.544   1.519   4.324
 8403SOL    HW226109   1.461   1.507   4.183
 8404SOL     OW26110   4.837   5.665   5.836
 8404SOL    HW126111   4.835   5.680   5.935
 8404SOL    HW226112   4.891   5.584   5.815
 8405SOL     OW26113   0.315   2.331   6.497
 8405SOL    HW126114   0.284   2.268   6.425
 8405SOL    HW226115   0.414   2.343   6.491
 8406SOL     OW26116   4.747   2.586   1.558
 8406SOL    HW126117   4.801   2.644   1.619
 8406SOL    HW226118   4.804   2.513   1.522
 8407SOL     OW26119   5.167   4.183   4.057
 8407SOL    HW126120   5.109   4.228   3.989
 8407SOL    HW226121   5.263   4.195   4.032
 8408SOL     OW26122   4.956   2.090   3.864
 8408SOL    HW126123   4.914   2.036   3.937
 8408SOL    HW226124   5.021   2.034   3.813
 8409SOL     OW26125   1.914   1.633   4.263
 8409SOL    HW126126   1.856   1.620   4.182
 8409SOL    HW226127   2.009   1.614   4.239
 8410SOL     OW26128   4.194   6.476   1.410
 8410SOL    HW126129   4.098   6.499   1.392
 8410SOL    HW226130   4.225   6.526   1.491
 8411SOL     OW26131   2.075   4.291   4.378
 8411SOL    HW126132   2.167   4.259   4.403
 8411SOL    HW226133   2.068   4.389   4.395
 8412SOL     OW26134   4.510   2.184   2.049
 8412SOL    HW126135   4.608   2.167   2.036
 8412SOL    HW226136   4.478   2.135   2.130
 8413SOL     OW26137   3.292   4.992   0.344
 8413SOL    HW126138   3.245   5.049   0.412
 8413SOL    HW226139   3.374   5.039   0.312
 8414SOL     OW26140   4.081   6.086   3.208
 8414SOL    HW126141   4.143   6.080   3.130
 8414SOL    HW226142   4.027   6.170   3.201
 8415SOL     OW26143   6.529   3.972   3.420
 8415SOL    HW126144   6.558   3.959   3.514
 8415SOL    HW226145   6.557   3.894   3.364
 8416SOL     OW26146   5.271   3.749   2.719
 8416SOL    HW126147   5.274   3.775   2.623
 8416SOL    HW226148   5.326   3.814   2.773
 8417SOL     OW26149   2.121   6.132   6.429
 8417SOL    HW126150   2.185   6.117   6.505
 8417SOL    HW226151   2.044   6.070   6.438
 8418SOL     OW26152   6.547   5.496   2.613
 8418SOL    HW126153   6.572   5.578   2.665
 8418SOL    HW226154   6.462   5.459   2.651
 8419SOL     OW26155   4.368   0.387   2.369
 8419SOL    HW126156   4.360   0.343   2.458
 8419SOL    HW226157   4.404   0.480   2.381
 8420SOL     OW26158   3.734   0.414   6.100
 8420SOL    HW126159   3.822   0.389   6.061
 8420SOL    HW226160   3.707   0.504   6.065
 8421SOL     OW26161   1.988   6.452   2.215
 8421SOL    HW126162   1.938   6.366   2.204
 8421SOL    HW226163   2.080   6.442   2.176
 8422SOL     OW26164   4.635   6.966   0.269
 8422SOL    HW126165   4.547   6.951   0.223
 8422SOL    HW226166   4.626   6.941   0.365
 8423SOL     OW26167   3.544   4.790   0.456
 8423SOL    HW126168   3.531   4.821   0.550
 8423SOL    HW226169   3.497   4.853   0.393
 8424SOL     OW26170   3.471   1.696   2.855
 8424SOL    HW126171   3.443   1.644   2.936
 8424SOL    HW226172   3.448   1.645   2.772
 8425SOL     OW26173   5.975   5.123   1.381
 8425SOL    HW126174   6.048   5.065   1.418
 8425SOL    HW226175   5.889   5.103   1.429
 8426SOL     OW26176   4.042   3.233   3.560
 8426SOL    HW126177   4.090   3.218   3.646
 8426SOL    HW226178   3.972   3.162   3.548
 8427SOL     OW26179   2.357   4.074   6.794
 8427SOL    HW126180   2.442   4.054   6.744
 8427SOL    HW226181   2.380   4.117   6.881
 8428SOL     OW26182   0.514   4.042   1.995
 8428SOL    HW126183   0.509   4.012   2.090
 8428SOL    HW226184   0.599   4.008   1.954
 8429SOL     OW26185   1.963   5.739   3.749
 8429SOL    HW126186   1.999   5.824   3.709
 8429SOL    HW226187   1.907   5.761   3.829
 8430SOL     OW26188   4.474   4.526   3.260
 8430SOL    HW126189   4.553   4.479   3.221
 8430SOL    HW226190   4.401   4.530   3.192
 8431SOL     OW26191   3.452   4.668   1.103
 8431SOL    HW126192   3.494   4.587   1.063
 8431SOL    HW226193   3.379   4.640   1.165
 8432SOL     OW26194   3.934   5.555   6.489
 8432SOL    HW126195   3.891   5.638   6.525
 8432SOL    HW226196   3.929   5.555   6.390
 8433SOL     OW26197   1.186   2.904   6.030
 8433SOL    HW126198   1.090   2.925   6.048
 8433SOL    HW226199   1.218   2.835   6.094
 8434SOL     OW26200   4.942   6.203   5.803
 8434SOL    HW126201   4.893   6.255   5.733
 8434SOL    HW226202   4.942   6.106   5.779
 8435SOL     OW26203   4.618   2.063   1.310
 8435SOL    HW126204   4.574   1.977   1.285
 8435SOL    HW226205   4.697   2.078   1.251
 8436SOL     OW26206   4.278   4.811   2.382
 8436SOL    HW126207   4.283   4.911   2.395
 8436SOL    HW226208   4.201   4.789   2.322
 8437SOL     OW26209   0.601   1.043   0.842
 8437SOL    HW126210   0.565   0.953   0.867
 8437SOL    HW226211   0.554   1.078   0.762
 8438SOL     OW26212   2.858   4.733   2.485
 8438SOL    HW126213   2.951   4.743   2.451
 8438SOL    HW226214   2.796   4.718   2.408
 8439SOL     OW26215   0.173   5.676   2.481
 8439SOL    HW126216   0.104   5.604   2.480
 8439SOL    HW226217   0.156   5.738   2.557
 8440SOL     OW26218   0.369   0.799   1.591
 8440SOL    HW126219   0.403   0.887   1.559
 8440SOL    HW226220   0.269   0.801   1.596
 8441SOL     OW26221   5.320   5.575   6.302
 8441SOL    HW126222   5.396   5.523   6.342
 8441SOL    HW226223   5.346   5.606   6.211
 8442SOL     OW26224   2.200   4.541   0.118
 8442SOL    HW126225   2.140   4.475   0.164
 8442SOL    HW226226   2.225   4.505   0.028
 8443SOL     OW26227   0.855   0.370   2.880
 8443SOL    HW126228   0.895   0.386   2.790
 8443SOL    HW226229   0.788   0.442   2.900
 8444SOL     OW26230   3.902   6.357   3.615
 8444SOL    HW126231   3.859   6.290   3.554
 8444SOL    HW226232   4.001   6.351   3.606
 8445SOL     OW26233   3.571   5.387   2.728
 8445SOL    HW126234   3.604   5.353   2.640
 8445SOL    HW226235   3.627   5.350   2.802
 8446SOL     OW26236   5.661   5.127   2.805
 8446SOL    HW126237   5.756   5.130   2.836
 8446SOL    HW226238   5.619   5.217   2.819
 8447SOL     OW26239   5.280   2.127   2.179
 8447SOL    HW126240   5.198   2.109   2.233
 8447SOL    HW226241   5.265   2.099   2.084
 8448SOL     OW26242   0.172   3.833   6.693
 8448SOL    HW126243   0.251   3.864   6.640
 8448SOL    HW226244   0.161   3.734   6.681
 8449SOL     OW26245   0.716   3.325   4.892
 8449SOL    HW126246   0.753   3.296   4.804
 8449SOL    HW226247   0.790   3.327   4.960
 8450SOL     OW26248   1.638   6.041   3.049
 8450SOL    HW126249   1.660   6.125   2.999
 8450SOL    HW226250   1.639   5.963   2.986
 8451SOL     OW26251   4.021   3.123   1.403
 8451SOL    HW126252   4.070   3.099   1.319
 8451SOL    HW226253   4.086   3.138   1.477
 8452SOL     OW26254   6.670   0.300   1.128
 8452SOL    HW126255   6.689   0.263   1.219
 8452SOL    HW226256   6.735   0.262   1.063
 8453SOL     OW26257   6.337   4.726   6.438
 8453SOL    HW126258   6.254   4.676   6.464
 8453SOL    HW226259   6.407   4.711   6.508
 8454SOL     OW26260   1.239   6.764   3.350
 8454SOL    HW126261   1.316   6.735   3.407
 8454SOL    HW226262   1.254   6.857   3.318
 8455SOL     OW26263   4.979   1.709   1.089
 8455SOL    HW126264   5.047   1.698   1.162
 8455SOL    HW226265   4.896   1.660   1.114
 8456SOL     OW26266   5.422   5.593   3.771
 8456SOL    HW126267   5.438   5.617   3.675
 8456SOL    HW226268   5.487   5.523   3.799
 8457SOL     OW26269   0.078   0.286   5.481
 8457SOL    HW126270   0.137   0.325   5.552
 8457SOL    HW226271   0.049   0.359   5.419
 8458SOL     OW26272   1.817   2.224   0.180
 8458SOL    HW126273   1.829   2.202   0.083
 8458SOL    HW226274   1.878   2.168   0.235
 8459SOL     OW26275   3.714   5.784   2.162
 8459SOL    HW126276   3.638   5.849   2.158
 8459SOL    HW226277   3.733   5.750   2.070
 8460SOL     OW26278   4.653   2.227   6.999
 8460SOL    HW126279   4.671   2.219   6.901
 8460SOL    HW226280   4.658   2.137   0.016
 8461SOL     OW26281   0.709   4.068   1.474
 8461SOL    HW126282   0.695   4.149   1.532
 8461SOL    HW226283   0.673   4.086   1.383
 8462SOL     OW26284   3.336   4.064   6.851
 8462SOL    HW126285   3.430   4.098   6.857
 8462SOL    HW226286   3.324   3.986   6.912
 8463SOL     OW26287   0.081   1.992   0.258
 8463SOL    HW126288   0.119   2.006   0.167
 8463SOL    HW226289   7.007   1.989   0.252
 8464SOL     OW26290   0.145   3.399   6.760
 8464SOL    HW126291   0.229   3.452   6.770
 8464SOL    HW226292   0.167   3.309   6.721
 8465SOL     OW26293   3.439   2.115   1.127
 8465SOL    HW126294   3.429   2.052   1.204
 8465SOL    HW226295   3.508   2.183   1.149
 8466SOL     OW26296   5.322   0.618   5.539
 8466SOL    HW126297   5.308   0.520   5.527
 8466SOL    HW226298   5.388   0.651   5.471
 8467SOL     OW26299   3.093   1.093   0.687
 8467SOL    HW126300   3.002   1.097   0.729
 8467SOL    HW226301   3.130   1.185   0.678
 8468SOL     OW26302   6.055   3.602   6.814
 8468SOL    HW126303   6.019   3.587   6.722
 8468SOL    HW226304   5.996   3.556   6.881
 8469SOL     OW26305   4.171   2.878   5.529
 8469SOL    HW126306   4.076   2.848   5.538
 8469SOL    HW226307   4.230   2.799   5.514
 8470SOL     OW26308   0.758   4.622   1.228
 8470SOL    HW126309   0.669   4.603   1.185
 8470SOL    HW226310   0.765   4.570   1.313
 8471SOL     OW26311   2.709   0.733   5.128
 8471SOL    HW126312   2.693   0.738   5.227
 8471SOL    HW226313   2.695   0.639   5.097
 8472SOL     OW26314   5.303   1.521   6.232
 8472SOL    HW126315   5.304   1.603   6.288
 8472SOL    HW226316   5.224   1.465   6.256
 8473SOL     OW26317   4.974   4.919   6.730
 8473SOL    HW126318   4.958   4.945   6.635
 8473SOL    HW226319   4.939   4.991   6.790
 8474SOL     OW26320   3.009   3.285   2.361
 8474SOL    HW126321   3.075   3.214   2.338
 8474SOL    HW226322   2.954   3.307   2.281
 8475SOL     OW26323   0.110   3.455   1.315
 8475SOL    HW126324   0.135   3.471   1.219
 8475SOL    HW226325   0.013   3.433   1.321
 8476SOL     OW26326   6.306   0.150   1.716
 8476SOL    HW126327   6.279   0.220   1.650
 8476SOL    HW226328   6.247   0.155   1.796
 8477SOL     OW26329   4.640   0.122   1.390
 8477SOL    HW126330   4.675   0.201   1.340
 8477SOL    HW226331   4.658   0.133   1.488
 8478SOL     OW26332   0.419   0.103   5.652
 8478SOL    HW126333   0.340   0.129   5.708
 8478SOL    HW226334   0.476   0.038   5.702
 8479SOL     OW26335   1.617   2.226   1.402
 8479SOL    HW126336   1.578   2.262   1.317
 8479SOL    HW226337   1.609   2.126   1.403
 8480SOL     OW26338   4.635   3.368   0.341
 8480SOL    HW126339   4.657   3.273   0.317
 8480SOL    HW226340   4.692   3.398   0.417
 8481SOL     OW26341   3.808   2.081   4.415
 8481SOL    HW126342   3.764   2.076   4.325
 8481SOL    HW226343   3.878   2.010   4.422
 8482SOL     OW26344   4.657   1.191   0.020
 8482SOL    HW126345   4.603   1.108   0.030
 8482SOL    HW226346   4.700   1.193   6.955
 8483SOL     OW26347   3.448   5.957   3.571
 8483SOL    HW126348   3.403   5.882   3.523
 8483SOL    HW226349   3.418   6.044   3.533
 8484SOL     OW26350   6.349   6.167   5.024
 8484SOL    HW126351   6.311   6.195   4.936
 8484SOL    HW226352   6.408   6.240   5.059
 8485SOL     OW26353   3.879   2.666   0.227
 8485SOL    HW126354   3.859   2.569   0.215
 8485SOL    HW226355   3.962   2.689   0.176
 8486SOL     OW26356   1.359   1.400   2.274
 8486SOL    HW126357   1.403   1.325   2.324
 8486SOL    HW226358   1.270   1.370   2.241
 8487SOL     OW26359   5.543   2.022   5.816
 8487SOL    HW126360   5.606   2.038   5.893
 8487SOL    HW226361   5.490   2.105   5.799
 8488SOL     OW26362   5.609   5.875   2.512
 8488SOL    HW126363   5.522   5.830   2.534
 8488SOL    HW226364   5.597   5.975   2.515
 8489SOL     OW26365   5.808   0.905   1.313
 8489SOL    HW126366   5.830   1.002   1.308
 8489SOL    HW226367   5.742   0.882   1.242
 8490SOL     OW26368   2.434   6.622   6.613
 8490SOL    HW126369   2.493   6.567   6.554
 8490SOL    HW226370   2.342   6.627   6.573
 8491SOL     OW26371   1.893   5.807   2.190
 8491SOL    HW126372   1.888   5.722   2.138
 8491SOL    HW226373   1.829   5.803   2.266
 8492SOL     OW26374   6.365   3.814   4.601
 8492SOL    HW126375   6.405   3.878   4.666
 8492SOL    HW226376   6.436   3.776   4.542
 8493SOL     OW26377   3.399   1.355   0.328
 8493SOL    HW126378   3.419   1.261   0.356
 8493SOL    HW226379   3.484   1.401   0.303
 8494SOL     OW26380   5.765   4.969   1.890
 8494SOL    HW126381   5.706   4.924   1.957
 8494SOL    HW226382   5.767   4.915   1.806
 8495SOL     OW26383   6.163   5.071   0.604
 8495SOL    HW126384   6.222   5.082   0.684
 8495SOL    HW226385   6.159   4.975   0.578
 8496SOL     OW26386   5.693   1.396   1.947
 8496SOL    HW126387   5.651   1.326   1.889
 8496SOL    HW226388   5.700   1.481   1.895
 8497SOL     OW26389   0.082   0.382   3.494
 8497SOL    HW126390   0.126   0.317   3.432
 8497SOL    HW226391   7.008   0.372   3.488
 8498SOL     OW26392   5.274   6.925   4.322
 8498SOL    HW126393   5.266   7.025   4.320
 8498SOL    HW226394   5.203   6.887   4.381
 8499SOL     OW26395   6.965   5.743   0.359
 8499SOL    HW126396   6.880   5.795   0.372
 8499SOL    HW226397   6.985   5.737   0.261
 8500SOL     OW26398   1.502   1.287   5.845
 8500SOL    HW126399   1.518   1.278   5.943
 8500SOL    HW226400   1.533   1.376   5.814
 8501SOL     OW26401   0.487   1.851   6.917
 8501SOL    HW126402   0.519   1.902   6.837
 8501SOL    HW226403   0.387   1.858   6.924
 8502SOL     OW26404   0.460   2.898   6.597
 8502SOL    HW126405   0.489   2.921   6.690
 8502SOL    HW226406   0.374   2.847   6.600
 8503SOL     OW26407   6.598   6.297   4.645
 8503SOL    HW126408   6.536   6.255   4.711
 8503SOL    HW226409   6.557   6.292   4.553
 8504SOL     OW26410   2.183   5.519   2.284
 8504SOL    HW126411   2.095   5.558   2.258
 8504SOL    HW226412   2.254   5.554   2.223
 8505SOL     OW26413   5.253   3.564   2.931
 8505SOL    HW126414   5.156   3.573   2.953
 8505SOL    HW226415   5.269   3.596   2.837
 8506SOL     OW26416   1.955   0.745   0.493
 8506SOL    HW126417   1.989   0.835   0.466
 8506SOL    HW226418   1.872   0.723   0.443
 8507SOL     OW26419   4.811   0.176   5.501
 8507SOL    HW126420   4.866   0.194   5.420
 8507SOL    HW226421   4.770   0.085   5.494
 8508SOL     OW26422   4.218   2.270   6.622
 8508SOL    HW126423   4.187   2.363   6.604
 8508SOL    HW226424   4.191   2.243   6.714
 8509SOL     OW26425   5.626   0.295   3.418
 8509SOL    HW126426   5.561   0.340   3.356
 8509SOL    HW226427   5.716   0.339   3.409
 8510SOL     OW26428   5.519   2.541   4.149
 8510SOL    HW126429   5.516   2.626   4.096
 8510SOL    HW226430   5.429   2.498   4.148
 8511SOL     OW26431   5.429   2.956   2.161
 8511SOL    HW126432   5.331   2.954   2.145
 8511SOL    HW226433   5.460   3.051   2.170
 8512SOL     OW26434   1.903   0.003   3.585
 8512SOL    HW126435   1.836   0.074   3.603
 8512SOL    HW226436   1.877   6.945   3.635
 8513SOL     OW26437   6.034   6.276   6.869
 8513SOL    HW126438   5.973   6.306   6.942
 8513SOL    HW226439   5.999   6.190   6.830
 8514SOL     OW26440   3.209   6.376   3.714
 8514SOL    HW126441   3.297   6.418   3.735
 8514SOL    HW226442   3.197   6.295   3.771
 8515SOL     OW26443   5.820   2.036   0.871
 8515SOL    HW126444   5.800   1.988   0.786
 8515SOL    HW226445   5.845   2.131   0.850
 8516SOL     OW26446   6.464   2.369   2.025
 8516SOL    HW126447   6.447   2.455   2.073
 8516SOL    HW226448   6.479   2.296   2.092
 8517SOL     OW26449   1.292   2.731   6.240
 8517SOL    HW126450   1.260   2.659   6.302
 8517SOL    HW226451   1.381   2.705   6.203
 8518SOL     OW26452   3.338   5.733   0.071
 8518SOL    HW126453   3.375   5.700   0.158
 8518SOL    HW226454   3.268   5.803   0.090
 8519SOL     OW26455   1.428   5.613   2.420
 8519SOL    HW126456   1.373   5.640   2.500
 8519SOL    HW226457   1.367   5.574   2.350
 8520SOL     OW26458   4.132   0.984   0.301
 8520SOL    HW126459   4.079   0.964   0.219
 8520SOL    HW226460   4.197   1.058   0.281
 8521SOL     OW26461   1.057   6.225   6.042
 8521SOL    HW126462   1.015   6.205   5.953
 8521SOL    HW226463   1.022   6.161   6.110
 8522SOL     OW26464   1.070   6.363   4.468
 8522SOL    HW126465   1.130   6.302   4.520
 8522SOL    HW226466   1.048   6.443   4.523
 8523SOL     OW26467   1.776   6.707   6.457
 8523SOL    HW126468   1.846   6.778   6.461
 8523SOL    HW226469   1.783   6.648   6.538
 8524SOL     OW26470   1.474   3.859   5.757
 8524SOL    HW126471   1.420   3.911   5.823
 8524SOL    HW226472   1.489   3.766   5.792
 8525SOL     OW26473   5.705   3.538   2.879
 8525SOL    HW126474   5.709   3.440   2.897
 8525SOL    HW226475   5.672   3.554   2.786
 8526SOL     OW26476   2.462   2.470   1.744
 8526SOL    HW126477   2.409   2.438   1.665
 8526SOL    HW226478   2.439   2.415   1.824
 8527SOL     OW26479   4.883   0.622   4.189
 8527SOL    HW126480   4.800   0.621   4.245
 8527SOL    HW226481   4.895   0.532   4.147
 8528SOL     OW26482   4.487   3.069   5.869
 8528SOL    HW126483   4.403   3.061   5.922
 8528SOL    HW226484   4.563   3.030   5.921
 8529SOL     OW26485   1.504   4.770   6.720
 8529SOL    HW126486   1.407   4.785   6.701
 8529SOL    HW226487   1.545   4.719   6.644
 8530SOL     OW26488   1.488   4.088   5.277
 8530SOL    HW126489   1.483   4.019   5.204
 8530SOL    HW226490   1.547   4.163   5.248
 8531SOL     OW26491   5.437   5.316   2.813
 8531SOL    HW126492   5.394   5.291   2.900
 8531SOL    HW226493   5.403   5.255   2.741
 8532SOL     OW26494   3.275   4.704   5.658
 8532SOL    HW126495   3.308   4.712   5.564
 8532SOL    HW226496   3.259   4.795   5.696
 8533SOL     OW26497   3.059   1.065   4.474
 8533SOL    HW126498   3.053   1.011   4.558
 8533SOL    HW226499   2.969   1.102   4.452
 8534SOL     OW26500   1.427   3.509   2.865
 8534SOL    HW126501   1.414   3.584   2.929
 8534SOL    HW226502   1.358   3.438   2.881
 8535SOL     OW26503   0.564   1.896   4.642
 8535SOL    HW126504   0.645   1.948   4.615
 8535SOL    HW226505   0.542   1.829   4.571
 8536SOL     OW26506   6.602   1.778   5.613
 8536SOL    HW126507   6.555   1.844   5.554
 8536SOL    HW226508   6.701   1.783   5.596
 8537SOL     OW26509   5.223   0.542   1.286
 8537SOL    HW126510   5.257   0.527   1.193
 8537SOL    HW226511   5.284   0.604   1.335
 8538SOL     OW26512   0.207   0.409   4.833
 8538SOL    HW126513   0.199   0.485   4.768
 8538SOL    HW226514   0.116   0.379   4.861
 8539SOL     OW26515   0.533   2.512   1.843
 8539SOL    HW126516   0.583   2.590   1.806
 8539SOL    HW226517   0.435   2.533   1.845
 8540SOL     OW26518   3.428   0.436   0.563
 8540SOL    HW126519   3.504   0.437   0.499
 8540SOL    HW226520   3.378   0.522   0.557
 8541SOL     OW26521   3.002   1.369   4.642
 8541SOL    HW126522   3.003   1.365   4.542
 8541SOL    HW226523   2.945   1.295   4.678
 8542SOL     OW26524   2.187   4.624   6.351
 8542SOL    HW126525   2.119   4.561   6.388
 8542SOL    HW226526   2.142   4.705   6.315
 8543SOL     OW26527   1.970   2.365   5.618
 8543SOL    HW126528   1.928   2.312   5.544
 8543SOL    HW226529   2.066   2.383   5.597
 8544SOL     OW26530   5.164   3.965   5.492
 8544SOL    HW126531   5.182   3.906   5.571
 8544SOL    HW226532   5.143   4.058   5.524
 8545SOL     OW26533   3.432   6.720   5.638
 8545SOL    HW126534   3.463   6.783   5.710
 8545SOL    HW226535   3.446   6.625   5.668
 8546SOL     OW26536   5.430   0.694   1.676
 8546SOL    HW126537   5.345   0.719   1.629
 8546SOL    HW226538   5.504   0.687   1.609
 8547SOL     OW26539   6.390   6.583   5.840
 8547SOL    HW126540   6.367   6.491   5.871
 8547SOL    HW226541   6.487   6.600   5.856
 8548SOL     OW26542   0.540   3.325   5.906
 8548SOL    HW126543   0.486   3.287   5.981
 8548SOL    HW226544   0.602   3.395   5.942
 8549SOL     OW26545   2.367   1.031   3.305
 8549SOL    HW126546   2.465   1.029   3.284
 8549SOL    HW226547   2.329   0.939   3.294
 8550SOL     OW26548   0.774   4.449   6.951
 8550SOL    HW126549   0.701   4.429   6.886
 8550SOL    HW226550   0.830   4.368   6.965
 8551SOL     OW26551   1.999   2.281   6.141
 8551SOL    HW126552   1.984   2.187   6.173
 8551SOL    HW226553   2.011   2.282   6.042
 8552SOL     OW26554   2.293   1.271   2.639
 8552SOL    HW126555   2.254   1.332   2.570
 8552SOL    HW226556   2.374   1.314   2.679
 8553SOL     OW26557   5.094   3.178   1.012
 8553SOL    HW126558   5.143   3.091   0.999
 8553SOL    HW226559   5.093   3.229   0.926
 8554SOL     OW26560   0.694   6.624   0.380
 8554SOL    HW126561   0.679   6.574   0.465
 8554SOL    HW226562   0.781   6.595   0.340
 8555SOL     OW26563   4.630   1.145   3.734
 8555SOL    HW126564   4.554   1.084   3.753
 8555SOL    HW226565   4.688   1.106   3.663
 8556SOL     OW26566   1.764   6.244   0.251
 8556SOL    HW126567   1.813   6.199   0.176
 8556SOL    HW226568   1.667   6.218   0.246
 8557SOL     OW26569   0.101   0.893   0.294
 8557SOL    HW126570   0.113   0.958   0.369
 8557SOL    HW226571   0.077   0.942   0.210
 8558SOL     OW26572   2.902   4.968   3.333
 8558SOL    HW126573   2.903   5.059   3.374
 8558SOL    HW226574   2.872   4.974   3.238
 8559SOL     OW26575   0.871   5.108   2.616
 8559SOL    HW126576   0.963   5.080   2.588
 8559SOL    HW226577   0.865   5.109   2.716
 8560SOL     OW26578   2.285   4.431   1.550
 8560SOL    HW126579   2.251   4.494   1.481
 8560SOL    HW226580   2.211   4.369   1.577
 8561SOL     OW26581   4.154   0.063   2.278
 8561SOL    HW126582   4.120   7.012   2.224
 8561SOL    HW226583   4.224   0.111   2.225
 8562SOL     OW26584   3.977   1.334   6.773
 8562SOL    HW126585   3.895   1.323   6.829
 8562SOL    HW226586   3.953   1.378   6.687
 8563SOL     OW26587   1.506   5.687   3.245
 8563SOL    HW126588   1.459   5.736   3.171
 8563SOL    HW226589   1.567   5.618   3.205
 8564SOL     OW26590   3.929   0.352   6.947
 8564SOL    HW126591   3.863   0.426   6.956
 8564SOL    HW226592   3.958   0.344   6.852
 8565SOL     OW26593   2.872   5.564   1.153
 8565SOL    HW126594   2.832   5.534   1.067
 8565SOL    HW226595   2.877   5.487   1.216
 8566SOL     OW26596   3.310   1.221   3.307
 8566SOL    HW126597   3.326   1.129   3.343
 8566SOL    HW226598   3.222   1.224   3.261
 8567SOL     OW26599   1.602   2.072   1.637
 8567SOL    HW126600   1.692   2.051   1.676
 8567SOL    HW226601   1.604   2.162   1.595
 8568SOL     OW26602   6.823   1.825   6.629
 8568SOL    HW126603   6.920   1.835   6.650
 8568SOL    HW226604   6.768   1.856   6.706
 8569SOL     OW26605   5.416   2.450   6.131
 8569SOL    HW126606   5.507   2.419   6.159
 8569SOL    HW226607   5.377   2.508   6.203
 8570SOL     OW26608   1.549   2.959   3.920
 8570SOL    HW126609   1.624   2.945   3.856
 8570SOL    HW226610   1.518   2.872   3.957
 8571SOL     OW26611   1.785   0.494   3.512
 8571SOL    HW126612   1.822   0.583   3.486
 8571SOL    HW226613   1.824   0.423   3.453
 8572SOL     OW26614   3.152   4.192   5.749
 8572SOL    HW126615   3.148   4.257   5.824
 8572SOL    HW226616   3.067   4.139   5.746
 8573SOL     OW26617   3.441   6.309   0.544
 8573SOL    HW126618   3.393   6.315   0.457
 8573SOL    HW226619   3.524   6.254   0.533
 8574SOL     OW26620   6.916   6.401   5.679
 8574SOL    HW126621   6.827   6.417   5.635
 8574SOL    HW226622   6.943   6.306   5.664
 8575SOL     OW26623   3.367   6.046   2.699
 8575SOL    HW126624   3.422   6.099   2.634
 8575SOL    HW226625   3.317   6.109   2.759
 8576SOL     OW26626   0.656   3.748   3.347
 8576SOL    HW126627   0.639   3.760   3.445
 8576SOL    HW226628   0.731   3.808   3.318
 8577SOL     OW26629   1.930   1.443   6.702
 8577SOL    HW126630   2.029   1.458   6.696
 8577SOL    HW226631   1.883   1.513   6.648
 8578SOL     OW26632   6.290   0.028   5.126
 8578SOL    HW126633   6.353   0.058   5.198
 8578SOL    HW226634   6.322   0.059   5.037
 8579SOL     OW26635   2.948   6.030   2.965
 8579SOL    HW126636   2.866   6.080   2.937
 8579SOL    HW226637   3.028   6.070   2.919
 8580SOL     OW26638   1.506   6.763   1.337
 8580SOL    HW126639   1.486   6.758   1.240
 8580SOL    HW226640   1.603   6.747   1.352
 8581SOL     OW26641   3.623   4.895   1.057
 8581SOL    HW126642   3.552   4.829   1.080
 8581SOL    HW226643   3.640   4.893   0.959
 8582SOL     OW26644   3.837   4.417   5.588
 8582SOL    HW126645   3.745   4.377   5.584
 8582SOL    HW226646   3.903   4.345   5.611
 8583SOL     OW26647   4.304   0.868   2.746
 8583SOL    HW126648   4.364   0.853   2.824
 8583SOL    HW226649   4.237   0.939   2.770
 8584SOL     OW26650   6.673   1.080   4.658
 8584SOL    HW126651   6.611   1.145   4.614
 8584SOL    HW226652   6.739   1.131   4.715
 8585SOL     OW26653   5.693   2.233   1.635
 8585SOL    HW126654   5.790   2.221   1.655
 8585SOL    HW226655   5.670   2.331   1.636
 8586SOL     OW26656   5.580   6.059   1.054
 8586SOL    HW126657   5.538   6.088   1.139
 8586SOL    HW226658   5.680   6.069   1.060
 8587SOL     OW26659   1.250   1.367   5.762
 8587SOL    HW126660   1.198   1.281   5.763
 8587SOL    HW226661   1.348   1.347   5.762
 8588SOL     OW26662   3.241   1.655   6.924
 8588SOL    HW126663   3.330   1.628   6.960
 8588SOL    HW226664   3.253   1.732   6.861
 8589SOL     OW26665   0.523   2.931   5.764
 8589SOL    HW126666   0.621   2.940   5.751
 8589SOL    HW226667   0.477   3.016   5.739
 8590SOL     OW26668   0.906   1.993   2.767
 8590SOL    HW126669   0.907   1.926   2.693
 8590SOL    HW226670   0.813   2.029   2.779
 8591SOL     OW26671   6.667   5.173   0.151
 8591SOL    HW126672   6.664   5.085   0.104
 8591SOL    HW226673   6.586   5.227   0.127
 8592SOL     OW26674   0.998   2.445   6.623
 8592SOL    HW126675   0.988   2.533   6.668
 8592SOL    HW226676   0.945   2.376   6.673
 8593SOL     OW26677   2.952   0.427   6.823
 8593SOL    HW126678   3.016   0.494   6.861
 8593SOL    HW226679   2.874   0.418   6.885
 8594SOL     OW26680   6.277   2.722   6.191
 8594SOL    HW126681   6.292   2.821   6.194
 8594SOL    HW226682   6.228   2.699   6.107
 8595SOL     OW26683   4.883   6.677   2.196
 8595SOL    HW126684   4.915   6.586   2.221
 8595SOL    HW226685   4.962   6.735   2.174
 8596SOL     OW26686   0.953   2.952   3.402
 8596SOL    HW126687   0.968   2.854   3.405
 8596SOL    HW226688   1.037   2.998   3.372
 8597SOL     OW26689   5.595   3.392   1.457
 8597SOL    HW126690   5.633   3.305   1.490
 8597SOL    HW226691   5.662   3.465   1.474
 8598SOL     OW26692   5.708   0.360   4.384
 8598SOL    HW126693   5.769   0.284   4.360
 8598SOL    HW226694   5.714   0.431   4.313
 8599SOL     OW26695   1.604   2.618   3.700
 8599SOL    HW126696   1.636   2.554   3.770
 8599SOL    HW226697   1.610   2.711   3.735
 8600SOL     OW26698   4.693   3.234   1.405
 8600SOL    HW126699   4.652   3.159   1.456
 8600SOL    HW226700   4.757   3.284   1.464
 8601SOL     OW26701   1.122   0.779   3.701
 8601SOL    HW126702   1.040   0.742   3.744
 8601SOL    HW226703   1.098   0.817   3.612
 8602SOL     OW26704   2.751   6.861   4.356
 8602SOL    HW126705   2.729   6.843   4.260
 8602SOL    HW226706   2.836   6.815   4.380
 8603SOL     OW26707   6.937   0.758   0.407
 8603SOL    HW126708   6.961   0.662   0.392
 8603SOL    HW226709   6.999   0.817   0.355
 8604SOL     OW26710   1.315   3.957   5.972
 8604SOL    HW126711   1.338   3.990   6.064
 8604SOL    HW226712   1.217   3.965   5.957
 8605SOL     OW26713   6.849   4.733   4.463
 8605SOL    HW126714   6.767   4.759   4.410
 8605SOL    HW226715   6.930   4.766   4.415
 8606SOL     OW26716   2.104   2.312   6.490
 8606SOL    HW126717   2.075   2.254   6.566
 8606SOL    HW226718   2.025   2.339   6.436
 8607SOL     OW26719   2.082   5.038   1.532
 8607SOL    HW126720   2.125   5.035   1.442
 8607SOL    HW226721   2.022   4.958   1.543
 8608SOL     OW26722   2.594   4.984   3.264
 8608SOL    HW126723   2.641   5.016   3.181
 8608SOL    HW226724   2.496   4.983   3.248
 8609SOL     OW26725   4.935   1.355   3.677
 8609SOL    HW126726   4.928   1.258   3.653
 8609SOL    HW226727   4.896   1.369   3.768
 8610SOL     OW26728   0.557   6.373   3.295
 8610SOL    HW126729   0.605   6.350   3.379
 8610SOL    HW226730   0.501   6.454   3.309
 8611SOL     OW26731   3.233   1.658   3.889
 8611SOL    HW126732   3.207   1.682   3.983
 8611SOL    HW226733   3.299   1.725   3.855
 8612SOL     OW26734   3.921   3.481   3.532
 8612SOL    HW126735   3.974   3.397   3.536
 8612SOL    HW226736   3.826   3.460   3.506
 8613SOL     OW26737   2.905   2.491   1.480
 8613SOL    HW126738   2.833   2.561   1.482
 8613SOL    HW226739   2.926   2.468   1.385
 8614SOL     OW26740   0.985   2.317   1.259
 8614SOL    HW126741   1.041   2.235   1.251
 8614SOL    HW226742   0.951   2.326   1.353
 8615SOL     OW26743   4.351   1.207   3.442
 8615SOL    HW126744   4.354   1.240   3.536
 8615SOL    HW226745   4.307   1.276   3.384
 8616SOL     OW26746   4.341   5.079   2.477
 8616SOL    HW126747   4.340   5.047   2.571
 8616SOL    HW226748   4.407   5.153   2.467
 8617SOL     OW26749   4.536   6.988   3.985
 8617SOL    HW126750   4.449   6.963   4.027
 8617SOL    HW226751   4.527   6.990   3.886
 8618SOL     OW26752   5.566   4.021   1.691
 8618SOL    HW126753   5.520   3.935   1.713
 8618SOL    HW226754   5.509   4.097   1.720
 8619SOL     OW26755   5.556   4.621   1.914
 8619SOL    HW126756   5.484   4.690   1.903
 8619SOL    HW226757   5.629   4.659   1.970
 8620SOL     OW26758   2.445   0.967   4.554
 8620SOL    HW126759   2.401   0.883   4.584
 8620SOL    HW226760   2.467   1.024   4.634
 8621SOL     OW26761   5.009   2.316   1.948
 8621SOL    HW126762   5.093   2.262   1.951
 8621SOL    HW226763   5.024   2.398   1.892
 8622SOL     OW26764   6.760   5.233   2.605
 8622SOL    HW126765   6.854   5.260   2.584
 8622SOL    HW226766   6.713   5.309   2.650
 8623SOL     OW26767   6.743   3.011   5.291
 8623SOL    HW126768   6.782   2.932   5.244
 8623SOL    HW226769   6.789   3.094   5.260
 8624SOL     OW26770   3.408   3.748   6.289
 8624SOL    HW126771   3.391   3.763   6.192
 8624SOL    HW226772   3.434   3.835   6.332
 8625SOL     OW26773   3.732   1.575   5.518
 8625SOL    HW126774   3.639   1.545   5.501
 8625SOL    HW226775   3.776   1.595   5.430
 8626SOL     OW26776   4.722   3.520   0.121
 8626SOL    HW126777   4.704   3.474   0.207
 8626SOL    HW226778   4.816   3.504   0.092
 8627SOL     OW26779   1.602   1.512   2.423
 8627SOL    HW126780   1.559   1.480   2.507
 8627SOL    HW226781   1.536   1.506   2.348
 8628SOL     OW26782   0.443   6.392   0.437
 8628SOL    HW126783   0.429   6.299   0.404
 8628SOL    HW226784   0.501   6.442   0.372
 8629SOL     OW26785   0.463   0.118   4.201
 8629SOL    HW126786   0.463   0.110   4.301
 8629SOL    HW226787   0.369   0.129   4.168
 8630SOL     OW26788   4.938   3.169   2.986
 8630SOL    HW126789   4.877   3.091   2.969
 8630SOL    HW226790   4.980   3.159   3.076
 8631SOL     OW26791   2.824   6.314   6.632
 8631SOL    HW126792   2.922   6.317   6.651
 8631SOL    HW226793   2.804   6.237   6.571
 8632SOL     OW26794   4.518   4.798   5.219
 8632SOL    HW126795   4.449   4.863   5.251
 8632SOL    HW226796   4.598   4.847   5.185
 8633SOL     OW26797   5.464   3.864   5.590
 8633SOL    HW126798   5.455   3.928   5.513
 8633SOL    HW226799   5.374   3.838   5.623
 8634SOL     OW26800   5.446   5.132   1.095
 8634SOL    HW126801   5.531   5.184   1.090
 8634SOL    HW226802   5.369   5.194   1.094
 8635SOL     OW26803   6.524   3.083   6.729
 8635SOL    HW126804   6.507   2.998   6.678
 8635SOL    HW226805   6.489   3.074   6.822
 8636SOL     OW26806   4.783   6.139   1.097
 8636SOL    HW126807   4.689   6.175   1.090
 8636SOL    HW226808   4.804   6.120   1.192
 8637SOL     OW26809   2.209   1.939   6.347
 8637SOL    HW126810   2.124   1.971   6.306
 8637SOL    HW226811   2.267   1.900   6.276
 8638SOL     OW26812   4.280   3.051   5.319
 8638SOL    HW126813   4.361   3.023   5.268
 8638SOL    HW226814   4.267   2.989   5.397
 8639SOL     OW26815   4.349   3.278   6.641
 8639SOL    HW126816   4.400   3.193   6.626
 8639SOL    HW226817   4.409   3.356   6.622
 8640SOL     OW26818   2.909   3.297   1.412
 8640SOL    HW126819   2.850   3.271   1.489
 8640SOL    HW226820   2.911   3.223   1.345
 8641SOL     OW26821   4.802   5.309   2.667
 8641SOL    HW126822   4.880   5.371   2.676
 8641SOL    HW226823   4.799   5.272   2.574
 8642SOL     OW26824   1.334   6.526   4.533
 8642SOL    HW126825   1.290   6.579   4.461
 8642SOL    HW226826   1.310   6.563   4.622
 8643SOL     OW26827   3.504   6.827   0.701
 8643SOL    HW126828   3.579   6.893   0.694
 8643SOL    HW226829   3.533   6.750   0.757
 8644SOL     OW26830   6.032   1.718   6.679
 8644SOL    HW126831   6.100   1.658   6.721
 8644SOL    HW226832   5.955   1.732   6.742
 8645SOL     OW26833   6.081   4.292   1.907
 8645SOL    HW126834   5.987   4.307   1.939
 8645SOL    HW226835   6.104   4.196   1.917
 8646SOL     OW26836   0.101   2.097   5.630
 8646SOL    HW126837   0.123   2.184   5.674
 8646SOL    HW226838   0.076   2.030   5.700
 8647SOL     OW26839   2.248   4.682   1.408
 8647SOL    HW126840   2.315   4.756   1.410
 8647SOL    HW226841   2.175   4.702   1.473
 8648SOL     OW26842   5.701   5.854   1.376
 8648SOL    HW126843   5.785   5.819   1.417
 8648SOL    HW226844   5.719   5.941   1.332
 8649SOL     OW26845   4.283   6.786   0.449
 8649SOL    HW126846   4.188   6.796   0.477
 8649SOL    HW226847   4.342   6.798   0.529
 8650SOL     OW26848   2.297   6.883   4.172
 8650SOL    HW126849   2.340   6.972   4.171
 8650SOL    HW226850   2.267   6.859   4.079
 8651SOL     OW26851   2.606   1.613   0.486
 8651SOL    HW126852   2.634   1.566   0.402
 8651SOL    HW226853   2.684   1.618   0.549
 8652SOL     OW26854   1.291   4.111   3.928
 8652SOL    HW126855   1.273   4.208   3.912
 8652SOL    HW226856   1.340   4.072   3.850
 8653SOL     OW26857   6.811   1.453   5.975
 8653SOL    HW126858   6.827   1.515   5.897
 8653SOL    HW226859   6.770   1.505   6.050
 8654SOL     OW26860   1.075   4.924   2.029
 8654SOL    HW126861   1.022   4.945   1.946
 8654SOL    HW226862   1.138   4.999   2.048
 8655SOL     OW26863   6.869   1.469   5.420
 8655SOL    HW126864   6.780   1.446   5.458
 8655SOL    HW226865   6.864   1.463   5.320
 8656SOL     OW26866   4.547   6.853   1.625
 8656SOL    HW126867   4.523   6.914   1.550
 8656SOL    HW226868   4.634   6.883   1.665
 8657SOL     OW26869   5.300   0.732   2.473
 8657SOL    HW126870   5.372   0.757   2.409
 8657SOL    HW226871   5.240   0.810   2.489
 8658SOL     OW26872   6.180   4.982   1.466
 8658SOL    HW126873   6.161   4.884   1.470
 8658SOL    HW226874   6.279   4.995   1.459
 8659SOL     OW26875   5.324   1.410   2.214
 8659SOL    HW126876   5.290   1.499   2.244
 8659SOL    HW226877   5.247   1.351   2.190
 8660SOL     OW26878   0.970   2.717   1.279
 8660SOL    HW126879   0.887   2.736   1.332
 8660SOL    HW226880   0.946   2.705   1.183
 8661SOL     OW26881   6.009   3.360   3.230
 8661SOL    HW126882   6.051   3.401   3.149
 8661SOL    HW226883   6.036   3.264   3.237
 8662SOL     OW26884   3.279   5.600   2.947
 8662SOL    HW126885   3.298   5.502   2.952
 8662SOL    HW226886   3.341   5.644   2.882
 8663SOL     OW26887   3.654   5.530   3.133
 8663SOL    HW126888   3.561   5.511   3.165
 8663SOL    HW226889   3.718   5.468   3.177
 8664SOL     OW26890   2.599   5.658   3.146
 8664SOL    HW126891   2.618   5.627   3.240
 8664SOL    HW226892   2.501   5.672   3.135
 8665SOL     OW26893   6.147   4.092   6.144
 8665SOL    HW126894   6.225   4.125   6.090
 8665SOL    HW226895   6.167   4.001   6.179
 8666SOL     OW26896   5.285   0.245   3.350
 8666SOL    HW126897   5.242   0.324   3.394
 8666SOL    HW226898   5.225   0.165   3.360
 8667SOL     OW26899   5.146   1.846   4.289
 8667SOL    HW126900   5.126   1.748   4.284
 8667SOL    HW226901   5.085   1.890   4.355
 8668SOL     OW26902   5.168   2.882   5.297
 8668SOL    HW126903   5.082   2.871   5.248
 8668SOL    HW226904   5.238   2.917   5.235
 8669SOL     OW26905   6.017   6.560   6.042
 8669SOL    HW126906   6.108   6.600   6.052
 8669SOL    HW226907   5.980   6.584   5.952
 8670SOL     OW26908   6.236   4.653   5.647
 8670SOL    HW126909   6.229   4.715   5.724
 8670SOL    HW226910   6.220   4.559   5.678
 8671SOL     OW26911   0.270   2.344   2.412
 8671SOL    HW126912   0.288   2.254   2.372
 8671SOL    HW226913   0.345   2.406   2.389
 8672SOL     OW26914   0.237   0.604   3.454
 8672SOL    HW126915   0.174   0.528   3.467
 8672SOL    HW226916   0.321   0.571   3.411
 8673SOL     OW26917   0.983   1.458   0.426
 8673SOL    HW126918   1.072   1.412   0.416
 8673SOL    HW226919   0.977   1.498   0.518
 8674SOL     OW26920   0.469   4.458   3.210
 8674SOL    HW126921   0.536   4.428   3.278
 8674SOL    HW226922   0.504   4.537   3.161
 8675SOL     OW26923   3.416   1.859   5.745
 8675SOL    HW126924   3.415   1.957   5.721
 8675SOL    HW226925   3.506   1.821   5.726
 8676SOL     OW26926   5.575   0.841   1.116
 8676SOL    HW126927   5.580   0.941   1.109
 8676SOL    HW226928   5.645   0.800   1.057
 8677SOL     OW26929   1.310   6.675   5.541
 8677SOL    HW126930   1.326   6.602   5.608
 8677SOL    HW226931   1.307   6.636   5.449
 8678SOL     OW26932   1.563   0.532   0.927
 8678SOL    HW126933   1.509   0.610   0.893
 8678SOL    HW226934   1.502   0.469   0.976
 8679SOL     OW26935   2.294   1.205   4.107
 8679SOL    HW126936   2.271   1.111   4.132
 8679SOL    HW226937   2.389   1.209   4.076
 8680SOL     OW26938   6.460   2.589   6.339
 8680SOL    HW126939   6.381   2.623   6.289
 8680SOL    HW226940   6.442   2.591   6.437
 8681SOL     OW26941   5.115   5.710   1.020
 8681SOL    HW126942   5.087   5.703   0.924
 8681SOL    HW226943   5.214   5.694   1.027
 8682SOL     OW26944   0.267   0.245   1.055
 8682SOL    HW126945   0.296   0.270   1.148
 8682SOL    HW226946   0.238   0.327   1.006
 8683SOL     OW26947   1.940   3.948   4.799
 8683SOL    HW126948   1.866   3.900   4.847
 8683SOL    HW226949   1.976   4.021   4.858
 8684SOL     OW26950   0.727   3.979   4.588
 8684SOL    HW126951   0.823   3.995   4.565
 8684SOL    HW226952   0.671   4.050   4.547
 8685SOL     OW26953   4.904   2.369   5.669
 8685SOL    HW126954   4.933   2.413   5.753
 8685SOL    HW226955   4.950   2.280   5.660
 8686SOL     OW26956   6.464   6.369   2.575
 8686SOL    HW126957   6.532   6.382   2.503
 8686SOL    HW226958   6.377   6.409   2.546
 8687SOL     OW26959   6.127   3.112   3.263
 8687SOL    HW126960   6.158   3.034   3.317
 8687SOL    HW226961   6.192   3.129   3.188
 8688SOL     OW26962   1.388   4.074   6.210
 8688SOL    HW126963   1.476   4.121   6.209
 8688SOL    HW226964   1.332   4.108   6.285
 8689SOL     OW26965   4.495   3.255   0.774
 8689SOL    HW126966   4.480   3.218   0.682
 8689SOL    HW226967   4.590   3.285   0.783
 8690SOL     OW26968   1.882   1.960   3.378
 8690SOL    HW126969   1.786   1.975   3.400
 8690SOL    HW226970   1.925   1.903   3.448
 8691SOL     OW26971   2.915   2.015   4.964
 8691SOL    HW126972   2.942   2.073   4.887
 8691SOL    HW226973   2.887   1.925   4.930
 8692SOL     OW26974   4.624   2.244   5.845
 8692SOL    HW126975   4.655   2.286   5.930
 8692SOL    HW226976   4.608   2.314   5.777
 8693SOL     OW26977   6.015   0.744   6.488
 8693SOL    HW126978   5.946   0.679   6.456
 8693SOL    HW226979   6.091   0.747   6.423
 8694SOL     OW26980   5.885   3.230   3.847
 8694SOL    HW126981   5.895   3.220   3.748
 8694SOL    HW226982   5.834   3.314   3.866
 8695SOL     OW26983   4.248   3.750   6.593
 8695SOL    HW126984   4.163   3.699   6.605
 8695SOL    HW226985   4.314   3.723   6.663
 8696SOL     OW26986   2.900   5.674   6.039
 8696SOL    HW126987   2.906   5.605   6.112
 8696SOL    HW226988   2.828   5.740   6.061
 8697SOL     OW26989   1.893   3.917   5.770
 8697SOL    HW126990   1.822   3.915   5.699
 8697SOL    HW226991   1.983   3.928   5.728
 8698SOL     OW26992   5.184   5.918   5.366
 8698SOL    HW126993   5.227   5.902   5.454
 8698SOL    HW226994   5.176   6.017   5.350
 8699SOL     OW26995   2.336   3.021   0.132
 8699SOL    HW126996   2.278   3.035   0.052
 8699SOL    HW226997   2.403   2.949   0.112
 8700SOL     OW26998   0.583   0.136   5.260
 8700SOL    HW126999   0.495   0.170   5.293
 8700SOL    HW227000   0.627   0.080   5.330
 8701SOL     OW27001   1.008   2.016   6.666
 8701SOL    HW127002   1.066   2.098   6.662
 8701SOL    HW227003   0.983   1.989   6.573
 8702SOL     OW27004   5.078   4.349   1.736
 8702SOL    HW127005   5.061   4.276   1.669
 8702SOL    HW227006   5.082   4.437   1.689
 8703SOL     OW27007   2.496   4.515   1.081
 8703SOL    HW127008   2.566   4.471   1.137
 8703SOL    HW227009   2.406   4.493   1.118
 8704SOL     OW27010   0.709   2.274   3.885
 8704SOL    HW127011   0.716   2.180   3.853
 8704SOL    HW227012   0.785   2.328   3.847
 8705SOL     OW27013   4.631   2.623   0.143
 8705SOL    HW127014   4.682   2.703   0.173
 8705SOL    HW227015   4.686   2.570   0.078
 8706SOL     OW27016   4.826   3.570   6.596
 8706SOL    HW127017   4.763   3.504   6.556
 8706SOL    HW227018   4.803   3.585   6.692
 8707SOL     OW27019   1.430   2.090   4.498
 8707SOL    HW127020   1.504   2.023   4.497
 8707SOL    HW227021   1.343   2.042   4.484
 8708SOL     OW27022   6.025   2.271   2.563
 8708SOL    HW127023   6.049   2.361   2.528
 8708SOL    HW227024   5.925   2.263   2.571
 8709SOL     OW27025   6.563   0.298   5.753
 8709SOL    HW127026   6.652   0.254   5.768
 8709SOL    HW227027   6.506   0.240   5.696
 8710SOL     OW27028   2.380   1.192   3.528
 8710SOL    HW127029   2.480   1.189   3.532
 8710SOL    HW227030   2.349   1.150   3.443
 8711SOL     OW27031   1.261   0.534   1.628
 8711SOL    HW127032   1.303   0.548   1.538
 8711SOL    HW227033   1.169   0.574   1.627
 8712SOL     OW27034   1.994   2.705   5.556
 8712SOL    HW127035   2.080   2.694   5.506
 8712SOL    HW227036   1.919   2.666   5.503
 8713SOL     OW27037   0.900   4.716   2.112
 8713SOL    HW127038   0.963   4.791   2.090
 8713SOL    HW227039   0.809   4.737   2.077
 8714SOL     OW27040   6.555   6.325   6.959
 8714SOL    HW127041   6.520   6.289   6.872
 8714SOL    HW227042   6.481   6.370   7.009
 8715SOL     OW27043   2.849   2.207   0.366
 8715SOL    HW127044   2.934   2.174   0.407
 8715SOL    HW227045   2.782   2.226   0.438
 8716SOL     OW27046   6.365   6.676   1.414
 8716SOL    HW127047   6.436   6.614   1.381
 8716SOL    HW227048   6.317   6.717   1.337
 8717SOL     OW27049   2.176   4.775   0.216
 8717SOL    HW127050   2.084   4.805   0.191
 8717SOL    HW227051   2.191   4.682   0.183
 8718SOL     OW27052   2.145   4.264   6.393
 8718SOL    HW127053   2.050   4.295   6.397
 8718SOL    HW227054   2.198   4.311   6.464
 8719SOL     OW27055   3.725   0.927   5.913
 8719SOL    HW127056   3.748   0.988   5.989
 8719SOL    HW227057   3.686   0.980   5.837
 8720SOL     OW27058   6.632   4.024   4.981
 8720SOL    HW127059   6.633   3.949   5.047
 8720SOL    HW227060   6.694   4.096   5.012
 8721SOL     OW27061   6.971   6.555   6.615
 8721SOL    HW127062   6.904   6.517   6.679
 8721SOL    HW227063   0.021   6.490   6.605
 8722SOL     OW27064   3.922   1.069   1.148
 8722SOL    HW127065   3.859   1.086   1.224
 8722SOL    HW227066   3.907   1.138   1.076
 8723SOL     OW27067   4.976   6.989   2.248
 8723SOL    HW127068   4.900   6.928   2.270
 8723SOL    HW227069   4.941   0.045   2.204
 8724SOL     OW27070   4.191   0.440   4.518
 8724SOL    HW127071   4.163   0.524   4.473
 8724SOL    HW227072   4.111   0.396   4.560
 8725SOL     OW27073   0.546   6.442   4.623
 8725SOL    HW127074   0.590   6.422   4.710
 8725SOL    HW227075   0.594   6.394   4.549
 8726SOL     OW27076   0.719   0.748   0.491
 8726SOL    HW127077   0.737   0.790   0.580
 8726SOL    HW227078   0.765   0.801   0.419
 8727SOL     OW27079   5.395   5.915   6.325
 8727SOL    HW127080   5.481   5.966   6.317
 8727SOL    HW227081   5.392   5.844   6.255
 8728SOL     OW27082   5.993   0.368   3.157
 8728SOL    HW127083   5.894   0.382   3.158
 8728SOL    HW227084   6.013   0.271   3.144
 8729SOL     OW27085   3.759   5.263   6.225
 8729SOL    HW127086   3.707   5.344   6.197
 8729SOL    HW227087   3.725   5.182   6.177
 8730SOL     OW27088   5.567   4.851   2.079
 8730SOL    HW127089   5.571   4.816   2.173
 8730SOL    HW227090   5.491   4.809   2.030
 8731SOL     OW27091   0.389   2.073   3.407
 8731SOL    HW127092   0.439   2.119   3.481
 8731SOL    HW227093   0.321   2.136   3.369
 8732SOL     OW27094   5.091   5.553   0.792
 8732SOL    HW127095   5.187   5.574   0.777
 8732SOL    HW227096   5.081   5.502   0.878
 8733SOL     OW27097   0.348   4.586   2.111
 8733SOL    HW127098   0.368   4.489   2.128
 8733SOL    HW227099   0.366   4.639   2.193
 8734SOL     OW27100   6.894   3.611   1.849
 8734SOL    HW127101   6.979   3.565   1.822
 8734SOL    HW227102   6.830   3.543   1.886
 8735SOL     OW27103   2.145   3.905   5.603
 8735SOL    HW127104   2.244   3.915   5.589
 8735SOL    HW227105   2.097   3.981   5.559
 8736SOL     OW27106   0.757   5.720   2.593
 8736SOL    HW127107   0.848   5.749   2.625
 8736SOL    HW227108   0.768   5.652   2.520
 8737SOL     OW27109   1.618   5.298   6.424
 8737SOL    HW127110   1.627   5.294   6.523
 8737SOL    HW227111   1.526   5.269   6.397
 8738SOL     OW27112   1.126   3.912   3.622
 8738SOL    HW127113   1.202   3.849   3.635
 8738SOL    HW227114   1.136   3.958   3.534
 8739SOL     OW27115   5.165   4.329   5.278
 8739SOL    HW127116   5.189   4.238   5.245
 8739SOL    HW227117   5.131   4.323   5.372
 8740SOL     OW27118   3.611   1.518   3.793
 8740SOL    HW127119   3.552   1.589   3.752
 8740SOL    HW227120   3.617   1.533   3.892
 8741SOL     OW27121   1.318   0.014   2.156
 8741SOL    HW127122   1.352   0.104   2.184
 8741SOL    HW227123   1.385   6.970   2.181
 8742SOL     OW27124   3.123   1.486   2.633
 8742SOL    HW127125   3.191   1.507   2.563
 8742SOL    HW227126   3.167   1.438   2.709
 8743SOL     OW27127   1.755   0.684   2.182
 8743SOL    HW127128   1.815   0.673   2.103
 8743SOL    HW227129   1.713   0.774   2.180
 8744SOL     OW27130   3.788   3.975   6.735
 8744SOL    HW127131   3.741   3.912   6.673
 8744SOL    HW227132   3.837   3.923   6.805
 8745SOL     OW27133   6.467   1.700   6.128
 8745SOL    HW127134   6.462   1.683   6.226
 8745SOL    HW227135   6.377   1.728   6.093
 8746SOL     OW27136   5.380   5.363   4.336
 8746SOL    HW127137   5.386   5.421   4.255
 8746SOL    HW227138   5.468   5.360   4.382
 8747SOL     OW27139   6.905   0.736   2.045
 8747SOL    HW127140   6.909   0.689   1.957
 8747SOL    HW227141   6.829   0.698   2.099
 8748SOL     OW27142   0.511   1.837   3.428
 8748SOL    HW127143   0.605   1.847   3.397
 8748SOL    HW227144   0.469   1.928   3.436
 8749SOL     OW27145   2.649   1.631   5.643
 8749SOL    HW127146   2.614   1.640   5.736
 8749SOL    HW227147   2.639   1.719   5.596
 8750SOL     OW27148   4.348   2.673   6.106
 8750SOL    HW127149   4.435   2.696   6.063
 8750SOL    HW227150   4.325   2.743   6.174
 8751SOL     OW27151   0.496   6.204   1.703
 8751SOL    HW127152   0.580   6.246   1.735
 8751SOL    HW227153   0.458   6.146   1.775
 8752SOL     OW27154   4.740   3.130   6.845
 8752SOL    HW127155   4.816   3.077   6.882
 8752SOL    HW227156   4.670   3.068   6.809
 8753SOL     OW27157   1.677   3.181   7.024
 8753SOL    HW127158   1.609   3.240   6.980
 8753SOL    HW227159   1.737   3.143   6.955
 8754SOL     OW27160   2.945   5.038   6.932
 8754SOL    HW127161   2.883   4.993   6.996
 8754SOL    HW227162   3.026   5.070   6.981
 8755SOL     OW27163   0.407   1.762   2.185
 8755SOL    HW127164   0.444   1.738   2.275
 8755SOL    HW227165   0.308   1.744   2.184
 8756SOL     OW27166   2.418   2.600   3.898
 8756SOL    HW127167   2.326   2.564   3.887
 8756SOL    HW227168   2.418   2.670   3.970
 8757SOL     OW27169   4.921   6.748   5.615
 8757SOL    HW127170   4.856   6.676   5.593
 8757SOL    HW227171   4.967   6.726   5.701
 8758SOL     OW27172   3.667   6.375   3.756
 8758SOL    HW127173   3.750   6.368   3.702
 8758SOL    HW227174   3.624   6.284   3.764
 8759SOL     OW27175   6.069   1.215   7.000
 8759SOL    HW127176   6.119   1.134   6.968
 8759SOL    HW227177   6.044   1.272   6.922
 8760SOL     OW27178   1.930   2.033   4.425
 8760SOL    HW127179   1.853   2.064   4.369
 8760SOL    HW227180   2.001   2.103   4.426
 8761SOL     OW27181   4.596   1.157   2.132
 8761SOL    HW127182   4.531   1.173   2.206
 8761SOL    HW227183   4.688   1.183   2.162
 8762SOL     OW27184   1.400   4.974   3.551
 8762SOL    HW127185   1.354   5.049   3.503
 8762SOL    HW227186   1.499   4.990   3.550
 8763SOL     OW27187   0.215   0.939   5.909
 8763SOL    HW127188   0.172   0.854   5.940
 8763SOL    HW227189   0.177   0.964   5.820
 8764SOL     OW27190   3.896   4.986   5.477
 8764SOL    HW127191   3.816   5.032   5.516
 8764SOL    HW227192   3.878   4.961   5.382
 8765SOL     OW27193   4.939   0.121   4.986
 8765SOL    HW127194   4.998   0.201   4.977
 8765SOL    HW227195   4.965   0.053   4.916
 8766SOL     OW27196   5.255   4.734   5.766
 8766SOL    HW127197   5.239   4.725   5.667
 8766SOL    HW227198   5.309   4.656   5.798
 8767SOL     OW27199   3.067   0.543   3.620
 8767SOL    HW127200   3.137   0.604   3.583
 8767SOL    HW227201   3.022   0.588   3.697
 8768SOL     OW27202   6.594   2.730   0.277
 8768SOL    HW127203   6.529   2.707   0.205
 8768SOL    HW227204   6.598   2.830   0.288
 8769SOL     OW27205   6.406   1.026   1.067
 8769SOL    HW127206   6.453   0.998   0.983
 8769SOL    HW227207   6.459   0.998   1.147
 8770SOL     OW27208   4.980   3.219   2.725
 8770SOL    HW127209   4.950   3.190   2.816
 8770SOL    HW227210   4.983   3.319   2.721
 8771SOL     OW27211   0.538   3.740   6.332
 8771SOL    HW127212   0.619   3.788   6.298
 8771SOL    HW227213   0.560   3.644   6.348
 8772SOL     OW27214   5.886   0.183   4.277
 8772SOL    HW127215   5.967   0.227   4.237
 8772SOL    HW227216   5.914   0.100   4.326
 8773SOL     OW27217   6.809   1.952   4.127
 8773SOL    HW127218   6.843   1.934   4.035
 8773SOL    HW227219   6.850   2.037   4.162
 8774SOL     OW27220   1.232   6.977   7.024
 8774SOL    HW127221   1.244   0.020   0.069
 8774SOL    HW227222   1.157   6.916   0.024
 8775SOL     OW27223   5.498   1.730   4.227
 8775SOL    HW127224   5.467   1.731   4.322
 8775SOL    HW227225   5.425   1.762   4.167
 8776SOL     OW27226   5.009   2.814   0.178
 8776SOL    HW127227   5.091   2.825   0.122
 8776SOL    HW227228   5.030   2.754   0.256
 8777SOL     OW27229   1.488   2.434   3.270
 8777SOL    HW127230   1.529   2.502   3.209
 8777SOL    HW227231   1.399   2.406   3.234
 8778SOL     OW27232   4.388   4.461   5.615
 8778SOL    HW127233   4.354   4.520   5.688
 8778SOL    HW227234   4.488   4.458   5.619
 8779SOL     OW27235   3.419   4.886   3.010
 8779SOL    HW127236   3.337   4.838   2.979
 8779SOL    HW227237   3.399   4.984   3.019
 8780SOL     OW27238   6.953   5.516   2.720
 8780SOL    HW127239   6.922   5.581   2.789
 8780SOL    HW227240   6.985   5.432   2.764
 8781SOL     OW27241   3.638   6.210   1.856
 8781SOL    HW127242   3.716   6.178   1.911
 8781SOL    HW227243   3.591   6.283   1.906
 8782SOL     OW27244   5.000   0.926   1.951
 8782SOL    HW127245   5.003   1.006   1.891
 8782SOL    HW227246   4.976   0.955   2.043
 8783SOL     OW27247   4.949   3.432   4.806
 8783SOL    HW127248   4.895   3.499   4.856
 8783SOL    HW227249   4.952   3.456   4.709
 8784SOL     OW27250   5.489   6.338   0.867
 8784SOL    HW127251   5.477   6.321   0.965
 8784SOL    HW227252   5.490   6.436   0.850
 8785SOL     OW27253   0.551   5.488   6.243
 8785SOL    HW127254   0.551   5.388   6.246
 8785SOL    HW227255   0.514   5.524   6.329
 8786SOL     OW27256   3.975   2.148   2.088
 8786SOL    HW127257   3.885   2.110   2.110
 8786SOL    HW227258   3.978   2.173   1.991
 8787SOL     OW27259   3.918   0.746   1.883
 8787SOL    HW127260   3.992   0.811   1.864
 8787SOL    HW227261   3.851   0.750   1.810
 8788SOL     OW27262   0.512   0.122   5.006
 8788SOL    HW127263   0.572   0.161   4.935
 8788SOL    HW227264   0.566   0.102   5.088
 8789SOL     OW27265   0.445   3.562   4.719
 8789SOL    HW127266   0.456   3.494   4.646
 8789SOL    HW227267   0.528   3.618   4.725
 8790SOL     OW27268   5.880   2.968   0.117
 8790SOL    HW127269   5.798   3.010   0.079
 8790SOL    HW227270   5.891   2.876   0.080
 8791SOL     OW27271   4.466   5.655   5.323
 8791SOL    HW127272   4.434   5.733   5.376
 8791SOL    HW227273   4.431   5.570   5.363
 8792SOL     OW27274   4.850   5.206   1.675
 8792SOL    HW127275   4.816   5.115   1.653
 8792SOL    HW227276   4.818   5.232   1.767
 8793SOL     OW27277   0.509   4.910   4.521
 8793SOL    HW127278   0.433   4.851   4.550
 8793SOL    HW227279   0.568   4.928   4.600
 8794SOL     OW27280   0.077   0.216   2.006
 8794SOL    HW127281   0.013   0.187   1.935
 8794SOL    HW227282   0.027   0.245   2.087
 8795SOL     OW27283   1.769   5.290   5.701
 8795SOL    HW127284   1.780   5.366   5.765
 8795SOL    HW227285   1.818   5.310   5.617
 8796SOL     OW27286   6.495   3.351   3.395
 8796SOL    HW127287   6.565   3.413   3.430
 8796SOL    HW227288   6.520   3.257   3.417
 8797SOL     OW27289   6.057   6.997   4.081
 8797SOL    HW127290   6.021   0.033   4.011
 8797SOL    HW227291   5.998   6.916   4.088
 8798SOL     OW27292   4.796   6.383   5.631
 8798SOL    HW127293   4.823   6.429   5.546
 8798SOL    HW227294   4.732   6.441   5.681
 8799SOL     OW27295   2.106   5.009   2.010
 8799SOL    HW127296   2.171   4.991   2.084
 8799SOL    HW227297   2.031   5.066   2.044
 8800SOL     OW27298   6.986   5.875   5.411
 8800SOL    HW127299   6.932   5.837   5.335
 8800SOL    HW227300   0.017   5.950   5.377
 8801SOL     OW27301   6.100   2.278   5.138
 8801SOL    HW127302   6.146   2.340   5.074
 8801SOL    HW227303   6.124   2.303   5.232
 8802SOL     OW27304   1.093   6.343   5.759
 8802SOL    HW127305   1.186   6.369   5.786
 8802SOL    HW227306   1.092   6.319   5.662
 8803SOL     OW27307   6.171   0.703   6.267
 8803SOL    HW127308   6.222   0.617   6.264
 8803SOL    HW227309   6.084   0.692   6.220
 8804SOL     OW27310   1.423   5.797   1.835
 8804SOL    HW127311   1.517   5.812   1.864
 8804SOL    HW227312   1.421   5.787   1.735
 8805SOL     OW27313   4.446   5.520   2.305
 8805SOL    HW127314   4.424   5.432   2.347
 8805SOL    HW227315   4.538   5.548   2.334
 8806SOL     OW27316   2.289   6.534   0.165
 8806SOL    HW127317   2.264   6.437   0.158
 8806SOL    HW227318   2.273   6.579   0.077
 8807SOL     OW27319   5.139   2.284   1.095
 8807SOL    HW127320   5.103   2.191   1.104
 8807SOL    HW227321   5.070   2.343   1.052
 8808SOL     OW27322   2.042   2.029   0.646
 8808SOL    HW127323   1.959   1.981   0.617
 8808SOL    HW227324   2.107   1.963   0.684
 8809SOL     OW27325   1.631   3.748   3.714
 8809SOL    HW127326   1.538   3.721   3.739
 8809SOL    HW227327   1.652   3.837   3.755
 8810SOL     OW27328   6.894   1.601   5.760
 8810SOL    HW127329   6.892   1.680   5.822
 8810SOL    HW227330   6.886   1.633   5.666
 8811SOL     OW27331   4.287   6.028   2.346
 8811SOL    HW127332   4.267   6.071   2.257
 8811SOL    HW227333   4.302   5.930   2.333
 8812SOL     OW27334   3.508   1.375   6.575
 8812SOL    HW127335   3.432   1.373   6.640
 8812SOL    HW227336   3.486   1.437   6.500
 8813SOL     OW27337   2.649   4.631   3.066
 8813SOL    HW127338   2.593   4.665   2.990
 8813SOL    HW227339   2.613   4.667   3.152
 8814SOL     OW27340   5.748   0.107   0.247
 8814SOL    HW127341   5.785   0.097   0.155
 8814SOL    HW227342   5.782   0.033   0.305
 8815SOL     OW27343   5.167   1.394   0.349
 8815SOL    HW127344   5.095   1.439   0.296
 8815SOL    HW227345   5.198   1.455   0.422
 8816SOL     OW27346   0.863   6.091   5.836
 8816SOL    HW127347   0.900   6.018   5.778
 8816SOL    HW227348   0.811   6.155   5.779
 8817SOL     OW27349   1.489   3.231   4.335
 8817SOL    HW127350   1.513   3.183   4.250
 8817SOL    HW227351   1.543   3.315   4.341
 8818SOL     OW27352   2.375   6.805   3.877
 8818SOL    HW127353   2.405   6.896   3.908
 8818SOL    HW227354   2.279   6.792   3.903
 8819SOL     OW27355   5.185   4.240   5.925
 8819SOL    HW127356   5.272   4.281   5.954
 8819SOL    HW227357   5.110   4.299   5.955
 8820SOL     OW27358   3.247   0.809   4.457
 8820SOL    HW127359   3.157   0.769   4.445
 8820SOL    HW227360   3.265   0.874   4.383
 8821SOL     OW27361   1.142   4.641   0.551
 8821SOL    HW127362   1.084   4.706   0.504
 8821SOL    HW227363   1.089   4.592   0.620
 8822SOL     OW27364   6.739   6.779   3.814
 8822SOL    HW127365   6.711   6.779   3.911
 8822SOL    HW227366   6.820   6.836   3.803
 8823SOL     OW27367   3.700   0.899   2.986
 8823SOL    HW127368   3.675   0.912   3.082
 8823SOL    HW227369   3.657   0.971   2.931
 8824SOL     OW27370   2.193   1.034   1.319
 8824SOL    HW127371   2.100   1.068   1.334
 8824SOL    HW227372   2.193   0.969   1.243
 8825SOL     OW27373   0.256   6.924   6.857
 8825SOL    HW127374   0.229   6.940   6.952
 8825SOL    HW227375   0.215   6.839   6.825
 8826SOL     OW27376   0.916   3.090   0.859
 8826SOL    HW127377   0.826   3.045   0.855
 8826SOL    HW227378   0.985   3.029   0.821
 8827SOL     OW27379   4.206   0.371   2.637
 8827SOL    HW127380   4.148   0.310   2.692
 8827SOL    HW227381   4.302   0.360   2.664
 8828SOL     OW27382   4.147   3.474   6.323
 8828SOL    HW127383   4.113   3.430   6.406
 8828SOL    HW227384   4.081   3.463   6.249
 8829SOL     OW27385   6.926   1.890   1.993
 8829SOL    HW127386   6.905   1.795   1.968
 8829SOL    HW227387   7.025   1.904   1.988
 8830SOL     OW27388   2.627   2.023   2.837
 8830SOL    HW127389   2.532   2.019   2.871
 8830SOL    HW227390   2.652   2.117   2.819
 8831SOL     OW27391   0.692   2.129   1.832
 8831SOL    HW127392   0.705   2.215   1.881
 8831SOL    HW227393   0.662   2.149   1.738
 8832SOL     OW27394   6.948   6.927   4.032
 8832SOL    HW127395   0.009   6.878   4.048
 8832SOL    HW227396   6.937   6.942   3.933
 8833SOL     OW27397   3.643   2.595   0.913
 8833SOL    HW127398   3.576   2.589   0.986
 8833SOL    HW227399   3.733   2.567   0.947
 8834SOL     OW27400   5.847   3.587   5.396
 8834SOL    HW127401   5.873   3.678   5.427
 8834SOL    HW227402   5.754   3.589   5.359
 8835SOL     OW27403   6.213   0.899   5.507
 8835SOL    HW127404   6.252   0.950   5.430
 8835SOL    HW227405   6.281   0.892   5.580
 8836SOL     OW27406   4.992   2.337   6.337
 8836SOL    HW127407   5.071   2.283   6.368
 8836SOL    HW227408   4.944   2.286   6.266
 8837SOL     OW27409   5.785   0.035   1.871
 8837SOL    HW127410   5.847   0.077   1.805
 8837SOL    HW227411   5.693   0.071   1.858
 8838SOL     OW27412   7.003   4.058   3.074
 8838SOL    HW127413   0.051   3.995   3.051
 8838SOL    HW227414   7.009   4.139   3.015
 8839SOL     OW27415   5.346   6.381   3.465
 8839SOL    HW127416   5.367   6.346   3.556
 8839SOL    HW227417   5.260   6.343   3.433
 8840SOL     OW27418   0.203   1.010   1.361
 8840SOL    HW127419   0.227   1.061   1.445
 8840SOL    HW227420   0.284   1.003   1.303
 8841SOL     OW27421   3.640   1.518   2.072
 8841SOL    HW127422   3.664   1.513   2.169
 8841SOL    HW227423   3.693   1.451   2.021
 8842SOL     OW27424   3.549   2.866   4.031
 8842SOL    HW127425   3.526   2.847   3.936
 8842SOL    HW227426   3.643   2.899   4.037
 8843SOL     OW27427   1.950   3.665   5.126
 8843SOL    HW127428   1.985   3.598   5.060
 8843SOL    HW227429   2.025   3.722   5.158
 8844SOL     OW27430   5.041   1.848   4.976
 8844SOL    HW127431   5.091   1.767   5.007
 8844SOL    HW227432   4.970   1.870   5.043
 8845SOL     OW27433   0.875   5.242   1.490
 8845SOL    HW127434   0.850   5.326   1.538
 8845SOL    HW227435   0.963   5.210   1.524
 8846SOL     OW27436   5.406   4.817   3.421
 8846SOL    HW127437   5.362   4.805   3.332
 8846SOL    HW227438   5.342   4.858   3.485
 8847SOL     OW27439   2.325   2.345   2.690
 8847SOL    HW127440   2.345   2.360   2.593
 8847SOL    HW227441   2.372   2.263   2.722
 8848SOL     OW27442   3.241   1.635   0.971
 8848SOL    HW127443   3.214   1.684   0.889
 8848SOL    HW227444   3.244   1.698   1.049
 8849SOL     OW27445   3.408   5.812   4.599
 8849SOL    HW127446   3.358   5.726   4.592
 8849SOL    HW227447   3.456   5.830   4.514
 8850SOL     OW27448   3.058   2.097   0.506
 8850SOL    HW127449   3.044   2.138   0.596
 8850SOL    HW227450   3.146   2.126   0.469
 8851SOL     OW27451   1.002   4.741   3.725
 8851SOL    HW127452   1.083   4.683   3.720
 8851SOL    HW227453   0.924   4.692   3.687
 8852SOL     OW27454   5.805   2.973   5.740
 8852SOL    HW127455   5.819   2.875   5.729
 8852SOL    HW227456   5.822   2.999   5.835
 8853SOL     OW27457   4.177   1.597   5.218
 8853SOL    HW127458   4.105   1.529   5.237
 8853SOL    HW227459   4.146   1.687   5.245
 8854SOL     OW27460   1.418   1.665   5.972
 8854SOL    HW127461   1.372   1.750   5.996
 8854SOL    HW227462   1.369   1.588   6.013
 8855SOL     OW27463   6.423   6.155   6.720
 8855SOL    HW127464   6.391   6.124   6.810
 8855SOL    HW227465   6.412   6.081   6.654
 8856SOL     OW27466   5.950   1.034   4.992
 8856SOL    HW127467   5.899   1.117   5.012
 8856SOL    HW227468   5.981   0.993   5.078
 8857SOL     OW27469   6.177   2.278   3.277
 8857SOL    HW127470   6.228   2.227   3.346
 8857SOL    HW227471   6.117   2.344   3.323
 8858SOL     OW27472   0.992   3.753   5.978
 8858SOL    HW127473   1.027   3.831   5.926
 8858SOL    HW227474   0.892   3.761   5.987
 8859SOL     OW27475   1.230   6.236   5.055
 8859SOL    HW127476   1.229   6.300   4.977
 8859SOL    HW227477   1.287   6.157   5.033
 8860SOL     OW27478   1.256   2.182   2.370
 8860SOL    HW127479   1.238   2.280   2.361
 8860SOL    HW227480   1.186   2.140   2.428
 8861SOL     OW27481   3.874   3.237   0.131
 8861SOL    HW127482   3.890   3.330   0.098
 8861SOL    HW227483   3.943   3.213   0.199
 8862SOL     OW27484   6.114   1.494   4.887
 8862SOL    HW127485   6.150   1.555   4.957
 8862SOL    HW227486   6.093   1.546   4.804
 8863SOL     OW27487   2.233   5.800   4.970
 8863SOL    HW127488   2.243   5.850   5.056
 8863SOL    HW227489   2.200   5.707   4.989
 8864SOL     OW27490   2.290   3.225   6.425
 8864SOL    HW127491   2.321   3.222   6.520
 8864SOL    HW227492   2.366   3.255   6.367
 8865SOL     OW27493   2.373   1.943   5.475
 8865SOL    HW127494   2.387   2.029   5.523
 8865SOL    HW227495   2.362   1.960   5.377
 8866SOL     OW27496   3.326   6.755   3.324
 8866SOL    HW127497   3.382   6.764   3.406
 8866SOL    HW227498   3.244   6.812   3.333
 8867SOL     OW27499   5.851   1.769   3.072
 8867SOL    HW127500   5.910   1.810   3.003
 8867SOL    HW227501   5.905   1.710   3.132
 8868SOL     OW27502   4.783   4.156   0.481
 8868SOL    HW127503   4.779   4.179   0.578
 8868SOL    HW227504   4.818   4.063   0.470
 8869SOL     OW27505   4.895   3.856   3.435
 8869SOL    HW127506   4.901   3.801   3.519
 8869SOL    HW227507   4.926   3.949   3.454
 8870SOL     OW27508   4.150   1.329   0.768
 8870SOL    HW127509   4.056   1.298   0.753
 8870SOL    HW227510   4.160   1.359   0.863
 8871SOL     OW27511   2.011   1.575   3.751
 8871SOL    HW127512   1.982   1.505   3.816
 8871SOL    HW227513   2.073   1.534   3.684
 8872SOL     OW27514   1.897   4.083   4.296
 8872SOL    HW127515   1.807   4.059   4.260
 8872SOL    HW227516   1.910   4.182   4.290
 8873SOL     OW27517   0.585   5.658   4.050
 8873SOL    HW127518   0.504   5.683   4.103
 8873SOL    HW227519   0.639   5.592   4.101
 8874SOL     OW27520   2.488   0.567   1.213
 8874SOL    HW127521   2.528   0.624   1.285
 8874SOL    HW227522   2.520   0.473   1.224
 8875SOL     OW27523   1.708   2.943   4.186
 8875SOL    HW127524   1.722   3.014   4.117
 8875SOL    HW227525   1.717   2.853   4.144
 8876SOL     OW27526   0.438   0.959   5.065
 8876SOL    HW127527   0.427   0.924   4.972
 8876SOL    HW227528   0.405   1.053   5.069
 8877SOL     OW27529   3.005   0.764   4.370
 8877SOL    HW127530   3.007   0.863   4.354
 8877SOL    HW227531   3.002   0.716   4.283
 8878SOL     OW27532   0.050   4.519   0.046
 8878SOL    HW127533   0.014   4.520   6.978
 8878SOL    HW227534   0.096   4.605   0.065
 8879SOL     OW27535   5.470   6.340   0.519
 8879SOL    HW127536   5.432   6.284   0.445
 8879SOL    HW227537   5.490   6.283   0.598
 8880SOL     OW27538   6.623   4.848   4.354
 8880SOL    HW127539   6.527   4.874   4.346
 8880SOL    HW227540   6.675   4.887   4.278
 8881SOL     OW27541   0.065   1.248   1.938
 8881SOL    HW127542   0.011   1.168   1.915
 8881SOL    HW227543   0.138   1.223   2.001
 8882SOL     OW27544   5.510   2.438   6.569
 8882SOL    HW127545   5.496   2.373   6.495
 8882SOL    HW227546   5.528   2.529   6.531
 8883SOL     OW27547   6.042   0.856   5.952
 8883SOL    HW127548   6.113   0.845   5.882
 8883SOL    HW227549   6.023   0.767   5.994
 8884SOL     OW27550   5.657   0.029   6.127
 8884SOL    HW127551   5.715   6.978   6.101
 8884SOL    HW227552   5.715   0.105   6.159
 8885SOL     OW27553   5.740   3.738   1.973
 8885SOL    HW127554   5.715   3.699   1.884
 8885SOL    HW227555   5.658   3.774   2.017
 8886SOL     OW27556   2.685   6.671   5.721
 8886SOL    HW127557   2.615   6.710   5.781
 8886SOL    HW227558   2.763   6.734   5.715
 8887SOL     OW27559   2.696   1.197   1.293
 8887SOL    HW127560   2.714   1.176   1.389
 8887SOL    HW227561   2.602   1.173   1.270
 8888SOL     OW27562   1.973   1.251   1.298
 8888SOL    HW127563   1.977   1.302   1.383
 8888SOL    HW227564   2.026   1.299   1.228
 8889SOL     OW27565   4.695   0.381   4.528
 8889SOL    HW127566   4.773   0.435   4.561
 8889SOL    HW227567   4.649   0.431   4.454
 8890SOL     OW27568   0.137   5.670   4.982
 8890SOL    HW127569   0.183   5.745   5.029
 8890SOL    HW227570   0.183   5.652   4.895
 8891SOL     OW27571   5.565   3.352   6.458
 8891SOL    HW127572   5.642   3.289   6.470
 8891SOL    HW227573   5.590   3.422   6.390
 8892SOL     OW27574   1.882   0.343   3.316
 8892SOL    HW127575   1.882   0.439   3.290
 8892SOL    HW227576   1.795   0.301   3.289
 8893SOL     OW27577   6.672   1.313   0.866
 8893SOL    HW127578   6.744   1.249   0.890
 8893SOL    HW227579   6.710   1.387   0.810
 8894SOL     OW27580   4.238   2.443   6.002
 8894SOL    HW127581   4.265   2.521   6.058
 8894SOL    HW227582   4.174   2.472   5.932
 8895SOL     OW27583   0.372   6.809   1.251
 8895SOL    HW127584   0.447   6.755   1.213
 8895SOL    HW227585   0.340   6.874   1.182
 8896SOL     OW27586   1.513   3.857   4.729
 8896SOL    HW127587   1.537   3.837   4.634
 8896SOL    HW227588   1.562   3.939   4.759
 8897SOL     OW27589   1.435   1.473   1.620
 8897SOL    HW127590   1.470   1.537   1.553
 8897SOL    HW227591   1.335   1.472   1.616
 8898SOL     OW27592   5.963   3.254   4.514
 8898SOL    HW127593   5.990   3.278   4.421
 8898SOL    HW227594   5.952   3.155   4.521
 8899SOL     OW27595   1.822   4.525   0.228
 8899SOL    HW127596   1.761   4.494   0.155
 8899SOL    HW227597   1.889   4.453   0.249
 8900SOL     OW27598   4.643   2.288   3.018
 8900SOL    HW127599   4.595   2.202   3.028
 8900SOL    HW227600   4.590   2.350   2.960
 8901SOL     OW27601   1.304   0.284   2.825
 8901SOL    HW127602   1.232   0.228   2.785
 8901SOL    HW227603   1.320   0.364   2.768
 8902SOL     OW27604   1.843   5.611   6.509
 8902SOL    HW127605   1.792   5.657   6.436
 8902SOL    HW227606   1.891   5.679   6.564
 8903SOL     OW27607   2.263   1.626   3.872
 8903SOL    HW127608   2.233   1.531   3.883
 8903SOL    HW227609   2.238   1.658   3.780
 8904SOL     OW27610   0.148   5.717   4.061
 8904SOL    HW127611   0.192   5.784   4.001
 8904SOL    HW227612   0.055   5.747   4.084
 8905SOL     OW27613   2.520   3.309   5.608
 8905SOL    HW127614   2.559   3.391   5.566
 8905SOL    HW227615   2.506   3.326   5.706
 8906SOL     OW27616   6.562   6.370   6.104
 8906SOL    HW127617   6.519   6.403   6.188
 8906SOL    HW227618   6.491   6.354   6.035
 8907SOL     OW27619   3.376   2.714   5.207
 8907SOL    HW127620   3.428   2.656   5.270
 8907SOL    HW227621   3.278   2.709   5.229
 8908SOL     OW27622   1.632   1.938   1.369
 8908SOL    HW127623   1.588   1.901   1.451
 8908SOL    HW227624   1.615   1.876   1.292
 8909SOL     OW27625   2.809   0.871   6.256
 8909SOL    HW127626   2.801   0.934   6.179
 8909SOL    HW227627   2.827   0.779   6.221
 8910SOL     OW27628   3.071   3.027   6.884
 8910SOL    HW127629   3.013   2.994   6.958
 8910SOL    HW227630   3.133   2.954   6.855
 8911SOL     OW27631   3.364   2.124   4.622
 8911SOL    HW127632   3.342   2.164   4.712
 8911SOL    HW227633   3.463   2.130   4.607
 8912SOL     OW27634   4.334   1.728   6.097
 8912SOL    HW127635   4.321   1.788   6.176
 8912SOL    HW227636   4.334   1.633   6.126
 8913SOL     OW27637   4.787   4.236   1.699
 8913SOL    HW127638   4.697   4.275   1.681
 8913SOL    HW227639   4.852   4.309   1.718
 8914SOL     OW27640   3.798   1.465   5.064
 8914SOL    HW127641   3.780   1.377   5.020
 8914SOL    HW227642   3.879   1.507   5.023
 8915SOL     OW27643   2.109   3.395   3.513
 8915SOL    HW127644   2.164   3.326   3.561
 8915SOL    HW227645   2.163   3.479   3.502
 8916SOL     OW27646   6.964   4.567   2.380
 8916SOL    HW127647   6.999   4.571   2.473
 8916SOL    HW227648   7.002   4.488   2.333
 8917SOL     OW27649   6.160   6.388   6.490
 8917SOL    HW127650   6.102   6.425   6.562
 8917SOL    HW227651   6.195   6.298   6.518
 8918SOL     OW27652   5.327   6.329   6.473
 8918SOL    HW127653   5.287   6.366   6.557
 8918SOL    HW227654   5.370   6.403   6.421
 8919SOL     OW27655   3.286   4.322   0.849
 8919SOL    HW127656   3.255   4.240   0.800
 8919SOL    HW227657   3.298   4.397   0.785
 8920SOL     OW27658   6.057   5.098   6.091
 8920SOL    HW127659   6.155   5.077   6.100
 8920SOL    HW227660   6.045   5.166   6.019
 8921SOL     OW27661   1.468   0.894   3.813
 8921SOL    HW127662   1.381   0.922   3.855
 8921SOL    HW227663   1.500   0.809   3.856
 8922SOL     OW27664   1.891   4.739   0.788
 8922SOL    HW127665   1.966   4.686   0.828
 8922SOL    HW227666   1.885   4.720   0.690
 8923SOL     OW27667   1.948   3.754   6.713
 8923SOL    HW127668   2.031   3.810   6.703
 8923SOL    HW227669   1.905   3.773   6.801
 8924SOL     OW27670   3.300   5.137   5.207
 8924SOL    HW127671   3.297   5.069   5.134
 8924SOL    HW227672   3.368   5.207   5.184
 8925SOL     OW27673   6.688   6.888   2.140
 8925SOL    HW127674   6.730   6.801   2.166
 8925SOL    HW227675   6.589   6.878   2.141
 8926SOL     OW27676   5.600   2.075   2.029
 8926SOL    HW127677   5.537   2.117   1.964
 8926SOL    HW227678   5.689   2.121   2.023
 8927SOL     OW27679   2.308   2.759   5.091
 8927SOL    HW127680   2.398   2.739   5.131
 8927SOL    HW227681   2.303   2.855   5.066
 8928SOL     OW27682   0.386   0.642   5.629
 8928SOL    HW127683   0.380   0.737   5.596
 8928SOL    HW227684   0.432   0.641   5.718
 8929SOL     OW27685   6.917   3.679   4.132
 8929SOL    HW127686   6.914   3.699   4.034
 8929SOL    HW227687   6.994   3.618   4.152
 8930SOL     OW27688   1.148   5.332   4.707
 8930SOL    HW127689   1.151   5.386   4.791
 8930SOL    HW227690   1.176   5.389   4.630
 8931SOL     OW27691   5.178   1.675   1.274
 8931SOL    HW127692   5.174   1.593   1.330
 8931SOL    HW227693   5.240   1.742   1.316
 8932SOL     OW27694   6.015   0.397   6.690
 8932SOL    HW127695   6.013   0.458   6.769
 8932SOL    HW227696   6.104   0.404   6.645
 8933SOL     OW27697   1.573   0.957   4.963
 8933SOL    HW127698   1.554   1.035   4.904
 8933SOL    HW227699   1.523   0.877   4.929
 8934SOL     OW27700   3.671   5.738   2.987
 8934SOL    HW127701   3.665   5.659   3.048
 8934SOL    HW227702   3.718   5.812   3.033
 8935SOL     OW27703   4.430   2.455   2.547
 8935SOL    HW127704   4.385   2.384   2.601
 8935SOL    HW227705   4.410   2.441   2.450
 8936SOL     OW27706   0.832   4.923   1.199
 8936SOL    HW127707   0.789   4.834   1.213
 8936SOL    HW227708   0.925   4.911   1.165
 8937SOL     OW27709   0.366   6.789   4.261
 8937SOL    HW127710   0.445   6.768   4.319
 8937SOL    HW227711   0.292   6.724   4.279
 8938SOL     OW27712   6.083   0.959   0.618
 8938SOL    HW127713   6.151   1.032   0.623
 8938SOL    HW227714   6.123   0.873   0.649
 8939SOL     OW27715   0.314   2.739   4.508
 8939SOL    HW127716   0.397   2.696   4.543
 8939SOL    HW227717   0.239   2.724   4.572
 8940SOL     OW27718   0.037   3.063   0.874
 8940SOL    HW127719   0.021   2.985   0.813
 8940SOL    HW227720   0.047   3.031   0.968
 8941SOL     OW27721   5.394   2.283   2.370
 8941SOL    HW127722   5.363   2.218   2.300
 8941SOL    HW227723   5.321   2.348   2.390
 8942SOL     OW27724   6.689   4.557   3.627
 8942SOL    HW127725   6.659   4.474   3.674
 8942SOL    HW227726   6.682   4.544   3.528
 8943SOL     OW27727   4.429   3.893   0.239
 8943SOL    HW127728   4.505   3.945   0.201
 8943SOL    HW227729   4.462   3.802   0.267
 8944SOL     OW27730   4.701   5.218   4.279
 8944SOL    HW127731   4.677   5.304   4.323
 8944SOL    HW227732   4.645   5.144   4.317
 8945SOL     OW27733   6.220   4.041   4.981
 8945SOL    HW127734   6.215   4.013   4.885
 8945SOL    HW227735   6.287   4.114   4.991
 8946SOL     OW27736   5.465   1.119   4.090
 8946SOL    HW127737   5.413   1.166   4.019
 8946SOL    HW227738   5.527   1.184   4.134
 8947SOL     OW27739   1.262   4.644   5.940
 8947SOL    HW127740   1.274   4.605   5.849
 8947SOL    HW227741   1.306   4.734   5.944
 8948SOL     OW27742   6.648   0.118   3.642
 8948SOL    HW127743   6.648   0.217   3.630
 8948SOL    HW227744   6.705   0.093   3.721
 8949SOL     OW27745   3.013   6.486   0.331
 8949SOL    HW127746   3.014   6.502   0.429
 8949SOL    HW227747   2.968   6.562   0.285
 8950SOL     OW27748   4.513   4.635   1.172
 8950SOL    HW127749   4.602   4.604   1.138
 8950SOL    HW227750   4.477   4.706   1.111
 8951SOL     OW27751   2.333   1.470   4.453
 8951SOL    HW127752   2.409   1.461   4.389
 8951SOL    HW227753   2.253   1.507   4.405
 8952SOL     OW27754   1.944   4.644   3.579
 8952SOL    HW127755   2.022   4.584   3.566
 8952SOL    HW227756   1.929   4.699   3.496
 8953SOL     OW27757   2.253   5.005   2.263
 8953SOL    HW127758   2.348   4.973   2.256
 8953SOL    HW227759   2.248   5.079   2.329
 8954SOL     OW27760   1.223   5.300   5.153
 8954SOL    HW127761   1.198   5.213   5.110
 8954SOL    HW227762   1.145   5.363   5.147
 8955SOL     OW27763   4.976   2.670   3.821
 8955SOL    HW127764   5.012   2.589   3.775
 8955SOL    HW227765   4.952   2.739   3.753
 8956SOL     OW27766   1.237   6.011   6.236
 8956SOL    HW127767   1.290   5.965   6.307
 8956SOL    HW227768   1.187   5.942   6.183
 8957SOL     OW27769   0.993   5.265   2.221
 8957SOL    HW127770   1.064   5.216   2.170
 8957SOL    HW227771   0.979   5.355   2.180
 8958SOL     OW27772   1.562   3.716   5.172
 8958SOL    HW127773   1.619   3.755   5.245
 8958SOL    HW227774   1.588   3.621   5.156
 8959SOL     OW27775   0.705   3.140   2.457
 8959SOL    HW127776   0.690   3.155   2.555
 8959SOL    HW227777   0.800   3.163   2.435
 8960SOL     OW27778   5.819   4.028   4.388
 8960SOL    HW127779   5.790   4.122   4.403
 8960SOL    HW227780   5.819   3.979   4.475
 8961SOL     OW27781   3.535   6.823   4.904
 8961SOL    HW127782   3.567   6.730   4.922
 8961SOL    HW227783   3.463   6.821   4.835
 8962SOL     OW27784   0.997   5.881   1.583
 8962SOL    HW127785   1.072   5.938   1.618
 8962SOL    HW227786   0.922   5.881   1.649
 8963SOL     OW27787   3.543   5.870   4.376
 8963SOL    HW127788   3.630   5.889   4.330
 8963SOL    HW227789   3.469   5.917   4.328
 8964SOL     OW27790   0.062   3.447   4.167
 8964SOL    HW127791   0.113   3.520   4.212
 8964SOL    HW227792   0.049   3.470   4.071
 8965SOL     OW27793   4.498   5.135   0.542
 8965SOL    HW127794   4.435   5.137   0.464
 8965SOL    HW227795   4.536   5.227   0.557
 8966SOL     OW27796   5.127   5.558   5.993
 8966SOL    HW127797   5.105   5.629   6.060
 8966SOL    HW227798   5.117   5.468   6.035
 8967SOL     OW27799   3.647   0.494   3.272
 8967SOL    HW127800   3.733   0.545   3.268
 8967SOL    HW227801   3.618   0.470   3.180
 8968SOL     OW27802   3.387   5.038   2.089
 8968SOL    HW127803   3.291   5.067   2.089
 8968SOL    HW227804   3.400   4.966   2.020
 8969SOL     OW27805   0.183   0.928   2.693
 8969SOL    HW127806   0.141   0.950   2.605
 8969SOL    HW227807   0.256   0.861   2.678
 8970SOL     OW27808   1.687   1.357   6.321
 8970SOL    HW127809   1.758   1.306   6.368
 8970SOL    HW227810   1.699   1.455   6.337
 8971SOL     OW27811   4.370   5.876   0.398
 8971SOL    HW127812   4.461   5.854   0.434
 8971SOL    HW227813   4.302   5.866   0.470
 8972SOL     OW27814   5.781   4.541   0.586
 8972SOL    HW127815   5.743   4.473   0.649
 8972SOL    HW227816   5.714   4.563   0.516
 8973SOL     OW27817   0.431   2.265   2.092
 8973SOL    HW127818   0.444   2.363   2.105
 8973SOL    HW227819   0.399   2.248   1.999
 8974SOL     OW27820   2.330   4.199   4.463
 8974SOL    HW127821   2.409   4.149   4.428
 8974SOL    HW227822   2.321   4.183   4.561
 8975SOL     OW27823   0.354   0.397   6.251
 8975SOL    HW127824   0.352   0.328   6.323
 8975SOL    HW227825   0.346   0.488   6.291
 8976SOL     OW27826   6.563   6.767   1.639
 8976SOL    HW127827   6.516   6.715   1.568
 8976SOL    HW227828   6.646   6.809   1.600
 8977SOL     OW27829   0.049   5.146   6.368
 8977SOL    HW127830   0.044   5.052   6.336
 8977SOL    HW227831   6.988   5.192   6.353
 8978SOL     OW27832   5.770   5.372   5.482
 8978SOL    HW127833   5.833   5.449   5.498
 8978SOL    HW227834   5.733   5.380   5.389
 8979SOL     OW27835   1.101   5.523   6.043
 8979SOL    HW127836   1.011   5.562   6.029
 8979SOL    HW227837   1.100   5.464   6.124
 8980SOL     OW27838   3.828   0.919   4.996
 8980SOL    HW127839   3.833   1.016   5.019
 8980SOL    HW227840   3.733   0.892   4.982
 8981SOL     OW27841   4.282   2.913   6.664
 8981SOL    HW127842   4.332   2.917   6.577
 8981SOL    HW227843   4.294   2.822   6.705
 8982SOL     OW27844   0.064   1.322   1.161
 8982SOL    HW127845   0.151   1.308   1.113
 8982SOL    HW227846   0.078   1.314   1.259
 8983SOL     OW27847   0.899   6.522   3.048
 8983SOL    HW127848   0.999   6.529   3.049
 8983SOL    HW227849   0.867   6.514   2.954
 8984SOL     OW27850   5.932   0.467   4.102
 8984SOL    HW127851   5.845   0.417   4.099
 8984SOL    HW227852   5.913   0.565   4.090
 8985SOL     OW27853   4.627   2.554   1.013
 8985SOL    HW127854   4.543   2.499   1.015
 8985SOL    HW227855   4.613   2.638   1.064
 8986SOL     OW27856   6.598   4.526   1.061
 8986SOL    HW127857   6.687   4.570   1.050
 8986SOL    HW227858   6.530   4.593   1.092
 8987SOL     OW27859   2.049   6.911   1.508
 8987SOL    HW127860   1.983   6.837   1.493
 8987SOL    HW227861   2.061   6.926   1.606
 8988SOL     OW27862   1.332   4.999   1.198
 8988SOL    HW127863   1.416   4.950   1.221
 8988SOL    HW227864   1.294   5.041   1.280
 8989SOL     OW27865   5.790   1.798   1.933
 8989SOL    HW127866   5.770   1.802   2.031
 8989SOL    HW227867   5.730   1.862   1.884
 8990SOL     OW27868   3.341   6.865   1.733
 8990SOL    HW127869   3.433   6.901   1.748
 8990SOL    HW227870   3.276   6.941   1.736
 8991SOL     OW27871   2.184   2.445   0.876
 8991SOL    HW127872   2.159   2.522   0.933
 8991SOL    HW227873   2.133   2.449   0.790
 8992SOL     OW27874   0.400   3.515   6.762
 8992SOL    HW127875   0.469   3.580   6.796
 8992SOL    HW227876   0.437   3.422   6.767
 8993SOL     OW27877   5.455   2.595   3.429
 8993SOL    HW127878   5.399   2.673   3.459
 8993SOL    HW227879   5.531   2.628   3.374
 8994SOL     OW27880   1.078   4.958   3.540
 8994SOL    HW127881   1.175   4.960   3.564
 8994SOL    HW227882   1.030   4.893   3.599
 8995SOL     OW27883   1.745   3.829   4.938
 8995SOL    HW127884   1.652   3.866   4.939
 8995SOL    HW227885   1.756   3.765   5.013
 8996SOL     OW27886   0.397   3.828   2.732
 8996SOL    HW127887   0.325   3.857   2.796
 8996SOL    HW227888   0.359   3.761   2.668
 8997SOL     OW27889   4.294   1.653   4.986
 8997SOL    HW127890   4.255   1.632   5.075
 8997SOL    HW227891   4.384   1.611   4.978
 8998SOL     OW27892   1.407   2.262   5.786
 8998SOL    HW127893   1.468   2.332   5.823
 8998SOL    HW227894   1.461   2.187   5.749
 8999SOL     OW27895   5.812   1.314   5.049
 8999SOL    HW127896   5.899   1.357   5.024
 8999SOL    HW227897   5.792   1.332   5.145
 9000SOL     OW27898   3.305   4.115   0.601
 9000SOL    HW127899   3.344   4.023   0.596
 9000SOL    HW227900   3.379   4.182   0.602
 9001SOL     OW27901   2.259   4.850   3.769
 9001SOL    HW127902   2.320   4.900   3.708
 9001SOL    HW227903   2.172   4.898   3.776
 9002SOL     OW27904   5.706   4.604   6.266
 9002SOL    HW127905   5.792   4.578   6.309
 9002SOL    HW227906   5.690   4.702   6.280
 9003SOL     OW27907   6.402   3.010   6.970
 9003SOL    HW127908   6.414   3.064   0.028
 9003SOL    HW227909   6.319   3.039   6.924
 9004SOL     OW27910   4.478   6.487   1.014
 9004SOL    HW127911   4.482   6.393   0.982
 9004SOL    HW227912   4.450   6.488   1.110
 9005SOL     OW27913   5.102   1.997   3.496
 9005SOL    HW127914   5.182   2.055   3.480
 9005SOL    HW227915   5.023   2.034   3.447
 9006SOL     OW27916   1.303   5.524   1.279
 9006SOL    HW127917   1.253   5.580   1.345
 9006SOL    HW227918   1.246   5.448   1.249
 9007SOL     OW27919   3.252   5.825   3.776
 9007SOL    HW127920   3.164   5.780   3.756
 9007SOL    HW227921   3.287   5.868   3.693
 9008SOL     OW27922   0.299   4.378   2.542
 9008SOL    HW127923   0.259   4.468   2.525
 9008SOL    HW227924   0.381   4.367   2.487
 9009SOL     OW27925   2.772   6.416   0.504
 9009SOL    HW127926   2.702   6.413   0.576
 9009SOL    HW227927   2.730   6.395   0.416
 9010SOL     OW27928   0.495   6.118   5.315
 9010SOL    HW127929   0.503   6.119   5.215
 9010SOL    HW227930   0.488   6.213   5.348
 9011SOL     OW27931   4.140   1.758   1.010
 9011SOL    HW127932   4.200   1.723   0.938
 9011SOL    HW227933   4.194   1.810   1.076
 9012SOL     OW27934   0.384   5.021   1.849
 9012SOL    HW127935   0.440   5.097   1.882
 9012SOL    HW227936   0.397   5.010   1.751
 9013SOL     OW27937   6.515   5.966   3.279
 9013SOL    HW127938   6.491   6.033   3.348
 9013SOL    HW227939   6.431   5.926   3.242
 9014SOL     OW27940   1.585   0.462   1.242
 9014SOL    HW127941   1.591   0.373   1.288
 9014SOL    HW227942   1.666   0.476   1.186
 9015SOL     OW27943   0.148   1.255   6.328
 9015SOL    HW127944   0.180   1.213   6.243
 9015SOL    HW227945   0.223   1.261   6.393
 9016SOL     OW27946   6.467   5.969   6.140
 9016SOL    HW127947   6.381   6.015   6.121
 9016SOL    HW227948   6.459   5.915   6.223
 9017SOL     OW27949   6.174   2.354   3.741
 9017SOL    HW127950   6.217   2.413   3.809
 9017SOL    HW227951   6.207   2.261   3.750
 9018SOL     OW27952   3.651   2.335   5.284
 9018SOL    HW127953   3.706   2.255   5.311
 9018SOL    HW227954   3.700   2.419   5.308
 9019SOL     OW27955   2.584   6.693   0.188
 9019SOL    HW127956   2.521   6.644   0.128
 9019SOL    HW227957   2.550   6.786   0.204
 9020SOL     OW27958   1.510   3.839   2.676
 9020SOL    HW127959   1.474   3.878   2.592
 9020SOL    HW227960   1.564   3.758   2.656
 9021SOL     OW27961   6.745   5.760   4.638
 9021SOL    HW127962   6.782   5.671   4.665
 9021SOL    HW227963   6.803   5.799   4.566
 9022SOL     OW27964   2.684   0.972   0.278
 9022SOL    HW127965   2.734   1.028   0.212
 9022SOL    HW227966   2.749   0.931   0.342
 9023SOL     OW27967   3.379   2.897   3.746
 9023SOL    HW127968   3.345   2.821   3.690
 9023SOL    HW227969   3.457   2.940   3.700
 9024SOL     OW27970   1.838   6.547   6.224
 9024SOL    HW127971   1.833   6.625   6.286
 9024SOL    HW227972   1.747   6.526   6.188
 9025SOL     OW27973   6.116   4.688   1.834
 9025SOL    HW127974   6.122   4.787   1.836
 9025SOL    HW227975   6.105   4.653   1.928
 9026SOL     OW27976   3.426   2.882   4.970
 9026SOL    HW127977   3.434   2.797   5.023
 9026SOL    HW227978   3.449   2.960   5.028
 9027SOL     OW27979   2.761   2.272   3.297
 9027SOL    HW127980   2.745   2.312   3.387
 9027SOL    HW227981   2.691   2.303   3.233
 9028SOL     OW27982   2.718   4.763   5.273
 9028SOL    HW127983   2.762   4.731   5.189
 9028SOL    HW227984   2.726   4.694   5.344
 9029SOL     OW27985   4.722   5.987   3.176
 9029SOL    HW127986   4.639   6.039   3.155
 9029SOL    HW227987   4.717   5.897   3.133
 9030SOL     OW27988   2.032   0.835   2.635
 9030SOL    HW127989   1.964   0.873   2.697
 9030SOL    HW227990   2.051   0.740   2.660
 9031SOL     OW27991   2.648   6.244   5.724
 9031SOL    HW127992   2.579   6.259   5.652
 9031SOL    HW227993   2.602   6.239   5.813
 9032SOL     OW27994   2.720   1.833   1.260
 9032SOL    HW127995   2.818   1.844   1.244
 9032SOL    HW227996   2.702   1.739   1.291
 9033SOL     OW27997   1.867   3.292   3.550
 9033SOL    HW127998   1.956   3.335   3.538
 9033SOL    HW227999   1.820   3.287   3.462
 9034SOL     OW28000   2.889   6.346   5.631
 9034SOL    HW128001   2.805   6.315   5.675
 9034SOL    HW228002   2.867   6.418   5.566
 9035SOL     OW28003   0.010   1.076   3.919
 9035SOL    HW128004   6.997   0.996   3.964
 9035SOL    HW228005   0.029   1.054   3.823
 9036SOL     OW28006   0.819   2.988   5.806
 9036SOL    HW128007   0.850   3.072   5.762
 9036SOL    HW228008   0.835   2.993   5.905
 9037SOL     OW28009   2.626   4.555   6.268
 9037SOL    HW128010   2.585   4.593   6.350
 9037SOL    HW228011   2.697   4.616   6.234
 9038SOL     OW28012   4.643   6.363   5.148
 9038SOL    HW128013   4.667   6.340   5.242
 9038SOL    HW228014   4.684   6.296   5.086
 9039SOL     OW28015   2.049   5.233   4.587
 9039SOL    HW128016   2.065   5.283   4.502
 9039SOL    HW228017   2.077   5.138   4.575
 9040SOL     OW28018   1.807   1.613   2.706
 9040SOL    HW128019   1.877   1.635   2.638
 9040SOL    HW228020   1.719   1.649   2.675
 9041SOL     OW28021   1.338   2.815   0.936
 9041SOL    HW128022   1.239   2.826   0.945
 9041SOL    HW228023   1.379   2.904   0.916
 9042SOL     OW28024   2.837   5.069   3.043
 9042SOL    HW128025   2.744   5.086   3.008
 9042SOL    HW228026   2.854   4.970   3.044
 9043SOL     OW28027   0.515   2.632   6.075
 9043SOL    HW128028   0.602   2.676   6.098
 9043SOL    HW228029   0.446   2.702   6.057
 9044SOL     OW28030   5.961   0.538   0.842
 9044SOL    HW128031   5.879   0.579   0.882
 9044SOL    HW228032   5.961   0.439   0.859
 9045SOL     OW28033   2.815   0.091   3.373
 9045SOL    HW128034   2.908   0.123   3.393
 9045SOL    HW228035   2.786   0.027   3.444
 9046SOL     OW28036   3.219   4.187   5.486
 9046SOL    HW128037   3.217   4.204   5.585
 9046SOL    HW228038   3.194   4.270   5.437
 9047SOL     OW28039   1.295   4.060   4.198
 9047SOL    HW128040   1.267   4.089   4.106
 9047SOL    HW228041   1.219   4.074   4.261
 9048SOL     OW28042   1.024   3.734   4.632
 9048SOL    HW128043   1.081   3.669   4.581
 9048SOL    HW228044   1.010   3.700   4.725
 9049SOL     OW28045   5.791   6.193   5.966
 9049SOL    HW128046   5.889   6.189   5.983
 9049SOL    HW228047   5.751   6.269   6.017
 9050SOL     OW28048   6.985   4.948   6.899
 9050SOL    HW128049   7.007   4.944   6.997
 9050SOL    HW228050   0.027   4.897   6.847
 9051SOL     OW28051   5.805   5.832   7.023
 9051SOL    HW128052   5.771   5.887   0.074
 9051SOL    HW228053   5.796   5.735   0.019
 9052SOL     OW28054   2.552   4.891   4.395
 9052SOL    HW128055   2.560   4.879   4.494
 9052SOL    HW228056   2.594   4.812   4.349
 9053SOL     OW28057   2.396   2.773   4.162
 9053SOL    HW128058   2.455   2.702   4.201
 9053SOL    HW228059   2.356   2.828   4.235
 9054SOL     OW28060   1.792   0.613   2.461
 9054SOL    HW128061   1.709   0.598   2.515
 9054SOL    HW228062   1.766   0.634   2.367
 9055SOL     OW28063   0.590   2.483   4.028
 9055SOL    HW128064   0.633   2.392   4.019
 9055SOL    HW228065   0.655   2.546   4.071
 9056SOL     OW28066   4.676   0.087   2.956
 9056SOL    HW128067   4.746   0.145   2.915
 9056SOL    HW228068   4.668   0.003   2.903
 9057SOL     OW28069   6.409   5.788   7.024
 9057SOL    HW128070   6.379   5.880   7.000
 9057SOL    HW228071   6.508   5.782   7.013
 9058SOL     OW28072   2.012   2.785   4.936
 9058SOL    HW128073   2.061   2.862   4.897
 9058SOL    HW228074   1.956   2.817   5.013
 9059SOL     OW28075   6.696   1.860   2.846
 9059SOL    HW128076   6.735   1.948   2.818
 9059SOL    HW228077   6.618   1.837   2.788
 9060SOL     OW28078   0.301   3.303   1.829
 9060SOL    HW128079   0.201   3.295   1.829
 9060SOL    HW228080   0.327   3.389   1.785
 9061SOL     OW28081   4.757   5.722   2.103
 9061SOL    HW128082   4.815   5.694   2.027
 9061SOL    HW228083   4.661   5.724   2.073
 9062SOL     OW28084   0.881   4.162   3.626
 9062SOL    HW128085   0.966   4.160   3.574
 9062SOL    HW228086   0.898   4.203   3.716
 9063SOL     OW28087   3.125   0.690   2.611
 9063SOL    HW128088   3.080   0.619   2.557
 9063SOL    HW228089   3.224   0.674   2.612
 9064SOL     OW28090   0.395   4.282   3.641
 9064SOL    HW128091   0.481   4.246   3.607
 9064SOL    HW228092   0.332   4.297   3.565
 9065SOL     OW28093   2.823   6.071   4.922
 9065SOL    HW128094   2.818   6.171   4.924
 9065SOL    HW228095   2.915   6.042   4.950
 9066SOL     OW28096   5.512   5.438   6.454
 9066SOL    HW128097   5.601   5.464   6.417
 9066SOL    HW228098   5.504   5.339   6.457
 9067SOL     OW28099   6.545   0.430   4.626
 9067SOL    HW128100   6.543   0.440   4.725
 9067SOL    HW228101   6.460   0.388   4.594
 9068SOL     OW28102   5.207   0.324   4.986
 9068SOL    HW128103   5.249   0.361   5.069
 9068SOL    HW228104   5.271   0.260   4.941
 9069SOL     OW28105   4.857   2.075   2.146
 9069SOL    HW128106   4.851   2.090   2.047
 9069SOL    HW228107   4.849   1.977   2.165
 9070SOL     OW28108   1.131   2.197   5.673
 9070SOL    HW128109   1.210   2.157   5.719
 9070SOL    HW228110   1.133   2.296   5.685
 9071SOL     OW28111   4.563   1.340   5.730
 9071SOL    HW128112   4.487   1.396   5.764
 9071SOL    HW228113   4.645   1.397   5.721
 9072SOL     OW28114   4.964   0.384   1.982
 9072SOL    HW128115   5.025   0.365   1.905
 9072SOL    HW228116   4.894   0.450   1.955
 9073SOL     OW28117   3.716   0.529   6.826
 9073SOL    HW128118   3.758   0.600   6.883
 9073SOL    HW228119   3.617   0.536   6.831
 9074SOL     OW28120   1.465   6.814   1.039
 9074SOL    HW128121   1.410   6.885   0.994
 9074SOL    HW228122   1.557   6.850   1.056
 9075SOL     OW28123   6.812   0.790   1.307
 9075SOL    HW128124   6.819   0.750   1.398
 9075SOL    HW228125   6.892   0.847   1.290
 9076SOL     OW28126   5.436   6.812   2.560
 9076SOL    HW128127   5.530   6.790   2.532
 9076SOL    HW228128   5.392   6.867   2.489
 9077SOL     OW28129   5.256   1.368   5.833
 9077SOL    HW128130   5.341   1.399   5.875
 9077SOL    HW228131   5.273   1.282   5.784
 9078SOL     OW28132   4.932   5.917   0.106
 9078SOL    HW128133   4.998   5.845   0.128
 9078SOL    HW228134   4.853   5.911   0.167
 9079SOL     OW28135   1.081   0.272   5.926
 9079SOL    HW128136   1.158   0.235   5.874
 9079SOL    HW228137   1.058   0.363   5.891
 9080SOL     OW28138   6.574   3.650   0.883
 9080SOL    HW128139   6.589   3.552   0.887
 9080SOL    HW228140   6.612   3.687   0.799
 9081SOL     OW28141   3.684   1.756   1.778
 9081SOL    HW128142   3.667   1.659   1.796
 9081SOL    HW228143   3.701   1.803   1.865
 9082SOL     OW28144   3.366   5.848   6.162
 9082SOL    HW128145   3.390   5.834   6.258
 9082SOL    HW228146   3.283   5.903   6.156
 9083SOL     OW28147   4.677   4.709   6.261
 9083SOL    HW128148   4.677   4.809   6.260
 9083SOL    HW228149   4.585   4.675   6.244
 9084SOL     OW28150   0.956   2.831   5.606
 9084SOL    HW128151   0.932   2.735   5.618
 9084SOL    HW228152   0.940   2.881   5.692
 9085SOL     OW28153   2.956   5.312   6.805
 9085SOL    HW128154   2.937   5.223   6.847
 9085SOL    HW228155   3.045   5.345   6.836
 9086SOL     OW28156   6.645   4.337   0.883
 9086SOL    HW128157   6.629   4.412   0.947
 9086SOL    HW228158   6.560   4.287   0.868
 9087SOL     OW28159   6.091   2.440   2.026
 9087SOL    HW128160   6.141   2.384   1.960
 9087SOL    HW228161   5.993   2.427   2.013
 9088SOL     OW28162   6.176   0.667   1.666
 9088SOL    HW128163   6.184   0.705   1.574
 9088SOL    HW228164   6.260   0.617   1.688
 9089SOL     OW28165   4.460   5.258   3.718
 9089SOL    HW128166   4.536   5.324   3.721
 9089SOL    HW228167   4.417   5.252   3.808
 9090SOL     OW28168   5.614   6.240   4.619
 9090SOL    HW128169   5.560   6.190   4.551
 9090SOL    HW228170   5.708   6.205   4.619
 9091SOL     OW28171   3.780   2.406   0.268
 9091SOL    HW128172   3.704   2.428   0.330
 9091SOL    HW228173   3.846   2.349   0.316
 9092SOL     OW28174   1.395   6.355   5.611
 9092SOL    HW128175   1.327   6.295   5.568
 9092SOL    HW228176   1.376   6.363   5.708
 9093SOL     OW28177   1.326   5.911   0.555
 9093SOL    HW128178   1.371   5.840   0.611
 9093SOL    HW228179   1.305   5.873   0.465
 9094SOL     OW28180   0.162   5.840   2.084
 9094SOL    HW128181   0.088   5.873   2.143
 9094SOL    HW228182   0.157   5.884   1.995
 9095SOL     OW28183   4.974   3.276   6.605
 9095SOL    HW128184   4.967   3.366   6.562
 9095SOL    HW228185   4.893   3.258   6.660
 9096SOL     OW28186   5.629   3.271   2.944
 9096SOL    HW128187   5.631   3.279   3.044
 9096SOL    HW228188   5.537   3.289   2.911
 9097SOL     OW28189   1.184   3.809   6.768
 9097SOL    HW128190   1.147   3.730   6.720
 9097SOL    HW228191   1.137   3.892   6.737
 9098SOL     OW28192   3.717   4.011   2.040
 9098SOL    HW128193   3.665   4.040   2.120
 9098SOL    HW228194   3.808   3.982   2.068
 9099SOL     OW28195   3.177   3.324   0.804
 9099SOL    HW128196   3.092   3.273   0.789
 9099SOL    HW228197   3.244   3.298   0.735
 9100SOL     OW28198   0.704   3.069   1.332
 9100SOL    HW128199   0.700   2.994   1.266
 9100SOL    HW228200   0.664   3.040   1.418
 9101SOL     OW28201   2.204   2.817   2.727
 9101SOL    HW128202   2.277   2.791   2.790
 9101SOL    HW228203   2.115   2.808   2.772
 9102SOL     OW28204   3.858   5.342   2.271
 9102SOL    HW128205   3.790   5.410   2.244
 9102SOL    HW228206   3.945   5.360   2.224
 9103SOL     OW28207   6.949   3.850   0.863
 9103SOL    HW128208   6.940   3.806   0.952
 9103SOL    HW228209   0.016   3.838   0.829
 9104SOL     OW28210   3.831   6.156   2.012
 9104SOL    HW128211   3.903   6.102   2.055
 9104SOL    HW228212   3.859   6.252   2.008
 9105SOL     OW28213   1.713   0.540   6.900
 9105SOL    HW128214   1.716   0.457   6.844
 9105SOL    HW228215   1.618   0.559   6.926
 9106SOL     OW28216   5.726   4.246   0.250
 9106SOL    HW128217   5.717   4.153   0.212
 9106SOL    HW228218   5.635   4.281   0.272
 9107SOL     OW28219   4.135   6.830   6.589
 9107SOL    HW128220   4.136   6.928   6.607
 9107SOL    HW228221   4.051   6.805   6.542
 9108SOL     OW28222   4.765   4.518   5.289
 9108SOL    HW128223   4.749   4.462   5.370
 9108SOL    HW228224   4.834   4.476   5.231
 9109SOL     OW28225   2.139   1.707   3.091
 9109SOL    HW128226   2.048   1.711   3.050
 9109SOL    HW228227   2.207   1.688   3.019
 9110SOL     OW28228   2.640   4.607   3.628
 9110SOL    HW128229   2.682   4.624   3.717
 9110SOL    HW228230   2.706   4.628   3.555
 9111SOL     OW28231   3.728   4.052   1.309
 9111SOL    HW128232   3.810   4.071   1.363
 9111SOL    HW228233   3.682   4.138   1.287
 9112SOL     OW28234   0.496   3.525   3.528
 9112SOL    HW128235   0.467   3.579   3.449
 9112SOL    HW228236   0.511   3.431   3.500
 9113SOL     OW28237   4.285   1.073   6.858
 9113SOL    HW128238   4.208   1.081   6.921
 9113SOL    HW228239   4.312   0.977   6.851
 9114SOL     OW28240   1.940   4.726   2.473
 9114SOL    HW128241   2.006   4.787   2.517
 9114SOL    HW228242   1.852   4.733   2.519
 9115SOL     OW28243   1.081   4.964   4.351
 9115SOL    HW128244   1.023   4.959   4.433
 9115SOL    HW228245   1.171   4.999   4.376
 9116SOL     OW28246   6.724   1.876   6.884
 9116SOL    HW128247   6.739   1.784   6.921
 9116SOL    HW228248   6.656   1.923   6.940
 9117SOL     OW28249   6.408   3.216   6.513
 9117SOL    HW128250   6.348   3.296   6.510
 9117SOL    HW228251   6.452   3.212   6.603
 9118SOL     OW28252   5.824   6.977   1.110
 9118SOL    HW128253   5.786   0.042   1.126
 9118SOL    HW228254   5.827   6.926   1.196
 9119SOL     OW28255   5.993   1.345   2.349
 9119SOL    HW128256   6.015   1.403   2.270
 9119SOL    HW228257   5.897   1.316   2.342
 9120SOL     OW28258   5.835   2.676   6.039
 9120SOL    HW128259   5.800   2.746   6.101
 9120SOL    HW228260   5.763   2.651   5.974
 9121SOL     OW28261   0.926   3.424   5.109
 9121SOL    HW128262   1.021   3.437   5.137
 9121SOL    HW228263   0.874   3.382   5.184
 9122SOL     OW28264   1.898   2.776   1.735
 9122SOL    HW128265   1.897   2.677   1.719
 9122SOL    HW228266   1.842   2.797   1.815
 9123SOL     OW28267   3.437   6.430   5.268
 9123SOL    HW128268   3.523   6.379   5.282
 9123SOL    HW228269   3.406   6.468   5.355
 9124SOL     OW28270   5.989   5.607   5.501
 9124SOL    HW128271   6.073   5.618   5.555
 9124SOL    HW228272   6.009   5.629   5.405
 9125SOL     OW28273   4.508   4.482   4.123
 9125SOL    HW128274   4.460   4.535   4.053
 9125SOL    HW228275   4.602   4.464   4.092
 9126SOL     OW28276   6.040   1.610   2.526
 9126SOL    HW128277   6.046   1.524   2.575
 9126SOL    HW228278   5.944   1.634   2.512
 9127SOL     OW28279   5.843   0.728   5.556
 9127SOL    HW128280   5.937   0.737   5.524
 9127SOL    HW228281   5.824   0.633   5.581
 9128SOL     OW28282   4.123   1.868   5.304
 9128SOL    HW128283   4.125   1.931   5.381
 9128SOL    HW228284   4.217   1.846   5.276
 9129SOL     OW28285   1.810   3.603   1.133
 9129SOL    HW128286   1.797   3.547   1.051
 9129SOL    HW228287   1.882   3.563   1.190
 9130SOL     OW28288   0.119   4.465   6.773
 9130SOL    HW128289   0.070   4.384   6.741
 9130SOL    HW228290   0.217   4.453   6.758
 9131SOL     OW28291   0.407   4.228   4.807
 9131SOL    HW128292   0.424   4.146   4.863
 9131SOL    HW228293   0.310   4.232   4.782
 9132SOL     OW28294   6.954   4.437   3.732
 9132SOL    HW128295   6.994   4.436   3.640
 9132SOL    HW228296   6.985   4.356   3.782
 9133SOL     OW28297   3.418   5.229   0.991
 9133SOL    HW128298   3.504   5.204   0.945
 9133SOL    HW228299   3.438   5.271   1.079
 9134SOL     OW28300   3.672   6.992   0.464
 9134SOL    HW128301   3.757   0.008   0.433
 9134SOL    HW228302   3.623   0.030   0.523
 9135SOL     OW28303   0.156   6.448   2.182
 9135SOL    HW128304   0.149   6.540   2.222
 9135SOL    HW228305   0.248   6.413   2.195
 9136SOL     OW28306   4.905   5.152   5.467
 9136SOL    HW128307   4.938   5.237   5.427
 9136SOL    HW228308   4.808   5.139   5.444
 9137SOL     OW28309   5.361   1.482   1.004
 9137SOL    HW128310   5.409   1.563   1.037
 9137SOL    HW228311   5.284   1.510   0.946
 9138SOL     OW28312   6.644   5.094   6.130
 9138SOL    HW128313   6.664   5.148   6.048
 9138SOL    HW228314   6.607   5.005   6.103
 9139SOL     OW28315   2.470   1.174   4.370
 9139SOL    HW128316   2.463   1.097   4.433
 9139SOL    HW228317   2.390   1.176   4.311
 9140SOL     OW28318   6.602   2.906   2.707
 9140SOL    HW128319   6.573   2.844   2.780
 9140SOL    HW228320   6.692   2.943   2.728
 9141SOL     OW28321   5.533   0.199   6.486
 9141SOL    HW128322   5.503   0.113   6.444
 9141SOL    HW228323   5.536   0.188   6.585
 9142SOL     OW28324   0.152   2.656   5.644
 9142SOL    HW128325   0.152   2.747   5.687
 9142SOL    HW228326   0.245   2.624   5.633
 9143SOL     OW28327   4.899   4.136   6.897
 9143SOL    HW128328   4.993   4.169   6.890
 9143SOL    HW228329   4.900   4.036   6.894
 9144SOL     OW28330   2.163   5.359   6.352
 9144SOL    HW128331   2.123   5.383   6.440
 9144SOL    HW228332   2.239   5.296   6.366
 9145SOL     OW28333   6.605   5.074   1.371
 9145SOL    HW128334   6.692   5.058   1.323
 9145SOL    HW228335   6.591   5.172   1.383
 9146SOL     OW28336   5.300   1.761   2.014
 9146SOL    HW128337   5.286   1.859   1.994
 9146SOL    HW228338   5.363   1.723   1.947
 9147SOL     OW28339   5.940   6.952   4.419
 9147SOL    HW128340   6.029   6.997   4.405
 9147SOL    HW228341   5.941   6.862   4.375
 9148SOL     OW28342   5.050   0.160   1.260
 9148SOL    HW128343   5.034   0.070   1.220
 9148SOL    HW228344   5.009   0.230   1.201
 9149SOL     OW28345   4.921   2.529   4.055
 9149SOL    HW128346   4.914   2.569   3.964
 9149SOL    HW228347   4.940   2.431   4.047
 9150SOL     OW28348   3.696   5.144   3.317
 9150SOL    HW128349   3.695   5.068   3.251
 9150SOL    HW228350   3.728   5.111   3.406
 9151SOL     OW28351   1.364   4.205   3.007
 9151SOL    HW128352   1.423   4.202   3.088
 9151SOL    HW228353   1.392   4.281   2.948
 9152SOL     OW28354   2.788   5.063   4.526
 9152SOL    HW128355   2.769   5.127   4.452
 9152SOL    HW228356   2.719   5.073   4.598
 9153SOL     OW28357   1.570   3.474   1.233
 9153SOL    HW128358   1.656   3.505   1.194
 9153SOL    HW228359   1.531   3.402   1.176
 9154SOL     OW28360   2.831   5.335   0.202
 9154SOL    HW128361   2.745   5.315   0.154
 9154SOL    HW228362   2.810   5.379   0.290
 9155SOL     OW28363   2.051   3.669   0.429
 9155SOL    HW128364   1.951   3.680   0.423
 9155SOL    HW228365   2.095   3.754   0.399
 9156SOL     OW28366   3.435   2.998   0.835
 9156SOL    HW128367   3.383   3.020   0.917
 9156SOL    HW228368   3.493   3.076   0.810
 9157SOL     OW28369   5.894   4.882   6.066
 9157SOL    HW128370   5.932   4.808   6.121
 9157SOL    HW228371   5.937   4.968   6.091
 9158SOL     OW28372   6.233   3.628   5.001
 9158SOL    HW128373   6.133   3.636   5.007
 9158SOL    HW228374   6.275   3.695   5.062
 9159SOL     OW28375   1.182   6.866   3.780
 9159SOL    HW128376   1.145   6.799   3.716
 9159SOL    HW228377   1.143   6.850   3.871
 9160SOL     OW28378   6.548   0.321   5.362
 9160SOL    HW128379   6.536   0.223   5.345
 9160SOL    HW228380   6.629   0.335   5.419
 9161SOL     OW28381   4.746   4.128   4.203
 9161SOL    HW128382   4.762   4.169   4.113
 9161SOL    HW228383   4.688   4.188   4.258
 9162SOL     OW28384   4.700   1.623   3.646
 9162SOL    HW128385   4.726   1.543   3.700
 9162SOL    HW228386   4.768   1.639   3.574
 9163SOL     OW28387   2.116   3.424   3.953
 9163SOL    HW128388   2.024   3.400   3.985
 9163SOL    HW228389   2.134   3.520   3.973
 9164SOL     OW28390   2.764   0.406   7.016
 9164SOL    HW128391   2.701   0.332   0.012
 9164SOL    HW228392   2.713   0.492   7.009
 9165SOL     OW28393   6.002   1.414   5.307
 9165SOL    HW128394   6.001   1.447   5.401
 9165SOL    HW228395   6.074   1.461   5.256
 9166SOL     OW28396   4.721   6.299   0.765
 9166SOL    HW128397   4.663   6.367   0.720
 9166SOL    HW228398   4.664   6.237   0.820
 9167SOL     OW28399   1.399   2.622   6.606
 9167SOL    HW128400   1.498   2.608   6.607
 9167SOL    HW228401   1.380   2.720   6.617
 9168SOL     OW28402   0.650   6.924   6.023
 9168SOL    HW128403   0.721   6.981   6.065
 9168SOL    HW228404   0.670   6.913   5.926
 9169SOL     OW28405   6.540   1.654   4.911
 9169SOL    HW128406   6.528   1.734   4.969
 9169SOL    HW228407   6.638   1.640   4.894
 9170SOL     OW28408   0.397   4.967   0.759
 9170SOL    HW128409   0.374   4.976   0.662
 9170SOL    HW228410   0.462   4.892   0.770
 9171SOL     OW28411   3.203   5.154   0.551
 9171SOL    HW128412   3.160   5.078   0.599
 9171SOL    HW228413   3.134   5.223   0.529
 9172SOL     OW28414   3.288   0.649   5.159
 9172SOL    HW128415   3.361   0.597   5.203
 9172SOL    HW228416   3.283   0.625   5.062
 9173SOL     OW28417   6.137   3.938   4.726
 9173SOL    HW128418   6.061   3.928   4.662
 9173SOL    HW228419   6.224   3.925   4.677
 9174SOL     OW28420   6.043   4.715   1.291
 9174SOL    HW128421   5.956   4.764   1.297
 9174SOL    HW228422   6.062   4.691   1.196
 9175SOL     OW28423   1.361   6.584   5.040
 9175SOL    HW128424   1.434   6.566   4.975
 9175SOL    HW228425   1.385   6.545   5.129
 9176SOL     OW28426   2.936   0.834   5.009
 9176SOL    HW128427   2.957   0.909   5.071
 9176SOL    HW228428   2.854   0.787   5.041
 9177SOL     OW28429   1.595   4.621   4.903
 9177SOL    HW128430   1.614   4.526   4.880
 9177SOL    HW228431   1.605   4.677   4.821
 9178SOL     OW28432   2.409   5.683   0.319
 9178SOL    HW128433   2.408   5.713   0.415
 9178SOL    HW228434   2.346   5.606   0.308
 9179SOL     OW28435   3.232   5.269   3.789
 9179SOL    HW128436   3.289   5.257   3.871
 9179SOL    HW228437   3.291   5.283   3.710
 9180SOL     OW28438   5.493   2.132   2.829
 9180SOL    HW128439   5.554   2.058   2.800
 9180SOL    HW228440   5.463   2.115   2.922
 9181SOL     OW28441   3.874   2.018   3.954
 9181SOL    HW128442   3.956   1.971   3.986
 9181SOL    HW228443   3.857   1.994   3.858
 9182SOL     OW28444   2.336   6.410   2.375
 9182SOL    HW128445   2.384   6.436   2.459
 9182SOL    HW228446   2.288   6.323   2.390
 9183SOL     OW28447   5.067   6.531   0.578
 9183SOL    HW128448   5.097   6.558   0.487
 9183SOL    HW228449   5.125   6.457   0.612
 9184SOL     OW28450   5.317   2.008   7.020
 9184SOL    HW128451   5.283   2.009   6.926
 9184SOL    HW228452   5.333   1.914   0.023
 9185SOL     OW28453   4.385   6.972   5.054
 9185SOL    HW128454   4.441   6.941   5.131
 9185SOL    HW228455   4.411   6.922   4.971
 9186SOL     OW28456   6.160   0.463   3.934
 9186SOL    HW128457   6.225   0.392   3.962
 9186SOL    HW228458   6.080   0.461   3.995
 9187SOL     OW28459   2.905   1.092   1.148
 9187SOL    HW128460   2.829   1.134   1.200
 9187SOL    HW228461   2.992   1.126   1.184
 9188SOL     OW28462   2.127   6.268   2.010
 9188SOL    HW128463   2.043   6.223   1.980
 9188SOL    HW228464   2.197   6.259   1.938
 9189SOL     OW28465   5.160   5.932   1.151
 9189SOL    HW128466   5.125   5.997   1.084
 9189SOL    HW228467   5.152   5.839   1.115
 9190SOL     OW28468   1.665   4.664   6.988
 9190SOL    HW128469   1.632   4.575   7.021
 9190SOL    HW228470   1.628   4.737   0.020
 9191SOL     OW28471   5.685   0.969   6.105
 9191SOL    HW128472   5.632   1.049   6.132
 9191SOL    HW228473   5.733   0.988   6.019
 9192SOL     OW28474   0.431   4.113   6.320
 9192SOL    HW128475   0.430   4.148   6.414
 9192SOL    HW228476   0.525   4.109   6.286
 9193SOL     OW28477   4.601   4.667   0.553
 9193SOL    HW128478   4.609   4.577   0.509
 9193SOL    HW228479   4.691   4.694   0.589
 9194SOL     OW28480   2.913   0.379   3.284
 9194SOL    HW128481   2.909   0.463   3.230
 9194SOL    HW228482   2.865   0.306   3.235
 9195SOL     OW28483   1.806   2.313   4.268
 9195SOL    HW128484   1.722   2.329   4.320
 9195SOL    HW228485   1.856   2.399   4.257
 9196SOL     OW28486   4.338   0.172   4.222
 9196SOL    HW128487   4.367   0.154   4.316
 9196SOL    HW228488   4.272   0.248   4.222
 9197SOL     OW28489   1.939   4.515   1.687
 9197SOL    HW128490   1.981   4.595   1.731
 9197SOL    HW228491   2.006   4.441   1.683
 9198SOL     OW28492   6.580   4.883   6.326
 9198SOL    HW128493   6.530   4.933   6.255
 9198SOL    HW228494   6.595   4.789   6.295
 9199SOL     OW28495   1.628   3.707   6.005
 9199SOL    HW128496   1.669   3.798   6.001
 9199SOL    HW228497   1.699   3.639   6.024
 9200SOL     OW28498   3.026   0.226   0.606
 9200SOL    HW128499   2.954   0.232   0.537
 9200SOL    HW228500   3.037   0.130   0.634
 9201SOL     OW28501   0.348   2.866   0.288
 9201SOL    HW128502   0.290   2.794   0.249
 9201SOL    HW228503   0.370   2.932   0.217
 9202SOL     OW28504   1.512   6.391   2.738
 9202SOL    HW128505   1.532   6.417   2.643
 9202SOL    HW228506   1.420   6.420   2.762
 9203SOL     OW28507   0.570   5.107   0.321
 9203SOL    HW128508   0.559   5.035   0.253
 9203SOL    HW228509   0.599   5.191   0.277
 9204SOL     OW28510   4.077   2.665   6.405
 9204SOL    HW128511   4.032   2.626   6.325
 9204SOL    HW228512   4.144   2.733   6.376
 9205SOL     OW28513   6.119   4.762   2.611
 9205SOL    HW128514   6.123   4.703   2.530
 9205SOL    HW228515   6.027   4.799   2.621
 9206SOL     OW28516   4.193   5.435   1.897
 9206SOL    HW128517   4.150   5.379   1.827
 9206SOL    HW228518   4.183   5.391   1.986
 9207SOL     OW28519   4.224   5.070   6.668
 9207SOL    HW128520   4.321   5.072   6.644
 9207SOL    HW228521   4.172   5.034   6.591
 9208SOL     OW28522   5.677   3.947   4.171
 9208SOL    HW128523   5.731   3.984   4.247
 9208SOL    HW228524   5.655   3.851   4.189
 9209SOL     OW28525   2.735   0.798   6.934
 9209SOL    HW128526   2.834   0.810   6.920
 9209SOL    HW228527   2.691   0.887   6.939
 9210SOL     OW28528   0.061   0.686   3.272
 9210SOL    HW128529   6.992   0.706   3.293
 9210SOL    HW228530   0.111   0.666   3.357
 9211SOL     OW28531   6.546   3.206   4.857
 9211SOL    HW128532   6.512   3.132   4.916
 9211SOL    HW228533   6.478   3.279   4.853
 9212SOL     OW28534   4.360   5.333   4.615
 9212SOL    HW128535   4.353   5.234   4.603
 9212SOL    HW228536   4.346   5.356   4.712
 9213SOL     OW28537   5.559   3.466   5.838
 9213SOL    HW128538   5.473   3.517   5.837
 9213SOL    HW228539   5.562   3.405   5.759
 9214SOL     OW28540   0.367   4.862   5.988
 9214SOL    HW128541   0.428   4.872   5.910
 9214SOL    HW228542   0.358   4.950   6.035
 9215SOL     OW28543   1.362   2.169   0.088
 9215SOL    HW128544   1.423   2.241   0.054
 9215SOL    HW228545   1.417   2.095   0.126
 9216SOL     OW28546   2.661   0.066   2.607
 9216SOL    HW128547   2.588   0.072   2.675
 9216SOL    HW228548   2.623   0.036   2.520
 9217SOL     OW28549   0.391   1.333   6.520
 9217SOL    HW128550   0.448   1.318   6.439
 9217SOL    HW228551   0.429   1.284   6.598
 9218SOL     OW28552   3.376   6.487   1.015
 9218SOL    HW128553   3.449   6.547   0.982
 9218SOL    HW228554   3.416   6.399   1.043
 9219SOL     OW28555   0.417   2.553   1.463
 9219SOL    HW128556   0.378   2.489   1.529
 9219SOL    HW228557   0.431   2.506   1.376
 9220SOL     OW28558   2.000   6.695   0.582
 9220SOL    HW128559   2.086   6.685   0.532
 9220SOL    HW228560   1.928   6.643   0.536
 9221SOL     OW28561   2.775   1.071   4.419
 9221SOL    HW128562   2.726   1.156   4.402
 9221SOL    HW228563   2.738   0.998   4.361
 9222SOL     OW28564   1.971   6.889   6.490
 9222SOL    HW128565   1.984   6.987   6.473
 9222SOL    HW228566   2.017   6.863   6.575
 9223SOL     OW28567   1.934   1.425   3.981
 9223SOL    HW128568   1.875   1.344   3.979
 9223SOL    HW228569   2.019   1.404   4.030
 9224SOL     OW28570   2.556   4.926   5.119
 9224SOL    HW128571   2.546   5.025   5.110
 9224SOL    HW228572   2.644   4.905   5.163
 9225SOL     OW28573   3.757   6.714   6.009
 9225SOL    HW128574   3.764   6.622   5.969
 9225SOL    HW228575   3.708   6.709   6.096
 9226SOL     OW28576   5.375   6.927   2.103
 9226SOL    HW128577   5.439   6.856   2.075
 9226SOL    HW228578   5.423   7.015   2.112
 9227SOL     OW28579   0.822   5.206   1.219
 9227SOL    HW128580   0.830   5.223   1.317
 9227SOL    HW228581   0.841   5.110   1.200
 9228SOL     OW28582   1.704   0.806   6.223
 9228SOL    HW128583   1.793   0.839   6.254
 9228SOL    HW228584   1.656   0.878   6.174
 9229SOL     OW28585   1.571   5.376   4.561
 9229SOL    HW128586   1.539   5.447   4.498
 9229SOL    HW228587   1.650   5.410   4.612
 9230SOL     OW28588   5.772   0.758   3.558
 9230SOL    HW128589   5.836   0.834   3.566
 9230SOL    HW228590   5.799   0.684   3.618
 9231SOL     OW28591   1.403   4.837   4.913
 9231SOL    HW128592   1.415   4.909   4.981
 9231SOL    HW228593   1.455   4.756   4.940
 9232SOL     OW28594   3.397   5.518   0.674
 9232SOL    HW128595   3.496   5.517   0.668
 9232SOL    HW228596   3.357   5.509   0.582
 9233SOL     OW28597   5.154   5.000   1.769
 9233SOL    HW128598   5.168   5.099   1.772
 9233SOL    HW228599   5.111   4.970   1.854
 9234SOL     OW28600   3.842   5.729   5.022
 9234SOL    HW128601   3.832   5.637   4.985
 9234SOL    HW228602   3.878   5.790   4.951
 9235SOL     OW28603   1.167   2.414   3.928
 9235SOL    HW128604   1.147   2.439   4.023
 9235SOL    HW228605   1.209   2.323   3.926
 9236SOL     OW28606   2.688   4.114   5.402
 9236SOL    HW128607   2.605   4.155   5.366
 9236SOL    HW228608   2.766   4.175   5.385
 9237SOL     OW28609   2.367   4.984   5.373
 9237SOL    HW128610   2.432   4.970   5.298
 9237SOL    HW228611   2.384   4.915   5.444
 9238SOL     OW28612   3.861   1.672   6.174
 9238SOL    HW128613   3.916   1.755   6.188
 9238SOL    HW228614   3.921   1.598   6.143
 9239SOL     OW28615   0.391   3.915   0.582
 9239SOL    HW128616   0.449   3.835   0.597
 9239SOL    HW228617   0.351   3.910   0.490
 9240SOL     OW28618   5.456   1.805   0.524
 9240SOL    HW128619   5.478   1.772   0.433
 9240SOL    HW228620   5.528   1.778   0.588
 9241SOL     OW28621   0.751   5.256   6.484
 9241SOL    HW128622   0.834   5.201   6.488
 9241SOL    HW228623   0.764   5.341   6.535
 9242SOL     OW28624   6.820   5.369   0.757
 9242SOL    HW128625   6.724   5.341   0.755
 9242SOL    HW228626   6.825   5.469   0.757
 9243SOL     OW28627   5.833   6.610   2.641
 9243SOL    HW128628   5.781   6.539   2.594
 9243SOL    HW228629   5.771   6.680   2.676
 9244SOL     OW28630   4.663   5.375   6.219
 9244SOL    HW128631   4.623   5.290   6.184
 9244SOL    HW228632   4.598   5.450   6.208
 9245SOL     OW28633   1.338   5.383   3.229
 9245SOL    HW128634   1.423   5.434   3.243
 9245SOL    HW228635   1.260   5.445   3.237
 9246SOL     OW28636   0.280   4.679   3.100
 9246SOL    HW128637   0.374   4.702   3.123
 9246SOL    HW228638   0.268   4.580   3.105
 9247SOL     OW28639   1.159   0.157   3.476
 9247SOL    HW128640   1.223   0.156   3.399
 9247SOL    HW228641   1.097   0.079   3.470
 9248SOL     OW28642   1.862   3.077   6.174
 9248SOL    HW128643   1.855   2.978   6.186
 9248SOL    HW228644   1.863   3.121   6.264
 9249SOL     OW28645   5.396   3.577   6.149
 9249SOL    HW128646   5.445   3.637   6.086
 9249SOL    HW228647   5.301   3.606   6.155
 9250SOL     OW28648   5.177   3.396   5.001
 9250SOL    HW128649   5.117   3.352   4.935
 9250SOL    HW228650   5.264   3.346   5.006
 9251SOL     OW28651   3.795   2.139   3.090
 9251SOL    HW128652   3.740   2.108   3.167
 9251SOL    HW228653   3.892   2.125   3.110
 9252SOL     OW28654   6.114   0.356   4.253
 9252SOL    HW128655   6.047   0.410   4.202
 9252SOL    HW228656   6.188   0.416   4.284
 9253SOL     OW28657   5.163   6.150   6.333
 9253SOL    HW128658   5.211   6.200   6.405
 9253SOL    HW228659   5.151   6.055   6.360
 9254SOL     OW28660   6.303   4.409   2.032
 9254SOL    HW128661   6.259   4.343   1.972
 9254SOL    HW228662   6.400   4.417   2.008
 9255SOL     OW28663   5.497   3.391   0.506
 9255SOL    HW128664   5.535   3.389   0.414
 9255SOL    HW228665   5.569   3.414   0.571
 9256SOL     OW28666   4.048   5.018   2.719
 9256SOL    HW128667   4.015   4.962   2.643
 9256SOL    HW228668   4.148   5.012   2.724
 9257SOL     OW28669   0.715   3.506   2.662
 9257SOL    HW128670   0.637   3.445   2.645
 9257SOL    HW228671   0.796   3.451   2.681
 9258SOL     OW28672   3.826   3.286   3.991
 9258SOL    HW128673   3.922   3.311   4.005
 9258SOL    HW228674   3.813   3.189   4.014
 9259SOL     OW28675   1.642   2.079   1.082
 9259SOL    HW128676   1.616   2.114   0.992
 9259SOL    HW228677   1.675   1.985   1.073
 9260SOL     OW28678   4.864   1.546   5.056
 9260SOL    HW128679   4.814   1.627   5.025
 9260SOL    HW228680   4.898   1.560   5.148
 9261SOL     OW28681   4.714   0.631   6.248
 9261SOL    HW128682   4.787   0.609   6.182
 9261SOL    HW228683   4.724   0.726   6.278
 9262SOL     OW28684   6.582   3.325   5.418
 9262SOL    HW128685   6.677   3.350   5.436
 9262SOL    HW228686   6.537   3.399   5.368
 9263SOL     OW28687   6.149   4.290   1.191
 9263SOL    HW128688   6.166   4.196   1.221
 9263SOL    HW228689   6.186   4.353   1.259
 9264SOL     OW28690   5.598   3.947   0.543
 9264SOL    HW128691   5.697   3.951   0.529
 9264SOL    HW228692   5.568   3.852   0.537
 9265SOL     OW28693   2.841   1.818   0.272
 9265SOL    HW128694   2.903   1.813   0.193
 9265SOL    HW228695   2.890   1.789   0.354
 9266SOL     OW28696   1.845   6.215   2.167
 9266SOL    HW128697   1.817   6.183   2.077
 9266SOL    HW228698   1.764   6.231   2.223
 9267SOL     OW28699   6.924   4.440   5.829
 9267SOL    HW128700   6.833   4.429   5.869
 9267SOL    HW228701   6.920   4.505   5.753
 9268SOL     OW28702   1.373   5.796   1.215
 9268SOL    HW128703   1.283   5.838   1.229
 9268SOL    HW228704   1.361   5.699   1.193
 9269SOL     OW28705   3.418   2.767   6.078
 9269SOL    HW128706   3.467   2.842   6.033
 9269SOL    HW228707   3.338   2.742   6.023
 9270SOL     OW28708   5.272   0.124   5.563
 9270SOL    HW128709   5.265   0.047   5.500
 9270SOL    HW228710   5.326   0.097   5.643
 9271SOL     OW28711   1.648   5.535   6.770
 9271SOL    HW128712   1.590   5.456   6.750
 9271SOL    HW228713   1.697   5.561   6.687
 9272SOL     OW28714   3.047   5.641   5.827
 9272SOL    HW128715   3.033   5.553   5.782
 9272SOL    HW228716   2.990   5.645   5.910
 9273SOL     OW28717   5.488   6.096   4.381
 9273SOL    HW128718   5.448   6.168   4.323
 9273SOL    HW228719   5.585   6.087   4.360
 9274SOL     OW28720   6.370   2.733   0.122
 9274SOL    HW128721   6.280   2.763   0.154
 9274SOL    HW228722   6.375   2.742   0.022
 9275SOL     OW28723   0.275   2.078   6.693
 9275SOL    HW128724   0.373   2.066   6.675
 9275SOL    HW228725   0.259   2.167   6.735
 9276SOL     OW28726   2.612   4.784   4.006
 9276SOL    HW128727   2.551   4.741   4.073
 9276SOL    HW228728   2.564   4.859   3.960
 9277SOL     OW28729   4.138   3.770   0.503
 9277SOL    HW128730   4.070   3.729   0.563
 9277SOL    HW228731   4.227   3.773   0.549
 9278SOL     OW28732   1.691   1.303   4.492
 9278SOL    HW128733   1.782   1.318   4.454
 9278SOL    HW228734   1.664   1.208   4.475
 9279SOL     OW28735   4.500   0.342   1.965
 9279SOL    HW128736   4.490   0.316   1.869
 9279SOL    HW228737   4.410   0.357   2.005
 9280SOL     OW28738   1.405   0.337   3.308
 9280SOL    HW128739   1.335   0.357   3.376
 9280SOL    HW228740   1.398   0.402   3.232
 9281SOL     OW28741   3.277   4.206   1.712
 9281SOL    HW128742   3.240   4.180   1.622
 9281SOL    HW228743   3.205   4.251   1.765
 9282SOL     OW28744   4.610   2.045   4.243
 9282SOL    HW128745   4.678   2.067   4.313
 9282SOL    HW228746   4.613   2.114   4.171
 9283SOL     OW28747   5.807   0.763   3.189
 9283SOL    HW128748   5.802   0.692   3.118
 9283SOL    HW228749   5.855   0.726   3.269
 9284SOL     OW28750   3.442   5.381   6.493
 9284SOL    HW128751   3.438   5.411   6.588
 9284SOL    HW228752   3.532   5.345   6.473
 9285SOL     OW28753   5.112   3.143   0.349
 9285SOL    HW128754   5.140   3.048   0.332
 9285SOL    HW228755   5.189   3.204   0.331
 9286SOL     OW28756   5.410   0.116   5.801
 9286SOL    HW128757   5.459   0.030   5.809
 9286SOL    HW228758   5.332   0.116   5.864
 9287SOL     OW28759   2.942   5.960   0.499
 9287SOL    HW128760   2.962   5.863   0.485
 9287SOL    HW228761   2.843   5.973   0.506
 9288SOL     OW28762   2.927   1.313   5.245
 9288SOL    HW128763   2.842   1.294   5.294
 9288SOL    HW228764   2.989   1.364   5.305
 9289SOL     OW28765   3.750   1.844   2.272
 9289SOL    HW128766   3.833   1.850   2.327
 9289SOL    HW228767   3.670   1.848   2.332
 9290SOL     OW28768   5.281   1.883   4.082
 9290SOL    HW128769   5.212   1.860   4.150
 9290SOL    HW228770   5.288   1.982   4.073
 9291SOL     OW28771   2.632   0.284   5.157
 9291SOL    HW128772   2.617   0.201   5.103
 9291SOL    HW228773   2.635   0.363   5.097
 9292SOL     OW28774   0.059   3.577   6.057
 9292SOL    HW128775   0.043   3.568   6.155
 9292SOL    HW228776   0.144   3.628   6.042
 9293SOL     OW28777   6.193   3.863   1.131
 9293SOL    HW128778   6.285   3.831   1.113
 9293SOL    HW228779   6.195   3.933   1.203
 9294SOL     OW28780   3.433   6.471   5.710
 9294SOL    HW128781   3.336   6.470   5.684
 9294SOL    HW228782   3.444   6.432   5.801
 9295SOL     OW28783   5.721   2.404   3.695
 9295SOL    HW128784   5.781   2.358   3.629
 9295SOL    HW228785   5.708   2.344   3.774
 9296SOL     OW28786   0.395   6.063   6.641
 9296SOL    HW128787   0.394   6.126   6.564
 9296SOL    HW228788   0.479   6.007   6.637
 9297SOL     OW28789   6.764   0.617   0.999
 9297SOL    HW128790   6.698   0.566   0.942
 9297SOL    HW228791   6.769   0.711   0.968
 9298SOL     OW28792   1.512   0.139   5.574
 9298SOL    HW128793   1.510   0.039   5.569
 9298SOL    HW228794   1.418   0.174   5.573
 9299SOL     OW28795   0.992   2.827   4.443
 9299SOL    HW128796   1.033   2.888   4.376
 9299SOL    HW228797   0.897   2.809   4.418
 9300SOL     OW28798   0.260   4.990   4.828
 9300SOL    HW128799   0.240   5.009   4.924
 9300SOL    HW228800   0.307   5.068   4.788
 9301SOL     OW28801   4.941   4.388   3.288
 9301SOL    HW128802   4.875   4.346   3.350
 9301SOL    HW228803   5.024   4.332   3.286
 9302SOL     OW28804   2.275   2.950   4.615
 9302SOL    HW128805   2.223   2.947   4.700
 9302SOL    HW228806   2.275   3.043   4.579
 9303SOL     OW28807   3.893   6.320   0.583
 9303SOL    HW128808   3.887   6.398   0.646
 9303SOL    HW228809   3.805   6.273   0.581
 9304SOL     OW28810   4.580   4.126   0.740
 9304SOL    HW128811   4.619   4.212   0.773
 9304SOL    HW228812   4.490   4.111   0.782
 9305SOL     OW28813   3.973   1.784   1.970
 9305SOL    HW128814   3.968   1.684   1.973
 9305SOL    HW228815   3.885   1.823   1.995
 9306SOL     OW28816   0.627   4.753   5.034
 9306SOL    HW128817   0.533   4.779   5.053
 9306SOL    HW228818   0.631   4.657   5.008
 9307SOL     OW28819   0.977   3.441   1.841
 9307SOL    HW128820   0.908   3.504   1.877
 9307SOL    HW228821   0.999   3.466   1.747
 9308SOL     OW28822   1.203   3.755   0.976
 9308SOL    HW128823   1.199   3.805   0.890
 9308SOL    HW228824   1.292   3.768   1.019
 9309SOL     OW28825   3.241   5.010   5.438
 9309SOL    HW128826   3.259   5.068   5.359
 9309SOL    HW228827   3.314   4.941   5.445
 9310SOL     OW28828   4.570   5.632   6.545
 9310SOL    HW128829   4.626   5.557   6.581
 9310SOL    HW228830   4.630   5.703   6.509
 9311SOL     OW28831   5.842   4.666   1.776
 9311SOL    HW128832   5.940   4.688   1.768
 9311SOL    HW228833   5.832   4.573   1.812
 9312SOL     OW28834   1.069   3.840   1.926
 9312SOL    HW128835   1.048   3.935   1.949
 9312SOL    HW228836   1.039   3.820   1.833
 9313SOL     OW28837   0.450   0.624   0.851
 9313SOL    HW128838   0.425   0.677   0.770
 9313SOL    HW228839   0.370   0.572   0.882
 9314SOL     OW28840   3.959   5.622   5.958
 9314SOL    HW128841   4.032   5.555   5.967
 9314SOL    HW228842   3.985   5.692   5.892
 9315SOL     OW28843   6.796   0.719   5.070
 9315SOL    HW128844   6.882   0.693   5.025
 9315SOL    HW228845   6.728   0.743   5.001
 9316SOL     OW28846   4.033   5.273   5.371
 9316SOL    HW128847   3.936   5.289   5.388
 9316SOL    HW228848   4.043   5.203   5.300
 9317SOL     OW28849   6.449   5.564   3.391
 9317SOL    HW128850   6.487   5.560   3.299
 9317SOL    HW228851   6.521   5.543   3.457
 9318SOL     OW28852   6.620   0.852   4.895
 9318SOL    HW128853   6.529   0.811   4.904
 9318SOL    HW228854   6.625   0.904   4.810
 9319SOL     OW28855   0.419   2.683   5.614
 9319SOL    HW128856   0.430   2.605   5.552
 9319SOL    HW228857   0.509   2.716   5.643
 9320SOL     OW28858   4.541   1.876   6.392
 9320SOL    HW128859   4.570   1.785   6.364
 9320SOL    HW228860   4.444   1.889   6.369
 9321SOL     OW28861   6.135   7.023   2.309
 9321SOL    HW128862   6.106   6.975   2.392
 9321SOL    HW228863   6.145   0.095   2.330
 9322SOL     OW28864   0.042   5.685   6.465
 9322SOL    HW128865   0.093   5.623   6.406
 9322SOL    HW228866   7.022   5.634   6.537
 9323SOL     OW28867   1.813   0.067   5.213
 9323SOL    HW128868   1.762   0.062   5.299
 9323SOL    HW228869   1.866   0.152   5.210
 9324SOL     OW28870   2.122   5.174   0.595
 9324SOL    HW128871   2.164   5.084   0.584
 9324SOL    HW228872   2.079   5.181   0.685
 9325SOL     OW28873   5.108   1.869   0.217
 9325SOL    HW128874   5.024   1.836   0.259
 9325SOL    HW228875   5.118   1.967   0.233
 9326SOL     OW28876   2.520   0.097   0.648
 9326SOL    HW128877   2.543   0.145   0.563
 9326SOL    HW228878   2.570   0.011   0.652
 9327SOL     OW28879   5.060   6.480   2.290
 9327SOL    HW128880   5.097   6.399   2.335
 9327SOL    HW228881   5.135   6.543   2.269
 9328SOL     OW28882   3.447   0.816   6.314
 9328SOL    HW128883   3.448   0.901   6.261
 9328SOL    HW228884   3.361   0.809   6.364
 9329SOL     OW28885   0.072   4.022   2.163
 9329SOL    HW128886   0.049   3.983   2.074
 9329SOL    HW228887   0.129   4.102   2.151
 9330SOL     OW28888   0.656   6.285   6.984
 9330SOL    HW128889   0.628   6.333   0.041
 9330SOL    HW228890   0.642   6.345   6.905
 9331SOL     OW28891   1.264   1.445   6.015
 9331SOL    HW128892   1.182   1.420   6.067
 9331SOL    HW228893   1.251   1.420   5.919
 9332SOL     OW28894   3.628   4.129   2.915
 9332SOL    HW128895   3.539   4.134   2.871
 9332SOL    HW228896   3.629   4.187   2.997
 9333SOL     OW28897   4.522   3.974   1.271
 9333SOL    HW128898   4.428   3.977   1.236
 9333SOL    HW228899   4.535   4.051   1.334
 9334SOL     OW28900   4.238   6.552   3.881
 9334SOL    HW128901   4.148   6.508   3.884
 9334SOL    HW228902   4.270   6.568   3.974
 9335SOL     OW28903   0.803   1.358   5.698
 9335SOL    HW128904   0.739   1.281   5.691
 9335SOL    HW228905   0.754   1.444   5.682
 9336SOL     OW28906   3.659   5.525   6.248
 9336SOL    HW128907   3.755   5.551   6.236
 9336SOL    HW228908   3.606   5.553   6.168
 9337SOL     OW28909   5.325   0.945   3.593
 9337SOL    HW128910   5.274   0.904   3.517
 9337SOL    HW228911   5.395   0.881   3.624
 9338SOL     OW28912   4.312   1.073   2.091
 9338SOL    HW128913   4.300   0.975   2.111
 9338SOL    HW228914   4.410   1.094   2.089
 9339SOL     OW28915   5.104   6.928   0.920
 9339SOL    HW128916   5.036   6.952   0.988
 9339SOL    HW228917   5.103   6.829   0.905
 9340SOL     OW28918   5.194   3.656   4.948
 9340SOL    HW128919   5.124   3.696   4.888
 9340SOL    HW228920   5.189   3.556   4.943
 9341SOL     OW28921   0.221   5.824   6.689
 9341SOL    HW128922   0.188   5.774   6.609
 9341SOL    HW228923   0.224   5.922   6.669
 9342SOL     OW28924   2.572   0.728   3.772
 9342SOL    HW128925   2.621   0.793   3.715
 9342SOL    HW228926   2.499   0.685   3.719
 9343SOL     OW28927   5.984   4.344   3.071
 9343SOL    HW128928   6.054   4.414   3.059
 9343SOL    HW228929   5.999   4.295   3.156
 9344SOL     OW28930   4.462   5.689   1.507
 9344SOL    HW128931   4.494   5.760   1.443
 9344SOL    HW228932   4.529   5.679   1.581
 9345SOL     OW28933   6.498   4.136   2.009
 9345SOL    HW128934   6.400   4.138   1.987
 9345SOL    HW228935   6.510   4.119   2.106
 9346SOL     OW28936   6.170   0.752   0.880
 9346SOL    HW128937   6.136   0.669   0.837
 9346SOL    HW228938   6.109   0.779   0.954
 9347SOL     OW28939   0.984   5.504   0.997
 9347SOL    HW128940   0.907   5.489   1.060
 9347SOL    HW228941   0.951   5.555   0.917
 9348SOL     OW28942   3.885   5.375   1.567
 9348SOL    HW128943   3.881   5.424   1.480
 9348SOL    HW228944   3.900   5.277   1.550
 9349SOL     OW28945   0.796   6.789   2.469
 9349SOL    HW128946   0.753   6.703   2.442
 9349SOL    HW228947   0.894   6.775   2.481
 9350SOL     OW28948   0.820   3.292   5.332
 9350SOL    HW128949   0.912   3.277   5.370
 9350SOL    HW228950   0.755   3.234   5.381
 9351SOL     OW28951   3.249   1.233   6.335
 9351SOL    HW128952   3.227   1.316   6.386
 9351SOL    HW228953   3.272   1.256   6.241
 9352SOL     OW28954   2.896   3.246   0.133
 9352SOL    HW128955   2.878   3.165   0.079
 9352SOL    HW228956   2.890   3.224   0.231
 9353SOL     OW28957   0.776   5.452   1.608
 9353SOL    HW128958   0.787   5.532   1.550
 9353SOL    HW228959   0.683   5.415   1.596
 9354SOL     OW28960   6.752   2.206   6.944
 9354SOL    HW128961   6.737   2.145   6.867
 9354SOL    HW228962   6.671   2.207   7.002
 9355SOL     OW28963   0.709   2.495   4.816
 9355SOL    HW128964   0.784   2.519   4.878
 9355SOL    HW228965   0.688   2.397   4.826
 9356SOL     OW28966   3.587   6.948   0.968
 9356SOL    HW128967   3.505   6.937   1.024
 9356SOL    HW228968   3.634   6.861   0.960
 9357SOL     OW28969   1.310   3.176   6.057
 9357SOL    HW128970   1.396   3.194   6.106
 9357SOL    HW228971   1.302   3.078   6.039
 9358SOL     OW28972   0.445   4.011   2.259
 9358SOL    HW128973   0.376   3.953   2.303
 9358SOL    HW228974   0.423   4.107   2.277
 9359SOL     OW28975   1.794   4.712   6.426
 9359SOL    HW128976   1.875   4.755   6.465
 9359SOL    HW228977   1.774   4.754   6.337
 9360SOL     OW28978   1.587   6.162   6.473
 9360SOL    HW128979   1.667   6.175   6.415
 9360SOL    HW228980   1.591   6.224   6.551
 9361SOL     OW28981   2.060   5.662   3.429
 9361SOL    HW128982   2.118   5.729   3.477
 9361SOL    HW228983   2.000   5.617   3.495
 9362SOL     OW28984   1.454   1.703   2.232
 9362SOL    HW128985   1.381   1.748   2.180
 9362SOL    HW228986   1.430   1.704   2.329
 9363SOL     OW28987   3.368   5.193   1.743
 9363SOL    HW128988   3.295   5.172   1.809
 9363SOL    HW228989   3.339   5.163   1.652
 9364SOL     OW28990   2.273   1.781   1.482
 9364SOL    HW128991   2.311   1.854   1.540
 9364SOL    HW228992   2.310   1.693   1.512
 9365SOL     OW28993   2.997   1.942   3.832
 9365SOL    HW128994   2.986   1.845   3.810
 9365SOL    HW228995   2.929   1.969   3.901
 9366SOL     OW28996   3.297   6.096   0.112
 9366SOL    HW128997   3.206   6.123   0.083
 9366SOL    HW228998   3.362   6.169   0.093
 9367SOL     OW28999   5.699   0.424   1.316
 9367SOL    HW129000   5.731   0.453   1.406
 9367SOL    HW229001   5.647   0.498   1.274
 9368SOL     OW29002   3.739   6.868   2.131
 9368SOL    HW129003   3.682   6.950   2.142
 9368SOL    HW229004   3.835   6.893   2.140
 9369SOL     OW29005   0.775   5.930   5.030
 9369SOL    HW129006   0.705   6.001   5.020
 9369SOL    HW229007   0.781   5.902   5.126
 9370SOL     OW29008   5.050   0.854   3.322
 9370SOL    HW129009   4.994   0.811   3.392
 9370SOL    HW229010   5.145   0.858   3.353
 9371SOL     OW29011   2.898   5.276   1.266
 9371SOL    HW129012   2.889   5.176   1.272
 9371SOL    HW229013   2.988   5.299   1.228
 9372SOL     OW29014   4.150   6.891   1.589
 9372SOL    HW129015   4.219   6.879   1.661
 9372SOL    HW229016   4.077   6.824   1.602
 9373SOL     OW29017   6.520   2.547   0.523
 9373SOL    HW129018   6.580   2.573   0.448
 9373SOL    HW229019   6.428   2.581   0.506
 9374SOL     OW29020   0.382   3.920   5.532
 9374SOL    HW129021   0.383   4.009   5.485
 9374SOL    HW229022   0.447   3.859   5.489
 9375SOL     OW29023   0.325   1.947   0.403
 9375SOL    HW129024   0.286   1.952   0.495
 9375SOL    HW229025   0.262   1.989   0.338
 9376SOL     OW29026   2.080   3.491   2.325
 9376SOL    HW129027   1.988   3.464   2.295
 9376SOL    HW229028   2.145   3.474   2.250
 9377SOL     OW29029   2.715   5.415   3.017
 9377SOL    HW129030   2.683   5.507   3.039
 9377SOL    HW229031   2.759   5.374   3.097
 9378SOL     OW29032   3.386   1.061   3.571
 9378SOL    HW129033   3.354   1.155   3.586
 9378SOL    HW229034   3.461   1.041   3.633
 9379SOL     OW29035   4.729   6.971   4.737
 9379SOL    HW129036   4.764   6.908   4.806
 9379SOL    HW229037   4.790   6.969   4.657
 9380SOL     OW29038   3.462   5.542   5.667
 9380SOL    HW129039   3.389   5.547   5.736
 9380SOL    HW229040   3.544   5.588   5.702
 9381SOL     OW29041   5.374   1.842   4.440
 9381SOL    HW129042   5.298   1.864   4.378
 9381SOL    HW229043   5.344   1.851   4.535
 9382SOL     OW29044   3.794   0.759   4.171
 9382SOL    HW129045   3.816   0.680   4.113
 9382SOL    HW229046   3.812   0.736   4.266
 9383SOL     OW29047   4.878   4.168   3.968
 9383SOL    HW129048   4.830   4.091   3.929
 9383SOL    HW229049   4.872   4.247   3.906
 9384SOL     OW29050   1.828   6.742   1.822
 9384SOL    HW129051   1.861   6.691   1.742
 9384SOL    HW229052   1.728   6.746   1.818
 9385SOL     OW29053   3.887   1.595   4.220
 9385SOL    HW129054   3.907   1.512   4.272
 9385SOL    HW229055   3.820   1.574   4.148
 9386SOL     OW29056   3.498   5.950   5.417
 9386SOL    HW129057   3.506   5.850   5.421
 9386SOL    HW229058   3.431   5.975   5.347
 9387SOL     OW29059   3.813   2.075   0.156
 9387SOL    HW129060   3.831   2.097   0.252
 9387SOL    HW229061   3.897   2.043   0.112
 9388SOL     OW29062   1.642   6.703   4.286
 9388SOL    HW129063   1.573   6.744   4.227
 9388SOL    HW229064   1.599   6.630   4.341
 9389SOL     OW29065   3.286   5.173   2.695
 9389SOL    HW129066   3.314   5.214   2.782
 9389SOL    HW229067   3.200   5.123   2.707
 9390SOL     OW29068   5.357   4.638   5.482
 9390SOL    HW129069   5.352   4.594   5.393
 9390SOL    HW229070   5.397   4.575   5.548
 9391SOL     OW29071   0.553   6.798   5.132
 9391SOL    HW129072   0.519   6.705   5.120
 9391SOL    HW229073   0.520   6.835   5.219
 9392SOL     OW29074   5.026   4.806   3.598
 9392SOL    HW129075   5.066   4.736   3.539
 9392SOL    HW229076   4.958   4.858   3.546
 9393SOL     OW29077   3.472   6.177   6.194
 9393SOL    HW129078   3.551   6.166   6.254
 9393SOL    HW229079   3.487   6.126   6.109
 9394SOL     OW29080   5.624   0.829   1.531
 9394SOL    HW129081   5.701   0.856   1.473
 9394SOL    HW229082   5.642   0.860   1.625
 9395SOL     OW29083   2.683   1.420   0.989
 9395SOL    HW129084   2.728   1.445   1.075
 9395SOL    HW229085   2.702   1.323   0.969
 9396SOL     OW29086   2.178   6.396   6.002
 9396SOL    HW129087   2.106   6.451   5.960
 9396SOL    HW229088   2.140   6.345   6.079
 9397SOL     OW29089   3.749   6.890   6.306
 9397SOL    HW129090   3.692   6.955   6.358
 9397SOL    HW229091   3.778   6.933   6.220
 9398SOL     OW29092   6.191   1.270   6.521
 9398SOL    HW129093   6.124   1.197   6.532
 9398SOL    HW229094   6.174   1.341   6.590
 9399SOL     OW29095   1.849   2.732   4.064
 9399SOL    HW129096   1.783   2.668   4.026
 9399SOL    HW229097   1.927   2.681   4.100
 9400SOL     OW29098   5.305   1.435   0.025
 9400SOL    HW129099   5.207   1.418   0.039
 9400SOL    HW229100   5.344   1.361   6.995
 9401SOL     OW29101   0.711   2.786   2.858
 9401SOL    HW129102   0.664   2.869   2.827
 9401SOL    HW229103   0.643   2.718   2.886
 9402SOL     OW29104   1.833   5.567   3.583
 9402SOL    HW129105   1.758   5.612   3.534
 9402SOL    HW229106   1.876   5.633   3.644
 9403SOL     OW29107   6.732   1.134   2.076
 9403SOL    HW129108   6.668   1.068   2.116
 9403SOL    HW229109   6.716   1.224   2.117
 9404SOL     OW29110   1.078   3.039   1.081
 9404SOL    HW129111   1.092   2.940   1.080
 9404SOL    HW229112   1.019   3.065   1.004
 9405SOL     OW29113   0.322   4.767   4.664
 9405SOL    HW129114   0.341   4.690   4.726
 9405SOL    HW229115   0.301   4.848   4.719
 9406SOL     OW29116   0.596   3.061   6.402
 9406SOL    HW129117   0.570   2.991   6.468
 9406SOL    HW229118   0.559   3.037   6.312
 9407SOL     OW29119   2.615   5.108   4.751
 9407SOL    HW129120   2.683   5.173   4.784
 9407SOL    HW229121   2.526   5.128   4.792
 9408SOL     OW29122   6.686   3.886   5.551
 9408SOL    HW129123   6.669   3.792   5.578
 9408SOL    HW229124   6.630   3.948   5.606
 9409SOL     OW29125   6.890   5.643   2.133
 9409SOL    HW129126   6.962   5.574   2.131
 9409SOL    HW229127   6.847   5.645   2.223
 9410SOL     OW29128   4.440   0.700   1.810
 9410SOL    HW129129   4.400   0.715   1.900
 9410SOL    HW229130   4.395   0.621   1.767
 9411SOL     OW29131   3.604   2.974   3.620
 9411SOL    HW129132   3.606   3.001   3.524
 9411SOL    HW229133   3.696   2.953   3.651
 9412SOL     OW29134   0.056   0.783   0.860
 9412SOL    HW129135   6.999   0.839   0.869
 9412SOL    HW229136   0.095   0.767   0.951
 9413SOL     OW29137   4.396   4.805   4.234
 9413SOL    HW129138   4.322   4.788   4.299
 9413SOL    HW229139   4.482   4.770   4.271
 9414SOL     OW29140   2.123   2.388   4.860
 9414SOL    HW129141   2.113   2.434   4.948
 9414SOL    HW229142   2.188   2.312   4.868
 9415SOL     OW29143   3.641   0.491   2.504
 9415SOL    HW129144   3.657   0.521   2.410
 9415SOL    HW229145   3.606   0.398   2.504
 9416SOL     OW29146   0.487   6.692   6.175
 9416SOL    HW129147   0.499   6.788   6.149
 9416SOL    HW229148   0.574   6.656   6.209
 9417SOL     OW29149   3.347   6.721   1.364
 9417SOL    HW129150   3.303   6.637   1.393
 9417SOL    HW229151   3.295   6.800   1.396
 9418SOL     OW29152   3.217   1.965   4.150
 9418SOL    HW129153   3.257   1.995   4.064
 9418SOL    HW229154   3.246   2.027   4.223
 9419SOL     OW29155   2.816   2.450   6.523
 9419SOL    HW129156   2.898   2.506   6.520
 9419SOL    HW229157   2.823   2.384   6.597
 9420SOL     OW29158   5.711   3.465   0.653
 9420SOL    HW129159   5.766   3.382   0.666
 9420SOL    HW229160   5.687   3.503   0.743
 9421SOL     OW29161   3.956   6.315   5.444
 9421SOL    HW129162   3.882   6.248   5.441
 9421SOL    HW229163   3.925   6.401   5.403
 9422SOL     OW29164   2.497   5.863   4.485
 9422SOL    HW129165   2.522   5.840   4.579
 9422SOL    HW229166   2.475   5.961   4.479
 9423SOL     OW29167   4.464   6.065   3.202
 9423SOL    HW129168   4.423   5.993   3.257
 9423SOL    HW229169   4.409   6.080   3.119
 9424SOL     OW29170   5.478   1.458   4.450
 9424SOL    HW129171   5.439   1.507   4.528
 9424SOL    HW229172   5.453   1.361   4.456
 9425SOL     OW29173   6.256   4.549   1.361
 9425SOL    HW129174   6.276   4.536   1.459
 9425SOL    HW229175   6.169   4.597   1.351
 9426SOL     OW29176   0.695   2.036   6.288
 9426SOL    HW129177   0.730   2.130   6.290
 9426SOL    HW229178   0.720   1.993   6.201
 9427SOL     OW29179   3.506   5.644   2.793
 9427SOL    HW129180   3.550   5.559   2.764
 9427SOL    HW229181   3.555   5.681   2.872
 9428SOL     OW29182   6.321   6.729   6.772
 9428SOL    HW129183   6.273   6.759   6.689
 9428SOL    HW229184   6.371   6.645   6.753
 9429SOL     OW29185   1.721   2.508   3.923
 9429SOL    HW129186   1.794   2.442   3.938
 9429SOL    HW229187   1.636   2.475   3.964
 9430SOL     OW29188   0.538   1.978   4.360
 9430SOL    HW129189   0.523   1.881   4.375
 9430SOL    HW229190   0.451   2.022   4.336
 9431SOL     OW29191   0.171   4.591   0.380
 9431SOL    HW129192   0.261   4.628   0.358
 9431SOL    HW229193   0.102   4.662   0.369
 9432SOL     OW29194   6.764   1.491   3.509
 9432SOL    HW129195   6.816   1.490   3.423
 9432SOL    HW229196   6.671   1.521   3.491
 9433SOL     OW29197   4.309   6.347   2.759
 9433SOL    HW129198   4.280   6.297   2.677
 9433SOL    HW229199   4.235   6.407   2.789
 9434SOL     OW29200   5.195   5.708   3.904
 9434SOL    HW129201   5.205   5.801   3.940
 9434SOL    HW229202   5.276   5.684   3.851
 9435SOL     OW29203   0.687   2.698   2.503
 9435SOL    HW129204   0.642   2.788   2.501
 9435SOL    HW229205   0.782   2.710   2.531
 9436SOL     OW29206   0.534   1.067   2.342
 9436SOL    HW129207   0.569   0.981   2.305
 9436SOL    HW229208   0.457   1.048   2.403
 9437SOL     OW29209   0.418   5.334   4.190
 9437SOL    HW129210   0.338   5.390   4.169
 9437SOL    HW229211   0.420   5.255   4.130
 9438SOL     OW29212   2.365   6.218   1.547
 9438SOL    HW129213   2.465   6.228   1.543
 9438SOL    HW229214   2.324   6.260   1.467
 9439SOL     OW29215   0.953   2.949   7.016
 9439SOL    HW129216   0.894   2.888   6.964
 9439SOL    HW229217   0.921   3.043   7.006
 9440SOL     OW29218   3.354   5.134   3.538
 9440SOL    HW129219   3.435   5.092   3.580
 9440SOL    HW229220   3.272   5.106   3.588
 9441SOL     OW29221   6.457   5.720   4.569
 9441SOL    HW129222   6.458   5.620   4.558
 9441SOL    HW229223   6.543   5.750   4.610
 9442SOL     OW29224   4.875   3.641   0.845
 9442SOL    HW129225   4.927   3.591   0.914
 9442SOL    HW229226   4.777   3.621   0.855
 9443SOL     OW29227   2.848   4.915   1.904
 9443SOL    HW129228   2.852   4.928   1.804
 9443SOL    HW229229   2.853   4.817   1.925
 9444SOL     OW29230   2.119   3.924   0.322
 9444SOL    HW129231   2.042   3.975   0.284
 9444SOL    HW229232   2.203   3.949   0.274
 9445SOL     OW29233   0.468   1.405   3.650
 9445SOL    HW129234   0.497   1.480   3.709
 9445SOL    HW229235   0.369   1.402   3.646
 9446SOL     OW29236   6.403   5.061   3.321
 9446SOL    HW129237   6.379   5.060   3.224
 9446SOL    HW229238   6.488   5.113   3.333
 9447SOL     OW29239   5.777   5.661   2.602
 9447SOL    HW129240   5.728   5.733   2.554
 9447SOL    HW229241   5.715   5.585   2.621
 9448SOL     OW29242   5.362   0.523   5.994
 9448SOL    HW129243   5.435   0.456   6.006
 9448SOL    HW229244   5.402   0.615   5.991
 9449SOL     OW29245   5.323   6.947   0.706
 9449SOL    HW129246   5.289   7.023   0.650
 9449SOL    HW229247   5.268   6.939   0.789
 9450SOL     OW29248   1.539   5.843   4.397
 9450SOL    HW129249   1.442   5.869   4.399
 9450SOL    HW229250   1.590   5.902   4.460
 9451SOL     OW29251   3.917   5.588   6.216
 9451SOL    HW129252   4.017   5.590   6.224
 9451SOL    HW229253   3.892   5.592   6.119
 9452SOL     OW29254   0.638   4.476   1.001
 9452SOL    HW129255   0.653   4.404   0.933
 9452SOL    HW229256   0.717   4.537   1.003
 9453SOL     OW29257   3.602   5.175   3.049
 9453SOL    HW129258   3.633   5.170   3.143
 9453SOL    HW229259   3.630   5.093   2.999
 9454SOL     OW29260   4.286   4.427   0.627
 9454SOL    HW129261   4.255   4.478   0.707
 9454SOL    HW229262   4.376   4.388   0.645
 9455SOL     OW29263   2.746   2.184   2.093
 9455SOL    HW129264   2.773   2.089   2.110
 9455SOL    HW229265   2.816   2.229   2.036
 9456SOL     OW29266   6.163   3.295   2.353
 9456SOL    HW129267   6.065   3.306   2.369
 9456SOL    HW229268   6.186   3.197   2.356
 9457SOL     OW29269   1.132   4.575   4.312
 9457SOL    HW129270   1.117   4.651   4.249
 9457SOL    HW229271   1.119   4.606   4.406
 9458SOL     OW29272   6.748   4.388   0.281
 9458SOL    HW129273   6.827   4.406   0.339
 9458SOL    HW229274   6.710   4.475   0.249
 9459SOL     OW29275   5.196   4.655   4.559
 9459SOL    HW129276   5.264   4.583   4.556
 9459SOL    HW229277   5.210   4.711   4.640
 9460SOL     OW29278   1.112   3.209   3.433
 9460SOL    HW129279   1.027   3.203   3.381
 9460SOL    HW229280   1.172   3.276   3.391
 9461SOL     OW29281   1.480   2.277   1.155
 9461SOL    HW129282   1.516   2.184   1.149
 9461SOL    HW229283   1.466   2.313   1.063
 9462SOL     OW29284   2.150   1.891   4.354
 9462SOL    HW129285   2.207   1.921   4.430
 9462SOL    HW229286   2.058   1.928   4.364
 9463SOL     OW29287   5.081   6.870   1.423
 9463SOL    HW129288   5.045   6.906   1.510
 9463SOL    HW229289   5.156   6.928   1.392
 9464SOL     OW29290   0.106   0.799   1.538
 9464SOL    HW129291   0.116   0.847   1.451
 9464SOL    HW229292   0.045   0.721   1.526
 9465SOL     OW29293   0.226   4.027   1.178
 9465SOL    HW129294   0.253   4.113   1.222
 9465SOL    HW229295   0.214   4.042   1.080
 9466SOL     OW29296   4.036   5.218   6.378
 9466SOL    HW129297   4.052   5.120   6.370
 9466SOL    HW229298   3.946   5.241   6.342
 9467SOL     OW29299   2.222   3.106   1.179
 9467SOL    HW129300   2.164   3.185   1.200
 9467SOL    HW229301   2.315   3.123   1.213
 9468SOL     OW29302   6.475   3.583   0.275
 9468SOL    HW129303   6.562   3.534   0.284
 9468SOL    HW229304   6.414   3.557   0.350
 9469SOL     OW29305   0.088   6.199   0.898
 9469SOL    HW129306   0.136   6.128   0.950
 9469SOL    HW229307   0.099   6.287   0.943
 9470SOL     OW29308   5.264   3.972   0.207
 9470SOL    HW129309   5.259   3.962   0.306
 9470SOL    HW229310   5.260   3.882   0.163
 9471SOL     OW29311   6.340   2.055   5.143
 9471SOL    HW129312   6.320   2.104   5.058
 9471SOL    HW229313   6.262   2.061   5.205
 9472SOL     OW29314   1.445   4.256   5.959
 9472SOL    HW129315   1.389   4.314   6.019
 9472SOL    HW229316   1.432   4.160   5.985
 9473SOL     OW29317   2.835   4.400   0.397
 9473SOL    HW129318   2.859   4.347   0.478
 9473SOL    HW229319   2.914   4.454   0.368
 9474SOL     OW29320   6.073   3.462   1.939
 9474SOL    HW129321   6.162   3.432   1.973
 9474SOL    HW229322   6.086   3.523   1.861
 9475SOL     OW29323   4.896   3.471   5.594
 9475SOL    HW129324   4.806   3.514   5.591
 9475SOL    HW229325   4.918   3.447   5.689
 9476SOL     OW29326   3.635   4.247   5.707
 9476SOL    HW129327   3.545   4.290   5.717
 9476SOL    HW229328   3.665   4.212   5.795
 9477SOL     OW29329   1.741   3.656   1.816
 9477SOL    HW129330   1.650   3.690   1.795
 9477SOL    HW229331   1.797   3.731   1.852
 9478SOL     OW29332   5.055   2.644   0.444
 9478SOL    HW129333   5.029   2.718   0.506
 9478SOL    HW229334   4.982   2.576   0.441
 9479SOL     OW29335   4.770   1.003   1.550
 9479SOL    HW129336   4.708   1.047   1.486
 9479SOL    HW229337   4.719   0.976   1.632
 9480SOL     OW29338   6.062   5.958   6.613
 9480SOL    HW129339   5.984   5.992   6.666
 9480SOL    HW229340   6.087   6.027   6.544
 9481SOL     OW29341   4.566   1.602   3.379
 9481SOL    HW129342   4.471   1.574   3.395
 9481SOL    HW229343   4.622   1.575   3.458
 9482SOL     OW29344   5.804   1.120   0.637
 9482SOL    HW129345   5.877   1.139   0.703
 9482SOL    HW229346   5.840   1.065   0.562
 9483SOL     OW29347   0.833   0.532   0.124
 9483SOL    HW129348   0.882   0.542   0.210
 9483SOL    HW229349   0.871   0.455   0.073
 9484SOL     OW29350   2.781   6.482   4.735
 9484SOL    HW129351   2.749   6.571   4.703
 9484SOL    HW229352   2.836   6.438   4.664
 9485SOL     OW29353   6.607   1.512   0.342
 9485SOL    HW129354   6.627   1.527   0.439
 9485SOL    HW229355   6.596   1.414   0.325
 9486SOL     OW29356   4.642   5.785   0.159
 9486SOL    HW129357   4.560   5.835   0.184
 9486SOL    HW229358   4.629   5.742   0.069
 9487SOL     OW29359   3.032   3.603   4.314
 9487SOL    HW129360   2.986   3.522   4.278
 9487SOL    HW229361   2.995   3.625   4.404
 9488SOL     OW29362   1.563   1.216   1.009
 9488SOL    HW129363   1.506   1.159   1.069
 9488SOL    HW229364   1.519   1.223   0.919
 9489SOL     OW29365   5.160   4.283   1.013
 9489SOL    HW129366   5.196   4.374   1.032
 9489SOL    HW229367   5.063   4.279   1.039
 9490SOL     OW29368   6.202   4.883   3.779
 9490SOL    HW129369   6.113   4.870   3.736
 9490SOL    HW229370   6.274   4.870   3.711
 9491SOL     OW29371   4.974   6.554   3.678
 9491SOL    HW129372   5.059   6.606   3.674
 9491SOL    HW229373   4.957   6.524   3.772
 9492SOL     OW29374   4.769   2.967   4.779
 9492SOL    HW129375   4.729   3.048   4.735
 9492SOL    HW229376   4.853   2.993   4.827
 9493SOL     OW29377   4.402   6.266   4.104
 9493SOL    HW129378   4.317   6.314   4.128
 9493SOL    HW229379   4.421   6.195   4.172
 9494SOL     OW29380   5.037   2.687   2.307
 9494SOL    HW129381   4.986   2.667   2.224
 9494SOL    HW229382   5.099   2.764   2.290
 9495SOL     OW29383   0.476   0.554   1.694
 9495SOL    HW129384   0.478   0.476   1.632
 9495SOL    HW229385   0.460   0.638   1.641
 9496SOL     OW29386   4.249   1.994   2.685
 9496SOL    HW129387   4.240   1.914   2.626
 9496SOL    HW229388   4.158   2.028   2.709
 9497SOL     OW29389   5.942   5.557   4.945
 9497SOL    HW129390   5.863   5.554   5.006
 9497SOL    HW229391   6.011   5.618   4.983
 9498SOL     OW29392   6.540   5.252   4.535
 9498SOL    HW129393   6.529   5.346   4.504
 9498SOL    HW229394   6.478   5.192   4.483
 9499SOL     OW29395   6.411   5.204   5.062
 9499SOL    HW129396   6.325   5.255   5.067
 9499SOL    HW229397   6.486   5.260   5.097
 9500SOL     OW29398   4.172   0.292   1.033
 9500SOL    HW129399   4.207   0.200   1.051
 9500SOL    HW229400   4.245   0.359   1.044
 9501SOL     OW29401   1.678   1.588   4.469
 9501SOL    HW129402   1.773   1.576   4.438
 9501SOL    HW229403   1.639   1.499   4.490
 9502SOL     OW29404   5.422   4.805   5.202
 9502SOL    HW129405   5.328   4.834   5.185
 9502SOL    HW229406   5.485   4.861   5.148
 9503SOL     OW29407   0.638   1.901   0.111
 9503SOL    HW129408   0.654   1.997   0.088
 9503SOL    HW229409   0.584   1.857   0.039
 9504SOL     OW29410   0.150   4.474   1.306
 9504SOL    HW129411   0.188   4.549   1.359
 9504SOL    HW229412   0.051   4.472   1.316
 9505SOL     OW29413   4.195   4.785   5.519
 9505SOL    HW129414   4.248   4.826   5.593
 9505SOL    HW229415   4.116   4.736   5.557
 9506SOL     OW29416   2.382   2.113   1.166
 9506SOL    HW129417   2.328   2.189   1.130
 9506SOL    HW229418   2.414   2.055   1.090
 9507SOL     OW29419   6.219   0.333   1.544
 9507SOL    HW129420   6.135   0.361   1.496
 9507SOL    HW229421   6.298   0.373   1.497
 9508SOL     OW29422   4.581   1.477   2.411
 9508SOL    HW129423   4.643   1.407   2.445
 9508SOL    HW229424   4.555   1.538   2.485
 9509SOL     OW29425   6.581   0.415   2.941
 9509SOL    HW129426   6.557   0.353   3.015
 9509SOL    HW229427   6.503   0.475   2.921
 9510SOL     OW29428   0.307   3.195   3.464
 9510SOL    HW129429   0.394   3.235   3.494
 9510SOL    HW229430   0.239   3.204   3.537
 9511SOL     OW29431   1.234   1.000   1.207
 9511SOL    HW129432   1.165   1.014   1.135
 9511SOL    HW229433   1.189   0.965   1.289
 9512SOL     OW29434   6.609   3.076   1.102
 9512SOL    HW129435   6.510   3.062   1.097
 9512SOL    HW229436   6.656   2.994   1.068
 9513SOL     OW29437   4.124   4.720   6.201
 9513SOL    HW129438   4.212   4.673   6.197
 9513SOL    HW229439   4.065   4.676   6.268
 9514SOL     OW29440   3.191   3.159   0.097
 9514SOL    HW129441   3.282   3.121   0.083
 9514SOL    HW229442   3.128   3.121   0.028
 9515SOL     OW29443   2.755   5.182   3.817
 9515SOL    HW129444   2.843   5.144   3.846
 9515SOL    HW229445   2.732   5.146   3.726
 9516SOL     OW29446   6.153   4.115   0.174
 9516SOL    HW129447   6.131   4.062   0.255
 9516SOL    HW229448   6.227   4.179   0.195
 9517SOL     OW29449   1.028   3.874   1.153
 9517SOL    HW129450   1.102   3.845   1.092
 9517SOL    HW229451   0.957   3.921   1.100
 9518SOL     OW29452   2.385   1.626   0.637
 9518SOL    HW129453   2.476   1.621   0.595
 9518SOL    HW229454   2.380   1.565   0.716
 9519SOL     OW29455   1.305   2.430   5.374
 9519SOL    HW129456   1.301   2.335   5.403
 9519SOL    HW229457   1.396   2.467   5.391
 9520SOL     OW29458   2.468   0.063   2.795
 9520SOL    HW129459   2.503   0.145   2.838
 9520SOL    HW229460   2.381   0.037   2.837
 9521SOL     OW29461   5.956   5.906   3.908
 9521SOL    HW129462   5.895   5.962   3.853
 9521SOL    HW229463   5.921   5.899   4.002
 9522SOL     OW29464   3.369   5.938   1.234
 9522SOL    HW129465   3.432   5.915   1.160
 9522SOL    HW229466   3.286   5.979   1.195
 9523SOL     OW29467   3.890   5.185   4.148
 9523SOL    HW129468   3.891   5.147   4.240
 9523SOL    HW229469   3.800   5.169   4.107
 9524SOL     OW29470   3.552   3.031   1.202
 9524SOL    HW129471   3.631   2.970   1.207
 9524SOL    HW229472   3.468   2.978   1.212
 9525SOL     OW29473   1.935   1.275   6.100
 9525SOL    HW129474   1.983   1.251   6.015
 9525SOL    HW229475   1.916   1.192   6.152
 9526SOL     OW29476   4.949   6.515   3.051
 9526SOL    HW129477   4.870   6.529   3.111
 9526SOL    HW229478   5.033   6.523   3.103
 9527SOL     OW29479   0.797   0.980   2.154
 9527SOL    HW129480   0.717   0.927   2.182
 9527SOL    HW229481   0.862   0.986   2.231
 9528SOL     OW29482   5.998   0.177   1.056
 9528SOL    HW129483   5.965   0.084   1.042
 9528SOL    HW229484   5.931   0.228   1.111
 9529SOL     OW29485   1.096   3.183   6.470
 9529SOL    HW129486   1.158   3.106   6.454
 9529SOL    HW229487   1.149   3.268   6.479
 9530SOL     OW29488   1.681   2.846   2.705
 9530SOL    HW129489   1.644   2.763   2.665
 9530SOL    HW229490   1.608   2.896   2.753
 9531SOL     OW29491   3.707   6.819   3.208
 9531SOL    HW129492   3.653   6.849   3.129
 9531SOL    HW229493   3.773   6.891   3.231
 9532SOL     OW29494   1.904   6.629   1.158
 9532SOL    HW129495   2.003   6.630   1.173
 9532SOL    HW229496   1.885   6.646   1.061
 9533SOL     OW29497   1.289   1.332   5.382
 9533SOL    HW129498   1.348   1.403   5.422
 9533SOL    HW229499   1.328   1.242   5.402
 9534SOL     OW29500   5.304   1.853   4.742
 9534SOL    HW129501   5.349   1.942   4.734
 9534SOL    HW229502   5.344   1.801   4.817
 9535SOL     OW29503   2.557   1.209   5.670
 9535SOL    HW129504   2.626   1.273   5.703
 9535SOL    HW229505   2.466   1.240   5.699
 9536SOL     OW29506   1.775   5.603   5.368
 9536SOL    HW129507   1.830   5.520   5.381
 9536SOL    HW229508   1.721   5.620   5.451
 9537SOL     OW29509   3.307   0.249   2.255
 9537SOL    HW129510   3.244   0.184   2.299
 9537SOL    HW229511   3.329   0.216   2.163
 9538SOL     OW29512   6.580   2.207   4.287
 9538SOL    HW129513   6.582   2.214   4.187
 9538SOL    HW229514   6.542   2.291   4.326
 9539SOL     OW29515   1.081   5.725   0.178
 9539SOL    HW129516   1.158   5.701   0.118
 9539SOL    HW229517   1.013   5.776   0.126
 9540SOL     OW29518   4.507   4.932   4.907
 9540SOL    HW129519   4.435   4.870   4.938
 9540SOL    HW229520   4.477   5.026   4.919
 9541SOL     OW29521   2.079   2.904   4.112
 9541SOL    HW129522   1.998   2.852   4.139
 9541SOL    HW229523   2.141   2.912   4.190
 9542SOL     OW29524   4.932   3.164   4.845
 9542SOL    HW129525   4.942   3.147   4.943
 9542SOL    HW229526   4.913   3.261   4.830
 9543SOL     OW29527   4.404   0.930   3.631
 9543SOL    HW129528   4.358   0.982   3.702
 9543SOL    HW229529   4.376   0.964   3.541
 9544SOL     OW29530   5.629   0.929   1.793
 9544SOL    HW129531   5.654   0.847   1.845
 9544SOL    HW229532   5.546   0.969   1.833
 9545SOL     OW29533   6.880   0.383   3.057
 9545SOL    HW129534   6.849   0.354   3.147
 9545SOL    HW229535   6.814   0.352   2.988
 9546SOL     OW29536   2.932   5.530   6.308
 9546SOL    HW129537   3.003   5.504   6.243
 9546SOL    HW229538   2.942   5.478   6.393
 9547SOL     OW29539   1.263   6.229   4.643
 9547SOL    HW129540   1.315   6.220   4.728
 9547SOL    HW229541   1.325   6.246   4.567
 9548SOL     OW29542   5.777   5.737   4.483
 9548SOL    HW129543   5.799   5.650   4.527
 9548SOL    HW229544   5.691   5.729   4.433
 9549SOL     OW29545   2.953   5.662   0.483
 9549SOL    HW129546   2.857   5.635   0.474
 9549SOL    HW229547   3.001   5.645   0.397
 9550SOL     OW29548   1.067   1.112   0.381
 9550SOL    HW129549   1.112   1.200   0.365
 9550SOL    HW229550   1.133   1.038   0.365
 9551SOL     OW29551   0.278   0.110   4.836
 9551SOL    HW129552   0.367   0.116   4.881
 9551SOL    HW229553   0.273   0.176   4.761
 9552SOL     OW29554   1.591   6.366   3.353
 9552SOL    HW129555   1.576   6.271   3.324
 9552SOL    HW229556   1.506   6.418   3.342
 9553SOL     OW29557   6.003   4.676   6.220
 9553SOL    HW129558   5.959   4.597   6.178
 9553SOL    HW229559   6.080   4.645   6.277
 9554SOL     OW29560   2.272   1.315   2.068
 9554SOL    HW129561   2.258   1.216   2.064
 9554SOL    HW229562   2.365   1.336   2.038
 9555SOL     OW29563   6.460   2.194   0.941
 9555SOL    HW129564   6.516   2.227   1.017
 9555SOL    HW229565   6.487   2.242   0.857
 9556SOL     OW29566   2.439   1.135   1.230
 9556SOL    HW129567   2.444   1.202   1.155
 9556SOL    HW229568   2.343   1.108   1.243
 9557SOL     OW29569   5.496   0.221   2.361
 9557SOL    HW129570   5.485   0.318   2.381
 9557SOL    HW229571   5.409   0.183   2.329
 9558SOL     OW29572   6.837   5.178   2.959
 9558SOL    HW129573   6.865   5.084   2.938
 9558SOL    HW229574   6.917   5.238   2.956
 9559SOL     OW29575   0.027   3.312   1.908
 9559SOL    HW129576   0.074   3.282   1.992
 9559SOL    HW229577   6.957   3.330   1.928
 9560SOL     OW29578   2.605   1.313   3.189
 9560SOL    HW129579   2.550   1.351   3.263
 9560SOL    HW229580   2.639   1.222   3.216
 9561SOL     OW29581   4.349   6.759   0.945
 9561SOL    HW129582   4.401   6.684   0.985
 9561SOL    HW229583   4.380   6.775   0.851
 9562SOL     OW29584   4.786   5.231   2.409
 9562SOL    HW129585   4.814   5.275   2.324
 9562SOL    HW229586   4.823   5.138   2.412
 9563SOL     OW29587   6.814   5.861   6.186
 9563SOL    HW129588   6.764   5.910   6.115
 9563SOL    HW229589   6.789   5.898   6.276
 9564SOL     OW29590   2.891   6.718   6.625
 9564SOL    HW129591   2.990   6.727   6.641
 9564SOL    HW229592   2.869   6.622   6.607
 9565SOL     OW29593   3.657   6.224   4.481
 9565SOL    HW129594   3.741   6.278   4.476
 9565SOL    HW229595   3.599   6.244   4.402
 9566SOL     OW29596   2.805   4.607   5.914
 9566SOL    HW129597   2.833   4.620   5.819
 9566SOL    HW229598   2.727   4.545   5.917
 9567SOL     OW29599   6.151   5.813   6.313
 9567SOL    HW129600   6.165   5.785   6.408
 9567SOL    HW229601   6.182   5.741   6.252
 9568SOL     OW29602   4.907   3.712   6.365
 9568SOL    HW129603   4.832   3.775   6.346
 9568SOL    HW229604   4.893   3.670   6.455
 9569SOL     OW29605   6.428   0.504   0.255
 9569SOL    HW129606   6.508   0.445   0.257
 9569SOL    HW229607   6.423   0.557   0.340
 9570SOL     OW29608   0.987   1.223   6.922
 9570SOL    HW129609   1.068   1.211   6.980
 9570SOL    HW229610   0.990   1.313   6.879
 9571SOL     OW29611   1.955   3.316   0.075
 9571SOL    HW129612   2.003   3.354   0.154
 9571SOL    HW229613   1.874   3.266   0.106
 9572SOL     OW29614   1.153   4.283   2.006
 9572SOL    HW129615   1.161   4.359   1.941
 9572SOL    HW229616   1.242   4.240   2.018
 9573SOL     OW29617   1.868   1.375   0.292
 9573SOL    HW129618   1.960   1.411   0.307
 9573SOL    HW229619   1.874   1.291   0.238
 9574SOL     OW29620   3.004   3.097   5.905
 9574SOL    HW129621   2.911   3.121   5.878
 9574SOL    HW229622   3.016   3.113   6.002
 9575SOL     OW29623   5.336   0.817   2.152
 9575SOL    HW129624   5.282   0.888   2.199
 9575SOL    HW229625   5.282   0.733   2.145
 9576SOL     OW29626   3.368   1.381   4.653
 9576SOL    HW129627   3.355   1.324   4.571
 9576SOL    HW229628   3.312   1.464   4.644
 9577SOL     OW29629   1.013   6.451   2.677
 9577SOL    HW129630   0.976   6.377   2.621
 9577SOL    HW229631   0.937   6.504   2.714
 9578SOL     OW29632   6.585   2.895   2.104
 9578SOL    HW129633   6.549   2.803   2.120
 9578SOL    HW229634   6.579   2.948   2.189
 9579SOL     OW29635   1.064   6.777   2.507
 9579SOL    HW129636   1.062   6.868   2.465
 9579SOL    HW229637   1.156   6.760   2.544
 9580SOL     OW29638   4.178   3.618   6.973
 9580SOL    HW129639   4.252   3.551   6.977
 9580SOL    HW229640   4.215   3.710   6.988
 9581SOL     OW29641   0.967   4.266   6.370
 9581SOL    HW129642   1.056   4.254   6.415
 9581SOL    HW229643   0.943   4.363   6.371
 9582SOL     OW29644   4.176   4.764   4.394
 9582SOL    HW129645   4.213   4.698   4.459
 9582SOL    HW229646   4.080   4.742   4.375
 9583SOL     OW29647   2.137   3.776   2.176
 9583SOL    HW129648   2.151   3.763   2.275
 9583SOL    HW229649   2.113   3.688   2.135
 9584SOL     OW29650   6.149   5.656   0.016
 9584SOL    HW129651   6.214   5.700   0.077
 9584SOL    HW229652   6.196   5.627   6.959
 9585SOL     OW29653   6.560   0.299   4.160
 9585SOL    HW129654   6.620   0.329   4.234
 9585SOL    HW229655   6.609   0.303   4.073
 9586SOL     OW29656   5.579   3.662   3.603
 9586SOL    HW129657   5.484   3.662   3.574
 9586SOL    HW229658   5.610   3.567   3.613
 9587SOL     OW29659   5.191   0.310   2.570
 9587SOL    HW129660   5.187   0.333   2.667
 9587SOL    HW229661   5.155   0.218   2.555
 9588SOL     OW29662   0.340   0.686   1.338
 9588SOL    HW129663   0.336   0.719   1.432
 9588SOL    HW229664   0.435   0.671   1.312
 9589SOL     OW29665   2.454   0.801   6.547
 9589SOL    HW129666   2.546   0.837   6.564
 9589SOL    HW229667   2.403   0.797   6.633
 9590SOL     OW29668   0.066   4.399   3.302
 9590SOL    HW129669   0.003   4.421   3.228
 9590SOL    HW229670   0.043   4.309   3.340
 9591SOL     OW29671   1.453   5.107   0.688
 9591SOL    HW129672   1.529   5.151   0.735
 9591SOL    HW229673   1.442   5.013   0.723
 9592SOL     OW29674   4.720   5.430   2.066
 9592SOL    HW129675   4.693   5.465   2.156
 9592SOL    HW229676   4.820   5.428   2.060
 9593SOL     OW29677   6.877   2.449   4.591
 9593SOL    HW129678   6.966   2.459   4.547
 9593SOL    HW229679   6.831   2.368   4.556
 9594SOL     OW29680   6.435   6.887   2.243
 9594SOL    HW129681   6.465   6.826   2.316
 9594SOL    HW229682   6.369   6.953   2.279
 9595SOL     OW29683   1.696   5.683   3.973
 9595SOL    HW129684   1.703   5.583   3.963
 9595SOL    HW229685   1.780   5.718   4.014
 9596SOL     OW29686   5.822   5.968   5.155
 9596SOL    HW129687   5.765   6.049   5.166
 9596SOL    HW229688   5.781   5.907   5.086
 9597SOL     OW29689   1.683   4.037   1.603
 9597SOL    HW129690   1.640   4.089   1.529
 9597SOL    HW229691   1.782   4.035   1.589
 9598SOL     OW29692   6.986   5.533   5.884
 9598SOL    HW129693   0.038   5.472   5.865
 9598SOL    HW229694   6.969   5.535   5.982
 9599SOL     OW29695   4.553   1.514   5.438
 9599SOL    HW129696   4.595   1.583   5.496
 9599SOL    HW229697   4.623   1.464   5.387
 9600SOL     OW29698   1.474   0.548   6.645
 9600SOL    HW129699   1.447   0.454   6.666
 9600SOL    HW229700   1.405   0.611   6.681
 9601SOL     OW29701   0.341   5.374   5.689
 9601SOL    HW129702   0.298   5.413   5.608
 9601SOL    HW229703   0.371   5.448   5.749
 9602SOL     OW29704   1.035   5.688   6.765
 9602SOL    HW129705   1.014   5.707   6.669
 9602SOL    HW229706   1.134   5.693   6.779
 9603SOL     OW29707   1.949   6.107   4.627
 9603SOL    HW129708   1.876   6.173   4.604
 9603SOL    HW229709   2.010   6.097   4.548
 9604SOL     OW29710   5.870   1.761   6.920
 9604SOL    HW129711   5.855   1.714   7.008
 9604SOL    HW229712   5.808   1.839   6.913
 9605SOL     OW29713   1.452   5.911   6.815
 9605SOL    HW129714   1.542   5.895   6.776
 9605SOL    HW229715   1.456   5.989   6.877
 9606SOL     OW29716   0.116   6.601   4.315
 9606SOL    HW129717   0.034   6.544   4.309
 9606SOL    HW229718   0.123   6.639   4.407
 9607SOL     OW29719   1.171   2.175   2.106
 9607SOL    HW129720   1.193   2.150   2.200
 9607SOL    HW229721   1.203   2.103   2.044
 9608SOL     OW29722   0.627   7.015   2.071
 9608SOL    HW129723   0.628   0.072   2.016
 9608SOL    HW229724   0.619   6.935   2.011
 9609SOL     OW29725   1.441   4.370   4.470
 9609SOL    HW129726   1.400   4.453   4.508
 9609SOL    HW229727   1.401   4.290   4.516
 9610SOL     OW29728   2.228   1.924   5.915
 9610SOL    HW129729   2.228   1.992   5.841
 9610SOL    HW229730   2.220   1.970   6.003
 9611SOL     OW29731   6.191   0.301   0.874
 9611SOL    HW129732   6.109   0.268   0.920
 9611SOL    HW229733   6.217   0.390   0.911
 9612SOL     OW29734   5.956   2.691   1.708
 9612SOL    HW129735   5.953   2.745   1.623
 9612SOL    HW229736   5.879   2.627   1.709
 9613SOL     OW29737   6.108   6.827   5.104
 9613SOL    HW129738   6.018   6.853   5.140
 9613SOL    HW229739   6.176   6.894   5.133
 9614SOL     OW29740   3.686   3.653   2.646
 9614SOL    HW129741   3.602   3.602   2.629
 9614SOL    HW229742   3.680   3.698   2.735
 9615SOL     OW29743   1.190   5.664   2.620
 9615SOL    HW129744   1.195   5.566   2.640
 9615SOL    HW229745   1.213   5.717   2.702
 9616SOL     OW29746   3.804   2.872   0.958
 9616SOL    HW129747   3.850   2.789   0.927
 9616SOL    HW229748   3.769   2.858   1.051
 9617SOL     OW29749   0.912   2.989   3.664
 9617SOL    HW129750   1.002   2.969   3.704
 9617SOL    HW229751   0.908   2.951   3.572
 9618SOL     OW29752   4.005   6.082   6.679
 9618SOL    HW129753   4.047   6.000   6.719
 9618SOL    HW229754   3.940   6.054   6.609
 9619SOL     OW29755   2.592   6.357   0.696
 9619SOL    HW129756   2.611   6.263   0.723
 9619SOL    HW229757   2.591   6.416   0.777
 9620SOL     OW29758   3.587   1.441   6.258
 9620SOL    HW129759   3.650   1.445   6.181
 9620SOL    HW229760   3.578   1.346   6.290
 9621SOL     OW29761   0.602   0.544   1.213
 9621SOL    HW129762   0.581   0.623   1.155
 9621SOL    HW229763   0.652   0.476   1.160
 9622SOL     OW29764   5.965   0.612   6.105
 9622SOL    HW129765   5.993   0.528   6.059
 9622SOL    HW229766   5.871   0.601   6.139
 9623SOL     OW29767   4.501   6.206   6.181
 9623SOL    HW129768   4.593   6.196   6.218
 9623SOL    HW229769   4.503   6.188   6.083
 9624SOL     OW29770   4.109   5.051   5.167
 9624SOL    HW129771   4.011   5.031   5.161
 9624SOL    HW229772   4.139   5.093   5.082
 9625SOL     OW29773   4.901   4.359   5.962
 9625SOL    HW129774   4.883   4.425   6.035
 9625SOL    HW229775   4.816   4.336   5.916
 9626SOL     OW29776   2.357   4.225   6.216
 9626SOL    HW129777   2.356   4.132   6.180
 9626SOL    HW229778   2.265   4.253   6.241
 9627SOL     OW29779   0.852   4.967   0.288
 9627SOL    HW129780   0.831   4.984   0.384
 9627SOL    HW229781   0.872   4.870   0.275
 9628SOL     OW29782   5.560   3.498   6.693
 9628SOL    HW129783   5.559   3.438   6.613
 9628SOL    HW229784   5.491   3.468   6.758
 9629SOL     OW29785   0.524   5.696   3.487
 9629SOL    HW129786   0.571   5.754   3.421
 9629SOL    HW229787   0.576   5.611   3.500
 9630SOL     OW29788   6.526   5.720   6.032
 9630SOL    HW129789   6.521   5.645   6.098
 9630SOL    HW229790   6.540   5.806   6.081
 9631SOL     OW29791   4.249   1.172   0.516
 9631SOL    HW129792   4.266   1.205   0.609
 9631SOL    HW229793   4.160   1.206   0.485
 9632SOL     OW29794   3.427   6.219   1.090
 9632SOL    HW129795   3.411   6.134   1.039
 9632SOL    HW229796   3.366   6.223   1.169
 9633SOL     OW29797   3.372   2.933   2.623
 9633SOL    HW129798   3.338   2.931   2.717
 9633SOL    HW229799   3.454   2.991   2.619
 9634SOL     OW29800   5.390   4.610   2.184
 9634SOL    HW129801   5.450   4.560   2.122
 9634SOL    HW229802   5.445   4.660   2.251
 9635SOL     OW29803   1.158   3.594   3.387
 9635SOL    HW129804   1.092   3.640   3.328
 9635SOL    HW229805   1.109   3.534   3.451
 9636SOL     OW29806   4.557   2.489   4.588
 9636SOL    HW129807   4.521   2.468   4.679
 9636SOL    HW229808   4.604   2.577   4.590
 9637SOL     OW29809   2.883   2.925   0.694
 9637SOL    HW129810   2.904   2.869   0.615
 9637SOL    HW229811   2.819   2.877   0.753
 9638SOL     OW29812   6.961   4.659   5.646
 9638SOL    HW129813   0.032   4.668   5.670
 9638SOL    HW229814   6.941   4.718   5.568
 9639SOL     OW29815   4.233   1.775   2.494
 9639SOL    HW129816   4.207   1.695   2.547
 9639SOL    HW229817   4.278   1.746   2.410
 9640SOL     OW29818   3.519   0.055   2.110
 9640SOL    HW129819   3.579   0.134   2.122
 9640SOL    HW229820   3.443   0.080   2.050
 9641SOL     OW29821   5.869   4.115   2.443
 9641SOL    HW129822   5.843   4.192   2.501
 9641SOL    HW229823   5.948   4.141   2.387
 9642SOL     OW29824   2.304   0.521   3.358
 9642SOL    HW129825   2.323   0.517   3.260
 9642SOL    HW229826   2.390   0.526   3.408
 9643SOL     OW29827   5.514   4.559   4.208
 9643SOL    HW129828   5.432   4.563   4.151
 9643SOL    HW229829   5.491   4.587   4.301
 9644SOL     OW29830   1.493   5.282   4.789
 9644SOL    HW129831   1.534   5.308   4.702
 9644SOL    HW229832   1.433   5.204   4.775
 9645SOL     OW29833   1.296   5.614   0.048
 9645SOL    HW129834   1.342   5.527   0.062
 9645SOL    HW229835   1.297   5.638   6.977
 9646SOL     OW29836   3.533   6.148   5.596
 9646SOL    HW129837   3.522   6.070   5.535
 9646SOL    HW229838   3.560   6.229   5.542
 9647SOL     OW29839   6.158   6.690   3.569
 9647SOL    HW129840   6.246   6.682   3.521
 9647SOL    HW229841   6.115   6.600   3.574
 9648SOL     OW29842   4.741   2.369   1.182
 9648SOL    HW129843   4.728   2.433   1.106
 9648SOL    HW229844   4.657   2.364   1.237
 9649SOL     OW29845   2.739   3.698   0.520
 9649SOL    HW129846   2.742   3.712   0.421
 9649SOL    HW229847   2.644   3.691   0.549
 9650SOL     OW29848   6.759   4.665   4.709
 9650SOL    HW129849   6.811   4.670   4.624
 9650SOL    HW229850   6.716   4.575   4.716
 9651SOL     OW29851   3.082   1.422   0.222
 9651SOL    HW129852   3.177   1.399   0.242
 9651SOL    HW229853   3.023   1.388   0.296
 9652SOL     OW29854   6.693   4.315   0.602
 9652SOL    HW129855   6.710   4.287   0.697
 9652SOL    HW229856   6.595   4.334   0.591
 9653SOL     OW29857   4.501   4.041   5.828
 9653SOL    HW129858   4.591   4.018   5.865
 9653SOL    HW229859   4.431   3.987   5.874
 9654SOL     OW29860   3.292   3.504   4.079
 9654SOL    HW129861   3.288   3.592   4.033
 9654SOL    HW229862   3.378   3.458   4.056
 9655SOL     OW29863   5.462   1.090   2.052
 9655SOL    HW129864   5.401   1.015   2.076
 9655SOL    HW229865   5.411   1.159   2.000
 9656SOL     OW29866   5.267   4.230   1.454
 9656SOL    HW129867   5.359   4.257   1.428
 9656SOL    HW229868   5.234   4.158   1.393
 9657SOL     OW29869   5.895   3.591   3.506
 9657SOL    HW129870   5.821   3.555   3.448
 9657SOL    HW229871   5.944   3.515   3.548
 9658SOL     OW29872   4.948   1.624   2.232
 9658SOL    HW129873   4.882   1.697   2.214
 9658SOL    HW229874   4.981   1.587   2.146
 9659SOL     OW29875   3.423   2.738   0.774
 9659SOL    HW129876   3.443   2.835   0.789
 9659SOL    HW229877   3.499   2.682   0.808
 9660SOL     OW29878   0.411   5.840   1.104
 9660SOL    HW129879   0.483   5.884   1.051
 9660SOL    HW229880   0.329   5.897   1.103
 9661SOL     OW29881   4.865   4.705   0.718
 9661SOL    HW129882   4.785   4.739   0.768
 9661SOL    HW229883   4.948   4.748   0.754
 9662SOL     OW29884   5.100   4.207   6.506
 9662SOL    HW129885   5.053   4.144   6.444
 9662SOL    HW229886   5.199   4.198   6.494
 9663SOL     OW29887   0.799   4.412   3.807
 9663SOL    HW129888   0.886   4.426   3.853
 9663SOL    HW229889   0.740   4.354   3.864
 9664SOL     OW29890   5.623   4.283   3.210
 9664SOL    HW129891   5.537   4.236   3.191
 9664SOL    HW229892   5.613   4.381   3.193
 9665SOL     OW29893   5.721   6.420   6.802
 9665SOL    HW129894   5.643   6.483   6.791
 9665SOL    HW229895   5.806   6.468   6.778
 9666SOL     OW29896   5.902   3.955   1.119
 9666SOL    HW129897   5.994   3.917   1.110
 9666SOL    HW229898   5.855   3.952   1.030
 9667SOL     OW29899   4.858   5.343   0.475
 9667SOL    HW129900   4.942   5.289   0.469
 9667SOL    HW229901   4.881   5.438   0.498
 9668SOL     OW29902   1.000   6.659   5.681
 9668SOL    HW129903   1.072   6.690   5.620
 9668SOL    HW229904   1.016   6.697   5.772
 9669SOL     OW29905   3.516   6.988   0.076
 9669SOL    HW129906   3.527   6.903   0.127
 9669SOL    HW229907   3.598   0.019   0.088
 9670SOL     OW29908   0.196   0.062   6.244
 9670SOL    HW129909   0.251   0.059   6.160
 9670SOL    HW229910   0.178   6.994   6.275
 9671SOL     OW29911   1.340   5.184   6.372
 9671SOL    HW129912   1.265   5.218   6.314
 9671SOL    HW229913   1.304   5.158   6.461
 9672SOL     OW29914   0.624   4.163   4.413
 9672SOL    HW129915   0.591   4.146   4.321
 9672SOL    HW229916   0.571   4.238   4.455
 9673SOL     OW29917   2.289   3.941   1.445
 9673SOL    HW129918   2.244   3.893   1.369
 9673SOL    HW229919   2.374   3.983   1.412
 9674SOL     OW29920   3.624   6.187   3.223
 9674SOL    HW129921   3.633   6.184   3.123
 9674SOL    HW229922   3.565   6.263   3.249
 9675SOL     OW29923   4.612   3.800   1.592
 9675SOL    HW129924   4.697   3.770   1.635
 9675SOL    HW229925   4.606   3.900   1.595
 9676SOL     OW29926   1.209   2.954   5.613
 9676SOL    HW129927   1.283   2.888   5.601
 9676SOL    HW229928   1.124   2.916   5.575
 9677SOL     OW29929   6.347   5.173   0.417
 9677SOL    HW129930   6.294   5.221   0.348
 9677SOL    HW229931   6.287   5.115   0.472
 9678SOL     OW29932   3.507   3.912   5.119
 9678SOL    HW129933   3.436   3.914   5.190
 9678SOL    HW229934   3.593   3.882   5.160
 9679SOL     OW29935   1.663   1.374   5.252
 9679SOL    HW129936   1.656   1.474   5.258
 9679SOL    HW229937   1.615   1.343   5.169
 9680SOL     OW29938   4.695   6.201   2.869
 9680SOL    HW129939   4.625   6.267   2.895
 9680SOL    HW229940   4.783   6.228   2.909
 9681SOL     OW29941   1.834   1.079   1.908
 9681SOL    HW129942   1.743   1.117   1.925
 9681SOL    HW229943   1.867   1.111   1.819
 9682SOL     OW29944   5.685   5.817   4.954
 9682SOL    HW129945   5.603   5.875   4.959
 9682SOL    HW229946   5.667   5.739   4.894
 9683SOL     OW29947   2.538   0.219   0.911
 9683SOL    HW129948   2.606   0.292   0.910
 9683SOL    HW229949   2.519   0.190   0.817
 9684SOL     OW29950   1.512   4.401   5.534
 9684SOL    HW129951   1.478   4.461   5.462
 9684SOL    HW229952   1.436   4.376   5.595
 9685SOL     OW29953   3.615   4.462   0.992
 9685SOL    HW129954   3.599   4.364   0.978
 9685SOL    HW229955   3.662   4.477   1.078
 9686SOL     OW29956   6.389   2.013   5.767
 9686SOL    HW129957   6.367   2.110   5.779
 9686SOL    HW229958   6.408   1.995   5.670
 9687SOL     OW29959   6.139   0.286   2.333
 9687SOL    HW129960   6.234   0.285   2.304
 9687SOL    HW229961   6.098   0.374   2.309
 9688SOL     OW29962   1.231   4.789   1.595
 9688SOL    HW129963   1.145   4.739   1.605
 9688SOL    HW229964   1.274   4.764   1.508
 9689SOL     OW29965   1.191   6.137   0.345
 9689SOL    HW129966   1.264   6.071   0.328
 9689SOL    HW229967   1.190   6.205   0.272
 9690SOL     OW29968   6.011   5.739   5.251
 9690SOL    HW129969   6.039   5.755   5.156
 9690SOL    HW229970   5.990   5.826   5.295
 9691SOL     OW29971   3.368   3.396   2.166
 9691SOL    HW129972   3.292   3.459   2.149
 9691SOL    HW229973   3.452   3.447   2.180
 9692SOL     OW29974   4.666   4.934   0.506
 9692SOL    HW129975   4.589   4.993   0.530
 9692SOL    HW229976   4.636   4.839   0.506
 9693SOL     OW29977   5.561   4.226   4.081
 9693SOL    HW129978   5.625   4.150   4.095
 9693SOL    HW229979   5.500   4.205   4.005
 9694SOL     OW29980   3.017   6.499   1.798
 9694SOL    HW129981   3.071   6.577   1.766
 9694SOL    HW229982   2.958   6.467   1.725
 9695SOL     OW29983   0.540   2.911   4.073
 9695SOL    HW129984   0.619   2.904   4.011
 9695SOL    HW229985   0.464   2.954   4.025
 9696SOL     OW29986   6.216   2.267   2.774
 9696SOL    HW129987   6.164   2.294   2.693
 9696SOL    HW229988   6.175   2.309   2.856
 9697SOL     OW29989   6.915   6.034   0.421
 9697SOL    HW129990   6.889   6.126   0.452
 9697SOL    HW229991   6.904   6.028   0.321
 9698SOL     OW29992   5.164   3.514   0.243
 9698SOL    HW129993   5.189   3.549   0.153
 9698SOL    HW229994   5.205   3.424   0.256
 9699SOL     OW29995   0.935   5.195   0.582
 9699SOL    HW129996   0.958   5.292   0.587
 9699SOL    HW229997   1.018   5.142   0.566
 9700SOL     OW29998   5.717   6.634   4.188
 9700SOL    HW129999   5.635   6.601   4.235
 9700SOL    HW230000   5.794   6.632   4.251
 9701SOL     OW30001   5.222   3.151   6.546
 9701SOL    HW130002   5.131   3.188   6.566
 9701SOL    HW230003   5.237   3.069   6.601
 9702SOL     OW30004   3.734   3.051   0.772
 9702SOL    HW130005   3.775   3.007   0.852
 9702SOL    HW230006   3.806   3.072   0.705
 9703SOL     OW30007   6.026   3.833   5.249
 9703SOL    HW130008   5.965   3.823   5.327
 9703SOL    HW230009   6.025   3.749   5.195
 9704SOL     OW30010   2.886   4.816   2.995
 9704SOL    HW130011   2.839   4.738   3.037
 9704SOL    HW230012   2.873   4.813   2.895
 9705SOL     OW30013   5.977   4.068   5.113
 9705SOL    HW130014   6.065   4.083   5.067
 9705SOL    HW230015   5.991   4.009   5.192
 9706SOL     OW30016   0.982   1.340   2.337
 9706SOL    HW130017   1.017   1.265   2.281
 9706SOL    HW230018   0.978   1.423   2.282
 9707SOL     OW30019   6.086   4.593   2.068
 9707SOL    HW130020   6.038   4.580   2.155
 9707SOL    HW230021   6.154   4.521   2.056
 9708SOL     OW30022   1.323   0.549   2.696
 9708SOL    HW130023   1.348   0.600   2.778
 9708SOL    HW230024   1.252   0.599   2.646
 9709SOL     OW30025   5.920   2.948   2.386
 9709SOL    HW130026   5.849   2.882   2.361
 9709SOL    HW230027   5.924   3.020   2.316
 9710SOL     OW30028   5.947   6.129   5.354
 9710SOL    HW130029   6.003   6.202   5.316
 9710SOL    HW230030   5.914   6.070   5.280
 9711SOL     OW30031   3.895   6.339   6.664
 9711SOL    HW130032   3.810   6.341   6.611
 9711SOL    HW230033   3.943   6.254   6.646
 9712SOL     OW30034   6.211   2.570   0.573
 9712SOL    HW130035   6.123   2.570   0.525
 9712SOL    HW230036   6.210   2.502   0.646
 9713SOL     OW30037   1.728   6.271   3.552
 9713SOL    HW130038   1.822   6.306   3.550
 9713SOL    HW230039   1.676   6.312   3.478
 9714SOL     OW30040   3.708   4.974   4.495
 9714SOL    HW130041   3.773   4.928   4.435
 9714SOL    HW230042   3.620   4.982   4.449
 9715SOL     OW30043   6.183   4.540   0.825
 9715SOL    HW130044   6.270   4.581   0.797
 9715SOL    HW230045   6.116   4.551   0.753
 9716SOL     OW30046   3.344   4.890   6.744
 9716SOL    HW130047   3.442   4.889   6.724
 9716SOL    HW230048   3.328   4.853   6.835
 9717SOL     OW30049   4.093   0.750   5.890
 9717SOL    HW130050   4.093   0.672   5.828
 9717SOL    HW230051   4.182   0.757   5.935
 9718SOL     OW30052   3.196   2.308   0.132
 9718SOL    HW130053   3.283   2.355   0.116
 9718SOL    HW230054   3.188   2.284   0.229
 9719SOL     OW30055   4.659   5.973   5.084
 9719SOL    HW130056   4.590   5.998   5.152
 9719SOL    HW230057   4.615   5.957   4.995
 9720SOL     OW30058   1.703   4.366   3.005
 9720SOL    HW130059   1.790   4.333   3.041
 9720SOL    HW230060   1.629   4.307   3.037
 9721SOL     OW30061   1.024   1.624   0.187
 9721SOL    HW130062   1.122   1.645   0.195
 9721SOL    HW230063   0.999   1.553   0.253
 9722SOL     OW30064   3.811   3.014   5.411
 9722SOL    HW130065   3.828   2.981   5.504
 9722SOL    HW230066   3.719   2.987   5.382
 9723SOL     OW30067   6.282   4.553   4.725
 9723SOL    HW130068   6.210   4.503   4.676
 9723SOL    HW230069   6.304   4.637   4.676
 9724SOL     OW30070   1.172   5.339   0.100
 9724SOL    HW130071   1.146   5.357   0.195
 9724SOL    HW230072   1.164   5.423   0.047
 9725SOL     OW30073   3.456   5.212   4.880
 9725SOL    HW130074   3.549   5.179   4.863
 9725SOL    HW230075   3.455   5.266   4.964
 9726SOL     OW30076   6.183   0.928   4.034
 9726SOL    HW130077   6.108   0.993   4.021
 9726SOL    HW230078   6.166   0.874   4.117
 9727SOL     OW30079   0.625   2.041   6.701
 9727SOL    HW130080   0.713   2.001   6.726
 9727SOL    HW230081   0.601   2.012   6.608
 9728SOL     OW30082   5.128   0.347   6.023
 9728SOL    HW130083   5.149   0.257   5.984
 9728SOL    HW230084   5.199   0.412   5.996
 9729SOL     OW30085   0.626   4.193   3.483
 9729SOL    HW130086   0.623   4.168   3.386
 9729SOL    HW230087   0.721   4.201   3.512
 9730SOL     OW30088   0.279   4.214   3.150
 9730SOL    HW130089   0.257   4.230   3.054
 9730SOL    HW230090   0.309   4.299   3.192
 9731SOL     OW30091   5.100   3.923   2.905
 9731SOL    HW130092   5.109   4.004   2.847
 9731SOL    HW230093   5.053   3.851   2.854
 9732SOL     OW30094   1.829   2.733   2.258
 9732SOL    HW130095   1.759   2.793   2.219
 9732SOL    HW230096   1.861   2.770   2.345
 9733SOL     OW30097   6.021   5.371   2.656
 9733SOL    HW130098   5.995   5.402   2.565
 9733SOL    HW230099   6.003   5.444   2.722
 9734SOL     OW30100   6.221   6.749   6.488
 9734SOL    HW130101   6.124   6.732   6.507
 9734SOL    HW230102   6.228   6.811   6.409
 9735SOL     OW30103   1.077   1.461   2.608
 9735SOL    HW130104   1.052   1.539   2.667
 9735SOL    HW230105   1.119   1.496   2.525
 9736SOL     OW30106   4.879   2.244   5.034
 9736SOL    HW130107   4.796   2.192   5.055
 9736SOL    HW230108   4.880   2.328   5.088
 9737SOL     OW30109   6.178   1.698   2.320
 9737SOL    HW130110   6.107   1.745   2.269
 9737SOL    HW230111   6.140   1.661   2.405
 9738SOL     OW30112   1.901   6.008   1.162
 9738SOL    HW130113   1.824   5.946   1.177
 9738SOL    HW230114   1.868   6.094   1.122
 9739SOL     OW30115   4.898   0.078   0.278
 9739SOL    HW130116   4.922   0.172   0.303
 9739SOL    HW230117   4.810   0.054   0.319
 9740SOL     OW30118   6.848   0.663   2.435
 9740SOL    HW130119   6.789   0.691   2.360
 9740SOL    HW230120   6.868   0.565   2.427
 9741SOL     OW30121   3.181   1.866   4.619
 9741SOL    HW130122   3.256   1.879   4.683
 9741SOL    HW230123   3.164   1.952   4.570
 9742SOL     OW30124   4.193   1.529   6.458
 9742SOL    HW130125   4.097   1.502   6.453
 9742SOL    HW230126   4.236   1.516   6.368
 9743SOL     OW30127   6.453   2.866   3.693
 9743SOL    HW130128   6.498   2.797   3.636
 9743SOL    HW230129   6.354   2.859   3.682
 9744SOL     OW30130   1.950   6.666   3.403
 9744SOL    HW130131   1.915   6.666   3.309
 9744SOL    HW230132   1.884   6.710   3.463
 9745SOL     OW30133   5.732   1.303   5.877
 9745SOL    HW130134   5.757   1.234   5.809
 9745SOL    HW230135   5.651   1.272   5.927
 9746SOL     OW30136   4.970   6.140   6.643
 9746SOL    HW130137   4.948   6.112   6.736
 9746SOL    HW230138   5.055   6.192   6.643
 9747SOL     OW30139   2.333   2.091   1.936
 9747SOL    HW130140   2.249   2.090   1.990
 9747SOL    HW230141   2.343   2.004   1.887
 9748SOL     OW30142   0.879   0.704   2.884
 9748SOL    HW130143   0.916   0.675   2.972
 9748SOL    HW230144   0.849   0.799   2.890
 9749SOL     OW30145   0.676   1.760   2.467
 9749SOL    HW130146   0.718   1.696   2.403
 9749SOL    HW230147   0.668   1.717   2.557
 9750SOL     OW30148   6.212   4.807   4.129
 9750SOL    HW130149   6.183   4.887   4.076
 9750SOL    HW230150   6.210   4.726   4.071
 9751SOL     OW30151   2.461   0.557   1.998
 9751SOL    HW130152   2.511   0.629   2.045
 9751SOL    HW230153   2.522   0.513   1.932
 9752SOL     OW30154   4.566   2.533   0.686
 9752SOL    HW130155   4.498   2.504   0.754
 9752SOL    HW230156   4.525   2.601   0.625
 9753SOL     OW30157   7.025   6.126   6.252
 9753SOL    HW130158   6.958   6.142   6.180
 9753SOL    HW230159   6.978   6.093   6.334
 9754SOL     OW30160   4.141   0.566   0.838
 9754SOL    HW130161   4.053   0.580   0.884
 9754SOL    HW230162   4.144   0.474   0.799
 9755SOL     OW30163   3.395   4.054   5.724
 9755SOL    HW130164   3.423   4.025   5.815
 9755SOL    HW230165   3.323   4.123   5.731
 9756SOL     OW30166   5.415   1.510   5.984
 9756SOL    HW130167   5.476   1.589   5.971
 9756SOL    HW230168   5.385   1.507   6.079
 9757SOL     OW30169   5.433   4.259   4.365
 9757SOL    HW130170   5.459   4.252   4.269
 9757SOL    HW230171   5.369   4.186   4.388
 9758SOL     OW30172   1.379   0.734   0.804
 9758SOL    HW130173   1.396   0.819   0.853
 9758SOL    HW230174   1.299   0.688   0.843
 9759SOL     OW30175   1.247   1.377   0.661
 9759SOL    HW130176   1.305   1.305   0.699
 9759SOL    HW230177   1.300   1.461   0.651
 9760SOL     OW30178   5.006   2.245   6.904
 9760SOL    HW130179   4.934   2.198   6.853
 9760SOL    HW230180   5.014   2.206   6.995
 9761SOL     OW30181   1.381   1.125   2.008
 9761SOL    HW130182   1.340   1.103   1.920
 9761SOL    HW230183   1.470   1.170   1.992
 9762SOL     OW30184   3.027   1.531   4.883
 9762SOL    HW130185   3.017   1.465   4.808
 9762SOL    HW230186   2.952   1.597   4.880
 9763SOL     OW30187   6.524   1.610   1.706
 9763SOL    HW130188   6.444   1.663   1.680
 9763SOL    HW230189   6.596   1.672   1.738
 9764SOL     OW30190   5.808   2.118   2.380
 9764SOL    HW130191   5.748   2.062   2.438
 9764SOL    HW230192   5.893   2.069   2.363
 9765SOL     OW30193   6.448   1.287   2.009
 9765SOL    HW130194   6.373   1.223   1.992
 9765SOL    HW230195   6.533   1.249   1.972
 9766SOL     OW30196   2.187   0.780   3.605
 9766SOL    HW130197   2.233   0.858   3.648
 9766SOL    HW230198   2.174   0.799   3.507
 9767SOL     OW30199   2.158   3.182   5.806
 9767SOL    HW130200   2.078   3.188   5.747
 9767SOL    HW230201   2.131   3.196   5.902
 9768SOL     OW30202   6.158   2.365   0.797
 9768SOL    HW130203   6.062   2.337   0.807
 9768SOL    HW230204   6.206   2.300   0.739
 9769SOL     OW30205   3.153   1.597   5.130
 9769SOL    HW130206   3.097   1.559   5.057
 9769SOL    HW230207   3.128   1.554   5.217
 9770SOL     OW30208   3.651   2.545   6.226
 9770SOL    HW130209   3.719   2.485   6.183
 9770SOL    HW230210   3.662   2.638   6.190
 9771SOL     OW30211   2.713   6.361   2.483
 9771SOL    HW130212   2.719   6.284   2.546
 9771SOL    HW230213   2.616   6.380   2.463
 9772SOL     OW30214   1.652   6.247   1.885
 9772SOL    HW130215   1.571   6.188   1.886
 9772SOL    HW230216   1.623   6.342   1.901
 9773SOL     OW30217   5.333   5.604   2.500
 9773SOL    HW130218   5.381   5.679   2.455
 9773SOL    HW230219   5.343   5.612   2.600
 9774SOL     OW30220   0.634   5.239   3.821
 9774SOL    HW130221   0.590   5.319   3.861
 9774SOL    HW230222   0.629   5.162   3.884
 9775SOL     OW30223   2.545   0.509   3.452
 9775SOL    HW130224   2.643   0.529   3.457
 9775SOL    HW230225   2.507   0.506   3.544
 9776SOL     OW30226   1.441   4.850   5.982
 9776SOL    HW130227   1.530   4.805   5.980
 9776SOL    HW230228   1.430   4.899   6.068
 9777SOL     OW30229   5.159   6.700   6.345
 9777SOL    HW130230   5.108   6.615   6.327
 9777SOL    HW230231   5.173   6.709   6.444
 9778SOL     OW30232   0.374   1.811   4.825
 9778SOL    HW130233   0.441   1.848   4.760
 9778SOL    HW230234   0.342   1.885   4.885
 9779SOL     OW30235   0.758   1.717   3.629
 9779SOL    HW130236   0.850   1.704   3.592
 9779SOL    HW230237   0.719   1.801   3.591
 9780SOL     OW30238   1.648   1.700   1.225
 9780SOL    HW130239   1.696   1.625   1.270
 9780SOL    HW230240   1.701   1.731   1.146
 9781SOL     OW30241   1.198   3.595   3.766
 9781SOL    HW130242   1.205   3.614   3.864
 9781SOL    HW230243   1.232   3.503   3.748
 9782SOL     OW30244   0.616   2.386   0.303
 9782SOL    HW130245   0.696   2.396   0.362
 9782SOL    HW230246   0.574   2.297   0.319
 9783SOL     OW30247   3.980   1.739   3.116
 9783SOL    HW130248   3.903   1.750   3.178
 9783SOL    HW230249   3.974   1.650   3.070
 9784SOL     OW30250   2.957   1.335   6.743
 9784SOL    HW130251   3.026   1.282   6.694
 9784SOL    HW230252   2.991   1.359   6.833
 9785SOL     OW30253   6.924   2.462   4.869
 9785SOL    HW130254   6.983   2.541   4.889
 9785SOL    HW230255   6.865   2.484   4.791
 9786SOL     OW30256   2.566   4.393   0.605
 9786SOL    HW130257   2.626   4.319   0.635
 9786SOL    HW230258   2.508   4.422   0.681
 9787SOL     OW30259   3.577   3.649   3.568
 9787SOL    HW130260   3.564   3.668   3.470
 9787SOL    HW230261   3.663   3.688   3.598
 9788SOL     OW30262   0.478   6.066   2.049
 9788SOL    HW130263   0.510   6.106   2.135
 9788SOL    HW230264   0.514   5.973   2.041
 9789SOL     OW30265   3.017   0.069   6.336
 9789SOL    HW130266   2.982   0.067   6.242
 9789SOL    HW230267   2.951   0.026   6.397
 9790SOL     OW30268   0.030   3.991   4.703
 9790SOL    HW130269   0.038   3.949   4.793
 9790SOL    HW230270   0.030   3.920   4.633
 9791SOL     OW30271   0.563   6.489   0.186
 9791SOL    HW130272   0.492   6.528   0.128
 9791SOL    HW230273   0.614   6.563   0.231
 9792SOL     OW30274   3.752   5.689   0.933
 9792SOL    HW130275   3.817   5.765   0.939
 9792SOL    HW230276   3.771   5.636   0.851
 9793SOL     OW30277   4.716   1.445   1.751
 9793SOL    HW130278   4.654   1.516   1.784
 9793SOL    HW230279   4.689   1.356   1.787
 9794SOL     OW30280   4.837   4.622   4.632
 9794SOL    HW130281   4.885   4.594   4.549
 9794SOL    HW230282   4.863   4.716   4.655
 9795SOL     OW30283   0.763   2.903   3.872
 9795SOL    HW130284   0.821   2.945   3.802
 9795SOL    HW230285   0.821   2.866   3.945
 9796SOL     OW30286   3.604   3.984   3.624
 9796SOL    HW130287   3.675   3.917   3.644
 9796SOL    HW230288   3.599   4.051   3.698
 9797SOL     OW30289   3.008   6.349   6.319
 9797SOL    HW130290   3.091   6.302   6.291
 9797SOL    HW230291   3.032   6.429   6.375
 9798SOL     OW30292   1.438   2.550   0.963
 9798SOL    HW130293   1.378   2.630   0.969
 9798SOL    HW230294   1.529   2.574   0.995
 9799SOL     OW30295   2.828   5.292   6.026
 9799SOL    HW130296   2.790   5.299   5.934
 9799SOL    HW230297   2.927   5.308   6.022
 9800SOL     OW30298   5.658   3.054   3.789
 9800SOL    HW130299   5.677   3.085   3.883
 9800SOL    HW230300   5.683   3.126   3.724
 9801SOL     OW30301   5.678   4.824   6.650
 9801SOL    HW130302   5.651   4.910   6.694
 9801SOL    HW230303   5.674   4.750   6.717
 9802SOL     OW30304   3.972   5.269   0.787
 9802SOL    HW130305   3.890   5.212   0.794
 9802SOL    HW230306   4.046   5.217   0.745
 9803SOL     OW30307   1.719   3.452   6.489
 9803SOL    HW130308   1.692   3.365   6.531
 9803SOL    HW230309   1.813   3.474   6.515
 9804SOL     OW30310   6.588   5.688   3.138
 9804SOL    HW130311   6.678   5.709   3.174
 9804SOL    HW230312   6.537   5.773   3.122
 9805SOL     OW30313   0.594   6.334   3.795
 9805SOL    HW130314   0.664   6.267   3.820
 9805SOL    HW230315   0.629   6.426   3.808
 9806SOL     OW30316   3.875   2.048   5.886
 9806SOL    HW130317   3.938   2.068   5.810
 9806SOL    HW230318   3.891   1.955   5.918
 9807SOL     OW30319   3.490   2.922   2.379
 9807SOL    HW130320   3.480   3.019   2.356
 9807SOL    HW230321   3.414   2.893   2.437
 9808SOL     OW30322   4.336   6.183   3.853
 9808SOL    HW130323   4.357   6.208   3.948
 9808SOL    HW230324   4.351   6.085   3.840
 9809SOL     OW30325   0.282   2.995   0.576
 9809SOL    HW130326   0.305   3.093   0.572
 9809SOL    HW230327   0.316   2.950   0.494
 9810SOL     OW30328   2.254   1.706   5.580
 9810SOL    HW130329   2.245   1.631   5.514
 9810SOL    HW230330   2.295   1.785   5.535
 9811SOL     OW30331   6.675   3.803   4.223
 9811SOL    HW130332   6.763   3.770   4.190
 9811SOL    HW230333   6.677   3.903   4.227
 9812SOL     OW30334   2.393   6.945   4.695
 9812SOL    HW130335   2.326   6.900   4.636
 9812SOL    HW230336   2.471   6.975   4.640
 9813SOL     OW30337   5.455   2.563   0.621
 9813SOL    HW130338   5.394   2.499   0.668
 9813SOL    HW230339   5.424   2.657   0.638
 9814SOL     OW30340   5.606   1.938   0.134
 9814SOL    HW130341   5.539   2.007   0.161
 9814SOL    HW230342   5.586   1.853   0.182
 9815SOL     OW30343   4.669   2.727   4.671
 9815SOL    HW130344   4.740   2.679   4.723
 9815SOL    HW230345   4.654   2.817   4.710
 9816SOL     OW30346   1.157   0.247   6.712
 9816SOL    HW130347   1.099   0.259   6.632
 9816SOL    HW230348   1.100   0.247   6.795
 9817SOL     OW30349   0.531   0.135   3.253
 9817SOL    HW130350   0.524   0.215   3.312
 9817SOL    HW230351   0.446   0.122   3.202
 9818SOL     OW30352   5.799   1.754   5.183
 9818SOL    HW130353   5.756   1.665   5.199
 9818SOL    HW230354   5.769   1.791   5.095
 9819SOL     OW30355   4.153   2.089   3.427
 9819SOL    HW130356   4.207   2.162   3.384
 9819SOL    HW230357   4.159   2.006   3.371
 9820SOL     OW30358   3.196   4.073   6.242
 9820SOL    HW130359   3.256   4.141   6.283
 9820SOL    HW230360   3.112   4.117   6.210
 9821SOL     OW30361   5.466   6.552   6.795
 9821SOL    HW130362   5.383   6.537   6.849
 9821SOL    HW230363   5.474   6.650   6.775
 9822SOL     OW30364   0.660   6.733   3.044
 9822SOL    HW130365   0.750   6.708   3.008
 9822SOL    HW230366   0.640   6.828   3.021
 9823SOL     OW30367   3.341   0.451   2.010
 9823SOL    HW130368   3.388   0.509   2.076
 9823SOL    HW230369   3.247   0.436   2.040
 9824SOL     OW30370   0.738   4.154   5.574
 9824SOL    HW130371   0.710   4.078   5.517
 9824SOL    HW230372   0.834   4.178   5.555
 9825SOL     OW30373   3.781   5.620   5.406
 9825SOL    HW130374   3.841   5.676   5.348
 9825SOL    HW230375   3.686   5.646   5.390
 9826SOL     OW30376   4.881   5.881   6.271
 9826SOL    HW130377   4.864   5.800   6.215
 9826SOL    HW230378   4.831   5.959   6.233
 9827SOL     OW30379   1.633   4.400   4.761
 9827SOL    HW130380   1.535   4.378   4.766
 9827SOL    HW230381   1.681   4.326   4.713
 9828SOL     OW30382   3.221   2.853   6.754
 9828SOL    HW130383   3.155   2.783   6.726
 9828SOL    HW230384   3.244   2.910   6.675
 9829SOL     OW30385   3.563   6.747   0.215
 9829SOL    HW130386   3.505   6.666   0.206
 9829SOL    HW230387   3.603   6.750   0.307
 9830SOL     OW30388   6.173   1.887   1.197
 9830SOL    HW130389   6.133   1.877   1.106
 9830SOL    HW230390   6.207   1.798   1.228
 9831SOL     OW30391   1.159   5.880   1.001
 9831SOL    HW130392   1.141   5.917   0.910
 9831SOL    HW230393   1.178   5.782   0.994
 9832SOL     OW30394   4.612   4.775   2.748
 9832SOL    HW130395   4.581   4.834   2.822
 9832SOL    HW230396   4.540   4.767   2.679
 9833SOL     OW30397   3.294   3.188   5.124
 9833SOL    HW130398   3.360   3.127   5.081
 9833SOL    HW230399   3.207   3.140   5.135
 9834SOL     OW30400   2.689   3.798   5.939
 9834SOL    HW130401   2.700   3.859   5.861
 9834SOL    HW230402   2.749   3.719   5.928
 9835SOL     OW30403   4.803   1.600   4.165
 9835SOL    HW130404   4.761   1.652   4.091
 9835SOL    HW230405   4.869   1.535   4.127
 9836SOL     OW30406   5.984   3.771   3.132
 9836SOL    HW130407   5.885   3.778   3.139
 9836SOL    HW230408   6.027   3.848   3.181
 9837SOL     OW30409   1.692   6.940   3.274
 9837SOL    HW130410   1.791   6.945   3.282
 9837SOL    HW230411   1.651   0.002   3.302
 9838SOL     OW30412   0.318   6.496   5.618
 9838SOL    HW130413   0.382   6.531   5.687
 9838SOL    HW230414   0.242   6.450   5.664
 9839SOL     OW30415   6.490   1.449   2.786
 9839SOL    HW130416   6.489   1.469   2.884
 9839SOL    HW230417   6.584   1.434   2.756
 9840SOL     OW30418   0.225   0.399   0.630
 9840SOL    HW130419   0.316   0.369   0.599
 9840SOL    HW230420   0.197   0.479   0.577
 9841SOL     OW30421   1.386   4.474   4.194
 9841SOL    HW130422   1.316   4.535   4.231
 9841SOL    HW230423   1.432   4.427   4.269
 9842SOL     OW30424   3.438   3.319   3.619
 9842SOL    HW130425   3.452   3.307   3.717
 9842SOL    HW230426   3.377   3.397   3.603
 9843SOL     OW30427   6.858   1.782   1.384
 9843SOL    HW130428   6.787   1.825   1.328
 9843SOL    HW230429   6.896   1.849   1.448
 9844SOL     OW30430   4.658   6.871   2.813
 9844SOL    HW130431   4.561   6.849   2.802
 9844SOL    HW230432   4.711   6.786   2.809
 9845SOL     OW30433   2.149   1.315   5.214
 9845SOL    HW130434   2.169   1.295   5.118
 9845SOL    HW230435   2.089   1.245   5.251
 9846SOL     OW30436   3.296   4.113   3.249
 9846SOL    HW130437   3.336   4.125   3.340
 9846SOL    HW230438   3.202   4.148   3.249
 9847SOL     OW30439   2.588   2.774   5.821
 9847SOL    HW130440   2.671   2.728   5.853
 9847SOL    HW230441   2.567   2.851   5.882
 9848SOL     OW30442   3.836   2.404   6.644
 9848SOL    HW130443   3.874   2.341   6.712
 9848SOL    HW230444   3.884   2.392   6.557
 9849SOL     OW30445   5.778   0.610   6.648
 9849SOL    HW130446   5.847   0.631   6.717
 9849SOL    HW230447   5.730   0.526   6.672
 9850SOL     OW30448   4.600   5.875   2.290
 9850SOL    HW130449   4.623   5.876   2.388
 9850SOL    HW230450   4.679   5.841   2.239
 9851SOL     OW30451   4.428   2.014   5.081
 9851SOL    HW130452   4.399   1.937   5.138
 9851SOL    HW230453   4.354   2.081   5.076
 9852SOL     OW30454   4.187   1.877   3.259
 9852SOL    HW130455   4.279   1.838   3.274
 9852SOL    HW230456   4.136   1.819   3.196
 9853SOL     OW30457   4.720   4.438   3.132
 9853SOL    HW130458   4.765   4.387   3.058
 9853SOL    HW230459   4.778   4.438   3.213
 9854SOL     OW30460   6.011   4.984   5.205
 9854SOL    HW130461   6.078   4.927   5.253
 9854SOL    HW230462   5.919   4.962   5.237
 9855SOL     OW30463   0.967   4.090   1.503
 9855SOL    HW130464   0.869   4.086   1.483
 9855SOL    HW230465   0.990   4.179   1.543
 9856SOL     OW30466   4.317   3.870   7.000
 9856SOL    HW130467   4.339   3.955   6.952
 9856SOL    HW230468   4.320   3.886   0.073
 9857SOL     OW30469   5.179   2.221   3.256
 9857SOL    HW130470   5.220   2.154   3.193
 9857SOL    HW230471   5.119   2.282   3.205
 9858SOL     OW30472   5.403   0.802   1.360
 9858SOL    HW130473   5.485   0.824   1.412
 9858SOL    HW230474   5.414   0.833   1.266
 9859SOL     OW30475   6.274   6.825   0.974
 9859SOL    HW130476   6.363   6.782   0.993
 9859SOL    HW230477   6.227   6.843   1.060
 9860SOL     OW30478   0.505   1.009   1.517
 9860SOL    HW130479   0.578   0.979   1.579
 9860SOL    HW230480   0.505   1.109   1.512
 9861SOL     OW30481   3.639   6.759   4.275
 9861SOL    HW130482   3.545   6.739   4.244
 9861SOL    HW230483   3.684   6.818   4.208
 9862SOL     OW30484   2.902   3.413   0.928
 9862SOL    HW130485   2.988   3.363   0.919
 9862SOL    HW230486   2.906   3.471   1.010
 9863SOL     OW30487   3.451   6.911   2.908
 9863SOL    HW130488   3.372   6.869   2.954
 9863SOL    HW230489   3.436   7.010   2.901
 9864SOL     OW30490   4.130   5.759   3.491
 9864SOL    HW130491   4.071   5.767   3.411
 9864SOL    HW230492   4.162   5.850   3.518
 9865SOL     OW30493   0.934   0.777   4.148
 9865SOL    HW130494   1.031   0.787   4.126
 9865SOL    HW230495   0.881   0.844   4.096
 9866SOL     OW30496   5.124   4.284   4.467
 9866SOL    HW130497   5.156   4.204   4.519
 9866SOL    HW230498   5.199   4.319   4.410
 9867SOL     OW30499   4.573   0.795   1.316
 9867SOL    HW130500   4.485   0.820   1.357
 9867SOL    HW230501   4.600   0.864   1.249
 9868SOL     OW30502   1.712   4.308   5.936
 9868SOL    HW130503   1.720   4.366   5.855
 9868SOL    HW230504   1.616   4.284   5.949
 9869SOL     OW30505   2.049   3.690   2.752
 9869SOL    HW130506   1.980   3.752   2.789
 9869SOL    HW230507   2.099   3.646   2.827
 9870SOL     OW30508   3.821   6.081   2.368
 9870SOL    HW130509   3.903   6.111   2.321
 9870SOL    HW230510   3.746   6.071   2.302
 9871SOL     OW30511   1.024   6.627   6.054
 9871SOL    HW130512   1.024   6.711   5.999
 9871SOL    HW230513   1.118   6.592   6.062
 9872SOL     OW30514   2.829   5.270   3.227
 9872SOL    HW130515   2.898   5.272   3.300
 9872SOL    HW230516   2.863   5.214   3.151
 9873SOL     OW30517   2.162   2.497   1.299
 9873SOL    HW130518   2.171   2.595   1.313
 9873SOL    HW230519   2.119   2.456   1.379
 9874SOL     OW30520   0.758   2.381   4.345
 9874SOL    HW130521   0.756   2.317   4.269
 9874SOL    HW230522   0.836   2.359   4.405
 9875SOL     OW30523   0.317   6.789   2.395
 9875SOL    HW130524   0.314   6.791   2.295
 9875SOL    HW230525   0.395   6.845   2.426
 9876SOL     OW30526   6.934   0.998   1.952
 9876SOL    HW130527   6.861   1.053   1.992
 9876SOL    HW230528   6.922   0.902   1.977
 9877SOL     OW30529   1.662   5.916   2.795
 9877SOL    HW130530   1.613   6.002   2.782
 9877SOL    HW230531   1.597   5.842   2.805
 9878SOL     OW30532   2.226   5.263   5.063
 9878SOL    HW130533   2.190   5.188   5.119
 9878SOL    HW230534   2.301   5.308   5.111
 9879SOL     OW30535   5.798   4.936   4.891
 9879SOL    HW130536   5.815   5.024   4.935
 9879SOL    HW230537   5.732   4.884   4.944
 9880SOL     OW30538   1.729   2.258   5.470
 9880SOL    HW130539   1.687   2.235   5.382
 9880SOL    HW230540   1.741   2.175   5.524
 9881SOL     OW30541   1.840   1.521   5.033
 9881SOL    HW130542   1.798   1.611   5.025
 9881SOL    HW230543   1.789   1.466   5.099
 9882SOL     OW30544   1.189   1.989   3.951
 9882SOL    HW130545   1.146   1.999   3.861
 9882SOL    HW230546   1.246   2.069   3.970
 9883SOL     OW30547   1.260   5.504   0.357
 9883SOL    HW130548   1.331   5.483   0.424
 9883SOL    HW230549   1.286   5.586   0.305
 9884SOL     OW30550   4.390   1.668   3.105
 9884SOL    HW130551   4.380   1.642   3.201
 9884SOL    HW230552   4.487   1.676   3.082
 9885SOL     OW30553   0.228   3.516   5.268
 9885SOL    HW130554   0.224   3.612   5.243
 9885SOL    HW230555   0.324   3.486   5.274
 9886SOL     OW30556   0.969   4.088   2.028
 9886SOL    HW130557   0.927   4.093   2.118
 9886SOL    HW230558   1.037   4.161   2.018
 9887SOL     OW30559   3.307   1.845   6.705
 9887SOL    HW130560   3.268   1.817   6.617
 9887SOL    HW230561   3.311   1.945   6.709
 9888SOL     OW30562   6.879   4.258   1.392
 9888SOL    HW130563   6.907   4.168   1.360
 9888SOL    HW230564   6.791   4.251   1.439
 9889SOL     OW30565   6.460   4.932   1.551
 9889SOL    HW130566   6.530   4.985   1.502
 9889SOL    HW230567   6.455   4.963   1.646
 9890SOL     OW30568   1.600   2.310   0.017
 9890SOL    HW130569   1.679   2.280   0.071
 9890SOL    HW230570   1.630   2.335   6.951
 9891SOL     OW30571   5.452   3.027   1.160
 9891SOL    HW130572   5.445   3.019   1.260
 9891SOL    HW230573   5.548   3.026   1.133
 9892SOL     OW30574   6.761   5.120   0.426
 9892SOL    HW130575   6.704   5.084   0.500
 9892SOL    HW230576   6.706   5.127   0.343
 9893SOL     OW30577   1.263   6.980   0.954
 9893SOL    HW130578   1.254   0.003   1.041
 9893SOL    HW230579   1.173   6.968   0.913
 9894SOL     OW30580   1.865   2.008   1.712
 9894SOL    HW130581   1.910   1.953   1.641
 9894SOL    HW230582   1.925   2.081   1.742
 9895SOL     OW30583   5.840   3.517   5.654
 9895SOL    HW130584   5.756   3.561   5.686
 9895SOL    HW230585   5.848   3.527   5.555
 9896SOL     OW30586   6.000   0.179   5.838
 9896SOL    HW130587   5.978   0.212   5.930
 9896SOL    HW230588   6.046   0.251   5.787
 9897SOL     OW30589   6.095   5.508   3.893
 9897SOL    HW130590   6.108   5.532   3.797
 9897SOL    HW230591   6.180   5.522   3.943
 9898SOL     OW30592   2.305   5.983   5.787
 9898SOL    HW130593   2.327   6.078   5.765
 9898SOL    HW230594   2.208   5.967   5.771
 9899SOL     OW30595   0.055   5.493   6.855
 9899SOL    HW130596   0.034   5.416   6.915
 9899SOL    HW230597   0.145   5.480   6.813
 9900SOL     OW30598   2.059   3.697   3.445
 9900SOL    HW130599   2.090   3.775   3.391
 9900SOL    HW230600   2.031   3.728   3.536
 9901SOL     OW30601   3.224   1.778   6.443
 9901SOL    HW130602   3.173   1.837   6.382
 9901SOL    HW230603   3.299   1.735   6.393
 9902SOL     OW30604   3.308   4.780   6.984
 9902SOL    HW130605   3.219   4.779   0.005
 9902SOL    HW230606   3.340   4.687   6.970
 9903SOL     OW30607   5.091   1.345   1.518
 9903SOL    HW130608   5.120   1.251   1.498
 9903SOL    HW230609   5.055   1.386   1.434
 9904SOL     OW30610   0.825   3.623   6.994
 9904SOL    HW130611   0.772   3.568   0.033
 9904SOL    HW230612   0.918   3.589   6.990
 9905SOL     OW30613   2.502   0.646   6.862
 9905SOL    HW130614   2.580   0.697   6.898
 9905SOL    HW230615   2.421   0.706   6.861
 9906SOL     OW30616   3.020   3.028   1.657
 9906SOL    HW130617   3.051   3.123   1.661
 9906SOL    HW230618   3.073   2.973   1.721
 9907SOL     OW30619   6.672   0.653   0.545
 9907SOL    HW130620   6.761   0.664   0.501
 9907SOL    HW230621   6.601   0.687   0.483
 9908SOL     OW30622   5.728   1.686   4.033
 9908SOL    HW130623   5.811   1.707   4.083
 9908SOL    HW230624   5.648   1.714   4.087
 9909SOL     OW30625   3.850   0.519   4.021
 9909SOL    HW130626   3.775   0.481   4.074
 9909SOL    HW230627   3.920   0.448   4.007
 9910SOL     OW30628   1.277   3.511   2.625
 9910SOL    HW130629   1.344   3.545   2.691
 9910SOL    HW230630   1.308   3.423   2.589
 9911SOL     OW30631   3.485   6.247   2.125
 9911SOL    HW130632   3.491   6.325   2.188
 9911SOL    HW230633   3.405   6.258   2.066
 9912SOL     OW30634   3.942   1.476   2.247
 9912SOL    HW130635   4.031   1.432   2.248
 9912SOL    HW230636   3.928   1.525   2.334
 9913SOL     OW30637   6.396   4.304   0.649
 9913SOL    HW130638   6.331   4.338   0.718
 9913SOL    HW230639   6.368   4.212   0.620
 9914SOL     OW30640   5.540   2.364   4.900
 9914SOL    HW130641   5.472   2.433   4.924
 9914SOL    HW230642   5.520   2.328   4.808
 9915SOL     OW30643   5.531   0.787   3.680
 9915SOL    HW130644   5.597   0.790   3.605
 9915SOL    HW230645   5.579   0.771   3.766
 9916SOL     OW30646   1.880   2.489   3.283
 9916SOL    HW130647   1.972   2.528   3.286
 9916SOL    HW230648   1.885   2.392   3.263
 9917SOL     OW30649   5.816   3.884   0.354
 9917SOL    HW130650   5.909   3.864   0.384
 9917SOL    HW230651   5.818   3.942   0.273
 9918SOL     OW30652   2.990   1.458   3.111
 9918SOL    HW130653   2.970   1.471   3.014
 9918SOL    HW230654   2.913   1.493   3.166
 9919SOL     OW30655   6.056   5.348   1.285
 9919SOL    HW130656   6.008   5.362   1.198
 9919SOL    HW230657   6.018   5.268   1.332
 9920SOL     OW30658   5.256   1.651   2.268
 9920SOL    HW130659   5.164   1.659   2.306
 9920SOL    HW230660   5.265   1.712   2.189
 9921SOL     OW30661   4.143   0.015   6.011
 9921SOL    HW130662   4.145   0.019   5.911
 9921SOL    HW230663   4.191   6.959   6.042
 9922SOL     OW30664   2.103   4.447   0.682
 9922SOL    HW130665   2.154   4.372   0.640
 9922SOL    HW230666   2.127   4.533   0.636
 9923SOL     OW30667   4.724   4.730   6.875
 9923SOL    HW130668   4.686   4.769   6.959
 9923SOL    HW230669   4.817   4.697   6.893
 9924SOL     OW30670   6.454   2.298   4.594
 9924SOL    HW130671   6.406   2.211   4.581
 9924SOL    HW230672   6.483   2.306   4.689
 9925SOL     OW30673   6.547   3.510   3.963
 9925SOL    HW130674   6.609   3.502   4.041
 9925SOL    HW230675   6.531   3.420   3.924
 9926SOL     OW30676   4.106   2.976   0.711
 9926SOL    HW130677   4.132   3.053   0.769
 9926SOL    HW230678   4.019   2.995   0.666
 9927SOL     OW30679   6.515   6.767   1.119
 9927SOL    HW130680   6.553   6.851   1.160
 9927SOL    HW230681   6.518   6.694   1.186
 9928SOL     OW30682   5.265   6.280   1.881
 9928SOL    HW130683   5.188   6.264   1.819
 9928SOL    HW230684   5.344   6.312   1.829
 9929SOL     OW30685   2.899   5.276   5.021
 9929SOL    HW130686   2.837   5.326   5.082
 9929SOL    HW230687   2.916   5.185   5.058
 9930SOL     OW30688   6.646   6.933   4.570
 9930SOL    HW130689   6.579   6.884   4.515
 9930SOL    HW230690   6.621   6.929   4.666
 9931SOL     OW30691   0.948   4.645   4.510
 9931SOL    HW130692   0.887   4.689   4.445
 9931SOL    HW230693   0.939   4.690   4.599
 9932SOL     OW30694   2.325   5.246   6.799
 9932SOL    HW130695   2.232   5.238   6.762
 9932SOL    HW230696   2.351   5.342   6.801
 9933SOL     OW30697   1.085   5.441   3.807
 9933SOL    HW130698   1.119   5.414   3.897
 9933SOL    HW230699   0.986   5.449   3.809
 9934SOL     OW30700   5.177   1.362   5.490
 9934SOL    HW130701   5.272   1.352   5.521
 9934SOL    HW230702   5.170   1.443   5.431
 9935SOL     OW30703   3.089   6.816   0.209
 9935SOL    HW130704   3.014   6.750   0.200
 9935SOL    HW230705   3.176   6.767   0.211
 9936SOL     OW30706   6.736   5.138   6.372
 9936SOL    HW130707   6.699   5.102   6.286
 9936SOL    HW230708   6.782   5.225   6.353
 9937SOL     OW30709   6.723   1.758   0.264
 9937SOL    HW130710   6.814   1.723   0.243
 9937SOL    HW230711   6.659   1.682   0.274
 9938SOL     OW30712   0.002   5.451   2.464
 9938SOL    HW130713   0.068   5.376   2.473
 9938SOL    HW230714   7.005   5.487   2.555
 9939SOL     OW30715   4.370   2.396   0.856
 9939SOL    HW130716   4.377   2.297   0.867
 9939SOL    HW230717   4.304   2.417   0.783
 9940SOL     OW30718   0.664   0.880   1.353
 9940SOL    HW130719   0.596   0.911   1.419
 9940SOL    HW230720   0.708   0.959   1.310
 9941SOL     OW30721   3.019   3.999   5.551
 9941SOL    HW130722   3.105   4.049   5.547
 9941SOL    HW230723   2.963   4.022   5.471
 9942SOL     OW30724   2.514   5.352   2.470
 9942SOL    HW130725   2.421   5.316   2.459
 9942SOL    HW230726   2.521   5.440   2.425
 9943SOL     OW30727   6.957   5.184   5.509
 9943SOL    HW130728   6.864   5.167   5.541
 9943SOL    HW230729   6.979   5.281   5.520
 9944SOL     OW30730   1.936   4.462   6.368
 9944SOL    HW130731   1.897   4.553   6.378
 9944SOL    HW230732   1.875   4.395   6.409
 9945SOL     OW30733   6.475   5.683   6.460
 9945SOL    HW130734   6.390   5.730   6.482
 9945SOL    HW230735   6.456   5.587   6.441
 9946SOL     OW30736   4.871   0.979   4.210
 9946SOL    HW130737   4.866   1.072   4.176
 9946SOL    HW230738   4.806   0.967   4.285
 9947SOL     OW30739   1.479   3.226   5.053
 9947SOL    HW130740   1.443   3.245   4.961
 9947SOL    HW230741   1.427   3.279   5.120
 9948SOL     OW30742   5.563   4.814   4.445
 9948SOL    HW130743   5.657   4.788   4.421
 9948SOL    HW230744   5.532   4.760   4.523
 9949SOL     OW30745   6.125   5.032   3.989
 9949SOL    HW130746   6.162   4.985   3.910
 9949SOL    HW230747   6.057   5.100   3.960
 9950SOL     OW30748   5.617   6.171   5.195
 9950SOL    HW130749   5.623   6.271   5.188
 9950SOL    HW230750   5.524   6.141   5.175
 9951SOL     OW30751   6.224   1.272   5.007
 9951SOL    HW130752   6.285   1.317   5.072
 9951SOL    HW230753   6.198   1.336   4.934
 9952SOL     OW30754   0.985   3.177   1.295
 9952SOL    HW130755   1.046   3.114   1.247
 9952SOL    HW230756   0.903   3.127   1.324
 9953SOL     OW30757   6.378   2.542   4.123
 9953SOL    HW130758   6.412   2.507   4.210
 9953SOL    HW230759   6.402   2.638   4.114
 9954SOL     OW30760   6.105   0.379   6.074
 9954SOL    HW130761   6.195   0.396   6.034
 9954SOL    HW230762   6.114   0.321   6.155
 9955SOL     OW30763   6.131   3.761   5.739
 9955SOL    HW130764   6.148   3.797   5.647
 9955SOL    HW230765   6.205   3.788   5.800
 9956SOL     OW30766   1.651   0.002   1.485
 9956SOL    HW130767   1.709   6.950   1.459
 9956SOL    HW230768   1.561   6.994   1.514
 9957SOL     OW30769   5.603   5.676   2.951
 9957SOL    HW130770   5.693   5.661   2.993
 9957SOL    HW230771   5.539   5.709   3.021
 9958SOL     OW30772   3.160   5.017   1.138
 9958SOL    HW130773   3.141   5.020   1.040
 9958SOL    HW230774   3.246   5.065   1.156
 9959SOL     OW30775   4.222   3.662   5.506
 9959SOL    HW130776   4.303   3.706   5.544
 9959SOL    HW230777   4.249   3.579   5.457
 9960SOL     OW30778   6.776   6.736   2.397
 9960SOL    HW130779   6.847   6.778   2.453
 9960SOL    HW230780   6.762   6.641   2.426
 9961SOL     OW30781   1.381   5.277   3.835
 9961SOL    HW130782   1.384   5.359   3.778
 9961SOL    HW230783   1.315   5.290   3.908
 9962SOL     OW30784   6.791   0.055   2.892
 9962SOL    HW130785   6.820   7.019   2.965
 9962SOL    HW230786   6.695   0.080   2.906
 9963SOL     OW30787   3.260   2.669   7.021
 9963SOL    HW130788   3.218   2.625   6.942
 9963SOL    HW230789   3.304   2.601   0.052
 9964SOL     OW30790   4.770   5.025   5.229
 9964SOL    HW130791   4.812   4.954   5.286
 9964SOL    HW230792   4.781   5.001   5.133
 9965SOL     OW30793   3.840   6.933   6.863
 9965SOL    HW130794   3.806   6.862   6.924
 9965SOL    HW230795   3.808   6.916   6.770
 9966SOL     OW30796   1.457   5.081   1.617
 9966SOL    HW130797   1.548   5.123   1.610
 9966SOL    HW230798   1.427   5.053   1.526
 9967SOL     OW30799   7.006   6.124   2.178
 9967SOL    HW130800   0.076   6.118   2.153
 9967SOL    HW230801   6.977   6.038   2.220
 9968SOL     OW30802   3.522   3.857   1.323
 9968SOL    HW130803   3.598   3.921   1.329
 9968SOL    HW230804   3.500   3.840   1.226
 9969SOL     OW30805   1.614   3.287   2.022
 9969SOL    HW130806   1.575   3.222   1.956
 9969SOL    HW230807   1.681   3.345   1.976
 9970SOL     OW30808   4.886   4.280   2.988
 9970SOL    HW130809   4.983   4.303   2.995
 9970SOL    HW230810   4.871   4.189   3.028
 9971SOL     OW30811   1.810   5.071   1.307
 9971SOL    HW130812   1.843   4.977   1.305
 9971SOL    HW230813   1.777   5.097   1.216
 9972SOL     OW30814   5.699   5.255   1.125
 9972SOL    HW130815   5.790   5.215   1.115
 9972SOL    HW230816   5.704   5.353   1.109
 9973SOL     OW30817   6.500   1.607   3.455
 9973SOL    HW130818   6.402   1.598   3.439
 9973SOL    HW230819   6.546   1.628   3.368
 9974SOL     OW30820   1.192   2.627   2.736
 9974SOL    HW130821   1.272   2.593   2.786
 9974SOL    HW230822   1.124   2.662   2.801
 9975SOL     OW30823   5.897   3.264   0.692
 9975SOL    HW130824   5.950   3.277   0.776
 9975SOL    HW230825   5.958   3.271   0.613
 9976SOL     OW30826   1.132   6.219   5.517
 9976SOL    HW130827   1.073   6.225   5.437
 9976SOL    HW230828   1.151   6.123   5.537
 9977SOL     OW30829   6.750   5.713   5.553
 9977SOL    HW130830   6.769   5.767   5.470
 9977SOL    HW230831   6.675   5.756   5.604
 9978SOL     OW30832   0.948   2.872   4.694
 9978SOL    HW130833   0.851   2.896   4.694
 9978SOL    HW230834   0.978   2.855   4.600
 9979SOL     OW30835   6.570   4.919   5.774
 9979SOL    HW130836   6.585   4.824   5.745
 9979SOL    HW230837   6.472   4.939   5.773
 9980SOL     OW30838   2.128   0.434   6.776
 9980SOL    HW130839   2.209   0.376   6.759
 9980SOL    HW230840   2.141   0.522   6.730
 9981SOL     OW30841   2.299   1.481   2.885
 9981SOL    HW130842   2.395   1.505   2.896
 9981SOL    HW230843   2.271   1.423   2.962
 9982SOL     OW30844   6.403   5.954   4.039
 9982SOL    HW130845   6.483   6.012   4.024
 9982SOL    HW230846   6.420   5.894   4.117
 9983SOL     OW30847   0.059   2.506   2.992
 9983SOL    HW130848   0.140   2.508   2.933
 9983SOL    HW230849   7.009   2.464   2.943
 9984SOL     OW30850   2.591   1.319   6.915
 9984SOL    HW130851   2.570   1.397   6.975
 9984SOL    HW230852   2.686   1.323   6.886
 9985SOL     OW30853   1.714   0.939   0.664
 9985SOL    HW130854   1.769   0.866   0.706
 9985SOL    HW230855   1.747   0.956   0.571
 9986SOL     OW30856   6.018   4.375   5.653
 9986SOL    HW130857   5.987   4.281   5.640
 9986SOL    HW230858   5.939   4.436   5.656
 9987SOL     OW30859   6.524   2.970   4.616
 9987SOL    HW130860   6.497   3.061   4.645
 9987SOL    HW230861   6.602   2.939   4.670
 9988SOL     OW30862   0.408   5.763   4.251
 9988SOL    HW130863   0.354   5.809   4.181
 9988SOL    HW230864   0.443   5.830   4.316
 9989SOL     OW30865   6.563   3.287   3.804
 9989SOL    HW130866   6.478   3.237   3.788
 9989SOL    HW230867   6.580   3.349   3.727
 9990SOL     OW30868   1.915   4.775   3.330
 9990SOL    HW130869   1.846   4.845   3.313
 9990SOL    HW230870   1.956   4.747   3.243
 9991SOL     OW30871   2.825   1.958   4.275
 9991SOL    HW130872   2.753   2.023   4.254
 9991SOL    HW230873   2.785   1.873   4.308
 9992SOL     OW30874   5.469   4.677   6.972
 9992SOL    HW130875   5.447   4.708   0.039
 9992SOL    HW230876   5.400   4.711   6.908
 9993SOL     OW30877   2.882   1.127   0.864
 9993SOL    HW130878   2.805   1.064   0.852
 9993SOL    HW230879   2.929   1.106   0.950
 9994SOL     OW30880   6.330   4.581   2.935
 9994SOL    HW130881   6.349   4.485   2.954
 9994SOL    HW230882   6.387   4.639   2.993
 9995SOL     OW30883   4.668   1.625   3.072
 9995SOL    HW130884   4.700   1.591   3.160
 9995SOL    HW230885   4.735   1.689   3.035
 9996SOL     OW30886   3.319   3.712   0.328
 9996SOL    HW130887   3.229   3.702   0.371
 9996SOL    HW230888   3.363   3.796   0.361
 9997SOL     OW30889   2.916   1.862   5.709
 9997SOL    HW130890   3.003   1.898   5.677
 9997SOL    HW230891   2.848   1.872   5.636
 9998SOL     OW30892   6.025   4.861   5.832
 9998SOL    HW130893   5.967   4.832   5.908
 9998SOL    HW230894   5.975   4.851   5.746
 9999SOL     OW30895   6.342   2.970   6.101
 9999SOL    HW130896   6.276   3.035   6.140
 9999SOL    HW230897   6.385   3.012   6.020
10000SOL     OW30898   6.714   4.262   6.747
10000SOL    HW130899   6.714   4.192   6.675
10000SOL    HW230900   6.777   4.235   6.820
10001SOL     OW30901   4.629   7.007   1.991
10001SOL    HW130902   4.618   6.912   2.020
10001SOL    HW230903   4.718   0.015   2.021
10002SOL     OW30904   1.396   6.970   1.574
10002SOL    HW130905   1.377   6.991   1.670
10002SOL    HW230906   1.342   6.891   1.545
10003SOL     OW30907   3.409   2.142   3.896
10003SOL    HW130908   3.314   2.138   3.864
10003SOL    HW230909   3.470   2.149   3.817
10004SOL     OW30910   0.067   2.751   4.673
10004SOL    HW130911   0.076   2.655   4.699
10004SOL    HW230912   0.052   2.757   4.574
10005SOL     OW30913   5.740   0.528   3.698
10005SOL    HW130914   5.704   0.579   3.776
10005SOL    HW230915   5.669   0.468   3.662
10006SOL     OW30916   4.817   6.204   4.238
10006SOL    HW130917   4.755   6.208   4.317
10006SOL    HW230918   4.818   6.110   4.202
10007SOL     OW30919   0.374   3.957   4.924
10007SOL    HW130920   0.399   3.886   4.991
10007SOL    HW230921   0.277   3.978   4.933
10008SOL     OW30922   4.117   1.238   5.077
10008SOL    HW130923   4.162   1.273   5.159
10008SOL    HW230924   4.177   1.174   5.029
10009SOL     OW30925   1.809   3.403   2.209
10009SOL    HW130926   1.855   3.471   2.154
10009SOL    HW230927   1.743   3.353   2.152
10010SOL     OW30928   2.322   0.980   6.381
10010SOL    HW130929   2.260   1.037   6.435
10010SOL    HW230930   2.352   0.902   6.436
10011SOL     OW30931   6.553   0.582   5.741
10011SOL    HW130932   6.605   0.618   5.664
10011SOL    HW230933   6.575   0.485   5.753
10012SOL     OW30934   6.123   0.517   2.784
10012SOL    HW130935   6.096   0.512   2.687
10012SOL    HW230936   6.130   0.425   2.821
10013SOL     OW30937   0.215   1.236   3.087
10013SOL    HW130938   0.225   1.141   3.059
10013SOL    HW230939   0.296   1.264   3.139
10014SOL     OW30940   0.660   4.251   6.775
10014SOL    HW130941   0.658   4.152   6.788
10014SOL    HW230942   0.645   4.273   6.679
10015SOL     OW30943   2.359   4.976   0.662
10015SOL    HW130944   2.415   4.903   0.701
10015SOL    HW230945   2.340   4.956   0.566
10016SOL     OW30946   1.221   1.464   6.379
10016SOL    HW130947   1.247   1.372   6.347
10016SOL    HW230948   1.140   1.494   6.330
10017SOL     OW30949   3.194   2.111   3.717
10017SOL    HW130950   3.133   2.153   3.650
10017SOL    HW230951   3.142   2.050   3.777
10018SOL     OW30952   5.176   0.100   6.688
10018SOL    HW130953   5.159   0.042   6.767
10018SOL    HW230954   5.194   0.193   6.718
10019SOL     OW30955   1.020   1.572   3.249
10019SOL    HW130956   1.017   1.618   3.338
10019SOL    HW230957   0.941   1.511   3.240
10020SOL     OW30958   0.846   2.545   1.556
10020SOL    HW130959   0.943   2.562   1.571
10020SOL    HW230960   0.830   2.447   1.548
10021SOL     OW30961   6.870   3.461   1.240
10021SOL    HW130962   6.797   3.394   1.233
10021SOL    HW230963   6.899   3.489   1.149
10022SOL     OW30964   2.581   1.599   5.909
10022SOL    HW130965   2.491   1.643   5.903
10022SOL    HW230966   2.649   1.667   5.938
10023SOL     OW30967   6.635   4.597   0.523
10023SOL    HW130968   6.690   4.520   0.553
10023SOL    HW230969   6.589   4.574   0.437
10024SOL     OW30970   1.544   6.136   3.676
10024SOL    HW130971   1.627   6.162   3.627
10024SOL    HW230972   1.569   6.091   3.762
10025SOL     OW30973   1.952   0.886   1.437
10025SOL    HW130974   2.026   0.818   1.438
10025SOL    HW230975   1.887   0.866   1.509
10026SOL     OW30976   5.714   0.342   4.022
10026SOL    HW130977   5.630   0.367   4.071
10026SOL    HW230978   5.691   0.318   3.928
10027SOL     OW30979   5.453   2.995   4.315
10027SOL    HW130980   5.447   3.095   4.317
10027SOL    HW230981   5.490   2.966   4.227
10028SOL     OW30982   0.996   0.710   1.140
10028SOL    HW130983   0.988   0.795   1.192
10028SOL    HW230984   1.041   0.728   1.053
10029SOL     OW30985   5.627   1.980   3.430
10029SOL    HW130986   5.648   1.997   3.526
10029SOL    HW230987   5.688   2.034   3.372
10030SOL     OW30988   2.198   0.769   3.331
10030SOL    HW130989   2.144   0.775   3.247
10030SOL    HW230990   2.232   0.676   3.342
10031SOL     OW30991   5.464   4.787   3.774
10031SOL    HW130992   5.462   4.688   3.764
10031SOL    HW230993   5.412   4.830   3.701
10032SOL     OW30994   2.533   1.506   5.158
10032SOL    HW130995   2.561   1.599   5.133
10032SOL    HW230996   2.554   1.489   5.254
10033SOL     OW30997   6.283   3.170   4.488
10033SOL    HW130998   6.203   3.177   4.428
10033SOL    HW230999   6.356   3.227   4.451
10034SOL     OW31000   3.737   0.794   4.444
10034SOL    HW131001   3.797   0.735   4.498
10034SOL    HW231002   3.642   0.763   4.453
10035SOL     OW31003   6.608   5.307   1.801
10035SOL    HW131004   6.638   5.355   1.719
10035SOL    HW231005   6.646   5.352   1.882
10036SOL     OW31006   6.268   2.161   0.610
10036SOL    HW131007   6.168   2.167   0.607
10036SOL    HW231008   6.306   2.200   0.527
10037SOL     OW31009   6.423   1.401   6.237
10037SOL    HW131010   6.326   1.377   6.245
10037SOL    HW231011   6.449   1.402   6.140
10038SOL     OW31012   6.375   0.104   0.876
10038SOL    HW131013   6.306   0.171   0.903
10038SOL    HW231014   6.353   0.015   0.917
10039SOL     OW31015   3.126   6.857   3.606
10039SOL    HW131016   3.095   6.789   3.540
10039SOL    HW231017   3.093   6.831   3.697
10040SOL     OW31018   6.100   3.904   0.368
10040SOL    HW131019   6.140   3.930   0.456
10040SOL    HW231020   6.172   3.868   0.308
10041SOL     OW31021   3.279   6.606   0.213
10041SOL    HW131022   3.264   6.573   0.120
10041SOL    HW231023   3.288   6.528   0.275
10042SOL     OW31024   6.909   2.278   3.293
10042SOL    HW131025   6.877   2.254   3.202
10042SOL    HW231026   6.868   2.216   3.360
10043SOL     OW31027   6.671   2.000   5.868
10043SOL    HW131028   6.725   2.030   5.790
10043SOL    HW231029   6.584   1.961   5.836
10044SOL     OW31030   2.765   3.152   5.804
10044SOL    HW131031   2.691   3.152   5.871
10044SOL    HW231032   2.736   3.104   5.721
10045SOL     OW31033   4.568   0.681   0.922
10045SOL    HW131034   4.637   0.733   0.872
10045SOL    HW231035   4.489   0.739   0.939
10046SOL     OW31036   1.215   4.450   1.464
10046SOL    HW131037   1.280   4.375   1.473
10046SOL    HW231038   1.126   4.422   1.501
10047SOL     OW31039   0.740   3.510   5.970
10047SOL    HW131040   0.784   3.585   5.920
10047SOL    HW231041   0.794   3.488   6.051
10048SOL     OW31042   6.848   6.594   2.852
10048SOL    HW131043   6.926   6.556   2.901
10048SOL    HW231044   6.766   6.585   2.908
10049SOL     OW31045   0.140   2.889   5.806
10049SOL    HW131046   0.054   2.838   5.807
10049SOL    HW231047   0.122   2.985   5.788
10050SOL     OW31048   4.969   3.468   5.185
10050SOL    HW131049   4.913   3.523   5.123
10050SOL    HW231050   5.049   3.433   5.136
10051SOL     OW31051   1.080   4.424   4.627
10051SOL    HW131052   1.027   4.490   4.574
10051SOL    HW231053   1.140   4.372   4.567
10052SOL     OW31054   0.902   1.020   3.258
10052SOL    HW131055   0.943   0.949   3.316
10052SOL    HW231056   0.927   1.004   3.163
10053SOL     OW31057   5.017   5.181   4.530
10053SOL    HW131058   4.997   5.152   4.436
10053SOL    HW231059   4.951   5.250   4.559
10054SOL     OW31060   5.521   3.980   4.743
10054SOL    HW131061   5.549   3.962   4.649
10054SOL    HW231062   5.477   3.899   4.781
10055SOL     OW31063   6.716   2.398   6.619
10055SOL    HW131064   6.717   2.360   6.527
10055SOL    HW231065   6.810   2.414   6.650
10056SOL     OW31066   5.148   3.505   3.373
10056SOL    HW131067   5.217   3.451   3.326
10056SOL    HW231068   5.129   3.464   3.462
10057SOL     OW31069   5.104   4.498   6.243
10057SOL    HW131070   5.126   4.566   6.312
10057SOL    HW231071   5.016   4.520   6.201
10058SOL     OW31072   6.077   2.731   4.946
10058SOL    HW131073   6.020   2.793   4.892
10058SOL    HW231074   6.115   2.781   5.024
10059SOL     OW31075   6.903   1.571   0.170
10059SOL    HW131076   6.940   1.501   0.230
10059SOL    HW231077   6.974   1.637   0.148
10060SOL     OW31078   2.467   1.756   2.625
10060SOL    HW131079   2.468   1.778   2.527
10060SOL    HW231080   2.379   1.781   2.664
10061SOL     OW31081   3.723   0.901   3.489
10061SOL    HW131082   3.808   0.850   3.478
10061SOL    HW231083   3.729   0.957   3.573
10062SOL     OW31084   0.819   0.307   4.063
10062SOL    HW131085   0.855   0.382   4.119
10062SOL    HW231086   0.721   0.318   4.052
10063SOL     OW31087   1.590   2.828   5.029
10063SOL    HW131088   1.520   2.790   5.091
10063SOL    HW231089   1.545   2.878   4.955
10064SOL     OW31090   2.950   6.356   0.691
10064SOL    HW131091   3.034   6.318   0.653
10064SOL    HW231092   2.884   6.373   0.618
10065SOL     OW31093   0.882   0.803   1.930
10065SOL    HW131094   0.858   0.891   1.970
10065SOL    HW231095   0.868   0.731   1.999
10066SOL     OW31096   7.008   3.524   4.783
10066SOL    HW131097   6.958   3.451   4.736
10066SOL    HW231098   6.956   3.610   4.775
10067SOL     OW31099   0.283   2.340   5.630
10067SOL    HW131100   0.314   2.363   5.538
10067SOL    HW231101   0.323   2.405   5.695
10068SOL     OW31102   2.339   2.591   2.818
10068SOL    HW131103   2.345   2.640   2.731
10068SOL    HW231104   2.341   2.493   2.802
10069SOL     OW31105   3.436   5.457   1.661
10069SOL    HW131106   3.496   5.433   1.585
10069SOL    HW231107   3.399   5.373   1.702
10070SOL     OW31108   3.495   5.863   4.856
10070SOL    HW131109   3.534   5.954   4.842
10070SOL    HW231110   3.439   5.837   4.776
10071SOL     OW31111   6.669   0.028   3.292
10071SOL    HW131112   6.586   0.031   3.347
10071SOL    HW231113   6.736   6.993   3.336
10072SOL     OW31114   6.648   1.714   2.449
10072SOL    HW131115   6.589   1.702   2.369
10072SOL    HW231116   6.741   1.685   2.426
10073SOL     OW31117   6.094   3.456   4.685
10073SOL    HW131118   6.084   3.387   4.614
10073SOL    HW231119   6.168   3.430   4.747
10074SOL     OW31120   1.463   4.705   0.595
10074SOL    HW131121   1.531   4.679   0.525
10074SOL    HW231122   1.429   4.622   0.640
10075SOL     OW31123   1.606   2.926   2.284
10075SOL    HW131124   1.647   2.998   2.341
10075SOL    HW231125   1.543   2.968   2.218
10076SOL     OW31126   5.439   5.292   3.219
10076SOL    HW131127   5.514   5.359   3.224
10076SOL    HW231128   5.379   5.304   3.299
10077SOL     OW31129   6.606   3.343   6.821
10077SOL    HW131130   6.553   3.385   6.895
10077SOL    HW231131   6.567   3.254   6.799
10078SOL     OW31132   0.286   6.349   5.041
10078SOL    HW131133   0.234   6.351   5.126
10078SOL    HW231134   0.294   6.255   5.008
10079SOL     OW31135   4.702   2.584   3.025
10079SOL    HW131136   4.660   2.595   2.935
10079SOL    HW231137   4.659   2.506   3.072
10080SOL     OW31138   5.567   0.307   6.011
10080SOL    HW131139   5.599   0.331   6.102
10080SOL    HW231140   5.560   0.207   6.003
10081SOL     OW31141   1.467   2.426   0.396
10081SOL    HW131142   1.481   2.414   0.494
10081SOL    HW231143   1.556   2.434   0.350
10082SOL     OW31144   1.263   4.540   2.375
10082SOL    HW131145   1.322   4.541   2.456
10082SOL    HW231146   1.177   4.494   2.398
10083SOL     OW31147   4.037   5.282   3.480
10083SOL    HW131148   4.039   5.377   3.513
10083SOL    HW231149   4.129   5.243   3.486
10084SOL     OW31150   1.393   0.312   5.068
10084SOL    HW131151   1.347   0.362   5.141
10084SOL    HW231152   1.331   0.299   4.991
10085SOL     OW31153   4.391   6.858   0.214
10085SOL    HW131154   4.336   6.815   0.143
10085SOL    HW231155   4.358   6.829   0.304
10086SOL     OW31156   6.826   6.116   1.497
10086SOL    HW131157   6.796   6.093   1.404
10086SOL    HW231158   6.752   6.097   1.561
10087SOL     OW31159   1.544   6.579   4.831
10087SOL    HW131160   1.618   6.600   4.895
10087SOL    HW231161   1.508   6.664   4.793
10088SOL     OW31162   0.022   2.983   0.220
10088SOL    HW131163   7.001   2.905   0.177
10088SOL    HW231164   0.073   3.032   0.150
10089SOL     OW31165   3.922   1.888   2.444
10089SOL    HW131166   4.006   1.909   2.394
10089SOL    HW231167   3.876   1.973   2.470
10090SOL     OW31168   1.621   6.160   1.258
10090SOL    HW131169   1.606   6.158   1.159
10090SOL    HW231170   1.715   6.188   1.278
10091SOL     OW31171   6.392   4.431   6.004
10091SOL    HW131172   6.309   4.401   5.958
10091SOL    HW231173   6.372   4.456   6.098
10092SOL     OW31174   0.366   2.304   5.107
10092SOL    HW131175   0.346   2.398   5.135
10092SOL    HW231176   0.283   2.262   5.070
10093SOL     OW31177   5.385   4.530   5.861
10093SOL    HW131178   5.420   4.515   5.953
10093SOL    HW231179   5.433   4.470   5.797
10094SOL     OW31180   3.196   1.002   1.121
10094SOL    HW131181   3.226   1.047   1.038
10094SOL    HW231182   3.151   0.916   1.098
10095SOL     OW31183   4.892   2.467   5.167
10095SOL    HW131184   4.954   2.537   5.133
10095SOL    HW231185   4.801   2.507   5.180
10096SOL     OW31186   4.973   1.366   3.058
10096SOL    HW131187   4.996   1.463   3.053
10096SOL    HW231188   5.057   1.311   3.051
10097SOL     OW31189   1.240   1.226   0.021
10097SOL    HW131190   1.265   1.140   0.066
10097SOL    HW231191   1.318   1.260   6.994
10098SOL     OW31192   3.885   5.107   3.868
10098SOL    HW131193   3.919   5.100   3.961
10098SOL    HW231194   3.886   5.203   3.839
10099SOL     OW31195   0.022   4.705   1.523
10099SOL    HW131196   6.971   4.768   1.532
10099SOL    HW231197   7.016   4.612   1.539
10100SOL     OW31198   4.843   5.383   4.585
10100SOL    HW131199   4.859   5.432   4.670
10100SOL    HW231200   4.790   5.441   4.523
10101SOL     OW31201   1.242   2.159   1.265
10101SOL    HW131202   1.258   2.159   1.363
10101SOL    HW231203   1.317   2.208   1.219
10102SOL     OW31204   6.278   6.243   1.410
10102SOL    HW131205   6.190   6.268   1.452
10102SOL    HW231206   6.352   6.292   1.455
10103SOL     OW31207   6.835   6.451   6.115
10103SOL    HW131208   6.877   6.481   6.201
10103SOL    HW231209   6.766   6.382   6.134
10104SOL     OW31210   2.171   0.554   5.102
10104SOL    HW131211   2.263   0.515   5.094
10104SOL    HW231212   2.136   0.541   5.194
10105SOL     OW31213   2.518   0.680   6.278
10105SOL    HW131214   2.531   0.735   6.196
10105SOL    HW231215   2.514   0.739   6.358
10106SOL     OW31216   4.818   5.822   1.294
10106SOL    HW131217   4.725   5.856   1.307
10106SOL    HW231218   4.879   5.861   1.363
10107SOL     OW31219   4.859   4.200   6.637
10107SOL    HW131220   4.869   4.182   6.735
10107SOL    HW231221   4.949   4.209   6.595
10108SOL     OW31222   1.773   2.706   0.395
10108SOL    HW131223   1.748   2.611   0.377
10108SOL    HW231224   1.756   2.761   0.314
10109SOL     OW31225   1.236   1.917   0.854
10109SOL    HW131226   1.228   1.932   0.953
10109SOL    HW231227   1.158   1.959   0.807
10110SOL     OW31228   4.964   6.258   2.931
10110SOL    HW131229   4.926   6.343   2.969
10110SOL    HW231230   5.059   6.274   2.903
10111SOL     OW31231   1.178   1.280   2.104
10111SOL    HW131232   1.152   1.365   2.057
10111SOL    HW231233   1.250   1.234   2.052
10112SOL     OW31234   6.508   2.229   3.460
10112SOL    HW131235   6.481   2.151   3.403
10112SOL    HW231236   6.491   2.208   3.556
10113SOL     OW31237   5.700   1.054   6.658
10113SOL    HW131238   5.663   1.003   6.735
10113SOL    HW231239   5.710   0.993   6.579
10114SOL     OW31240   4.593   1.856   2.372
10114SOL    HW131241   4.531   1.806   2.433
10114SOL    HW231242   4.679   1.872   2.420
10115SOL     OW31243   3.466   2.707   5.573
10115SOL    HW131244   3.419   2.633   5.525
10115SOL    HW231245   3.401   2.755   5.632
10116SOL     OW31246   6.236   0.189   4.862
10116SOL    HW131247   6.245   0.106   4.806
10116SOL    HW231248   6.140   0.212   4.873
10117SOL     OW31249   6.558   4.746   4.083
10117SOL    HW131250   6.639   4.696   4.112
10117SOL    HW231251   6.519   4.703   4.001
10118SOL     OW31252   3.568   5.208   4.275
10118SOL    HW131253   3.500   5.281   4.269
10118SOL    HW231254   3.525   5.125   4.311
10119SOL     OW31255   0.180   4.998   5.084
10119SOL    HW131256   0.254   5.006   5.151
10119SOL    HW231257   0.098   5.041   5.120
10120SOL     OW31258   2.273   2.823   2.051
10120SOL    HW131259   2.333   2.828   1.971
10120SOL    HW231260   2.327   2.837   2.134
10121SOL     OW31261   6.104   3.994   0.897
10121SOL    HW131262   6.173   3.951   0.955
10121SOL    HW231263   6.144   4.020   0.810
10122SOL     OW31264   1.574   0.506   3.730
10122SOL    HW131265   1.486   0.533   3.692
10122SOL    HW231266   1.644   0.509   3.659
10123SOL     OW31267   5.727   5.786   0.311
10123SOL    HW131268   5.786   5.706   0.321
10123SOL    HW231269   5.631   5.758   0.324
10124SOL     OW31270   1.431   4.425   2.890
10124SOL    HW131271   1.498   4.494   2.919
10124SOL    HW231272   1.339   4.457   2.914
10125SOL     OW31273   1.026   1.438   6.179
10125SOL    HW131274   0.966   1.515   6.201
10125SOL    HW231275   0.971   1.361   6.148
10126SOL     OW31276   6.513   6.783   6.460
10126SOL    HW131277   6.557   6.696   6.440
10126SOL    HW231278   6.449   6.771   6.536
10127SOL     OW31279   2.162   5.499   6.097
10127SOL    HW131280   2.179   5.595   6.116
10127SOL    HW231281   2.182   5.445   6.179
10128SOL     OW31282   2.899   1.019   6.770
10128SOL    HW131283   2.806   1.050   6.748
10128SOL    HW231284   2.965   1.076   6.722
10129SOL     OW31285   6.177   1.631   3.908
10129SOL    HW131286   6.084   1.665   3.893
10129SOL    HW231287   6.175   1.531   3.913
10130SOL     OW31288   1.570   1.731   2.682
10130SOL    HW131289   1.587   1.757   2.777
10130SOL    HW231290   1.504   1.794   2.642
10131SOL     OW31291   2.074   0.555   4.664
10131SOL    HW131292   1.993   0.558   4.605
10131SOL    HW231293   2.045   0.548   4.760
10132SOL     OW31294   6.771   0.748   1.579
10132SOL    HW131295   6.701   0.682   1.606
10132SOL    HW231296   6.756   0.834   1.629
10133SOL     OW31297   5.241   0.121   0.491
10133SOL    HW131298   5.335   0.149   0.474
10133SOL    HW231299   5.191   0.195   0.536
10134SOL     OW31300   6.244   0.737   1.937
10134SOL    HW131301   6.210   0.748   1.844
10134SOL    HW231302   6.323   0.797   1.951
10135SOL     OW31303   6.261   0.074   2.679
10135SOL    HW131304   6.235   7.003   2.679
10135SOL    HW231305   6.347   0.086   2.630
10136SOL     OW31306   5.367   1.795   2.939
10136SOL    HW131307   5.460   1.761   2.921
10136SOL    HW231308   5.322   1.815   2.852
10137SOL     OW31309   6.443   5.440   5.605
10137SOL    HW131310   6.505   5.475   5.675
10137SOL    HW231311   6.491   5.373   5.548
10138SOL     OW31312   6.917   1.792   0.472
10138SOL    HW131313   6.826   1.805   0.434
10138SOL    HW231314   6.941   1.871   0.528
10139SOL     OW31315   3.415   3.032   6.275
10139SOL    HW131316   3.418   2.933   6.261
10139SOL    HW231317   3.336   3.055   6.332
10140SOL     OW31318   0.125   5.780   5.809
10140SOL    HW131319   0.137   5.857   5.872
10140SOL    HW231320   0.064   5.712   5.850
10141SOL     OW31321   2.082   2.262   4.421
10141SOL    HW131322   2.022   2.325   4.470
10141SOL    HW231323   2.153   2.314   4.374
10142SOL     OW31324   5.236   6.045   4.741
10142SOL    HW131325   5.176   5.987   4.795
10142SOL    HW231326   5.228   6.140   4.771
10143SOL     OW31327   5.266   3.580   6.747
10143SOL    HW131328   5.188   3.633   6.714
10143SOL    HW231329   5.307   3.530   6.670
10144SOL     OW31330   3.730   6.457   5.874
10144SOL    HW131331   3.751   6.379   5.815
10144SOL    HW231332   3.644   6.441   5.921
10145SOL     OW31333   5.830   6.020   6.821
10145SOL    HW131334   5.815   5.948   6.888
10145SOL    HW231335   5.746   6.074   6.811
10146SOL     OW31336   0.281   2.382   4.377
10146SOL    HW131337   0.258   2.302   4.433
10146SOL    HW231338   0.371   2.417   4.404
10147SOL     OW31339   5.080   5.196   5.805
10147SOL    HW131340   5.134   5.146   5.737
10147SOL    HW231341   5.112   5.172   5.897
10148SOL     OW31342   1.374   4.728   0.336
10148SOL    HW131343   1.359   4.630   0.324
10148SOL    HW231344   1.381   4.750   0.433
10149SOL     OW31345   3.947   4.527   6.855
10149SOL    HW131346   4.022   4.498   6.914
10149SOL    HW231347   3.983   4.579   6.778
10150SOL     OW31348   4.185   4.699   7.022
10150SOL    HW131349   4.190   4.790   6.979
10150SOL    HW231350   4.234   4.700   0.083
10151SOL     OW31351   5.540   7.016   5.412
10151SOL    HW131352   5.496   6.936   5.451
10151SOL    HW231353   5.494   0.017   5.328
10152SOL     OW31354   5.235   6.360   2.847
10152SOL    HW131355   5.239   6.354   2.947
10152SOL    HW231356   5.196   6.448   2.821
10153SOL     OW31357   4.741   4.290   3.483
10153SOL    HW131358   4.753   4.360   3.553
10153SOL    HW231359   4.652   4.245   3.496
10154SOL     OW31360   5.316   5.528   5.560
10154SOL    HW131361   5.308   5.533   5.461
10154SOL    HW231362   5.413   5.519   5.585
10155SOL     OW31363   4.055   1.504   4.924
10155SOL    HW131364   4.073   1.409   4.952
10155SOL    HW231365   4.133   1.561   4.947
10156SOL     OW31366   5.179   2.213   6.503
10156SOL    HW131367   5.273   2.222   6.470
10156SOL    HW231368   5.170   2.260   6.591
10157SOL     OW31369   0.665   2.685   0.606
10157SOL    HW131370   0.581   2.632   0.611
10157SOL    HW231371   0.645   2.777   0.572
10158SOL     OW31372   5.819   5.316   0.802
10158SOL    HW131373   5.838   5.240   0.864
10158SOL    HW231374   5.721   5.337   0.804
10159SOL     OW31375   3.828   3.415   2.928
10159SOL    HW131376   3.905   3.477   2.915
10159SOL    HW231377   3.742   3.466   2.920
10160SOL     OW31378   1.139   5.158   3.169
10160SOL    HW131379   1.057   5.214   3.171
10160SOL    HW231380   1.163   5.131   3.262
10161SOL     OW31381   5.240   3.358   5.662
10161SOL    HW131382   5.152   3.324   5.694
10161SOL    HW231383   5.276   3.424   5.728
10162SOL     OW31384   1.435   2.980   2.808
10162SOL    HW131385   1.496   3.056   2.785
10162SOL    HW231386   1.345   3.017   2.835
10163SOL     OW31387   1.510   5.770   5.175
10163SOL    HW131388   1.601   5.788   5.214
10163SOL    HW231389   1.492   5.671   5.179
10164SOL     OW31390   1.269   2.236   3.420
10164SOL    HW131391   1.257   2.237   3.321
10164SOL    HW231392   1.297   2.327   3.451
10165SOL     OW31393   0.198   3.656   4.674
10165SOL    HW131394   0.288   3.613   4.685
10165SOL    HW231395   0.127   3.590   4.699
10166SOL     OW31396   1.978   0.762   1.125
10166SOL    HW131397   1.998   0.747   1.222
10166SOL    HW231398   2.063   0.787   1.078
10167SOL     OW31399   2.096   0.108   6.721
10167SOL    HW131400   2.035   0.139   6.648
10167SOL    HW231401   2.174   0.169   6.728
10168SOL     OW31402   6.911   1.266   0.669
10168SOL    HW131403   7.006   1.281   0.696
10168SOL    HW231404   6.898   1.171   0.644
10169SOL     OW31405   6.176   2.829   3.699
10169SOL    HW131406   6.196   2.735   3.727
10169SOL    HW231407   6.087   2.856   3.735
10170SOL     OW31408   5.888   5.837   6.275
10170SOL    HW131409   5.856   5.862   6.367
10170SOL    HW231410   5.986   5.816   6.278
10171SOL     OW31411   2.495   3.759   6.118
10171SOL    HW131412   2.580   3.757   6.065
10171SOL    HW231413   2.447   3.845   6.101
10172SOL     OW31414   6.247   6.844   2.653
10172SOL    HW131415   6.181   6.769   2.653
10172SOL    HW231416   6.340   6.807   2.648
10173SOL     OW31417   3.143   4.416   5.358
10173SOL    HW131418   3.217   4.476   5.388
10173SOL    HW231419   3.083   4.466   5.296
10174SOL     OW31420   4.348   5.805   2.952
10174SOL    HW131421   4.432   5.843   2.911
10174SOL    HW231422   4.302   5.747   2.885
10175SOL     OW31423   0.206   1.306   3.656
10175SOL    HW131424   0.257   1.234   3.703
10175SOL    HW231425   0.175   1.272   3.567
10176SOL     OW31426   5.888   2.024   5.833
10176SOL    HW131427   5.883   2.077   5.918
10176SOL    HW231428   5.826   2.062   5.765
10177SOL     OW31429   2.296   0.430   2.890
10177SOL    HW131430   2.214   0.377   2.912
10177SOL    HW231431   2.286   0.470   2.799
10178SOL     OW31432   1.664   2.088   0.608
10178SOL    HW131433   1.682   2.143   0.690
10178SOL    HW231434   1.704   1.996   0.621
10179SOL     OW31435   1.027   4.346   1.065
10179SOL    HW131436   1.038   4.302   1.155
10179SOL    HW231437   1.021   4.445   1.077
10180SOL     OW31438   4.194   0.225   6.197
10180SOL    HW131439   4.293   0.219   6.185
10180SOL    HW231440   4.149   0.162   6.133
10181SOL     OW31441   6.952   3.301   1.622
10181SOL    HW131442   6.997   3.242   1.555
10181SOL    HW231443   6.990   3.284   1.712
10182SOL     OW31444   5.770   2.367   6.950
10182SOL    HW131445   5.846   2.303   6.962
10182SOL    HW231446   5.756   2.384   6.852
10183SOL     OW31447   6.064   2.307   6.771
10183SOL    HW131448   6.078   2.374   6.844
10183SOL    HW231449   6.138   2.314   6.704
10184SOL     OW31450   5.644   3.546   6.264
10184SOL    HW131451   5.547   3.547   6.238
10184SOL    HW231452   5.696   3.602   6.200
10185SOL     OW31453   3.887   5.816   2.354
10185SOL    HW131454   3.867   5.897   2.408
10185SOL    HW231455   3.809   5.793   2.297
10186SOL     OW31456   3.800   3.347   5.830
10186SOL    HW131457   3.721   3.288   5.815
10186SOL    HW231458   3.769   3.442   5.838
10187SOL     OW31459   1.729   5.749   6.272
10187SOL    HW131460   1.659   5.820   6.277
10187SOL    HW231461   1.789   5.767   6.193
10188SOL     OW31462   2.813   0.460   6.584
10188SOL    HW131463   2.862   0.461   6.671
10188SOL    HW231464   2.717   0.483   6.600
10189SOL     OW31465   1.109   2.021   6.341
10189SOL    HW131466   1.076   2.034   6.247
10189SOL    HW231467   1.186   2.082   6.358
10190SOL     OW31468   2.880   5.571   2.107
10190SOL    HW131469   2.817   5.604   2.037
10190SOL    HW231470   2.892   5.472   2.097
10191SOL     OW31471   5.779   5.497   0.002
10191SOL    HW131472   5.723   5.500   0.084
10191SOL    HW231473   5.867   5.454   0.022
10192SOL     OW31474   1.990   1.586   4.601
10192SOL    HW131475   2.054   1.647   4.648
10192SOL    HW231476   1.985   1.612   4.504
10193SOL     OW31477   3.319   4.017   3.722
10193SOL    HW131478   3.382   4.062   3.786
10193SOL    HW231479   3.225   4.026   3.755
10194SOL     OW31480   3.514   0.139   3.164
10194SOL    HW131481   3.510   0.109   3.259
10194SOL    HW231482   3.605   0.174   3.143
10195SOL     OW31483   3.856   6.379   1.642
10195SOL    HW131484   3.842   6.280   1.655
10195SOL    HW231485   3.770   6.421   1.615
10196SOL     OW31486   6.422   2.002   3.255
10196SOL    HW131487   6.438   1.916   3.206
10196SOL    HW231488   6.462   2.078   3.203
10197SOL     OW31489   5.560   0.504   2.128
10197SOL    HW131490   5.638   0.441   2.127
10197SOL    HW231491   5.491   0.471   2.063
10198SOL     OW31492   2.802   0.087   0.998
10198SOL    HW131493   2.814   7.019   0.966
10198SOL    HW231494   2.735   0.134   0.940
10199SOL     OW31495   0.848   0.890   0.315
10199SOL    HW131496   0.891   0.980   0.305
10199SOL    HW231497   0.788   0.873   0.237
10200SOL     OW31498   5.016   4.482   4.863
10200SOL    HW131499   5.105   4.468   4.818
10200SOL    HW231500   4.970   4.560   4.821
10201SOL     OW31501   1.372   4.786   2.319
10201SOL    HW131502   1.458   4.785   2.371
10201SOL    HW231503   1.335   4.694   2.314
10202SOL     OW31504   1.354   3.261   2.511
10202SOL    HW131505   1.294   3.301   2.441
10202SOL    HW231506   1.331   3.165   2.523
10203SOL     OW31507   2.320   2.844   2.349
10203SOL    HW131508   2.339   2.766   2.409
10203SOL    HW231509   2.265   2.911   2.399
10204SOL     OW31510   3.041   4.738   5.281
10204SOL    HW131511   2.976   4.793   5.335
10204SOL    HW231512   2.995   4.657   5.245
10205SOL     OW31513   5.006   2.383   3.167
10205SOL    HW131514   4.918   2.385   3.214
10205SOL    HW231515   4.992   2.403   3.070
10206SOL     OW31516   5.286   6.758   5.920
10206SOL    HW131517   5.355   6.809   5.868
10206SOL    HW231518   5.307   6.763   6.017
10207SOL     OW31519   3.749   0.773   2.570
10207SOL    HW131520   3.834   0.826   2.568
10207SOL    HW231521   3.770   0.677   2.586
10208SOL     OW31522   6.321   4.247   5.474
10208SOL    HW131523   6.340   4.200   5.388
10208SOL    HW231524   6.341   4.345   5.463
10209SOL     OW31525   6.214   6.957   6.131
10209SOL    HW131526   6.284   7.019   6.168
10209SOL    HW231527   6.257   6.870   6.106
10210SOL     OW31528   4.924   6.024   2.236
10210SOL    HW131529   5.002   6.020   2.298
10210SOL    HW231530   4.844   6.057   2.287
10211SOL     OW31531   3.937   5.854   4.812
10211SOL    HW131532   3.887   5.834   4.728
10211SOL    HW231533   4.027   5.893   4.788
10212SOL     OW31534   0.064   0.904   4.804
10212SOL    HW131535   0.124   0.983   4.817
10212SOL    HW231536   0.055   0.855   4.891
10213SOL     OW31537   6.512   1.413   3.075
10213SOL    HW131538   6.418   1.385   3.095
10213SOL    HW231539   6.575   1.358   3.130
10214SOL     OW31540   6.749   0.980   1.703
10214SOL    HW131541   6.836   1.009   1.743
10214SOL    HW231542   6.674   1.031   1.746
10215SOL     OW31543   3.724   4.113   6.408
10215SOL    HW131544   3.687   4.077   6.323
10215SOL    HW231545   3.815   4.074   6.425
10216SOL     OW31546   5.328   0.891   1.869
10216SOL    HW131547   5.274   0.879   1.953
10216SOL    HW231548   5.353   0.801   1.833
10217SOL     OW31549   2.352   1.829   4.913
10217SOL    HW131550   2.328   1.804   5.007
10217SOL    HW231551   2.425   1.770   4.880
10218SOL     OW31552   2.004   1.134   0.946
10218SOL    HW131553   1.940   1.118   1.021
10218SOL    HW231554   1.954   1.157   0.863
10219SOL     OW31555   0.889   3.018   1.765
10219SOL    HW131556   0.968   2.979   1.716
10219SOL    HW231557   0.920   3.091   1.825
10220SOL     OW31558   4.550   1.833   1.129
10220SOL    HW131559   4.458   1.874   1.134
10220SOL    HW231560   4.589   1.851   1.039
10221SOL     OW31561   3.070   0.385   5.002
10221SOL    HW131562   3.127   0.445   4.946
10221SOL    HW231563   2.984   0.432   5.024
10222SOL     OW31564   1.878   5.012   5.571
10222SOL    HW131565   1.898   4.918   5.599
10222SOL    HW231566   1.842   5.063   5.650
10223SOL     OW31567   1.347   4.251   0.085
10223SOL    HW131568   1.381   4.213   0.171
10223SOL    HW231569   1.248   4.238   0.080
10224SOL     OW31570   1.345   0.215   4.231
10224SOL    HW131571   1.268   0.278   4.233
10224SOL    HW231572   1.406   0.235   4.308
10225SOL     OW31573   6.836   5.502   4.707
10225SOL    HW131574   6.778   5.428   4.740
10225SOL    HW231575   6.917   5.510   4.766
10226SOL     OW31576   1.850   1.176   0.108
10226SOL    HW131577   1.817   1.086   0.080
10226SOL    HW231578   1.938   1.195   0.065
10227SOL     OW31579   4.999   5.330   6.920
10227SOL    HW131580   4.960   5.355   7.009
10227SOL    HW231581   4.936   5.269   6.872
10228SOL     OW31582   1.134   5.553   3.257
10228SOL    HW131583   1.123   5.653   3.259
10228SOL    HW231584   1.097   5.513   3.340
10229SOL     OW31585   1.019   0.213   3.090
10229SOL    HW131586   1.103   0.231   3.038
10229SOL    HW231587   0.950   0.280   3.065
10230SOL     OW31588   6.751   0.673   3.566
10230SOL    HW131589   6.823   0.673   3.636
10230SOL    HW231590   6.681   0.740   3.590
10231SOL     OW31591   5.633   0.214   5.053
10231SOL    HW131592   5.727   0.183   5.038
10231SOL    HW231593   5.633   0.294   5.112
10232SOL     OW31594   3.347   2.100   4.885
10232SOL    HW131595   3.444   2.120   4.897
10232SOL    HW231596   3.293   2.170   4.932
10233SOL     OW31597   4.664   1.694   5.637
10233SOL    HW131598   4.734   1.641   5.683
10233SOL    HW231599   4.585   1.706   5.698
10234SOL     OW31600   5.525   0.122   1.818
10234SOL    HW131601   5.493   0.158   1.731
10234SOL    HW231602   5.482   0.033   1.836
10235SOL     OW31603   5.463   1.248   6.916
10235SOL    HW131604   5.517   1.297   6.984
10235SOL    HW231605   5.499   1.269   6.824
10236SOL     OW31606   1.977   5.855   1.914
10236SOL    HW131607   2.019   5.795   1.981
10236SOL    HW231608   1.915   5.919   1.960
10237SOL     OW31609   6.323   3.502   2.235
10237SOL    HW131610   6.267   3.576   2.198
10237SOL    HW231611   6.264   3.433   2.277
10238SOL     OW31612   4.607   4.887   4.657
10238SOL    HW131613   4.574   4.897   4.751
10238SOL    HW231614   4.550   4.821   4.608
10239SOL     OW31615   0.183   3.922   4.124
10239SOL    HW131616   0.091   3.962   4.134
10239SOL    HW231617   0.252   3.992   4.143
10240SOL     OW31618   0.942   3.673   3.674
10240SOL    HW131619   0.942   3.595   3.612
10240SOL    HW231620   1.032   3.682   3.717
10241SOL     OW31621   1.075   1.776   2.085
10241SOL    HW131622   1.105   1.681   2.095
10241SOL    HW231623   0.976   1.779   2.077
10242SOL     OW31624   0.017   0.907   6.394
10242SOL    HW131625   0.037   0.812   6.373
10242SOL    HW231626   0.099   0.963   6.380
10243SOL     OW31627   0.682   5.578   1.907
10243SOL    HW131628   0.749   5.552   1.837
10243SOL    HW231629   0.695   5.521   1.988
10244SOL     OW31630   1.944   5.771   6.700
10244SOL    HW131631   1.968   5.804   6.791
10244SOL    HW231632   2.026   5.759   6.646
10245SOL     OW31633   2.252   2.625   6.128
10245SOL    HW131634   2.266   2.594   6.034
10245SOL    HW231635   2.245   2.724   6.130
10246SOL     OW31636   3.087   4.054   5.153
10246SOL    HW131637   3.118   4.018   5.065
10246SOL    HW231638   3.146   4.020   5.226
10247SOL     OW31639   6.908   5.195   5.861
10247SOL    HW131640   6.948   5.104   5.843
10247SOL    HW231641   6.981   5.258   5.890
10248SOL     OW31642   2.710   0.038   1.983
10248SOL    HW131643   2.706   6.994   1.911
10248SOL    HW231644   2.623   0.041   2.031
10249SOL     OW31645   4.849   1.482   5.721
10249SOL    HW131646   4.924   1.535   5.683
10249SOL    HW231647   4.861   1.385   5.697
10250SOL     OW31648   6.295   1.126   0.648
10250SOL    HW131649   6.342   1.201   0.694
10250SOL    HW231650   6.297   1.141   0.549
10251SOL     OW31651   2.610   3.280   6.767
10251SOL    HW131652   2.565   3.221   6.835
10251SOL    HW231653   2.689   3.325   6.809
10252SOL     OW31654   5.855   6.067   1.051
10252SOL    HW131655   5.943   6.042   1.009
10252SOL    HW231656   5.852   6.032   1.145
10253SOL     OW31657   4.830   5.124   6.875
10253SOL    HW131658   4.734   5.095   6.868
10253SOL    HW231659   4.864   5.102   6.966
10254SOL     OW31660   2.575   1.783   5.193
10254SOL    HW131661   2.481   1.816   5.200
10254SOL    HW231662   2.626   1.838   5.127
10255SOL     OW31663   2.605   5.657   2.457
10255SOL    HW131664   2.583   5.748   2.421
10255SOL    HW231665   2.578   5.653   2.554
10256SOL     OW31666   5.124   0.756   0.090
10256SOL    HW131667   5.067   0.677   0.067
10256SOL    HW231668   5.066   0.835   0.106
10257SOL     OW31669   1.368   5.634   5.970
10257SOL    HW131670   1.280   5.601   6.007
10257SOL    HW231671   1.442   5.601   6.028
10258SOL     OW31672   4.376   6.801   3.307
10258SOL    HW131673   4.317   6.723   3.327
10258SOL    HW231674   4.356   6.835   3.215
10259SOL     OW31675   0.117   3.759   3.896
10259SOL    HW131676   0.135   3.767   3.798
10259SOL    HW231677   0.172   3.825   3.946
10260SOL     OW31678   1.060   0.128   2.128
10260SOL    HW131679   1.148   0.082   2.140
10260SOL    HW231680   1.003   0.075   2.065
10261SOL     OW31681   0.951   5.968   2.030
10261SOL    HW131682   0.889   5.976   1.952
10261SOL    HW231683   1.011   5.889   2.017
10262SOL     OW31684   2.856   4.795   4.591
10262SOL    HW131685   2.826   4.728   4.524
10262SOL    HW231686   2.812   4.883   4.572
10263SOL     OW31687   5.477   1.531   5.618
10263SOL    HW131688   5.527   1.592   5.557
10263SOL    HW231689   5.391   1.575   5.645
10264SOL     OW31690   6.248   0.958   6.185
10264SOL    HW131691   6.210   0.873   6.221
10264SOL    HW231692   6.174   1.019   6.157
10265SOL     OW31693   3.691   1.496   3.039
10265SOL    HW131694   3.607   1.509   3.092
10265SOL    HW231695   3.678   1.424   2.971
10266SOL     OW31696   3.211   4.117   6.616
10266SOL    HW131697   3.254   4.094   6.703
10266SOL    HW231698   3.113   4.126   6.629
10267SOL     OW31699   0.153   2.326   6.775
10267SOL    HW131700   0.210   2.334   6.693
10267SOL    HW231701   0.132   2.417   6.811
10268SOL     OW31702   5.092   5.357   1.715
10268SOL    HW131703   5.147   5.321   1.790
10268SOL    HW231704   5.003   5.311   1.714
10269SOL     OW31705   2.254   2.582   6.565
10269SOL    HW131706   2.339   2.551   6.606
10269SOL    HW231707   2.197   2.503   6.542
10270SOL     OW31708   1.998   5.916   0.673
10270SOL    HW131709   2.035   5.938   0.763
10270SOL    HW231710   1.936   5.838   0.680
10271SOL     OW31711   3.958   3.957   1.439
10271SOL    HW131712   3.986   3.901   1.361
10271SOL    HW231713   3.928   3.897   1.513
10272SOL     OW31714   0.418   0.649   4.632
10272SOL    HW131715   0.470   0.604   4.704
10272SOL    HW231716   0.440   0.607   4.544
10273SOL     OW31717   3.987   5.550   4.501
10273SOL    HW131718   3.891   5.527   4.489
10273SOL    HW231719   4.043   5.467   4.494
10274SOL     OW31720   1.132   4.796   5.674
10274SOL    HW131721   1.131   4.829   5.580
10274SOL    HW231722   1.192   4.716   5.680
10275SOL     OW31723   0.589   6.738   3.332
10275SOL    HW131724   0.597   6.744   3.232
10275SOL    HW231725   0.505   6.688   3.355
10276SOL     OW31726   7.024   5.125   5.262
10276SOL    HW131727   6.955   5.082   5.203
10276SOL    HW231728   6.979   5.167   5.340
10277SOL     OW31729   2.960   6.726   4.461
10277SOL    HW131730   3.059   6.736   4.469
10277SOL    HW231731   2.937   6.630   4.443
10278SOL     OW31732   5.874   0.198   6.245
10278SOL    HW131733   5.948   0.134   6.268
10278SOL    HW231734   5.842   0.242   6.329
10279SOL     OW31735   2.891   0.462   4.387
10279SOL    HW131736   2.965   0.519   4.350
10279SOL    HW231737   2.803   0.494   4.352
10280SOL     OW31738   1.718   3.900   0.573
10280SOL    HW131739   1.720   3.880   0.670
10280SOL    HW231740   1.791   3.965   0.551
10281SOL     OW31741   4.792   1.133   3.301
10281SOL    HW131742   4.892   1.142   3.305
10281SOL    HW231743   4.752   1.220   3.271
10282SOL     OW31744   0.877   1.968   4.038
10282SOL    HW131745   0.829   1.881   4.049
10282SOL    HW231746   0.971   1.951   4.009
10283SOL     OW31747   1.236   3.454   0.763
10283SOL    HW131748   1.150   3.403   0.774
10283SOL    HW231749   1.293   3.407   0.696
10284SOL     OW31750   5.535   3.301   5.610
10284SOL    HW131751   5.597   3.344   5.545
10284SOL    HW231752   5.442   3.300   5.572
10285SOL     OW31753   5.094   0.869   0.594
10285SOL    HW131754   5.097   0.884   0.495
10285SOL    HW231755   5.049   0.782   0.613
10286SOL     OW31756   4.374   0.528   3.177
10286SOL    HW131757   4.463   0.572   3.185
10286SOL    HW231758   4.308   0.575   3.236
10287SOL     OW31759   2.031   6.997   1.792
10287SOL    HW131760   1.967   6.931   1.831
10287SOL    HW231761   2.063   0.034   1.863
10288SOL     OW31762   6.003   5.947   3.442
10288SOL    HW131763   5.979   5.996   3.358
10288SOL    HW231764   6.103   5.940   3.448
10289SOL     OW31765   3.197   1.330   1.526
10289SOL    HW131766   3.264   1.394   1.564
10289SOL    HW231767   3.111   1.339   1.576
10290SOL     OW31768   3.870   3.236   3.127
10290SOL    HW131769   3.859   3.313   3.064
10290SOL    HW231770   3.958   3.245   3.175
10291SOL     OW31771   3.520   0.687   4.807
10291SOL    HW131772   3.548   0.606   4.857
10291SOL    HW231773   3.543   0.769   4.861
10292SOL     OW31774   0.819   1.123   4.606
10292SOL    HW131775   0.848   1.211   4.643
10292SOL    HW231776   0.899   1.067   4.585
10293SOL     OW31777   2.289   6.309   3.249
10293SOL    HW131778   2.270   6.299   3.347
10293SOL    HW231779   2.265   6.225   3.201
10294SOL     OW31780   5.332   1.485   3.207
10294SOL    HW131781   5.280   1.526   3.133
10294SOL    HW231782   5.324   1.543   3.289
10295SOL     OW31783   0.460   5.122   6.046
10295SOL    HW131784   0.511   5.178   5.980
10295SOL    HW231785   0.524   5.085   6.113
10296SOL     OW31786   6.685   3.659   0.003
10296SOL    HW131787   6.715   3.642   6.935
10296SOL    HW231788   6.586   3.651   0.008
10297SOL     OW31789   1.086   5.471   4.472
10297SOL    HW131790   1.067   5.395   4.409
10297SOL    HW231791   1.000   5.513   4.500
10298SOL     OW31792   5.386   4.210   3.888
10298SOL    HW131793   5.425   4.160   3.811
10298SOL    HW231794   5.335   4.289   3.853
10299SOL     OW31795   4.310   4.618   3.481
10299SOL    HW131796   4.383   4.594   3.416
10299SOL    HW231797   4.223   4.625   3.431
10300SOL     OW31798   0.781   3.777   2.649
10300SOL    HW131799   0.849   3.769   2.721
10300SOL    HW231800   0.734   3.689   2.638
10301SOL     OW31801   5.998   1.150   2.569
10301SOL    HW131802   6.000   1.197   2.481
10301SOL    HW231803   6.091   1.142   2.605
10302SOL     OW31804   1.500   5.717   2.837
10302SOL    HW131805   1.499   5.626   2.879
10302SOL    HW231806   1.407   5.753   2.832
10303SOL     OW31807   4.273   3.865   0.877
10303SOL    HW131808   4.369   3.869   0.908
10303SOL    HW231809   4.226   3.790   0.923
10304SOL     OW31810   0.018   6.846   2.855
10304SOL    HW131811   6.959   6.819   2.902
10304SOL    HW231812   0.010   6.940   2.825
10305SOL     OW31813   1.301   5.681   6.817
10305SOL    HW131814   1.366   5.756   6.801
10305SOL    HW231815   1.322   5.606   6.755
10306SOL     OW31816   4.094   5.650   0.198
10306SOL    HW131817   4.146   5.637   0.113
10306SOL    HW231818   4.145   5.610   0.274
10307SOL     OW31819   1.832   1.229   6.541
10307SOL    HW131820   1.776   1.175   6.605
10307SOL    HW231821   1.875   1.305   6.591
10308SOL     OW31822   3.107   6.044   3.553
10308SOL    HW131823   3.062   6.011   3.469
10308SOL    HW231824   3.180   6.107   3.528
10309SOL     OW31825   0.212   6.623   2.768
10309SOL    HW131826   0.303   6.661   2.784
10309SOL    HW231827   0.146   6.698   2.761
10310SOL     OW31828   3.562   3.571   2.915
10310SOL    HW131829   3.521   3.485   2.885
10310SOL    HW231830   3.499   3.647   2.895
10311SOL     OW31831   0.585   5.370   0.219
10311SOL    HW131832   0.516   5.428   0.262
10311SOL    HW231833   0.665   5.364   0.277
10312SOL     OW31834   2.457   4.532   0.389
10312SOL    HW131835   2.496   4.494   0.473
10312SOL    HW231836   2.515   4.508   0.312
10313SOL     OW31837   4.942   0.467   2.559
10313SOL    HW131838   4.930   0.533   2.484
10313SOL    HW231839   5.020   0.408   2.538
10314SOL     OW31840   5.965   6.574   0.769
10314SOL    HW131841   5.965   6.545   0.674
10314SOL    HW231842   5.874   6.606   0.795
10315SOL     OW31843   6.075   5.828   4.793
10315SOL    HW131844   6.123   5.818   4.705
10315SOL    HW231845   5.979   5.847   4.776
10316SOL     OW31846   0.473   3.814   4.090
10316SOL    HW131847   0.492   3.903   4.132
10316SOL    HW231848   0.418   3.827   4.008
10317SOL     OW31849   4.362   5.380   6.865
10317SOL    HW131850   4.345   5.281   6.874
10317SOL    HW231851   4.460   5.396   6.856
10318SOL     OW31852   5.730   5.239   1.686
10318SOL    HW131853   5.765   5.332   1.699
10318SOL    HW231854   5.710   5.198   1.775
10319SOL     OW31855   6.628   5.749   3.694
10319SOL    HW131856   6.548   5.806   3.675
10319SOL    HW231857   6.635   5.677   3.626
10320SOL     OW31858   6.558   6.549   1.277
10320SOL    HW131859   6.629   6.511   1.337
10320SOL    HW231860   6.548   6.491   1.197
10321SOL     OW31861   4.652   5.581   4.116
10321SOL    HW131862   4.739   5.609   4.157
10321SOL    HW231863   4.623   5.494   4.156
10322SOL     OW31864   6.206   4.017   0.627
10322SOL    HW131865   6.298   4.041   0.598
10322SOL    HW231866   6.143   4.093   0.605
10323SOL     OW31867   5.147   3.016   5.993
10323SOL    HW131868   5.246   3.022   5.978
10323SOL    HW231869   5.115   3.098   6.040
10324SOL     OW31870   3.452   3.105   3.437
10324SOL    HW131871   3.461   3.168   3.515
10324SOL    HW231872   3.355   3.097   3.412
10325SOL     OW31873   0.474   2.630   2.926
10325SOL    HW131874   0.486   2.532   2.911
10325SOL    HW231875   0.376   2.652   2.924
10326SOL     OW31876   5.408   2.514   0.344
10326SOL    HW131877   5.320   2.527   0.298
10326SOL    HW231878   5.393   2.491   0.440
10327SOL     OW31879   0.385   0.476   3.214
10327SOL    HW131880   0.361   0.572   3.195
10327SOL    HW231881   0.317   0.416   3.172
10328SOL     OW31882   5.632   3.365   2.396
10328SOL    HW131883   5.591   3.452   2.424
10328SOL    HW231884   5.595   3.291   2.453
10329SOL     OW31885   3.177   6.878   3.007
10329SOL    HW131886   3.141   6.960   3.051
10329SOL    HW231887   3.118   6.800   3.029
10330SOL     OW31888   4.062   5.221   1.788
10330SOL    HW131889   4.092   5.161   1.862
10330SOL    HW231890   3.963   5.215   1.778
10331SOL     OW31891   5.333   0.820   3.347
10331SOL    HW131892   5.409   0.882   3.326
10331SOL    HW231893   5.356   0.728   3.317
10332SOL     OW31894   6.899   2.292   6.103
10332SOL    HW131895   6.917   2.246   6.190
10332SOL    HW231896   6.823   2.246   6.057
10333SOL     OW31897   5.853   5.494   4.194
10333SOL    HW131898   5.822   5.525   4.103
10333SOL    HW231899   5.820   5.401   4.210
10334SOL     OW31900   2.076   4.572   4.445
10334SOL    HW131901   1.999   4.633   4.426
10334SOL    HW231902   2.161   4.617   4.417
10335SOL     OW31903   1.558   5.271   1.341
10335SOL    HW131904   1.459   5.256   1.336
10335SOL    HW231905   1.606   5.196   1.295
10336SOL     OW31906   4.045   6.181   2.255
10336SOL    HW131907   4.114   6.150   2.189
10336SOL    HW231908   4.067   6.274   2.284
10337SOL     OW31909   1.011   5.066   4.872
10337SOL    HW131910   1.058   5.090   4.787
10337SOL    HW231911   0.978   4.971   4.866
10338SOL     OW31912   2.764   6.211   2.935
10338SOL    HW131913   2.825   6.278   2.976
10338SOL    HW231914   2.707   6.170   3.006
10339SOL     OW31915   2.613   6.373   1.499
10339SOL    HW131916   2.694   6.329   1.536
10339SOL    HW231917   2.608   6.355   1.400
10340SOL     OW31918   1.774   6.918   0.244
10340SOL    HW131919   1.728   6.856   0.180
10340SOL    HW231920   1.873   6.916   0.227
10341SOL     OW31921   1.945   1.721   2.484
10341SOL    HW131922   1.941   1.781   2.405
10341SOL    HW231923   2.019   1.750   2.545
10342SOL     OW31924   2.450   0.275   4.759
10342SOL    HW131925   2.494   0.362   4.781
10342SOL    HW231926   2.485   0.204   4.820
10343SOL     OW31927   2.823   3.679   6.370
10343SOL    HW131928   2.868   3.636   6.449
10343SOL    HW231929   2.738   3.722   6.399
10344SOL     OW31930   4.181   3.672   5.040
10344SOL    HW131931   4.194   3.610   5.117
10344SOL    HW231932   4.248   3.746   5.045
10345SOL     OW31933   2.159   1.524   6.559
10345SOL    HW131934   2.149   1.620   6.531
10345SOL    HW231935   2.174   1.468   6.477
10346SOL     OW31936   5.124   6.621   0.276
10346SOL    HW131937   5.132   6.715   0.306
10346SOL    HW231938   5.041   6.610   0.220
10347SOL     OW31939   5.917   1.827   1.601
10347SOL    HW131940   6.000   1.854   1.551
10347SOL    HW231941   5.844   1.805   1.536
10348SOL     OW31942   0.219   0.408   5.723
10348SOL    HW131943   0.290   0.470   5.692
10348SOL    HW231944   0.166   0.450   5.796
10349SOL     OW31945   6.881   1.644   1.613
10349SOL    HW131946   6.848   1.694   1.534
10349SOL    HW231947   6.868   1.546   1.599
10350SOL     OW31948   2.597   5.184   4.331
10350SOL    HW131949   2.562   5.091   4.347
10350SOL    HW231950   2.581   5.209   4.236
10351SOL     OW31951   5.737   4.918   5.239
10351SOL    HW131952   5.668   4.960   5.180
10351SOL    HW231953   5.700   4.906   5.331
10352SOL     OW31954   6.051   2.088   0.273
10352SOL    HW131955   6.126   2.032   0.310
10352SOL    HW231956   6.087   2.174   0.239
10353SOL     OW31957   6.708   2.721   3.562
10353SOL    HW131958   6.786   2.755   3.615
10353SOL    HW231959   6.740   2.651   3.498
10354SOL     OW31960   0.572   3.357   0.383
10354SOL    HW131961   0.484   3.396   0.411
10354SOL    HW231962   0.641   3.377   0.452
10355SOL     OW31963   1.241   0.383   1.198
10355SOL    HW131964   1.151   0.400   1.157
10355SOL    HW231965   1.312   0.397   1.129
10356SOL     OW31966   6.814   4.063   6.571
10356SOL    HW131967   6.865   4.032   6.491
10356SOL    HW231968   6.819   3.994   6.643
10357SOL     OW31969   0.940   2.996   6.094
10357SOL    HW131970   0.983   3.077   6.055
10357SOL    HW231971   0.885   3.022   6.174
10358SOL     OW31972   1.068   2.446   2.431
10358SOL    HW131973   1.021   2.480   2.513
10358SOL    HW231974   1.160   2.484   2.427
10359SOL     OW31975   6.083   2.068   2.299
10359SOL    HW131976   6.108   2.040   2.391
10359SOL    HW231977   6.098   2.167   2.289
10360SOL     OW31978   5.929   4.645   2.393
10360SOL    HW131979   5.870   4.586   2.449
10360SOL    HW231980   5.899   4.740   2.403
10361SOL     OW31981   0.665   1.582   1.367
10361SOL    HW131982   0.639   1.547   1.457
10361SOL    HW231983   0.679   1.505   1.305
10362SOL     OW31984   1.254   4.794   2.719
10362SOL    HW131985   1.287   4.835   2.804
10362SOL    HW231986   1.208   4.708   2.740
10363SOL     OW31987   5.236   4.169   0.767
10363SOL    HW131988   5.190   4.213   0.845
10363SOL    HW231989   5.169   4.113   0.717
10364SOL     OW31990   5.990   4.235   2.235
10364SOL    HW131991   5.952   4.313   2.186
10364SOL    HW231992   6.086   4.223   2.211
10365SOL     OW31993   6.294   6.029   0.198
10365SOL    HW131994   6.342   6.017   0.285
10365SOL    HW231995   6.212   5.971   0.196
10366SOL     OW31996   3.070   6.256   3.325
10366SOL    HW131997   3.154   6.203   3.312
10366SOL    HW231998   2.992   6.194   3.330
10367SOL     OW31999   6.344   1.967   0.798
10367SOL    HW132000   6.355   2.034   0.871
10367SOL    HW232001   6.303   2.011   0.718
10368SOL     OW32002   2.241   5.933   1.847
10368SOL    HW132003   2.141   5.935   1.836
10368SOL    HW232004   2.267   5.846   1.889
10369SOL     OW32005   3.533   6.808   5.892
10369SOL    HW132006   3.619   6.761   5.911
10369SOL    HW232007   3.472   6.798   5.971
10370SOL     OW32008   0.548   1.022   4.653
10370SOL    HW132009   0.639   1.017   4.613
10370SOL    HW232010   0.532   1.114   4.688
10371SOL     OW32011   3.144   5.633   3.432
10371SOL    HW132012   3.061   5.601   3.386
10371SOL    HW232013   3.208   5.669   3.363
10372SOL     OW32014   2.658   6.967   1.564
10372SOL    HW132015   2.560   6.962   1.546
10372SOL    HW232016   2.679   6.915   1.647
10373SOL     OW32017   6.871   1.744   5.512
10373SOL    HW132018   6.914   1.804   5.444
10373SOL    HW232019   6.854   1.654   5.471
10374SOL     OW32020   3.306   6.782   4.751
10374SOL    HW132021   3.229   6.747   4.804
10374SOL    HW232022   3.274   6.816   4.662
10375SOL     OW32023   3.457   3.453   0.233
10375SOL    HW132024   3.467   3.524   0.303
10375SOL    HW232025   3.360   3.433   0.221
10376SOL     OW32026   2.238   5.251   2.703
10376SOL    HW132027   2.312   5.309   2.738
10376SOL    HW232028   2.151   5.282   2.740
10377SOL     OW32029   1.161   1.193   2.509
10377SOL    HW132030   1.119   1.147   2.431
10377SOL    HW232031   1.104   1.270   2.538
10378SOL     OW32032   6.672   4.700   5.625
10378SOL    HW132033   6.766   4.723   5.647
10378SOL    HW232034   6.654   4.721   5.529
10379SOL     OW32035   2.267   6.592   4.527
10379SOL    HW132036   2.274   6.671   4.587
10379SOL    HW232037   2.272   6.621   4.432
10380SOL     OW32038   1.536   2.536   4.556
10380SOL    HW132039   1.442   2.510   4.582
10380SOL    HW232040   1.588   2.558   4.638
10381SOL     OW32041   4.306   4.513   1.382
10381SOL    HW132042   4.365   4.566   1.321
10381SOL    HW232043   4.314   4.548   1.476
10382SOL     OW32044   2.983   4.410   1.300
10382SOL    HW132045   2.971   4.501   1.340
10382SOL    HW232046   3.041   4.416   1.219
10383SOL     OW32047   1.663   4.634   0.404
10383SOL    HW132048   1.736   4.689   0.445
10383SOL    HW232049   1.696   4.594   0.318
10384SOL     OW32050   5.767   6.845   1.591
10384SOL    HW132051   5.758   6.934   1.545
10384SOL    HW232052   5.821   6.857   1.675
10385SOL     OW32053   3.711   4.788   6.274
10385SOL    HW132054   3.612   4.790   6.262
10385SOL    HW232055   3.745   4.695   6.261
10386SOL     OW32056   0.064   0.631   6.584
10386SOL    HW132057   0.036   0.640   6.488
10386SOL    HW232058   0.093   0.721   6.618
10387SOL     OW32059   4.909   2.757   2.756
10387SOL    HW132060   4.999   2.777   2.794
10387SOL    HW232061   4.908   2.780   2.659
10388SOL     OW32062   2.867   0.434   5.753
10388SOL    HW132063   2.925   0.394   5.682
10388SOL    HW232064   2.818   0.362   5.800
10389SOL     OW32065   0.711   3.471   0.180
10389SOL    HW132066   0.725   3.557   0.229
10389SOL    HW232067   0.661   3.407   0.238
10390SOL     OW32068   2.676   2.416   0.905
10390SOL    HW132069   2.710   2.386   0.816
10390SOL    HW232070   2.576   2.420   0.904
10391SOL     OW32071   0.153   6.739   4.043
10391SOL    HW132072   0.126   6.647   4.071
10391SOL    HW232073   0.151   6.746   3.943
10392SOL     OW32074   6.559   4.984   4.616
10392SOL    HW132075   6.575   5.080   4.593
10392SOL    HW232076   6.603   4.926   4.547
10393SOL     OW32077   1.702   3.982   3.843
10393SOL    HW132078   1.737   4.073   3.862
10393SOL    HW232079   1.617   3.968   3.892
10394SOL     OW32080   3.464   5.962   3.966
10394SOL    HW132081   3.416   5.974   4.053
10394SOL    HW232082   3.404   5.916   3.901
10395SOL     OW32083   6.382   6.481   0.691
10395SOL    HW132084   6.302   6.422   0.698
10395SOL    HW232085   6.360   6.572   0.727
10396SOL     OW32086   3.043   2.082   4.454
10396SOL    HW132087   3.110   2.147   4.418
10396SOL    HW232088   2.971   2.066   4.386
10397SOL     OW32089   3.067   2.170   2.261
10397SOL    HW132090   3.100   2.105   2.193
10397SOL    HW232091   3.062   2.261   2.220
10398SOL     OW32092   0.268   3.450   1.533
10398SOL    HW132093   0.194   3.438   1.468
10398SOL    HW232094   0.356   3.450   1.485
10399SOL     OW32095   5.943   2.534   2.490
10399SOL    HW132096   5.855   2.554   2.448
10399SOL    HW232097   5.929   2.494   2.580
10400SOL     OW32098   4.326   0.123   0.162
10400SOL    HW132099   4.338   0.024   0.172
10400SOL    HW232100   4.231   0.147   0.182
10401SOL     OW32101   6.972   0.711   3.793
10401SOL    HW132102   7.024   0.788   3.757
10401SOL    HW232103   6.916   0.741   3.869
10402SOL     OW32104   5.900   2.930   4.855
10402SOL    HW132105   5.853   2.926   4.767
10402SOL    HW232106   5.942   3.019   4.867
10403SOL     OW32107   3.291   0.606   3.155
10403SOL    HW132108   3.347   0.646   3.083
10403SOL    HW232109   3.199   0.643   3.150
10404SOL     OW32110   6.143   0.191   5.481
10404SOL    HW132111   6.106   0.193   5.387
10404SOL    HW232112   6.158   0.285   5.513
10405SOL     OW32113   1.182   1.871   5.768
10405SOL    HW132114   1.096   1.898   5.725
10405SOL    HW232115   1.213   1.784   5.728
10406SOL     OW32116   3.046   4.760   2.108
10406SOL    HW132117   3.087   4.811   2.032
10406SOL    HW232118   2.975   4.700   2.073
10407SOL     OW32119   3.510   5.676   5.417
10407SOL    HW132120   3.444   5.642   5.350
10407SOL    HW232121   3.486   5.642   5.508
10408SOL     OW32122   4.792   1.707   0.553
10408SOL    HW132123   4.861   1.751   0.610
10408SOL    HW232124   4.735   1.776   0.510
10409SOL     OW32125   0.002   4.686   0.785
10409SOL    HW132126   6.961   4.622   0.825
10409SOL    HW232127   6.997   4.780   0.801
10410SOL     OW32128   5.531   1.693   6.940
10410SOL    HW132129   5.570   1.602   6.926
10410SOL    HW232130   5.486   1.697   0.003
10411SOL     OW32131   3.308   6.247   2.892
10411SOL    HW132132   3.349   6.206   2.974
10411SOL    HW232133   3.347   6.338   2.877
10412SOL     OW32134   6.291   0.725   0.618
10412SOL    HW132135   6.226   0.653   0.595
10412SOL    HW232136   6.288   0.744   0.716
10413SOL     OW32137   0.158   2.181   1.294
10413SOL    HW132138   0.203   2.245   1.357
10413SOL    HW232139   0.098   2.121   1.346
10414SOL     OW32140   4.469   4.182   5.554
10414SOL    HW132141   4.458   4.280   5.571
10414SOL    HW232142   4.463   4.132   5.641
10415SOL     OW32143   0.215   4.758   5.713
10415SOL    HW132144   0.286   4.769   5.643
10415SOL    HW232145   0.245   4.691   5.781
10416SOL     OW32146   6.896   1.439   3.054
10416SOL    HW132147   6.956   1.377   3.002
10416SOL    HW232148   6.846   1.497   2.990
10417SOL     OW32149   4.086   5.269   4.459
10417SOL    HW132150   4.117   5.229   4.372
10417SOL    HW232151   4.160   5.265   4.526
10418SOL     OW32152   0.123   4.454   5.349
10418SOL    HW132153   0.059   4.527   5.376
10418SOL    HW232154   0.175   4.424   5.429
10419SOL     OW32155   1.246   0.282   0.014
10419SOL    HW132156   1.171   0.223   0.043
10419SOL    HW232157   1.257   0.276   6.940
10420SOL     OW32158   6.713   3.114   2.326
10420SOL    HW132159   6.655   3.136   2.248
10420SOL    HW232160   6.686   3.168   2.405
10421SOL     OW32161   0.701   1.916   3.222
10421SOL    HW132162   0.732   1.860   3.145
10421SOL    HW232163   0.769   1.913   3.295
10422SOL     OW32164   6.350   2.297   5.759
10422SOL    HW132165   6.372   2.309   5.856
10422SOL    HW232166   6.251   2.286   5.748
10423SOL     OW32167   5.170   5.021   4.775
10423SOL    HW132168   5.095   4.974   4.728
10423SOL    HW232169   5.191   5.107   4.727
10424SOL     OW32170   5.530   2.873   0.612
10424SOL    HW132171   5.590   2.884   0.691
10424SOL    HW232172   5.501   2.963   0.579
10425SOL     OW32173   2.400   6.423   2.100
10425SOL    HW132174   2.319   6.365   2.092
10425SOL    HW232175   2.459   6.388   2.172
10426SOL     OW32176   6.421   3.779   0.493
10426SOL    HW132177   6.352   3.731   0.548
10426SOL    HW232178   6.386   3.794   0.401
10427SOL     OW32179   4.267   1.518   0.608
10427SOL    HW132180   4.226   1.439   0.654
10427SOL    HW232181   4.256   1.509   0.509
10428SOL     OW32182   3.357   1.804   4.881
10428SOL    HW132183   3.318   1.895   4.895
10428SOL    HW232184   3.297   1.735   4.923
10429SOL     OW32185   0.002   5.615   1.261
10429SOL    HW132186   0.007   5.621   1.161
10429SOL    HW232187   0.022   5.704   1.301
10430SOL     OW32188   4.241   0.104   3.927
10430SOL    HW132189   4.205   0.011   3.918
10430SOL    HW232190   4.263   0.122   4.023
10431SOL     OW32191   3.079   6.944   5.129
10431SOL    HW132192   3.140   6.866   5.112
10431SOL    HW232193   3.127   7.010   5.187
10432SOL     OW32194   6.921   0.870   4.009
10432SOL    HW132195   6.920   0.887   4.108
10432SOL    HW232196   6.827   0.875   3.974
10433SOL     OW32197   1.404   5.800   1.582
10433SOL    HW132198   1.425   5.880   1.525
10433SOL    HW232199   1.357   5.731   1.527
10434SOL     OW32200   3.418   6.511   2.866
10434SOL    HW132201   3.408   6.580   2.795
10434SOL    HW232202   3.377   6.543   2.951
10435SOL     OW32203   6.415   0.687   4.885
10435SOL    HW132204   6.453   0.595   4.883
10435SOL    HW232205   6.335   0.689   4.945
10436SOL     OW32206   1.162   5.054   5.091
10436SOL    HW132207   1.102   5.072   5.014
10436SOL    HW232208   1.166   4.955   5.108
10437SOL     OW32209   6.376   4.983   5.235
10437SOL    HW132210   6.372   5.027   5.325
10437SOL    HW232211   6.375   5.053   5.164
10438SOL     OW32212   5.383   6.507   0.281
10438SOL    HW132213   5.387   6.439   0.355
10438SOL    HW232214   5.289   6.540   0.272
10439SOL     OW32215   3.505   1.262   5.960
10439SOL    HW132216   3.411   1.283   5.985
10439SOL    HW232217   3.524   1.296   5.868
10440SOL     OW32218   0.598   5.889   0.690
10440SOL    HW132219   0.510   5.936   0.687
10440SOL    HW232220   0.594   5.808   0.632
10441SOL     OW32221   5.120   1.946   6.454
10441SOL    HW132222   5.036   1.939   6.509
10441SOL    HW232223   5.165   2.033   6.473
10442SOL     OW32224   2.954   5.635   5.444
10442SOL    HW132225   2.926   5.731   5.443
10442SOL    HW232226   3.044   5.627   5.487
10443SOL     OW32227   4.982   3.455   4.539
10443SOL    HW132228   4.933   3.384   4.489
10443SOL    HW232229   5.080   3.435   4.539
10444SOL     OW32230   4.321   5.478   4.859
10444SOL    HW132231   4.343   5.538   4.937
10444SOL    HW232232   4.231   5.503   4.822
10445SOL     OW32233   0.757   4.715   4.337
10445SOL    HW132234   0.731   4.812   4.333
10445SOL    HW232235   0.791   4.686   4.248
10446SOL     OW32236   1.153   3.811   6.215
10446SOL    HW132237   1.111   3.796   6.305
10446SOL    HW232238   1.081   3.828   6.147
10447SOL     OW32239   0.349   1.453   1.928
10447SOL    HW132240   0.331   1.525   1.861
10447SOL    HW232241   0.281   1.457   2.001
10448SOL     OW32242   4.393   3.182   1.021
10448SOL    HW132243   4.421   3.190   0.925
10448SOL    HW232244   4.394   3.273   1.063
10449SOL     OW32245   2.746   5.382   4.428
10449SOL    HW132246   2.712   5.399   4.520
10449SOL    HW232247   2.686   5.316   4.382
10450SOL     OW32248   0.754   2.773   6.875
10450SOL    HW132249   0.687   2.804   6.942
10450SOL    HW232250   0.784   2.680   6.898
10451SOL     OW32251   2.792   5.057   2.645
10451SOL    HW132252   2.782   5.142   2.695
10451SOL    HW232253   2.751   4.982   2.698
10452SOL     OW32254   6.627   3.481   3.601
10452SOL    HW132255   6.564   3.549   3.637
10452SOL    HW232256   6.719   3.520   3.596
10453SOL     OW32257   5.709   6.109   1.958
10453SOL    HW132258   5.686   6.189   1.904
10453SOL    HW232259   5.682   6.124   2.053
10454SOL     OW32260   5.431   2.676   2.087
10454SOL    HW132261   5.506   2.629   2.134
10454SOL    HW232262   5.423   2.769   2.123
10455SOL     OW32263   0.734   5.297   3.350
10455SOL    HW132264   0.798   5.222   3.372
10455SOL    HW232265   0.669   5.308   3.425
10456SOL     OW32266   3.148   6.082   1.197
10456SOL    HW132267   3.133   6.016   1.270
10456SOL    HW232268   3.202   6.159   1.232
10457SOL     OW32269   3.474   3.266   4.171
10457SOL    HW132270   3.521   3.301   4.252
10457SOL    HW232271   3.396   3.211   4.200
10458SOL     OW32272   6.774   6.748   0.217
10458SOL    HW132273   6.806   6.839   0.190
10458SOL    HW232274   6.717   6.710   0.144
10459SOL     OW32275   5.956   5.613   2.811
10459SOL    HW132276   5.908   5.599   2.898
10459SOL    HW232277   5.891   5.645   2.742
10460SOL     OW32278   1.710   5.805   1.400
10460SOL    HW132279   1.692   5.838   1.493
10460SOL    HW232280   1.649   5.849   1.335
10461SOL     OW32281   1.377   6.154   6.009
10461SOL    HW132282   1.385   6.076   5.947
10461SOL    HW232283   1.282   6.162   6.041
10462SOL     OW32284   6.037   0.954   1.762
10462SOL    HW132285   6.049   0.946   1.861
10462SOL    HW232286   5.959   0.897   1.734
10463SOL     OW32287   3.262   3.944   5.981
10463SOL    HW132288   3.210   3.967   5.898
10463SOL    HW232289   3.226   3.997   6.058
10464SOL     OW32290   4.491   0.160   1.084
10464SOL    HW132291   4.482   0.258   1.062
10464SOL    HW232292   4.475   0.146   1.181
10465SOL     OW32293   0.051   0.221   6.390
10465SOL    HW132294   0.109   0.184   6.318
10465SOL    HW232295   6.993   0.259   6.350
10466SOL     OW32296   4.851   5.795   5.143
10466SOL    HW132297   4.789   5.867   5.112
10466SOL    HW232298   4.946   5.827   5.136
10467SOL     OW32299   1.728   1.742   5.480
10467SOL    HW132300   1.801   1.810   5.487
10467SOL    HW232301   1.728   1.684   5.562
10468SOL     OW32302   3.793   6.201   4.120
10468SOL    HW132303   3.836   6.125   4.167
10468SOL    HW232304   3.825   6.204   4.025
10469SOL     OW32305   2.453   3.770   0.969
10469SOL    HW132306   2.521   3.766   1.043
10469SOL    HW232307   2.363   3.744   1.006
10470SOL     OW32308   2.377   1.843   4.008
10470SOL    HW132309   2.328   1.927   3.984
10470SOL    HW232310   2.327   1.764   3.973
10471SOL     OW32311   2.283   3.865   1.695
10471SOL    HW132312   2.288   3.891   1.598
10471SOL    HW232313   2.328   3.776   1.708
10472SOL     OW32314   3.953   0.187   1.668
10472SOL    HW132315   3.924   0.110   1.612
10472SOL    HW232316   4.047   0.172   1.701
10473SOL     OW32317   5.537   6.807   0.882
10473SOL    HW132318   5.635   6.820   0.866
10473SOL    HW232319   5.485   6.871   0.827
10474SOL     OW32320   4.615   0.558   4.285
10474SOL    HW132321   4.557   0.571   4.205
10474SOL    HW232322   4.568   0.596   4.366
10475SOL     OW32323   4.017   5.659   1.133
10475SOL    HW132324   4.005   5.626   1.039
10475SOL    HW232325   4.096   5.720   1.137
10476SOL     OW32326   6.546   5.448   0.177
10476SOL    HW132327   6.496   5.376   0.128
10476SOL    HW232328   6.619   5.483   0.118
10477SOL     OW32329   5.469   3.293   4.988
10477SOL    HW132330   5.509   3.266   4.901
10477SOL    HW232331   5.520   3.251   5.063
10478SOL     OW32332   1.108   6.734   6.855
10478SOL    HW132333   1.145   6.816   6.812
10478SOL    HW232334   1.035   6.697   6.797
10479SOL     OW32335   1.489   2.746   2.468
10479SOL    HW132336   1.541   2.688   2.531
10479SOL    HW232337   1.552   2.786   2.401
10480SOL     OW32338   5.262   6.642   1.771
10480SOL    HW132339   5.325   6.567   1.752
10480SOL    HW232340   5.203   6.617   1.848
10481SOL     OW32341   2.503   1.083   4.826
10481SOL    HW132342   2.456   1.153   4.880
10481SOL    HW232343   2.596   1.070   4.862
10482SOL     OW32344   1.088   6.353   4.850
10482SOL    HW132345   1.032   6.414   4.793
10482SOL    HW232346   1.031   6.317   4.924
10483SOL     OW32347   6.149   5.550   0.539
10483SOL    HW132348   6.116   5.462   0.503
10483SOL    HW232349   6.249   5.550   0.541
10484SOL     OW32350   6.987   0.979   1.256
10484SOL    HW132351   0.038   1.023   1.304
10484SOL    HW232352   7.002   0.984   1.158
10485SOL     OW32353   3.140   4.032   2.789
10485SOL    HW132354   3.139   3.934   2.768
10485SOL    HW232355   3.087   4.081   2.720
10486SOL     OW32356   0.142   0.429   6.043
10486SOL    HW132357   0.205   0.504   6.062
10486SOL    HW232358   0.190   0.341   6.049
10487SOL     OW32359   4.999   1.449   1.747
10487SOL    HW132360   5.029   1.413   1.658
10487SOL    HW232361   4.899   1.450   1.750
10488SOL     OW32362   0.707   2.582   5.449
10488SOL    HW132363   0.680   2.675   5.423
10488SOL    HW232364   0.774   2.586   5.523
10489SOL     OW32365   6.341   5.216   4.008
10489SOL    HW132366   6.410   5.145   3.994
10489SOL    HW232367   6.250   5.177   3.993
10490SOL     OW32368   5.856   0.291   0.782
10490SOL    HW132369   5.772   0.252   0.821
10490SOL    HW232370   5.895   0.227   0.716
10491SOL     OW32371   1.541   3.338   6.844
10491SOL    HW132372   1.510   3.404   6.776
10491SOL    HW232373   1.559   3.250   6.800
10492SOL     OW32374   4.872   0.213   0.561
10492SOL    HW132375   4.875   0.123   0.604
10492SOL    HW232376   4.964   0.242   0.537
10493SOL     OW32377   4.189   5.403   1.148
10493SOL    HW132378   4.123   5.329   1.145
10493SOL    HW232379   4.175   5.466   1.071
10494SOL     OW32380   0.844   4.800   6.390
10494SOL    HW132381   0.785   4.776   6.313
10494SOL    HW232382   0.788   4.824   6.469
10495SOL     OW32383   0.095   6.436   6.015
10495SOL    HW132384   0.121   6.388   6.099
10495SOL    HW232385   7.022   6.451   6.014
10496SOL     OW32386   6.930   3.723   5.321
10496SOL    HW132387   7.001   3.791   5.338
10496SOL    HW232388   6.864   3.758   5.255
10497SOL     OW32389   2.529   6.946   2.261
10497SOL    HW132390   2.475   6.953   2.178
10497SOL    HW232391   2.573   6.856   2.265
10498SOL     OW32392   4.936   5.591   0.506
10498SOL    HW132393   4.937   5.691   0.507
10498SOL    HW232394   5.025   5.557   0.537
10499SOL     OW32395   6.025   5.866   1.803
10499SOL    HW132396   6.074   5.943   1.761
10499SOL    HW232397   6.083   5.785   1.803
10500SOL     OW32398   5.343   4.550   4.950
10500SOL    HW132399   5.324   4.452   4.938
10500SOL    HW232400   5.331   4.597   4.863
10501SOL     OW32401   2.292   5.896   2.158
10501SOL    HW132402   2.264   5.836   2.083
10501SOL    HW232403   2.211   5.941   2.196
10502SOL     OW32404   3.167   3.517   2.432
10502SOL    HW132405   3.134   3.593   2.377
10502SOL    HW232406   3.117   3.434   2.408
10503SOL     OW32407   0.063   3.922   6.098
10503SOL    HW132408   0.029   3.879   6.014
10503SOL    HW232409   0.161   3.908   6.105
10504SOL     OW32410   2.052   3.345   6.340
10504SOL    HW132411   2.124   3.288   6.379
10504SOL    HW232412   2.032   3.422   6.401
10505SOL     OW32413   5.860   6.508   2.042
10505SOL    HW132414   5.938   6.477   1.987
10505SOL    HW232415   5.889   6.583   2.101
10506SOL     OW32416   0.538   3.266   6.791
10506SOL    HW132417   0.477   3.191   6.815
10506SOL    HW232418   0.613   3.270   6.858
10507SOL     OW32419   2.354   4.895   0.064
10507SOL    HW132420   2.388   4.827   7.025
10507SOL    HW232421   2.304   4.849   0.138
10508SOL     OW32422   1.283   5.185   5.406
10508SOL    HW132423   1.266   5.233   5.320
10508SOL    HW232424   1.381   5.177   5.422
10509SOL     OW32425   5.020   3.416   4.089
10509SOL    HW132426   4.989   3.505   4.054
10509SOL    HW232427   4.985   3.404   4.182
10510SOL     OW32428   4.823   6.181   5.052
10510SOL    HW132429   4.820   6.199   4.953
10510SOL    HW232430   4.761   6.105   5.072
10511SOL     OW32431   2.845   1.404   2.093
10511SOL    HW132432   2.883   1.438   2.180
10511SOL    HW232433   2.856   1.474   2.023
10512SOL     OW32434   4.344   0.153   5.713
10512SOL    HW132435   4.408   0.164   5.637
10512SOL    HW232436   4.395   0.145   5.799
10513SOL     OW32437   5.301   2.928   2.444
10513SOL    HW132438   5.313   2.945   2.541
10513SOL    HW232439   5.234   2.992   2.407
10514SOL     OW32440   1.163   2.587   1.592
10514SOL    HW132441   1.179   2.622   1.684
10514SOL    HW232442   1.172   2.487   1.592
10515SOL     OW32443   1.954   3.236   4.926
10515SOL    HW132444   1.992   3.320   4.964
10515SOL    HW232445   1.875   3.257   4.869
10516SOL     OW32446   3.539   2.753   0.077
10516SOL    HW132447   3.452   2.800   0.086
10516SOL    HW232448   3.594   2.767   0.159
10517SOL     OW32449   1.266   2.981   3.506
10517SOL    HW132450   1.213   3.064   3.483
10517SOL    HW232451   1.363   2.999   3.491
10518SOL     OW32452   0.798   5.103   2.095
10518SOL    HW132453   0.869   5.167   2.125
10518SOL    HW232454   0.781   5.036   2.168
10519SOL     OW32455   2.204   6.254   1.332
10519SOL    HW132456   2.206   6.268   1.233
10519SOL    HW232457   2.147   6.174   1.353
10520SOL     OW32458   6.154   1.340   6.250
10520SOL    HW132459   6.165   1.324   6.348
10520SOL    HW232460   6.081   1.281   6.215
10521SOL     OW32461   6.059   3.302   1.708
10521SOL    HW132462   5.983   3.297   1.643
10521SOL    HW232463   6.029   3.348   1.791
10522SOL     OW32464   5.837   2.431   2.822
10522SOL    HW132465   5.742   2.465   2.823
10522SOL    HW232466   5.837   2.334   2.798
10523SOL     OW32467   0.647   4.013   3.745
10523SOL    HW132468   0.696   4.080   3.689
10523SOL    HW232469   0.648   3.924   3.699
10524SOL     OW32470   6.971   5.598   3.910
10524SOL    HW132471   0.025   5.586   3.969
10524SOL    HW232472   6.997   5.654   3.832
10525SOL     OW32473   4.359   0.801   4.240
10525SOL    HW132474   4.291   0.872   4.260
10525SOL    HW232475   4.448   0.844   4.224
10526SOL     OW32476   0.357   5.503   0.377
10526SOL    HW132477   0.361   5.602   0.367
10526SOL    HW232478   0.418   5.474   0.450
10527SOL     OW32479   0.678   1.377   5.018
10527SOL    HW132480   0.635   1.332   4.940
10527SOL    HW232481   0.768   1.411   4.991
10528SOL     OW32482   0.504   4.982   6.843
10528SOL    HW132483   0.549   5.062   6.802
10528SOL    HW232484   0.407   5.002   6.856
10529SOL     OW32485   2.051   6.647   6.044
10529SOL    HW132486   1.968   6.614   6.089
10529SOL    HW232487   2.116   6.680   6.112
10530SOL     OW32488   1.044   0.196   6.408
10530SOL    HW132489   1.093   0.140   6.341
10530SOL    HW232490   0.947   0.169   6.409
10531SOL     OW32491   3.100   2.553   5.373
10531SOL    HW132492   3.123   2.485   5.303
10531SOL    HW232493   3.117   2.645   5.336
10532SOL     OW32494   5.798   6.387   6.461
10532SOL    HW132495   5.720   6.331   6.431
10532SOL    HW232496   5.875   6.373   6.399
10533SOL     OW32497   3.601   5.469   4.085
10533SOL    HW132498   3.580   5.447   4.181
10533SOL    HW232499   3.681   5.528   4.082
10534SOL     OW32500   0.888   5.970   2.770
10534SOL    HW132501   0.798   6.013   2.768
10534SOL    HW232502   0.939   6.002   2.850
10535SOL     OW32503   2.578   1.286   2.387
10535SOL    HW132504   2.538   1.372   2.420
10535SOL    HW232505   2.647   1.255   2.452
10536SOL     OW32506   5.057   1.307   4.268
10536SOL    HW132507   5.102   1.390   4.301
10536SOL    HW232508   5.108   1.227   4.301
10537SOL     OW32509   5.059   6.939   3.089
10537SOL    HW132510   4.964   6.911   3.079
10537SOL    HW232511   5.100   6.892   3.167
10538SOL     OW32512   6.357   2.971   2.323
10538SOL    HW132513   6.269   2.924   2.325
10538SOL    HW232514   6.384   2.997   2.416
10539SOL     OW32515   6.010   6.226   2.698
10539SOL    HW132516   6.055   6.212   2.610
10539SOL    HW232517   5.990   6.138   2.740
10540SOL     OW32518   2.617   4.305   6.552
10540SOL    HW132519   2.685   4.325   6.481
10540SOL    HW232520   2.561   4.228   6.523
10541SOL     OW32521   3.008   3.116   5.155
10541SOL    HW132522   3.020   3.105   5.254
10541SOL    HW232523   2.949   3.044   5.119
10542SOL     OW32524   6.249   6.903   4.459
10542SOL    HW132525   6.325   6.838   4.451
10542SOL    HW232526   6.261   6.976   4.392
10543SOL     OW32527   6.921   2.779   5.734
10543SOL    HW132528   6.918   2.699   5.673
10543SOL    HW232529   6.862   2.851   5.697
10544SOL     OW32530   0.812   1.382   3.985
10544SOL    HW132531   0.885   1.317   4.006
10544SOL    HW232532   0.740   1.335   3.934
10545SOL     OW32533   2.087   1.999   2.867
10545SOL    HW132534   2.101   2.097   2.855
10545SOL    HW232535   1.996   1.982   2.904
10546SOL     OW32536   3.229   6.324   1.291
10546SOL    HW132537   3.179   6.374   1.221
10546SOL    HW232538   3.249   6.384   1.368
10547SOL     OW32539   4.338   0.219   4.978
10547SOL    HW132540   4.369   0.128   5.005
10547SOL    HW232541   4.414   0.283   4.981
10548SOL     OW32542   0.882   4.924   4.567
10548SOL    HW132543   0.881   5.024   4.577
10548SOL    HW232544   0.859   4.882   4.655
10549SOL     OW32545   0.316   1.305   0.631
10549SOL    HW132546   0.341   1.360   0.551
10549SOL    HW232547   0.365   1.218   0.628
10550SOL     OW32548   3.846   5.919   3.127
10550SOL    HW132549   3.786   5.995   3.101
10550SOL    HW232550   3.928   5.955   3.172
10551SOL     OW32551   2.883   2.246   5.797
10551SOL    HW132552   2.912   2.291   5.712
10551SOL    HW232553   2.929   2.157   5.805
10552SOL     OW32554   3.534   0.907   4.976
10552SOL    HW132555   3.482   0.883   5.058
10552SOL    HW232556   3.510   0.999   4.946
10553SOL     OW32557   0.437   5.233   0.804
10553SOL    HW132558   0.421   5.134   0.804
10553SOL    HW232559   0.529   5.252   0.838
10554SOL     OW32560   6.411   5.125   2.650
10554SOL    HW132561   6.369   5.049   2.700
10554SOL    HW232562   6.367   5.211   2.677
10555SOL     OW32563   3.498   2.264   0.678
10555SOL    HW132564   3.477   2.230   0.587
10555SOL    HW232565   3.418   2.310   0.716
10556SOL     OW32566   1.743   1.451   3.342
10556SOL    HW132567   1.656   1.401   3.340
10556SOL    HW232568   1.814   1.395   3.300
10557SOL     OW32569   1.937   3.656   4.022
10557SOL    HW132570   1.987   3.727   3.974
10557SOL    HW232571   1.868   3.616   3.961
10558SOL     OW32572   3.134   5.621   5.042
10558SOL    HW132573   3.067   5.689   5.073
10558SOL    HW232574   3.118   5.534   5.089
10559SOL     OW32575   3.348   0.204   6.899
10559SOL    HW132576   3.300   0.194   6.986
10559SOL    HW232577   3.447   0.206   6.916
10560SOL     OW32578   4.597   6.399   1.504
10560SOL    HW132579   4.618   6.303   1.522
10560SOL    HW232580   4.664   6.458   1.549
10561SOL     OW32581   5.566   4.254   1.453
10561SOL    HW132582   5.595   4.227   1.362
10561SOL    HW232583   5.635   4.226   1.520
10562SOL     OW32584   2.969   0.044   1.542
10562SOL    HW132585   2.876   0.010   1.545
10562SOL    HW232586   2.969   0.138   1.508
10563SOL     OW32587   0.578   0.092   0.681
10563SOL    HW132588   0.531   0.020   0.631
10563SOL    HW232589   0.543   0.097   0.774
10564SOL     OW32590   6.466   5.817   4.268
10564SOL    HW132591   6.564   5.800   4.269
10564SOL    HW232592   6.425   5.786   4.354
10565SOL     OW32593   6.526   6.674   5.411
10565SOL    HW132594   6.451   6.677   5.345
10565SOL    HW232595   6.519   6.753   5.472
10566SOL     OW32596   2.840   2.629   0.212
10566SOL    HW132597   2.926   2.676   0.190
10566SOL    HW232598   2.763   2.681   0.175
10567SOL     OW32599   1.866   2.802   6.163
10567SOL    HW132600   1.877   2.804   6.064
10567SOL    HW232601   1.931   2.736   6.203
10568SOL     OW32602   5.294   2.754   6.065
10568SOL    HW132603   5.247   2.667   6.054
10568SOL    HW232604   5.238   2.827   6.026
10569SOL     OW32605   4.796   0.171   2.106
10569SOL    HW132606   4.783   0.213   2.196
10569SOL    HW232607   4.836   0.237   2.044
10570SOL     OW32608   0.427   5.161   4.709
10570SOL    HW132609   0.498   5.096   4.737
10570SOL    HW232610   0.459   5.213   4.630
10571SOL     OW32611   6.571   4.650   6.166
10571SOL    HW132612   6.535   4.729   6.116
10571SOL    HW232613   6.501   4.579   6.170
10572SOL     OW32614   6.524   4.300   1.211
10572SOL    HW132615   6.532   4.382   1.155
10572SOL    HW232616   6.585   4.309   1.291
10573SOL     OW32617   5.953   0.450   3.566
10573SOL    HW132618   6.020   0.416   3.633
10573SOL    HW232619   5.872   0.484   3.615
10574SOL     OW32620   7.017   1.169   3.272
10574SOL    HW132621   0.047   1.178   3.190
10574SOL    HW232622   6.929   1.128   3.248
10575SOL     OW32623   6.285   1.404   2.352
10575SOL    HW132624   6.194   1.364   2.361
10575SOL    HW232625   6.300   1.468   2.427
10576SOL     OW32626   2.313   4.920   3.252
10576SOL    HW132627   2.263   4.915   3.165
10576SOL    HW232628   2.287   4.843   3.310
10577SOL     OW32629   4.148   5.947   0.784
10577SOL    HW132630   4.095   5.974   0.703
10577SOL    HW232631   4.086   5.911   0.854
10578SOL     OW32632   6.547   2.078   3.730
10578SOL    HW132633   6.585   1.986   3.726
10578SOL    HW232634   6.458   2.075   3.776
10579SOL     OW32635   2.613   2.918   1.087
10579SOL    HW132636   2.536   2.866   1.125
10579SOL    HW232637   2.672   2.856   1.035
10580SOL     OW32638   6.281   6.685   6.075
10580SOL    HW132639   6.324   6.643   6.155
10580SOL    HW232640   6.344   6.679   5.997
10581SOL     OW32641   5.328   0.010   3.828
10581SOL    HW132642   5.271   0.036   3.906
10581SOL    HW232643   5.414   0.061   3.831
10582SOL     OW32644   5.368   4.926   6.589
10582SOL    HW132645   5.426   4.845   6.581
10582SOL    HW232646   5.425   5.007   6.595
10583SOL     OW32647   2.967   6.988   3.896
10583SOL    HW132648   3.029   6.946   3.961
10583SOL    HW232649   2.940   0.052   3.928
10584SOL     OW32650   6.809   0.354   5.524
10584SOL    HW132651   6.908   0.337   5.526
10584SOL    HW232652   6.763   0.285   5.579
10585SOL     OW32653   0.482   1.854   5.951
10585SOL    HW132654   0.495   1.772   5.895
10585SOL    HW232655   0.471   1.828   6.047
10586SOL     OW32656   5.134   4.397   5.706
10586SOL    HW132657   5.143   4.341   5.789
10586SOL    HW232658   5.162   4.491   5.725
10587SOL     OW32659   0.925   5.536   5.664
10587SOL    HW132660   0.926   5.586   5.751
10587SOL    HW232661   0.998   5.468   5.663
10588SOL     OW32662   0.991   3.386   3.962
10588SOL    HW132663   1.027   3.392   3.868
10588SOL    HW232664   0.914   3.322   3.964
10589SOL     OW32665   4.860   6.467   4.129
10589SOL    HW132666   4.934   6.526   4.161
10589SOL    HW232667   4.870   6.376   4.170
10590SOL     OW32668   0.646   5.892   1.619
10590SOL    HW132669   0.614   5.955   1.548
10590SOL    HW232670   0.634   5.798   1.587
10591SOL     OW32671   1.031   1.557   1.381
10591SOL    HW132672   0.953   1.507   1.343
10591SOL    HW232673   1.092   1.585   1.308
10592SOL     OW32674   5.742   2.238   5.218
10592SOL    HW132675   5.824   2.213   5.167
10592SOL    HW232676   5.661   2.210   5.166
10593SOL     OW32677   2.504   6.877   1.024
10593SOL    HW132678   2.496   6.817   1.104
10593SOL    HW232679   2.561   6.956   1.046
10594SOL     OW32680   3.867   0.624   3.186
10594SOL    HW132681   3.911   0.539   3.212
10594SOL    HW232682   3.868   0.634   3.086
10595SOL     OW32683   5.772   0.759   0.942
10595SOL    HW132684   5.749   0.760   0.844
10595SOL    HW232685   5.864   0.798   0.955
10596SOL     OW32686   4.621   1.598   6.625
10596SOL    HW132687   4.524   1.575   6.618
10596SOL    HW232688   4.667   1.531   6.683
10597SOL     OW32689   2.123   0.103   6.191
10597SOL    HW132690   2.110   0.080   6.094
10597SOL    HW232691   2.219   0.123   6.208
10598SOL     OW32692   2.778   1.802   5.939
10598SOL    HW132693   2.843   1.783   6.013
10598SOL    HW232694   2.827   1.835   5.859
10599SOL     OW32695   6.698   4.189   6.128
10599SOL    HW132696   6.659   4.104   6.163
10599SOL    HW232697   6.755   4.231   6.199
10600SOL     OW32698   2.572   1.908   1.806
10600SOL    HW132699   2.591   1.874   1.898
10600SOL    HW232700   2.648   1.965   1.775
10601SOL     OW32701   0.139   6.699   6.754
10601SOL    HW132702   0.046   6.716   6.723
10601SOL    HW232703   0.160   6.602   6.747
10602SOL     OW32704   0.046   6.935   0.074
10602SOL    HW132705   0.004   6.980   0.153
10602SOL    HW232706   0.097   6.855   0.105
10603SOL     OW32707   4.266   6.812   1.835
10603SOL    HW132708   4.177   6.819   1.882
10603SOL    HW232709   4.271   6.725   1.786
10604SOL     OW32710   0.376   6.596   5.126
10604SOL    HW132711   0.301   6.662   5.126
10604SOL    HW232712   0.343   6.507   5.095
10605SOL     OW32713   2.704   0.958   0.795
10605SOL    HW132714   2.636   0.962   0.721
10605SOL    HW232715   2.741   0.865   0.801
10606SOL     OW32716   6.296   1.009   1.599
10606SOL    HW132717   6.330   0.927   1.552
10606SOL    HW232718   6.221   0.983   1.660
10607SOL     OW32719   4.347   4.594   6.191
10607SOL    HW132720   4.407   4.544   6.129
10607SOL    HW232721   4.362   4.562   6.284
10608SOL     OW32722   6.319   3.108   3.053
10608SOL    HW132723   6.304   3.042   2.979
10608SOL    HW232724   6.334   3.199   3.013
10609SOL     OW32725   3.581   0.493   0.089
10609SOL    HW132726   3.590   0.415   0.027
10609SOL    HW232727   3.624   0.573   0.047
10610SOL     OW32728   0.283   1.356   4.683
10610SOL    HW132729   0.287   1.450   4.650
10610SOL    HW232730   0.187   1.331   4.698
10611SOL     OW32731   2.891   5.744   5.089
10611SOL    HW132732   2.878   5.655   5.046
10611SOL    HW232733   2.806   5.773   5.133
10612SOL     OW32734   5.577   1.375   3.709
10612SOL    HW132735   5.569   1.405   3.804
10612SOL    HW232736   5.510   1.304   3.690
10613SOL     OW32737   6.674   6.292   3.968
10613SOL    HW132738   6.643   6.199   3.990
10613SOL    HW232739   6.595   6.348   3.941
10614SOL     OW32740   5.191   0.466   6.547
10614SOL    HW132741   5.197   0.377   6.501
10614SOL    HW232742   5.173   0.537   6.479
10615SOL     OW32743   2.791   2.480   6.249
10615SOL    HW132744   2.768   2.504   6.344
10615SOL    HW232745   2.734   2.404   6.219
10616SOL     OW32746   3.267   6.258   6.755
10616SOL    HW132747   3.211   6.175   6.757
10616SOL    HW232748   3.222   6.329   6.809
10617SOL     OW32749   2.795   3.211   1.646
10617SOL    HW132750   2.878   3.243   1.690
10617SOL    HW232751   2.781   3.114   1.666
10618SOL     OW32752   0.704   5.415   5.111
10618SOL    HW132753   0.640   5.483   5.146
10618SOL    HW232754   0.652   5.340   5.069
10619SOL     OW32755   1.044   1.943   3.046
10619SOL    HW132756   1.014   1.989   2.962
10619SOL    HW232757   0.973   1.951   3.116
10620SOL     OW32758   2.390   0.096   5.836
10620SOL    HW132759   2.411   0.138   5.748
10620SOL    HW232760   2.476   0.067   5.879
10621SOL     OW32761   1.183   3.816   3.018
10621SOL    HW132762   1.251   3.758   3.064
10621SOL    HW232763   1.229   3.873   2.950
10622SOL     OW32764   4.776   3.296   0.805
10622SOL    HW132765   4.755   3.206   0.844
10622SOL    HW232766   4.874   3.303   0.787
10623SOL     OW32767   6.017   5.967   5.890
10623SOL    HW132768   6.051   5.892   5.832
10623SOL    HW232769   5.927   5.942   5.927
10624SOL     OW32770   0.728   2.593   5.149
10624SOL    HW132771   0.741   2.614   5.246
10624SOL    HW232772   0.783   2.513   5.124
10625SOL     OW32773   6.808   3.901   0.031
10625SOL    HW132774   6.898   3.897   0.074
10625SOL    HW232775   6.759   3.815   0.047
10626SOL     OW32776   3.938   3.194   1.916
10626SOL    HW132777   3.973   3.115   1.865
10626SOL    HW232778   4.015   3.248   1.950
10627SOL     OW32779   5.599   6.658   5.811
10627SOL    HW132780   5.547   6.576   5.836
10627SOL    HW232781   5.697   6.639   5.816
10628SOL     OW32782   4.413   0.531   0.168
10628SOL    HW132783   4.431   0.452   0.227
10628SOL    HW232784   4.369   0.603   0.222
10629SOL     OW32785   3.854   5.469   4.914
10629SOL    HW132786   3.797   5.390   4.937
10629SOL    HW232787   3.817   5.515   4.834
10630SOL     OW32788   4.681   0.496   2.863
10630SOL    HW132789   4.750   0.431   2.892
10630SOL    HW232790   4.640   0.540   2.944
10631SOL     OW32791   4.691   5.702   6.925
10631SOL    HW132792   4.788   5.705   6.948
10631SOL    HW232793   4.674   5.759   6.844
10632SOL     OW32794   5.022   5.997   3.064
10632SOL    HW132795   4.953   5.990   3.136
10632SOL    HW232796   5.057   6.091   3.061
10633SOL     OW32797   2.102   3.035   2.128
10633SOL    HW132798   2.124   3.099   2.055
10633SOL    HW232799   2.170   2.962   2.130
10634SOL     OW32800   1.149   4.831   0.167
10634SOL    HW132801   1.064   4.780   0.169
10634SOL    HW232802   1.224   4.772   0.198
10635SOL     OW32803   2.429   3.470   0.306
10635SOL    HW132804   2.398   3.561   0.333
10635SOL    HW232805   2.410   3.406   0.380
10636SOL     OW32806   6.739   2.663   6.739
10636SOL    HW132807   6.756   2.616   6.653
10636SOL    HW232808   6.785   2.752   6.738
10637SOL     OW32809   2.634   6.485   6.503
10637SOL    HW132810   2.629   6.435   6.416
10637SOL    HW232811   2.702   6.442   6.562
10638SOL     OW32812   6.677   5.686   1.797
10638SOL    HW132813   6.745   5.747   1.840
10638SOL    HW232814   6.585   5.718   1.819
10639SOL     OW32815   2.404   3.633   1.692
10639SOL    HW132816   2.369   3.572   1.763
10639SOL    HW232817   2.500   3.655   1.711
10640SOL     OW32818   4.004   0.118   3.732
10640SOL    HW132819   3.945   0.049   3.775
10640SOL    HW232820   4.071   0.072   3.673
10641SOL     OW32821   1.215   0.423   3.479
10641SOL    HW132822   1.153   0.354   3.518
10641SOL    HW232823   1.266   0.468   3.552
10642SOL     OW32824   6.372   2.449   7.004
10642SOL    HW132825   6.405   2.416   6.915
10642SOL    HW232826   6.450   2.465   0.038
10643SOL     OW32827   1.751   5.051   5.343
10643SOL    HW132828   1.804   5.031   5.426
10643SOL    HW232829   1.766   4.980   5.275
10644SOL     OW32830   6.352   2.831   1.862
10644SOL    HW132831   6.313   2.847   1.953
10644SOL    HW232832   6.300   2.759   1.816
10645SOL     OW32833   1.914   2.888   3.423
10645SOL    HW132834   1.912   2.797   3.466
10645SOL    HW232835   1.903   2.958   3.493
10646SOL     OW32836   5.354   1.228   4.502
10646SOL    HW132837   5.295   1.224   4.582
10646SOL    HW232838   5.307   1.188   4.423
10647SOL     OW32839   4.298   4.945   5.329
10647SOL    HW132840   4.235   4.952   5.251
10647SOL    HW232841   4.255   4.892   5.402
10648SOL     OW32842   6.311   4.980   5.760
10648SOL    HW132843   6.315   5.017   5.667
10648SOL    HW232844   6.216   4.967   5.787
10649SOL     OW32845   0.287   3.395   3.860
10649SOL    HW132846   0.333   3.479   3.832
10649SOL    HW232847   0.209   3.417   3.919
10650SOL     OW32848   0.045   0.149   3.782
10650SOL    HW132849   0.108   0.100   3.842
10650SOL    HW232850   0.031   0.241   3.817
10651SOL     OW32851   5.242   6.473   6.073
10651SOL    HW132852   5.151   6.512   6.085
10651SOL    HW232853   5.236   6.373   6.076
10652SOL     OW32854   1.589   6.464   6.156
10652SOL    HW132855   1.569   6.476   6.059
10652SOL    HW232856   1.507   6.435   6.204
10653SOL     OW32857   3.895   6.211   4.807
10653SOL    HW132858   3.898   6.193   4.709
10653SOL    HW232859   3.806   6.183   4.844
10654SOL     OW32860   5.613   1.337   4.196
10654SOL    HW132861   5.712   1.345   4.184
10654SOL    HW232862   5.584   1.392   4.274
10655SOL     OW32863   1.501   4.820   1.305
10655SOL    HW132864   1.415   4.769   1.314
10655SOL    HW232865   1.555   4.807   1.388
10656SOL     OW32866   6.233   1.130   1.950
10656SOL    HW132867   6.215   1.051   2.007
10656SOL    HW232868   6.147   1.175   1.926
10657SOL     OW32869   6.125   0.740   4.258
10657SOL    HW132870   6.085   0.813   4.315
10657SOL    HW232871   6.166   0.671   4.316
10658SOL     OW32872   5.426   3.747   4.854
10658SOL    HW132873   5.338   3.723   4.895
10658SOL    HW232874   5.500   3.716   4.915
10659SOL     OW32875   0.939   4.646   1.004
10659SOL    HW132876   0.897   4.612   1.088
10659SOL    HW232877   1.004   4.719   1.027
10660SOL     OW32878   6.092   3.498   5.766
10660SOL    HW132879   5.996   3.481   5.746
10660SOL    HW232880   6.118   3.587   5.728
10661SOL     OW32881   1.257   4.342   0.485
10661SOL    HW132882   1.204   4.266   0.522
10661SOL    HW232883   1.235   4.426   0.535
10662SOL     OW32884   3.030   1.231   2.359
10662SOL    HW132885   2.981   1.148   2.331
10662SOL    HW232886   2.964   1.301   2.386
10663SOL     OW32887   1.198   1.185   3.508
10663SOL    HW132888   1.167   1.267   3.556
10663SOL    HW232889   1.167   1.188   3.413
10664SOL     OW32890   0.888   5.281   4.609
10664SOL    HW132891   0.819   5.341   4.650
10664SOL    HW232892   0.977   5.300   4.651
10665SOL     OW32893   2.351   3.151   6.874
10665SOL    HW132894   2.368   3.177   6.969
10665SOL    HW232895   2.383   3.057   6.859
10666SOL     OW32896   3.937   3.367   2.633
10666SOL    HW132897   3.856   3.323   2.671
10666SOL    HW232898   4.003   3.297   2.605
10667SOL     OW32899   4.988   1.663   3.057
10667SOL    HW132900   4.969   1.703   3.147
10667SOL    HW232901   4.977   1.733   2.987
10668SOL     OW32902   3.480   1.922   5.255
10668SOL    HW132903   3.431   2.009   5.254
10668SOL    HW232904   3.542   1.919   5.177
10669SOL     OW32905   5.675   0.738   0.657
10669SOL    HW132906   5.705   0.650   0.620
10669SOL    HW232907   5.659   0.802   0.582
10670SOL     OW32908   5.262   4.044   4.393
10670SOL    HW132909   5.231   3.983   4.465
10670SOL    HW232910   5.186   4.067   4.333
10671SOL     OW32911   0.984   1.479   4.484
10671SOL    HW132912   1.034   1.460   4.400
10671SOL    HW232913   0.916   1.550   4.467
10672SOL     OW32914   6.357   4.242   1.592
10672SOL    HW132915   6.267   4.197   1.593
10672SOL    HW232916   6.351   4.329   1.641
10673SOL     OW32917   2.190   0.183   0.865
10673SOL    HW132918   2.126   0.137   0.803
10673SOL    HW232919   2.192   0.281   0.845
10674SOL     OW32920   4.117   3.566   4.769
10674SOL    HW132921   4.075   3.480   4.797
10674SOL    HW232922   4.151   3.614   4.850
10675SOL     OW32923   3.406   1.072   6.488
10675SOL    HW132924   3.479   1.127   6.530
10675SOL    HW232925   3.354   1.129   6.425
10676SOL     OW32926   0.665   5.647   4.950
10676SOL    HW132927   0.724   5.727   4.961
10676SOL    HW232928   0.659   5.598   5.038
10677SOL     OW32929   1.777   1.075   1.124
10677SOL    HW132930   1.711   1.143   1.092
10677SOL    HW232931   1.837   1.117   1.192
10678SOL     OW32932   4.070   4.775   3.800
10678SOL    HW132933   4.132   4.707   3.761
10678SOL    HW232934   4.001   4.799   3.732
10679SOL     OW32935   3.867   4.924   6.997
10679SOL    HW132936   3.874   4.924   0.071
10679SOL    HW232937   3.956   4.906   6.956
10680SOL     OW32938   3.517   1.567   4.320
10680SOL    HW132939   3.575   1.521   4.387
10680SOL    HW232940   3.421   1.546   4.339
10681SOL     OW32941   0.435   3.638   0.355
10681SOL    HW132942   0.530   3.658   0.330
10681SOL    HW232943   0.384   3.609   0.274
10682SOL     OW32944   6.827   3.259   4.828
10682SOL    HW132945   6.888   3.228   4.900
10682SOL    HW232946   6.733   3.233   4.851
10683SOL     OW32947   4.155   0.499   3.404
10683SOL    HW132948   4.245   0.458   3.387
10683SOL    HW232949   4.165   0.583   3.456
10684SOL     OW32950   4.381   5.258   1.336
10684SOL    HW132951   4.427   5.319   1.401
10684SOL    HW232952   4.290   5.294   1.315
10685SOL     OW32953   6.677   5.718   1.067
10685SOL    HW132954   6.605   5.785   1.050
10685SOL    HW232955   6.761   5.747   1.022
10686SOL     OW32956   2.535   4.392   6.088
10686SOL    HW132957   2.474   4.327   6.132
10686SOL    HW232958   2.578   4.449   6.157
10687SOL     OW32959   6.042   5.057   3.303
10687SOL    HW132960   6.087   4.973   3.273
10687SOL    HW232961   6.096   5.101   3.375
10688SOL     OW32962   5.791   1.576   2.693
10688SOL    HW132963   5.757   1.619   2.609
10688SOL    HW232964   5.750   1.485   2.702
10689SOL     OW32965   0.069   0.055   1.274
10689SOL    HW132966   0.045   6.984   1.278
10689SOL    HW232967   0.144   0.067   1.208
10690SOL     OW32968   0.314   5.162   3.457
10690SOL    HW132969   0.370   5.136   3.378
10690SOL    HW232970   0.282   5.080   3.504
10691SOL     OW32971   1.939   1.480   1.786
10691SOL    HW132972   1.987   1.568   1.784
10691SOL    HW232973   1.949   1.438   1.876
10692SOL     OW32974   3.088   0.703   4.801
10692SOL    HW132975   3.078   0.727   4.704
10692SOL    HW232976   3.065   0.782   4.857
10693SOL     OW32977   0.740   6.290   1.534
10693SOL    HW132978   0.707   6.202   1.568
10693SOL    HW232979   0.817   6.276   1.472
10694SOL     OW32980   4.947   6.785   6.601
10694SOL    HW132981   4.885   6.833   6.538
10694SOL    HW232982   4.950   6.834   6.688
10695SOL     OW32983   1.407   2.809   1.197
10695SOL    HW132984   1.389   2.814   1.099
10695SOL    HW232985   1.506   2.815   1.213
10696SOL     OW32986   6.573   3.708   5.314
10696SOL    HW132987   6.474   3.721   5.310
10696SOL    HW232988   6.600   3.682   5.407
10697SOL     OW32989   7.025   6.642   5.649
10697SOL    HW132990   6.967   6.688   5.582
10697SOL    HW232991   6.989   6.551   5.668
10698SOL     OW32992   4.733   4.287   0.053
10698SOL    HW132993   4.805   4.343   0.092
10698SOL    HW232994   4.773   4.212   0.000
10699SOL     OW32995   3.706   4.629   0.790
10699SOL    HW132996   3.651   4.557   0.833
10699SOL    HW232997   3.646   4.701   0.757
10700SOL     OW32998   5.567   0.134   0.654
10700SOL    HW132999   5.521   0.047   0.635
10700SOL    HW233000   5.562   0.192   0.573
10701SOL     OW33001   3.091   0.365   6.100
10701SOL    HW133002   3.104   0.303   6.178
10701SOL    HW233003   3.179   0.378   6.053
10702SOL     OW33004   4.981   3.734   2.676
10702SOL    HW133005   5.064   3.752   2.624
10702SOL    HW233006   4.923   3.816   2.676
10703SOL     OW33007   1.975   3.155   5.436
10703SOL    HW133008   1.996   3.099   5.356
10703SOL    HW233009   2.002   3.249   5.420
10704SOL     OW33010   6.906   4.891   2.922
10704SOL    HW133011   6.963   4.900   3.003
10704SOL    HW233012   6.826   4.835   2.942
10705SOL     OW33013   5.655   5.422   1.412
10705SOL    HW133014   5.691   5.367   1.336
10705SOL    HW233015   5.555   5.415   1.414
10706SOL     OW33016   4.229   6.800   1.316
10706SOL    HW133017   4.227   6.847   1.405
10706SOL    HW233018   4.317   6.815   1.272
10707SOL     OW33019   0.617   6.941   4.072
10707SOL    HW133020   0.568   7.015   4.118
10707SOL    HW233021   0.551   6.881   4.027
10708SOL     OW33022   4.596   1.158   1.414
10708SOL    HW133023   4.637   1.250   1.414
10708SOL    HW233024   4.551   1.143   1.326
10709SOL     OW33025   5.580   4.712   4.953
10709SOL    HW133026   5.488   4.689   4.982
10709SOL    HW233027   5.642   4.707   5.032
10710SOL     OW33028   6.137   1.333   3.699
10710SOL    HW133029   6.098   1.414   3.743
10710SOL    HW233030   6.178   1.275   3.769
10711SOL     OW33031   2.516   6.563   3.942
10711SOL    HW133032   2.471   6.653   3.942
10711SOL    HW233033   2.455   6.496   3.986
10712SOL     OW33034   3.480   0.095   2.689
10712SOL    HW133035   3.414   0.098   2.764
10712SOL    HW233036   3.507   0.000   2.672
10713SOL     OW33037   1.080   2.851   0.257
10713SOL    HW133038   1.113   2.778   0.316
10713SOL    HW233039   1.120   2.841   0.166
10714SOL     OW33040   4.380   3.228   5.530
10714SOL    HW133041   4.324   3.198   5.453
10714SOL    HW233042   4.472   3.252   5.498
10715SOL     OW33043   4.417   0.153   2.190
10715SOL    HW133044   4.486   0.155   2.118
10715SOL    HW233045   4.394   0.246   2.217
10716SOL     OW33046   5.606   2.757   3.218
10716SOL    HW133047   5.596   2.827   3.147
10716SOL    HW233048   5.700   2.724   3.218
10717SOL     OW33049   1.804   2.677   0.844
10717SOL    HW133050   1.785   2.638   0.934
10717SOL    HW233051   1.872   2.621   0.796
10718SOL     OW33052   1.330   3.923   6.996
10718SOL    HW133053   1.287   3.906   6.908
10718SOL    HW233054   1.414   3.976   6.983
10719SOL     OW33055   6.930   5.759   3.455
10719SOL    HW133056   6.997   5.801   3.516
10719SOL    HW233057   6.894   5.676   3.497
10720SOL     OW33058   6.237   5.255   4.626
10720SOL    HW133059   6.228   5.155   4.628
10720SOL    HW233060   6.194   5.294   4.706
10721SOL     OW33061   5.225   3.826   5.161
10721SOL    HW133062   5.293   3.784   5.221
10721SOL    HW233063   5.206   3.765   5.084
10722SOL     OW33064   0.504   4.800   1.032
10722SOL    HW133065   0.557   4.788   0.948
10722SOL    HW233066   0.456   4.888   1.028
10723SOL     OW33067   0.252   2.140   6.298
10723SOL    HW133068   0.300   2.149   6.211
10723SOL    HW233069   0.161   2.101   6.283
10724SOL     OW33070   5.872   6.894   5.929
10724SOL    HW133071   5.945   6.856   5.873
10724SOL    HW233072   5.838   6.978   5.886
10725SOL     OW33073   2.110   5.866   5.225
10725SOL    HW133074   2.129   5.797   5.295
10725SOL    HW233075   2.030   5.839   5.171
10726SOL     OW33076   5.931   0.895   3.893
10726SOL    HW133077   5.908   0.984   3.931
10726SOL    HW233078   5.913   0.824   3.962
10727SOL     OW33079   0.865   5.155   5.781
10727SOL    HW133080   0.871   5.178   5.684
10727SOL    HW233081   0.940   5.093   5.805
10728SOL     OW33082   1.232   4.786   6.620
10728SOL    HW133083   1.202   4.849   6.692
10728SOL    HW233084   1.205   4.693   6.645
10729SOL     OW33085   5.771   1.151   2.761
10729SOL    HW133086   5.861   1.156   2.717
10729SOL    HW233087   5.707   1.211   2.714
10730SOL     OW33088   2.496   0.391   1.546
10730SOL    HW133089   2.570   0.342   1.499
10730SOL    HW233090   2.409   0.344   1.528
10731SOL     OW33091   3.409   1.604   0.489
10731SOL    HW133092   3.387   1.532   0.422
10731SOL    HW233093   3.327   1.624   0.543
10732SOL     OW33094   0.308   4.686   5.074
10732SOL    HW133095   0.211   4.698   5.053
10732SOL    HW233096   0.329   4.733   5.160
10733SOL     OW33097   6.907   2.127   6.345
10733SOL    HW133098   6.945   2.050   6.293
10733SOL    HW233099   6.965   2.146   6.424
10734SOL     OW33100   1.026   0.676   0.652
10734SOL    HW133101   1.025   0.590   0.600
10734SOL    HW233102   1.091   0.739   0.610
10735SOL     OW33103   0.173   3.140   2.229
10735SOL    HW133104   0.258   3.177   2.191
10735SOL    HW233105   0.164   3.169   2.324
10736SOL     OW33106   1.329   0.609   3.646
10736SOL    HW133107   1.384   0.655   3.576
10736SOL    HW233108   1.247   0.662   3.665
10737SOL     OW33109   1.430   1.539   0.310
10737SOL    HW133110   1.483   1.553   0.394
10737SOL    HW233111   1.373   1.619   0.293
10738SOL     OW33112   2.571   6.659   2.905
10738SOL    HW133113   2.482   6.689   2.871
10738SOL    HW233114   2.621   6.737   2.942
10739SOL     OW33115   1.939   1.079   1.596
10739SOL    HW133116   1.839   1.082   1.595
10739SOL    HW233117   1.972   1.014   1.528
10740SOL     OW33118   0.533   5.137   5.373
10740SOL    HW133119   0.439   5.104   5.381
10740SOL    HW233120   0.549   5.172   5.281
10741SOL     OW33121   4.337   0.861   1.412
10741SOL    HW133122   4.318   0.920   1.490
10741SOL    HW233123   4.318   0.766   1.436
10742SOL     OW33124   5.364   6.960   1.398
10742SOL    HW133125   5.454   6.927   1.371
10742SOL    HW233126   5.369   0.031   1.420
10743SOL     OW33127   1.373   2.716   5.526
10743SOL    HW133128   1.385   2.686   5.621
10743SOL    HW233129   1.456   2.765   5.497
10744SOL     OW33130   3.073   1.475   1.171
10744SOL    HW133131   3.082   1.379   1.199
10744SOL    HW233132   3.149   1.500   1.112
10745SOL     OW33133   6.641   5.536   5.800
10745SOL    HW133134   6.735   5.569   5.790
10745SOL    HW233135   6.593   5.593   5.867
10746SOL     OW33136   2.185   4.858   1.169
10746SOL    HW133137   2.203   4.767   1.130
10746SOL    HW233138   2.099   4.857   1.219
10747SOL     OW33139   3.878   1.191   4.773
10747SOL    HW133140   3.873   1.180   4.873
10747SOL    HW233141   3.790   1.223   4.739
10748SOL     OW33142   5.575   1.291   0.430
10748SOL    HW133143   5.491   1.240   0.416
10748SOL    HW233144   5.589   1.307   0.528
10749SOL     OW33145   0.512   5.470   3.860
10749SOL    HW133146   0.417   5.458   3.831
10749SOL    HW233147   0.517   5.541   3.930
10750SOL     OW33148   4.581   6.177   4.760
10750SOL    HW133149   4.655   6.109   4.759
10750SOL    HW233150   4.510   6.148   4.696
10751SOL     OW33151   1.856   4.781   4.482
10751SOL    HW133152   1.812   4.695   4.507
10751SOL    HW233153   1.861   4.841   4.561
10752SOL     OW33154   5.983   4.852   5.528
10752SOL    HW133155   6.050   4.880   5.460
10752SOL    HW233156   5.921   4.784   5.488
10753SOL     OW33157   5.981   4.653   4.552
10753SOL    HW133158   6.055   4.643   4.486
10753SOL    HW233159   6.006   4.723   4.620
10754SOL     OW33160   0.636   6.927   3.682
10754SOL    HW133161   0.613   6.994   3.753
10754SOL    HW233162   0.721   6.880   3.708
10755SOL     OW33163   0.219   0.450   0.902
10755SOL    HW133164   0.230   0.409   0.811
10755SOL    HW233165   0.133   0.501   0.905
10756SOL     OW33166   6.370   5.129   6.479
10756SOL    HW133167   6.398   5.145   6.384
10756SOL    HW233168   6.293   5.065   6.480
10757SOL     OW33169   1.702   2.853   0.149
10757SOL    HW133170   1.692   2.860   0.050
10757SOL    HW233171   1.612   2.843   0.191
10758SOL     OW33172   0.933   5.806   4.208
10758SOL    HW133173   0.988   5.745   4.151
10758SOL    HW233174   0.871   5.752   4.265
10759SOL     OW33175   1.534   3.777   1.654
10759SOL    HW133176   1.563   3.872   1.655
10759SOL    HW233177   1.453   3.766   1.713
10760SOL     OW33178   5.261   0.377   2.861
10760SOL    HW133179   5.360   0.394   2.860
10760SOL    HW233180   5.242   0.302   2.925
10761SOL     OW33181   0.574   6.055   5.920
10761SOL    HW133182   0.659   6.026   5.964
10761SOL    HW233183   0.536   5.978   5.868
10762SOL     OW33184   2.934   1.724   4.397
10762SOL    HW133185   2.967   1.805   4.446
10762SOL    HW233186   2.975   1.721   4.306
10763SOL     OW33187   4.194   6.409   2.305
10763SOL    HW133188   4.261   6.342   2.338
10763SOL    HW233189   4.207   6.424   2.207
10764SOL     OW33190   5.361   2.230   5.766
10764SOL    HW133191   5.366   2.236   5.667
10764SOL    HW233192   5.359   2.321   5.806
10765SOL     OW33193   4.940   2.827   0.599
10765SOL    HW133194   5.001   2.847   0.676
10765SOL    HW233195   4.848   2.808   0.634
10766SOL     OW33196   4.169   5.285   0.547
10766SOL    HW133197   4.098   5.263   0.481
10766SOL    HW233198   4.238   5.344   0.504
10767SOL     OW33199   2.151   0.416   1.555
10767SOL    HW133200   2.083   0.387   1.488
10767SOL    HW233201   2.176   0.338   1.613
10768SOL     OW33202   5.028   5.060   1.378
10768SOL    HW133203   5.040   4.961   1.384
10768SOL    HW233204   5.008   5.086   1.284
10769SOL     OW33205   2.369   4.087   5.370
10769SOL    HW133206   2.400   4.025   5.298
10769SOL    HW233207   2.363   4.036   5.457
10770SOL     OW33208   4.961   6.720   4.171
10770SOL    HW133209   4.883   6.755   4.119
10770SOL    HW233210   5.028   6.793   4.184
10771SOL     OW33211   4.752   6.863   4.070
10771SOL    HW133212   4.723   6.767   4.066
10771SOL    HW233213   4.692   6.918   4.011
10772SOL     OW33214   6.384   0.264   4.449
10772SOL    HW133215   6.420   0.302   4.364
10772SOL    HW233216   6.329   0.182   4.428
10773SOL     OW33217   5.864   5.606   6.600
10773SOL    HW133218   5.840   5.520   6.555
10773SOL    HW233219   5.903   5.587   6.690
10774SOL     OW33220   2.038   1.505   6.157
10774SOL    HW133221   2.039   1.555   6.071
10774SOL    HW233222   2.003   1.413   6.142
10775SOL     OW33223   0.267   4.431   2.941
10775SOL    HW133224   0.173   4.451   2.915
10775SOL    HW233225   0.330   4.475   2.877
10776SOL     OW33226   0.571   0.728   6.179
10776SOL    HW133227   0.501   0.665   6.215
10776SOL    HW233228   0.526   0.796   6.121
10777SOL     OW33229   3.921   5.581   1.813
10777SOL    HW133230   3.918   5.505   1.878
10777SOL    HW233231   3.871   5.557   1.731
10778SOL     OW33232   4.759   0.231   3.704
10778SOL    HW133233   4.715   0.141   3.699
10778SOL    HW233234   4.848   0.228   3.657
10779SOL     OW33235   5.791   2.920   3.487
10779SOL    HW133236   5.824   2.825   3.481
10779SOL    HW233237   5.692   2.922   3.478
10780SOL     OW33238   1.814   0.570   4.535
10780SOL    HW133239   1.752   0.584   4.458
10780SOL    HW233240   1.761   0.542   4.616
10781SOL     OW33241   4.509   1.122   4.068
10781SOL    HW133242   4.558   1.036   4.082
10781SOL    HW233243   4.569   1.199   4.090
10782SOL     OW33244   0.082   0.552   3.002
10782SOL    HW133245   0.011   0.485   3.025
10782SOL    HW233246   0.082   0.626   3.069
10783SOL     OW33247   0.824   2.230   2.399
10783SOL    HW133248   0.780   2.153   2.353
10783SOL    HW233249   0.854   2.296   2.330
10784SOL     OW33250   4.084   0.657   4.372
10784SOL    HW133251   4.111   0.610   4.287
10784SOL    HW233252   4.142   0.737   4.385
10785SOL     OW33253   0.471   4.203   0.344
10785SOL    HW133254   0.459   4.235   0.438
10785SOL    HW233255   0.510   4.276   0.288
10786SOL     OW33256   6.614   5.219   3.332
10786SOL    HW133257   6.664   5.254   3.411
10786SOL    HW233258   6.630   5.279   3.253
10787SOL     OW33259   1.473   1.286   6.108
10787SOL    HW133260   1.536   1.335   6.168
10787SOL    HW233261   1.397   1.346   6.083
10788SOL     OW33262   1.081   4.062   0.108
10788SOL    HW133263   1.005   3.997   0.113
10788SOL    HW233264   1.140   4.051   0.188
10789SOL     OW33265   6.781   3.558   6.791
10789SOL    HW133266   6.845   3.553   6.714
10789SOL    HW233267   6.723   3.477   6.791
10790SOL     OW33268   0.914   6.993   1.955
10790SOL    HW133269   0.815   6.978   1.956
10790SOL    HW233270   0.960   6.913   1.916
10791SOL     OW33271   0.241   5.720   1.662
10791SOL    HW133272   0.305   5.669   1.720
10791SOL    HW233273   0.219   5.667   1.580
10792SOL     OW33274   3.165   2.954   4.988
10792SOL    HW133275   3.118   2.982   4.904
10792SOL    HW233276   3.254   2.917   4.965
10793SOL     OW33277   6.256   3.830   6.254
10793SOL    HW133278   6.311   3.748   6.264
10793SOL    HW233279   6.302   3.907   6.299
10794SOL     OW33280   3.951   3.793   4.285
10794SOL    HW133281   3.916   3.885   4.301
10794SOL    HW233282   3.990   3.786   4.194
10795SOL     OW33283   0.369   4.921   2.597
10795SOL    HW133284   0.369   4.973   2.511
10795SOL    HW233285   0.371   4.985   2.674
10796SOL     OW33286   6.547   6.922   5.517
10796SOL    HW133287   6.503   6.989   5.577
10796SOL    HW233288   6.642   6.909   5.546
10797SOL     OW33289   2.840   2.339   1.098
10797SOL    HW133290   2.777   2.376   1.030
10797SOL    HW233291   2.912   2.405   1.117
10798SOL     OW33292   2.824   0.725   0.694
10798SOL    HW133293   2.832   0.770   0.605
10798SOL    HW233294   2.868   0.635   0.689
10799SOL     OW33295   4.495   0.939   2.550
10799SOL    HW133296   4.496   1.037   2.568
10799SOL    HW233297   4.416   0.897   2.596
10800SOL     OW33298   0.964   5.846   5.676
10800SOL    HW133299   1.055   5.807   5.692
10800SOL    HW233300   0.938   5.829   5.581
10801SOL     OW33301   0.879   6.969   6.950
10801SOL    HW133302   0.919   6.927   0.006
10801SOL    HW233303   0.831   6.899   6.897
10802SOL     OW33304   0.576   0.314   2.236
10802SOL    HW133305   0.521   0.261   2.301
10802SOL    HW233306   0.598   0.257   2.157
10803SOL     OW33307   1.541   5.515   5.197
10803SOL    HW133308   1.618   5.468   5.239
10803SOL    HW233309   1.511   5.465   5.116
10804SOL     OW33310   6.113   3.335   2.621
10804SOL    HW133311   6.115   3.347   2.522
10804SOL    HW233312   6.035   3.279   2.646
10805SOL     OW33313   4.865   0.614   5.047
10805SOL    HW133314   4.823   0.696   5.009
10805SOL    HW233315   4.936   0.640   5.113
10806SOL     OW33316   3.687   4.222   5.986
10806SOL    HW133317   3.611   4.209   6.050
10806SOL    HW233318   3.742   4.139   5.982
10807SOL     OW33319   1.258   6.460   3.520
10807SOL    HW133320   1.324   6.529   3.551
10807SOL    HW233321   1.203   6.430   3.598
10808SOL     OW33322   7.008   2.454   5.725
10808SOL    HW133323   0.045   2.532   5.718
10808SOL    HW233324   0.003   2.403   5.808
10809SOL     OW33325   2.465   4.462   3.492
10809SOL    HW133326   2.528   4.515   3.549
10809SOL    HW233327   2.434   4.382   3.542
10810SOL     OW33328   0.100   0.339   4.278
10810SOL    HW133329   0.091   0.402   4.355
10810SOL    HW233330   0.027   0.271   4.281
10811SOL     OW33331   4.497   4.776   5.512
10811SOL    HW133332   4.552   4.771   5.429
10811SOL    HW233333   4.400   4.783   5.487
10812SOL     OW33334   0.056   3.835   0.144
10812SOL    HW133335   0.068   3.899   0.220
10812SOL    HW233336   0.069   3.884   0.057
10813SOL     OW33337   0.901   3.392   6.212
10813SOL    HW133338   1.000   3.392   6.205
10813SOL    HW233339   0.867   3.299   6.207
10814SOL     OW33340   2.159   6.875   6.682
10814SOL    HW133341   2.129   6.964   6.715
10814SOL    HW233342   2.259   6.868   6.692
10815SOL     OW33343   5.144   3.120   3.203
10815SOL    HW133344   5.090   3.087   3.280
10815SOL    HW233345   5.212   3.051   3.177
10816SOL     OW33346   3.185   3.502   2.729
10816SOL    HW133347   3.229   3.414   2.745
10816SOL    HW233348   3.161   3.511   2.632
10817SOL     OW33349   3.599   0.358   3.882
10817SOL    HW133350   3.557   0.433   3.934
10817SOL    HW233351   3.668   0.396   3.820
10818SOL     OW33352   4.649   4.480   5.674
10818SOL    HW133353   4.688   4.557   5.725
10818SOL    HW233354   4.646   4.399   5.733
10819SOL     OW33355   6.136   5.447   6.560
10819SOL    HW133356   6.055   5.434   6.618
10819SOL    HW233357   6.162   5.544   6.560
10820SOL     OW33358   6.935   5.224   4.342
10820SOL    HW133359   7.001   5.218   4.267
10820SOL    HW233360   6.978   5.191   4.426
10821SOL     OW33361   4.205   6.965   2.537
10821SOL    HW133362   4.291   6.986   2.489
10821SOL    HW233363   4.128   6.993   2.480
10822SOL     OW33364   6.440   1.740   2.231
10822SOL    HW133365   6.434   1.740   2.131
10822SOL    HW233366   6.351   1.719   2.270
10823SOL     OW33367   0.403   0.273   2.846
10823SOL    HW133368   0.478   0.283   2.911
10823SOL    HW233369   0.362   0.362   2.828
10824SOL     OW33370   0.133   1.093   2.179
10824SOL    HW133371   0.104   0.997   2.175
10824SOL    HW233372   0.211   1.107   2.118
10825SOL     OW33373   1.663   2.020   0.355
10825SOL    HW133374   1.657   2.047   0.451
10825SOL    HW233375   1.716   2.088   0.304
10826SOL     OW33376   0.691   1.394   2.369
10826SOL    HW133377   0.615   1.373   2.306
10826SOL    HW233378   0.772   1.344   2.340
10827SOL     OW33379   0.031   3.154   4.520
10827SOL    HW133380   0.117   3.186   4.560
10827SOL    HW233381   0.050   3.101   4.437
10828SOL     OW33382   1.142   4.120   0.608
10828SOL    HW133383   1.124   4.022   0.607
10828SOL    HW233384   1.090   4.163   0.682
10829SOL     OW33385   4.639   3.142   0.210
10829SOL    HW133386   4.730   3.177   0.185
10829SOL    HW233387   4.578   3.150   0.132
10830SOL     OW33388   4.646   1.867   3.311
10830SOL    HW133389   4.632   1.768   3.306
10830SOL    HW233390   4.616   1.900   3.400
10831SOL     OW33391   2.862   6.317   2.262
10831SOL    HW133392   2.814   6.368   2.191
10831SOL    HW233393   2.812   6.325   2.348
10832SOL     OW33394   6.549   4.036   6.613
10832SOL    HW133395   6.543   3.954   6.670
10832SOL    HW233396   6.636   4.036   6.564
10833SOL     OW33397   0.870   1.824   0.269
10833SOL    HW133398   0.923   1.767   0.207
10833SOL    HW233399   0.789   1.859   0.221
10834SOL     OW33400   6.581   1.942   0.070
10834SOL    HW133401   6.614   1.883   0.143
10834SOL    HW233402   6.491   1.979   0.095
10835SOL     OW33403   5.389   3.665   0.456
10835SOL    HW133404   5.323   3.706   0.392
10835SOL    HW233405   5.418   3.576   0.421
10836SOL     OW33406   0.250   1.185   2.703
10836SOL    HW133407   0.327   1.210   2.762
10836SOL    HW233408   0.232   1.087   2.712
10837SOL     OW33409   6.628   4.777   2.025
10837SOL    HW133410   6.649   4.828   1.941
10837SOL    HW233411   6.699   4.795   2.093
10838SOL     OW33412   5.795   6.628   3.846
10838SOL    HW133413   5.840   6.580   3.922
10838SOL    HW233414   5.859   6.692   3.804
10839SOL     OW33415   4.702   3.472   0.616
10839SOL    HW133416   4.771   3.544   0.623
10839SOL    HW233417   4.715   3.406   0.689
10840SOL     OW33418   3.659   6.593   2.077
10840SOL    HW133419   3.596   6.558   2.146
10840SOL    HW233420   3.675   6.690   2.092
10841SOL     OW33421   6.493   4.797   5.071
10841SOL    HW133422   6.568   4.830   5.015
10841SOL    HW233423   6.445   4.875   5.112
10842SOL     OW33424   5.020   2.205   1.557
10842SOL    HW133425   4.937   2.178   1.606
10842SOL    HW233426   5.061   2.124   1.515
10843SOL     OW33427   1.698   1.202   1.409
10843SOL    HW133428   1.652   1.168   1.327
10843SOL    HW233429   1.794   1.174   1.408
10844SOL     OW33430   6.454   4.715   3.138
10844SOL    HW133431   6.423   4.679   3.226
10844SOL    HW233432   6.440   4.814   3.135
10845SOL     OW33433   4.508   6.072   5.275
10845SOL    HW133434   4.511   6.025   5.363
10845SOL    HW233435   4.486   6.169   5.290
10846SOL     OW33436   5.430   0.483   0.058
10846SOL    HW133437   5.369   0.457   7.010
10846SOL    HW233438   5.469   0.574   0.040
10847SOL     OW33439   2.953   2.390   0.079
10847SOL    HW133440   2.935   2.488   0.086
10847SOL    HW233441   3.049   2.372   0.101
10848SOL     OW33442   0.505   4.000   0.976
10848SOL    HW133443   0.524   3.916   0.925
10848SOL    HW233444   0.410   4.027   0.961
10849SOL     OW33445   2.562   4.520   4.159
10849SOL    HW133446   2.627   4.448   4.137
10849SOL    HW233447   2.519   4.554   4.075
10850SOL     OW33448   3.441   6.313   6.555
10850SOL    HW133449   3.382   6.291   6.633
10850SOL    HW233450   3.517   6.369   6.586
10851SOL     OW33451   3.142   3.697   1.074
10851SOL    HW133452   3.204   3.621   1.056
10851SOL    HW233453   3.149   3.724   1.170
10852SOL     OW33454   1.742   1.016   6.674
10852SOL    HW133455   1.769   1.039   6.767
10852SOL    HW233456   1.714   0.920   6.671
10853SOL     OW33457   2.575   3.134   5.991
10853SOL    HW133458   2.509   3.209   5.995
10853SOL    HW233459   2.556   3.068   6.064
10854SOL     OW33460   4.425   5.225   5.384
10854SOL    HW133461   4.512   5.221   5.336
10854SOL    HW233462   4.380   5.136   5.379
10855SOL     OW33463   3.889   0.854   0.432
10855SOL    HW133464   3.928   0.913   0.361
10855SOL    HW233465   3.863   0.909   0.511
10856SOL     OW33466   6.450   1.509   0.120
10856SOL    HW133467   6.510   1.490   0.042
10856SOL    HW233468   6.505   1.517   0.204
10857SOL     OW33469   0.278   2.416   2.749
10857SOL    HW133470   0.188   2.421   2.705
10857SOL    HW233471   0.334   2.493   2.718
10858SOL     OW33472   0.987   0.202   0.374
10858SOL    HW133473   1.006   0.300   0.385
10858SOL    HW233474   0.931   0.170   0.450
10859SOL     OW33475   0.235   4.377   4.414
10859SOL    HW133476   0.325   4.369   4.457
10859SOL    HW233477   0.205   4.472   4.418
10860SOL     OW33478   0.443   3.080   4.375
10860SOL    HW133479   0.427   3.161   4.319
10860SOL    HW233480   0.380   3.007   4.346
10861SOL     OW33481   3.161   3.124   3.322
10861SOL    HW133482   3.077   3.143   3.372
10861SOL    HW233483   3.193   3.208   3.277
10862SOL     OW33484   1.639   0.959   5.583
10862SOL    HW133485   1.660   1.011   5.501
10862SOL    HW233486   1.641   0.862   5.563
10863SOL     OW33487   2.211   0.385   4.407
10863SOL    HW133488   2.285   0.330   4.446
10863SOL    HW233489   2.176   0.448   4.476
10864SOL     OW33490   3.344   6.357   0.301
10864SOL    HW133491   3.416   6.324   0.241
10864SOL    HW233492   3.259   6.308   0.282
10865SOL     OW33493   6.495   1.434   0.594
10865SOL    HW133494   6.539   1.361   0.541
10865SOL    HW233495   6.485   1.405   0.689
10866SOL     OW33496   5.523   4.970   0.793
10866SOL    HW133497   5.594   4.899   0.801
10866SOL    HW233498   5.495   5.000   0.884
10867SOL     OW33499   2.907   4.393   0.727
10867SOL    HW133500   2.981   4.369   0.664
10867SOL    HW233501   2.847   4.314   0.740
10868SOL     OW33502   5.144   1.889   3.747
10868SOL    HW133503   5.189   1.800   3.741
10868SOL    HW233504   5.150   1.936   3.659
10869NA      NA33505   6.556   3.093   5.408
10870NA      NA33506   4.560   4.562   5.175
10871NA      NA33507   1.304   3.001   1.501
10872NA      NA33508   5.045   3.873   5.321
10873NA      NA33509   4.191   2.345   5.286
10874NA      NA33510   3.581   4.843   1.743
10875NA      NA33511   6.606   5.005   6.537
10876NA      NA33512   3.127   3.472   4.850
10877NA      NA33513   4.405   6.222   6.862
10878NA      NA33514   4.149   6.329   5.301
10879NA      NA33515   6.602   5.105   2.481
10880NA      NA33516   2.212   0.136   3.584
10881NA      NA33517   4.140   5.702   1.805
10882NA      NA33518   3.911   3.603   2.565
   7.02576   7.02576   7.02576
