Generated by trjconv : CNT in water t=  10.00000
33518
    1C        C    1   2.840   2.766   4.747
    1C        C    2   2.897   2.713   4.865
    1C        C    3   2.842   2.767   4.982
    1C        C    4   2.844   2.772   4.261
    1C        C    5   2.896   2.721   4.382
    1C        C    6   2.839   2.765   4.504
    1C        C    7   3.011   2.642   4.625
    1C        C    8   2.891   2.716   4.626
    1C        C    9   3.077   2.601   4.742
    1C        C   10   3.009   2.627   4.863
    1C        C   11   3.182   2.486   4.972
    1C        C   12   3.062   2.558   4.973
    1C        C   13   2.851   2.770   3.768
    1C        C   14   2.900   2.725   3.893
    1C        C   15   2.854   2.775   4.016
    1C        C   16   3.018   2.646   4.137
    1C        C   17   2.904   2.730   4.140
    1C        C   18   3.078   2.610   4.260
    1C        C   19   3.014   2.643   4.381
    1C        C   20   3.207   2.556   4.501
    1C        C   21   3.077   2.610   4.503
    1C        C   22   3.278   2.528   4.621
    1C        C   23   3.207   2.542   4.742
    1C        C   24   3.413   2.478   4.862
    1C        C   25   3.271   2.497   4.861
    1C        C   26   3.487   2.488   4.980
    1C        C   27   2.847   2.763   3.277
    1C        C   28   2.902   2.724   3.401
    1C        C   29   2.851   2.772   3.523
    1C        C   30   3.018   2.642   3.647
    1C        C   31   2.903   2.724   3.645
    1C        C   32   3.075   2.607   3.771
    1C        C   33   3.015   2.643   3.894
    1C        C   34   3.204   2.547   4.013
    1C        C   35   3.075   2.603   4.015
    1C        C   36   3.272   2.525   4.136
    1C        C   37   3.209   2.558   4.258
    1C        C   38   3.414   2.505   4.376
    1C        C   39   3.277   2.536   4.380
    1C        C   40   3.485   2.501   4.498
    1C        C   41   3.415   2.495   4.621
    1C        C   42   3.628   2.478   4.741
    1C        C   43   3.486   2.472   4.741
    1C        C   44   3.702   2.484   4.861
    1C        C   45   3.626   2.476   4.978
    1C        C   46   2.833   2.745   2.791
    1C        C   47   2.893   2.708   2.913
    1C        C   48   2.844   2.759   3.036
    1C        C   49   3.015   2.632   3.161
    1C        C   50   2.896   2.709   3.157
    1C        C   51   3.076   2.598   3.283
    1C        C   52   3.016   2.640   3.404
    1C        C   53   3.208   2.546   3.525
    1C        C   54   3.079   2.604   3.525
    1C        C   55   3.274   2.527   3.649
    1C        C   56   3.204   2.548   3.770
    1C        C   57   3.412   2.506   3.892
    1C        C   58   3.272   2.526   3.891
    1C        C   59   3.485   2.498   4.012
    1C        C   60   3.412   2.504   4.133
    1C        C   61   3.625   2.494   4.254
    1C        C   62   3.484   2.493   4.254
    1C        C   63   3.698   2.498   4.375
    1C        C   64   3.626   2.499   4.497
    1C        C   65   3.831   2.544   4.618
    1C        C   66   3.696   2.504   4.619
    1C        C   67   3.900   2.563   4.739
    1C        C   68   3.837   2.525   4.860
    1C        C   69   4.047   2.587   4.974
    1C        C   70   3.918   2.532   4.974
    1C        C   71   2.827   2.736   2.306
    1C        C   72   2.888   2.698   2.428
    1C        C   73   2.833   2.748   2.548
    1C        C   74   3.009   2.628   2.671
    1C        C   75   2.888   2.700   2.669
    1C        C   76   3.074   2.595   2.792
    1C        C   77   3.011   2.630   2.914
    1C        C   78   3.203   2.543   3.038
    1C        C   79   3.072   2.598   3.036
    1C        C   80   3.273   2.520   3.159
    1C        C   81   3.207   2.543   3.281
    1C        C   82   3.413   2.493   3.401
    1C        C   83   3.274   2.519   3.403
    1C        C   84   3.484   2.491   3.522
    1C        C   85   3.412   2.501   3.643
    1C        C   86   3.621   2.498   3.766
    1C        C   87   3.479   2.496   3.768
    1C        C   88   3.692   2.508   3.887
    1C        C   89   3.626   2.496   4.011
    1C        C   90   3.833   2.543   4.133
    1C        C   91   3.697   2.504   4.133
    1C        C   92   3.899   2.568   4.255
    1C        C   93   3.834   2.537   4.376
    1C        C   94   4.027   2.629   4.497
    1C        C   95   3.902   2.563   4.497
    1C        C   96   4.089   2.667   4.618
    1C        C   97   4.029   2.623   4.737
    1C        C   98   4.194   2.761   4.861
    1C        C   99   4.095   2.657   4.859
    1C        C  100   4.215   2.839   4.975
    1C        C  101   2.817   2.727   2.066
    1C        C  102   2.987   2.592   2.188
    1C        C  103   2.871   2.676   2.185
    1C        C  104   3.062   2.572   2.307
    1C        C  105   3.005   2.619   2.427
    1C        C  106   3.199   2.532   2.549
    1C        C  107   3.069   2.588   2.549
    1C        C  108   3.268   2.515   2.671
    1C        C  109   3.203   2.537   2.795
    1C        C  110   3.410   2.493   2.912
    1C        C  111   3.272   2.522   2.917
    1C        C  112   3.480   2.490   3.034
    1C        C  113   3.413   2.498   3.158
    1C        C  114   3.626   2.495   3.276
    1C        C  115   3.485   2.486   3.279
    1C        C  116   3.694   2.505   3.400
    1C        C  117   3.626   2.494   3.523
    1C        C  118   3.833   2.537   3.643
    1C        C  119   3.695   2.504   3.646
    1C        C  120   3.895   2.570   3.765
    1C        C  121   3.827   2.549   3.887
    1C        C  122   4.022   2.633   4.011
    1C        C  123   3.896   2.570   4.009
    1C        C  124   4.084   2.672   4.132
    1C        C  125   4.024   2.634   4.254
    1C        C  126   4.194   2.762   4.375
    1C        C  127   4.087   2.669   4.375
    1C        C  128   4.242   2.816   4.497
    1C        C  129   4.197   2.759   4.618
    1C        C  130   4.329   2.927   4.738
    1C        C  131   4.248   2.810   4.739
    1C        C  132   4.354   2.998   4.857
    1C        C  133   4.282   2.961   4.971
    1C        C  134   3.171   2.465   2.077
    1C        C  135   3.039   2.510   2.083
    1C        C  136   3.258   2.480   2.186
    1C        C  137   3.194   2.519   2.306
    1C        C  138   3.405   2.486   2.426
    1C        C  139   3.265   2.505   2.427
    1C        C  140   3.478   2.486   2.547
    1C        C  141   3.407   2.490   2.669
    1C        C  142   3.621   2.491   2.791
    1C        C  143   3.480   2.482   2.790
    1C        C  144   3.694   2.501   2.912
    1C        C  145   3.621   2.491   3.033
    1C        C  146   3.830   2.542   3.155
    1C        C  147   3.694   2.502   3.153
    1C        C  148   3.896   2.566   3.278
    1C        C  149   3.831   2.539   3.400
    1C        C  150   4.027   2.624   3.518
    1C        C  151   3.900   2.561   3.521
    1C        C  152   4.079   2.667   3.642
    1C        C  153   4.020   2.635   3.766
    1C        C  154   4.189   2.763   3.886
    1C        C  155   4.081   2.671   3.888
    1C        C  156   4.241   2.808   4.009
    1C        C  157   4.195   2.760   4.134
    1C        C  158   4.335   2.922   4.250
    1C        C  159   4.247   2.813   4.254
    1C        C  160   4.375   2.980   4.372
    1C        C  161   4.327   2.928   4.495
    1C        C  162   4.432   3.113   4.613
    1C        C  163   4.370   2.986   4.616
    1C        C  164   4.463   3.182   4.733
    1C        C  165   4.428   3.118   4.854
    1C        C  166   4.512   3.317   4.972
    1C        C  167   4.474   3.183   4.969
    1C        C  168   3.472   2.434   2.070
    1C        C  169   3.398   2.461   2.185
    1C        C  170   3.615   2.461   2.305
    1C        C  171   3.473   2.463   2.305
    1C        C  172   3.690   2.482   2.423
    1C        C  173   3.619   2.483   2.545
    1C        C  174   3.825   2.538   2.665
    1C        C  175   3.688   2.500   2.667
    1C        C  176   3.896   2.552   2.786
    1C        C  177   3.832   2.532   2.910
    1C        C  178   4.022   2.624   3.028
    1C        C  179   3.898   2.558   3.032
    1C        C  180   4.083   2.663   3.150
    1C        C  181   4.022   2.629   3.273
    1C        C  182   4.196   2.749   3.395
    1C        C  183   4.087   2.660   3.395
    1C        C  184   4.243   2.801   3.519
    1C        C  185   4.191   2.755   3.642
    1C        C  186   4.334   2.914   3.765
    1C        C  187   4.242   2.806   3.763
    1C        C  188   4.376   2.974   3.886
    1C        C  189   4.332   2.916   4.007
    1C        C  190   4.443   3.102   4.126
    1C        C  191   4.375   2.979   4.126
    1C        C  192   4.468   3.169   4.248
    1C        C  193   4.441   3.105   4.371
    1C        C  194   4.503   3.312   4.491
    1C        C  195   4.462   3.177   4.491
    1C        C  196   4.519   3.386   4.611
    1C        C  197   4.504   3.318   4.734
    1C        C  198   4.554   3.530   4.848
    1C        C  199   4.528   3.390   4.854
    1C        C  200   4.576   3.615   4.961
    1C        C  201   3.611   2.417   2.071
    1C        C  202   3.824   2.506   2.179
    1C        C  203   3.690   2.456   2.184
    1C        C  204   3.894   2.535   2.299
    1C        C  205   3.827   2.516   2.422
    1C        C  206   4.018   2.617   2.539
    1C        C  207   3.892   2.555   2.542
    1C        C  208   4.079   2.654   2.661
    1C        C  209   4.022   2.616   2.785
    1C        C  210   4.191   2.749   2.905
    1C        C  211   4.083   2.658   2.905
    1C        C  212   4.244   2.799   3.026
    1C        C  213   4.197   2.746   3.148
    1C        C  214   4.328   2.909   3.272
    1C        C  215   4.246   2.795   3.271
    1C        C  216   4.370   2.971   3.392
    1C        C  217   4.328   2.914   3.514
    1C        C  218   4.422   3.099   3.638
    1C        C  219   4.363   2.970   3.639
    1C        C  220   4.455   3.167   3.758
    1C        C  221   4.439   3.100   3.881
    1C        C  222   4.498   3.303   4.003
    1C        C  223   4.470   3.165   4.002
    1C        C  224   4.509   3.376   4.123
    1C        C  225   4.501   3.306   4.245
    1C        C  226   4.525   3.519   4.365
    1C        C  227   4.516   3.378   4.366
    1C        C  228   4.514   3.596   4.483
    1C        C  229   4.524   3.527   4.606
    1C        C  230   4.504   3.738   4.724
    1C        C  231   4.538   3.600   4.725
    1C        C  232   4.489   3.812   4.844
    1C        C  233   4.535   3.749   4.960
    1C        C  234   4.013   2.607   2.062
    1C        C  235   3.891   2.540   2.061
    1C        C  236   4.083   2.644   2.178
    1C        C  237   4.019   2.603   2.297
    1C        C  238   4.198   2.729   2.419
    1C        C  239   4.080   2.650   2.416
    1C        C  240   4.253   2.778   2.540
    1C        C  241   4.191   2.740   2.660
    1C        C  242   4.331   2.903   2.781
    1C        C  243   4.242   2.793   2.781
    1C        C  244   4.373   2.964   2.902
    1C        C  245   4.335   2.908   3.026
    1C        C  246   4.432   3.093   3.148
    1C        C  247   4.368   2.967   3.150
    1C        C  248   4.457   3.160   3.270
    1C        C  249   4.435   3.096   3.394
    1C        C  250   4.495   3.299   3.514
    1C        C  251   4.455   3.163   3.517
    1C        C  252   4.513   3.370   3.635
    1C        C  253   4.500   3.301   3.757
    1C        C  254   4.518   3.512   3.878
    1C        C  255   4.510   3.371   3.879
    1C        C  256   4.515   3.588   3.997
    1C        C  257   4.516   3.517   4.120
    1C        C  258   4.494   3.726   4.239
    1C        C  259   4.521   3.588   4.242
    1C        C  260   4.469   3.800   4.357
    1C        C  261   4.488   3.735   4.480
    1C        C  262   4.426   3.936   4.602
    1C        C  263   4.480   3.805   4.602
    1C        C  264   4.399   4.007   4.722
    1C        C  265   4.430   3.940   4.842
    1C        C  266   4.317   4.128   4.958
    1C        C  267   4.395   4.013   4.957
    1C        C  268   4.261   2.774   2.059
    1C        C  269   4.195   2.729   2.174
    1C        C  270   4.336   2.889   2.297
    1C        C  271   4.247   2.777   2.296
    1C        C  272   4.372   2.953   2.418
    1C        C  273   4.336   2.892   2.540
    1C        C  274   4.442   3.082   2.659
    1C        C  275   4.376   2.957   2.659
    1C        C  276   4.471   3.150   2.779
    1C        C  277   4.443   3.087   2.902
    1C        C  278   4.496   3.292   3.024
    1C        C  279   4.461   3.155   3.024
    1C        C  280   4.508   3.365   3.145
    1C        C  281   4.498   3.295   3.267
    1C        C  282   4.513   3.505   3.389
    1C        C  283   4.511   3.364   3.390
    1C        C  284   4.512   3.579   3.509
    1C        C  285   4.518   3.511   3.633
    1C        C  286   4.489   3.721   3.749
    1C        C  287   4.514   3.582   3.756
    1C        C  288   4.474   3.791   3.871
    1C        C  289   4.494   3.728   3.996
    1C        C  290   4.424   3.927   4.113
    1C        C  291   4.478   3.797   4.118
    1C        C  292   4.394   3.993   4.234
    1C        C  293   4.418   3.932   4.359
    1C        C  294   4.321   4.122   4.478
    1C        C  295   4.389   3.998   4.481
    1C        C  296   4.285   4.187   4.598
    1C        C  297   4.326   4.129   4.720
    1C        C  298   4.200   4.311   4.834
    1C        C  299   4.284   4.195   4.839
    1C        C  300   4.169   4.400   4.942
    1C        C  301   4.351   2.880   2.062
    1C        C  302   4.470   3.063   2.176
    1C        C  303   4.398   2.939   2.180
    1C        C  304   4.471   3.139   2.296
    1C        C  305   4.440   3.077   2.419
    1C        C  306   4.510   3.283   2.535
    1C        C  307   4.472   3.147   2.537
    1C        C  308   4.518   3.356   2.656
    1C        C  309   4.505   3.287   2.779
    1C        C  310   4.522   3.499   2.898
    1C        C  311   4.515   3.358   2.901
    1C        C  312   4.512   3.570   3.019
    1C        C  313   4.514   3.506   3.145
    1C        C  314   4.485   3.716   3.260
    1C        C  315   4.509   3.577   3.267
    1C        C  316   4.472   3.782   3.384
    1C        C  317   4.490   3.718   3.509
    1C        C  318   4.418   3.923   3.625
    1C        C  319   4.472   3.792   3.628
    1C        C  320   4.391   3.985   3.749
    1C        C  321   4.420   3.922   3.872
    1C        C  322   4.310   4.108   3.989
    1C        C  323   4.386   3.989   3.991
    1C        C  324   4.274   4.166   4.112
    1C        C  325   4.319   4.113   4.235
    1C        C  326   4.184   4.282   4.351
    1C        C  327   4.278   4.177   4.355
    1C        C  328   4.136   4.336   4.472
    1C        C  329   4.189   4.290   4.595
    1C        C  330   4.022   4.432   4.712
    1C        C  331   4.136   4.347   4.712
    1C        C  332   3.970   4.489   4.830
    1C        C  333   4.049   4.471   4.944
    1C        C  334   4.554   3.263   2.061
    1C        C  335   4.535   3.124   2.064
    1C        C  336   4.536   3.346   2.173
    1C        C  337   4.508   3.277   2.293
    1C        C  338   4.520   3.493   2.408
    1C        C  339   4.518   3.352   2.412
    1C        C  340   4.522   3.565   2.530
    1C        C  341   4.528   3.497   2.653
    1C        C  342   4.493   3.707   2.772
    1C        C  343   4.519   3.568   2.775
    1C        C  344   4.474   3.778   2.892
    1C        C  345   4.485   3.709   3.015
    1C        C  346   4.419   3.913   3.138
    1C        C  347   4.461   3.778   3.136
    1C        C  348   4.388   3.980   3.258
    1C        C  349   4.424   3.915   3.379
    1C        C  350   4.315   4.100   3.501
    1C        C  351   4.391   3.981   3.499
    1C        C  352   4.273   4.162   3.621
    1C        C  353   4.319   4.106   3.742
    1C        C  354   4.173   4.262   3.865
    1C        C  355   4.270   4.159   3.863
    1C        C  356   4.122   4.315   3.985
    1C        C  357   4.182   4.273   4.106
    1C        C  358   4.010   4.398   4.227
    1C        C  359   4.131   4.324   4.227
    1C        C  360   3.948   4.437   4.347
    1C        C  361   4.020   4.416   4.467
    1C        C  362   3.827   4.508   4.590
    1C        C  363   3.958   4.457   4.588
    1C        C  364   3.760   4.539   4.711
    1C        C  365   3.837   4.536   4.829
    1C        C  366   3.628   4.597   4.944
    1C        C  367   3.765   4.575   4.944
    1C        C  368   4.503   3.561   2.048
    1C        C  369   4.515   3.485   2.166
    1C        C  370   4.496   3.702   2.283
    1C        C  371   4.513   3.561   2.285
    1C        C  372   4.478   3.773   2.404
    1C        C  373   4.497   3.704   2.525
    1C        C  374   4.423   3.903   2.647
    1C        C  375   4.475   3.772   2.647
    1C        C  376   4.393   3.973   2.766
    1C        C  377   4.424   3.911   2.889
    1C        C  378   4.314   4.089   3.010
    1C        C  379   4.393   3.971   3.012
    1C        C  380   4.269   4.150   3.129
    1C        C  381   4.311   4.099   3.253
    1C        C  382   4.177   4.258   3.376
    1C        C  383   4.270   4.152   3.378
    1C        C  384   4.119   4.309   3.494
    1C        C  385   4.170   4.260   3.617
    1C        C  386   4.005   4.387   3.741
    1C        C  387   4.119   4.304   3.741
    1C        C  388   3.941   4.426   3.860
    1C        C  389   4.002   4.391   3.982
    1C        C  390   3.814   4.483   4.107
    1C        C  391   3.945   4.429   4.106
    1C        C  392   3.749   4.515   4.228
    1C        C  393   3.821   4.498   4.348
    1C        C  394   3.615   4.549   4.472
    1C        C  395   3.753   4.522   4.470
    1C        C  396   3.544   4.563   4.594
    1C        C  397   3.621   4.562   4.712
    1C        C  398   3.408   4.548   4.837
    1C        C  399   3.547   4.574   4.832
    1C        C  400   3.340   4.514   4.955
    1C        C  401   4.497   3.699   2.045
    1C        C  402   4.454   3.912   2.164
    1C        C  403   4.489   3.775   2.163
    1C        C  404   4.410   3.974   2.283
    1C        C  405   4.434   3.907   2.405
    1C        C  406   4.323   4.091   2.522
    1C        C  407   4.397   3.971   2.525
    1C        C  408   4.274   4.144   2.644
    1C        C  409   4.315   4.091   2.768
    1C        C  410   4.175   4.252   2.887
    1C        C  411   4.269   4.147   2.889
    1C        C  412   4.122   4.299   3.009
    1C        C  413   4.172   4.252   3.133
    1C        C  414   3.999   4.377   3.250
    1C        C  415   4.119   4.302   3.254
    1C        C  416   3.937   4.413   3.372
    1C        C  417   3.998   4.382   3.495
    1C        C  418   3.810   4.472   3.616
    1C        C  419   3.939   4.414   3.619
    1C        C  420   3.742   4.504   3.736
    1C        C  421   3.811   4.482   3.858
    1C        C  422   3.609   4.523   3.985
    1C        C  423   3.748   4.498   3.983
    1C        C  424   3.536   4.538   4.105
    1C        C  425   3.610   4.541   4.226
    1C        C  426   3.404   4.541   4.356
    1C        C  427   3.544   4.555   4.350
    1C        C  428   3.329   4.540   4.475
    1C        C  429   3.403   4.554   4.595
    1C        C  430   3.195   4.517   4.720
    1C        C  431   3.334   4.546   4.717
    1C        C  432   3.121   4.494   4.840
    1C        C  433   3.202   4.494   4.954
    1C        C  434   4.386   4.123   2.051
    1C        C  435   4.444   3.995   2.053
    1C        C  436   4.305   4.164   2.161
    1C        C  437   4.337   4.096   2.282
    1C        C  438   4.185   4.251   2.401
    1C        C  439   4.288   4.155   2.401
    1C        C  440   4.125   4.296   2.521
    1C        C  441   4.179   4.248   2.643
    1C        C  442   4.003   4.370   2.765
    1C        C  443   4.124   4.298   2.763
    1C        C  444   3.942   4.408   2.887
    1C        C  445   4.007   4.380   3.009
    1C        C  446   3.810   4.473   3.125
    1C        C  447   3.939   4.415   3.128
    1C        C  448   3.748   4.495   3.250
    1C        C  449   3.809   4.473   3.375
    1C        C  450   3.603   4.530   3.489
    1C        C  451   3.739   4.495   3.496
    1C        C  452   3.541   4.539   3.616
    1C        C  453   3.605   4.535   3.742
    1C        C  454   3.395   4.540   3.858
    1C        C  455   3.536   4.542   3.866
    1C        C  456   3.333   4.530   3.984
    1C        C  457   3.395   4.540   4.111
    1C        C  458   3.192   4.500   4.232
    1C        C  459   3.330   4.528   4.235
    1C        C  460   3.125   4.488   4.356
    1C        C  461   3.191   4.509   4.479
    1C        C  462   2.994   4.433   4.598
    1C        C  463   3.122   4.492   4.602
    1C        C  464   2.928   4.402   4.719
    1C        C  465   2.988   4.441   4.841
    1C        C  466   2.798   4.337   4.956
    1C        C  467   2.905   4.428   4.957
    1C        C  468   4.120   4.280   2.040
    1C        C  469   4.184   4.241   2.158
    1C        C  470   4.007   4.368   2.278
    1C        C  471   4.126   4.290   2.279
    1C        C  472   3.940   4.396   2.399
    1C        C  473   4.004   4.368   2.522
    1C        C  474   3.811   4.462   2.642
    1C        C  475   3.940   4.405   2.643
    1C        C  476   3.741   4.486   2.763
    1C        C  477   3.810   4.459   2.883
    1C        C  478   3.603   4.517   3.008
    1C        C  479   3.741   4.488   3.003
    1C        C  480   3.533   4.523   3.130
    1C        C  481   3.608   4.517   3.249
    1C        C  482   3.391   4.528   3.376
    1C        C  483   3.532   4.533   3.367
    1C        C  484   3.325   4.526   3.501
    1C        C  485   3.400   4.541   3.619
    1C        C  486   3.186   4.500   3.745
    1C        C  487   3.322   4.535   3.737
    1C        C  488   3.124   4.482   3.871
    1C        C  489   3.195   4.501   3.992
    1C        C  490   2.998   4.410   4.113
    1C        C  491   3.124   4.472   4.111
    1C        C  492   2.942   4.379   4.239
    1C        C  493   3.001   4.421   4.360
    1C        C  494   2.825   4.296   4.480
    1C        C  495   2.931   4.389   4.479
    1C        C  496   2.767   4.256   4.603
    1C        C  497   2.816   4.314   4.722
    1C        C  498   2.661   4.165   4.840
    1C        C  499   2.750   4.275   4.840
    1C        C  500   2.596   4.118   4.955
    1C        C  501   4.006   4.360   2.040
    1C        C  502   3.813   4.457   2.156
    1C        C  503   3.943   4.403   2.157
    1C        C  504   3.744   4.477   2.277
    1C        C  505   3.810   4.450   2.399
    1C        C  506   3.604   4.503   2.518
    1C        C  507   3.742   4.477   2.520
    1C        C  508   3.532   4.514   2.639
    1C        C  509   3.602   4.511   2.762
    1C        C  510   3.392   4.523   2.882
    1C        C  511   3.534   4.525   2.885
    1C        C  512   3.322   4.519   3.004
    1C        C  513   3.392   4.526   3.127
    1C        C  514   3.188   4.487   3.253
    1C        C  515   3.325   4.520   3.251
    1C        C  516   3.121   4.463   3.376
    1C        C  517   3.188   4.491   3.497
    1C        C  518   2.997   4.408   3.622
    1C        C  519   3.123   4.472   3.622
    1C        C  520   2.943   4.367   3.746
    1C        C  521   3.001   4.413   3.867
    1C        C  522   2.836   4.279   3.992
    1C        C  523   2.942   4.373   3.989
    1C        C  524   2.786   4.231   4.115
    1C        C  525   2.834   4.288   4.235
    1C        C  526   2.699   4.127   4.362
    1C        C  527   2.783   4.240   4.358
    1C        C  528   2.647   4.074   4.482
    1C        C  529   2.684   4.142   4.601
    1C        C  530   2.585   3.957   4.728
    1C        C  531   2.642   4.087   4.724
    1C        C  532   2.537   3.902   4.850
    1C        C  533   2.527   3.996   4.957
    1C        C  534   3.614   4.551   2.040
    1C        C  535   3.749   4.514   2.045
    1C        C  536   3.533   4.529   2.156
    1C        C  537   3.604   4.501   2.276
    1C        C  538   3.390   4.510   2.398
    1C        C  539   3.531   4.509   2.397
    1C        C  540   3.317   4.511   2.519
    1C        C  541   3.391   4.516   2.640
    1C        C  542   3.181   4.482   2.764
    1C        C  543   3.319   4.514   2.762
    1C        C  544   3.117   4.460   2.889
    1C        C  545   3.185   4.483   3.010
    1C        C  546   2.990   4.404   3.134
    1C        C  547   3.117   4.465   3.133
    1C        C  548   2.932   4.363   3.256
    1C        C  549   2.995   4.400   3.377
    1C        C  550   2.828   4.277   3.505
    1C        C  551   2.934   4.371   3.501
    1C        C  552   2.777   4.229   3.627
    1C        C  553   2.833   4.279   3.747
    1C        C  554   2.695   4.120   3.872
    1C        C  555   2.787   4.228   3.870
    1C        C  556   2.660   4.059   3.995
    1C        C  557   2.699   4.119   4.116
    1C        C  558   2.602   3.936   4.244
    1C        C  559   2.660   4.065   4.241
    1C        C  560   2.567   3.875   4.366
    1C        C  561   2.587   3.946   4.486
    1C        C  562   2.526   3.747   4.614
    1C        C  563   2.558   3.885   4.610
    1C        C  564   2.513   3.678   4.737
    1C        C  565   2.515   3.760   4.853
    1C        C  566   2.533   3.547   4.973
    1C        C  567   2.530   3.686   4.971
    1C        C  568   3.328   4.466   2.039
    1C        C  569   3.392   4.508   2.156
    1C        C  570   3.178   4.478   2.277
    1C        C  571   3.318   4.501   2.277
    1C        C  572   3.110   4.456   2.399
    1C        C  573   3.179   4.483   2.520
    1C        C  574   2.987   4.396   2.644
    1C        C  575   3.113   4.461   2.643
    1C        C  576   2.925   4.359   2.766
    1C        C  577   2.991   4.397   2.886
    1C        C  578   2.823   4.276   3.014
    1C        C  579   2.933   4.365   3.011
    1C        C  580   2.773   4.222   3.135
    1C        C  581   2.822   4.275   3.257
    1C        C  582   2.698   4.111   3.381
    1C        C  583   2.781   4.226   3.383
    1C        C  584   2.662   4.052   3.504
    1C        C  585   2.694   4.114   3.627
    1C        C  586   2.596   3.931   3.751
    1C        C  587   2.657   4.058   3.752
    1C        C  588   2.573   3.867   3.875
    1C        C  589   2.600   3.931   3.998
    1C        C  590   2.533   3.735   4.125
    1C        C  591   2.574   3.870   4.122
    1C        C  592   2.521   3.668   4.249
    1C        C  593   2.530   3.739   4.371
    1C        C  594   2.504   3.532   4.495
    1C        C  595   2.514   3.673   4.495
    1C        C  596   2.511   3.462   4.618
    1C        C  597   2.513   3.536   4.738
    1C        C  598   2.529   3.324   4.860
    1C        C  599   2.526   3.465   4.859
    1C        C  600   2.541   3.248   4.977
    1C        C  601   3.192   4.440   2.039
    1C        C  602   2.979   4.394   2.156
    1C        C  603   3.114   4.441   2.156
    1C        C  604   2.919   4.359   2.280
    1C        C  605   2.984   4.392   2.401
    1C        C  606   2.814   4.269   2.523
    1C        C  607   2.923   4.359   2.524
    1C        C  608   2.770   4.221   2.648
    1C        C  609   2.817   4.269   2.772
    1C        C  610   2.686   4.107   2.892
    1C        C  611   2.768   4.222   2.896
    1C        C  612   2.650   4.052   3.017
    1C        C  613   2.689   4.108   3.140
    1C        C  614   2.588   3.923   3.262
    1C        C  615   2.652   4.049   3.263
    1C        C  616   2.564   3.862   3.387
    1C        C  617   2.599   3.926   3.508
    1C        C  618   2.524   3.728   3.635
    1C        C  619   2.570   3.861   3.630
    1C        C  620   2.511   3.663   3.760
    1C        C  621   2.530   3.733   3.881
    1C        C  622   2.504   3.524   4.008
    1C        C  623   2.514   3.665   4.004
    1C        C  624   2.506   3.455   4.131
    1C        C  625   2.508   3.527   4.253
    1C        C  626   2.538   3.319   4.379
    1C        C  627   2.510   3.458   4.375
    1C        C  628   2.552   3.250   4.501
    1C        C  629   2.532   3.322   4.621
    1C        C  630   2.597   3.117   4.742
    1C        C  631   2.545   3.249   4.741
    1C        C  632   2.620   3.049   4.865
    1C        C  633   2.556   3.109   4.978
    1C        C  634   2.781   4.298   2.045
    1C        C  635   2.887   4.390   2.046
    1C        C  636   2.743   4.230   2.161
    1C        C  637   2.802   4.278   2.279
    1C        C  638   2.675   4.110   2.408
    1C        C  639   2.756   4.226   2.402
    1C        C  640   2.640   4.047   2.529
    1C        C  641   2.680   4.112   2.648
    1C        C  642   2.585   3.921   2.776
    1C        C  643   2.647   4.047   2.769
    1C        C  644   2.556   3.856   2.898
    1C        C  645   2.587   3.925   3.017
    1C        C  646   2.525   3.722   3.145
    1C        C  647   2.562   3.859   3.139
    1C        C  648   2.513   3.657   3.269
    1C        C  649   2.525   3.726   3.391
    1C        C  650   2.502   3.516   3.517
    1C        C  651   2.507   3.658   3.513
    1C        C  652   2.510   3.450   3.642
    1C        C  653   2.504   3.522   3.763
    1C        C  654   2.537   3.314   3.890
    1C        C  655   2.508   3.452   3.886
    1C        C  656   2.556   3.247   4.013
    1C        C  657   2.533   3.317   4.134
    1C        C  658   2.602   3.118   4.259
    1C        C  659   2.552   3.250   4.257
    1C        C  660   2.634   3.052   4.380
    1C        C  661   2.597   3.116   4.500
    1C        C  662   2.712   2.937   4.625
    1C        C  663   2.632   3.053   4.621
    1C        C  664   2.746   2.873   4.746
    1C        C  665   2.697   2.928   4.867
    1C        C  666   2.746   2.867   4.984
    1C        C  667   2.680   4.023   2.054
    1C        C  668   2.678   4.105   2.167
    1C        C  669   2.590   3.910   2.288
    1C        C  670   2.640   4.043   2.288
    1C        C  671   2.561   3.847   2.411
    1C        C  672   2.584   3.917   2.531
    1C        C  673   2.521   3.717   2.657
    1C        C  674   2.560   3.853   2.654
    1C        C  675   2.507   3.648   2.780
    1C        C  676   2.518   3.720   2.901
    1C        C  677   2.505   3.510   3.030
    1C        C  678   2.509   3.651   3.024
    1C        C  679   2.506   3.441   3.154
    1C        C  680   2.506   3.516   3.274
    1C        C  681   2.537   3.306   3.398
    1C        C  682   2.508   3.444   3.396
    1C        C  683   2.554   3.243   3.523
    1C        C  684   2.536   3.311   3.645
    1C        C  685   2.605   3.112   3.770
    1C        C  686   2.556   3.245   3.768
    1C        C  687   2.634   3.050   3.893
    1C        C  688   2.603   3.114   4.015
    1C        C  689   2.709   2.932   4.135
    1C        C  690   2.631   3.050   4.138
    1C        C  691   2.753   2.880   4.258
    1C        C  692   2.711   2.933   4.381
    1C        C  693   2.753   2.877   4.504
    1C        C  694   2.627   3.893   2.056
    1C        C  695   2.528   3.699   2.175
    1C        C  696   2.576   3.832   2.171
    1C        C  697   2.505   3.635   2.298
    1C        C  698   2.520   3.712   2.416
    1C        C  699   2.488   3.502   2.542
    1C        C  700   2.506   3.642   2.538
    1C        C  701   2.498   3.434   2.665
    1C        C  702   2.496   3.508   2.785
    1C        C  703   2.531   3.299   2.911
    1C        C  704   2.507   3.439   2.908
    1C        C  705   2.547   3.229   3.032
    1C        C  706   2.532   3.302   3.152
    1C        C  707   2.595   3.103   3.279
    1C        C  708   2.554   3.238   3.276
    1C        C  709   2.634   3.045   3.401
    1C        C  710   2.608   3.112   3.523
    1C        C  711   2.704   2.926   3.648
    1C        C  712   2.633   3.048   3.647
    1C        C  713   2.754   2.873   3.769
    1C        C  714   2.713   2.933   3.890
    1C        C  715   2.758   2.880   4.013
    1C        C  716   2.451   3.497   2.063
    1C        C  717   2.493   3.631   2.058
    1C        C  718   2.460   3.418   2.182
    1C        C  719   2.478   3.495   2.300
    1C        C  720   2.510   3.288   2.424
    1C        C  721   2.482   3.426   2.423
    1C        C  722   2.537   3.223   2.546
    1C        C  723   2.528   3.295   2.667
    1C        C  724   2.586   3.093   2.790
    1C        C  725   2.547   3.228   2.790
    1C        C  726   2.618   3.030   2.913
    1C        C  727   2.592   3.095   3.036
    1C        C  728   2.707   2.919   3.156
    1C        C  729   2.623   3.033   3.159
    1C        C  730   2.754   2.870   3.280
    1C        C  731   2.708   2.924   3.402
    1C        C  732   2.751   2.872   3.526
    1C        C  733   2.483   3.197   2.068
    1C        C  734   2.484   3.277   2.183
    1C        C  735   2.579   3.083   2.307
    1C        C  736   2.519   3.212   2.305
    1C        C  737   2.608   3.017   2.428
    1C        C  738   2.586   3.090   2.546
    1C        C  739   2.695   2.909   2.671
    1C        C  740   2.619   3.028   2.669
    1C        C  741   2.743   2.854   2.792
    1C        C  742   2.699   2.915   2.912
    1C        C  743   2.746   2.861   3.034
    1C        C  744   2.536   3.069   2.074
    1C        C  745   2.683   2.899   2.186
    1C        C  746   2.600   3.013   2.186
    1C        C  747   2.732   2.842   2.305
    1C        C  748   2.686   2.899   2.426
    1C        C  749   2.733   2.848   2.549
    1C        C  750   2.738   2.841   2.071
    1C        C  751   3.654   2.298   1.995
    1C        O  752   3.635   2.180   2.035
    1C        O  753   3.672   2.296   1.856
    1C        C  754   4.629   3.056   1.973
    1C        O  755   4.595   3.010   1.861
    1C        O  756   4.768   3.055   1.990
    1C        C  757   4.466   4.220   1.973
    1C        O  758   4.592   4.224   1.985
    1C        O  759   4.414   4.252   1.847
    1C        C  760   3.585   4.677   1.969
    1C        O  761   3.628   4.786   2.014
    1C        O  762   3.605   4.664   1.831
    1C        C  763   2.876   4.508   1.957
    1C        O  764   2.848   4.510   1.834
    1C        O  765   2.879   4.636   2.014
    1C        C  766   2.338   3.479   1.969
    1C        O  767   2.365   3.466   1.847
    1C        O  768   2.212   3.540   1.981
    1C        C  769   4.692   3.585   5.048
    1C        O  770   4.680   3.546   5.168
    1C        O  771   4.823   3.565   5.003
    1C        C  772   4.269   4.459   5.033
    1C        O  773   4.242   4.454   5.156
    1C        O  774   4.335   4.578   4.998
    1C        C  775   4.144   2.513   5.058
    1C        O  776   4.163   2.389   5.049
    1C        O  777   4.149   2.553   5.192
    1C        C  778   2.905   4.530   5.065
    1C        O  779   2.828   4.630   5.067
    1C        O  780   2.971   4.498   5.183
    1C        C  781   2.437   3.047   5.042
    1C        O  782   2.334   3.049   4.970
    1C        O  783   2.410   3.055   5.178
    1C        C  784   2.402   3.993   5.036
    1C        O  785   2.292   4.043   4.999
    1C        O  786   2.404   3.960   5.172
    1C        C  787   2.951   2.429   1.996
    1C        O  788   2.939   2.461   1.875
    1C        O  789   2.895   2.311   2.043
    1C        C  790   3.185   2.367   5.060
    1C        O  791   3.228   2.260   5.010
    1C        O  792   3.174   2.369   5.200
    1C        H  793   4.274   3.032   5.051
    1C        H  794   4.174   2.813   5.070
    1C        H  795   4.539   3.118   5.022
    1C        H  796   4.584   3.339   5.048
    1C        H  797   4.525   3.799   5.054
    1C        H  798   4.471   4.012   5.031
    1C        H  799   4.260   4.146   5.047
    1C        H  800   3.994   4.453   5.034
    1C        H  801   3.823   4.632   5.014
    1C        H  802   3.590   4.649   5.029
    1C        H  803   3.386   4.550   5.044
    1C        H  804   3.165   4.447   5.043
    1C        H  805   3.882   2.485   5.063
    1C        H  806   3.664   2.395   5.038
    1C        H  807   2.998   2.539   5.057
    1C        H  808   3.441   2.461   5.073
    1C        H  809   2.862   2.714   5.073
    1C        H  810   2.685   2.866   5.071
    1C        H  811   2.591   3.294   5.060
    1C        H  812   2.515   3.493   5.064
    1C        H  813   2.558   3.734   5.062
    1C        H  814   2.610   4.167   5.049
    1C        H  815   2.771   4.292   5.049
    1C        H  816   2.736   2.895   1.978
    1C        H  817   2.825   2.667   1.978
    1C        H  818   3.210   2.433   1.982
    1C        H  819   3.428   2.444   1.973
    1C        H  820   3.884   2.461   1.988
    1C        H  821   4.058   2.614   1.965
    1C        H  822   4.277   2.702   1.981
    1C        H  823   4.351   2.936   1.971
    1C        H  824   4.553   3.307   1.964
    1C        H  825   4.506   3.506   1.956
    1C        H  826   4.460   3.742   1.954
    1C        H  827   3.814   4.563   1.974
    1C        H  828   4.005   4.421   1.952
    1C        H  829   4.124   4.210   1.960
    1C        H  830   4.493   3.965   1.962
    1C        H  831   2.635   3.845   1.960
    1C        H  832   2.733   4.057   1.967
    1C        H  833   2.715   4.304   1.961
    1C        H  834   3.397   4.417   1.973
    1C        H  835   3.138   4.461   1.949
    1C        H  836   2.535   3.010   1.985
    1C        H  837   2.441   3.230   1.975
    1C        H  838   2.515   3.675   1.963
    2V3OU   H29  839   2.808   3.546   0.705
    2V3OU   C27  840   2.784   3.493   0.800
    2V3OU   H27  841   2.724   3.562   0.865
    2V3OU   H28  842   2.728   3.397   0.788
    2V3OU   O11  843   2.906   3.474   0.873
    2V3OU   C15  844   2.921   3.391   0.982
    2V3OU   C13  845   3.048   3.373   1.040
    2V3OU   C14  846   3.074   3.271   1.133
    2V3OU   C16  847   2.969   3.188   1.171
    2V3OU    H6  848   2.986   3.107   1.243
    2V3OU   C12  849   3.215   3.234   1.160
    2V3OU    O2  850   3.239   3.127   1.219
    2V3OU   C10  851   3.324   3.308   1.094
    2V3OU    C8  852   3.456   3.267   1.109
    2V3OU   O10  853   3.487   3.146   1.164
    2V3OU   H26  854   3.401   3.114   1.197
    2V3OU    C6  855   3.565   3.346   1.061
    2V3OU    C5  856   3.536   3.462   0.991
    2V3OU    C4  857   3.704   3.293   1.063
    2V3OU    H4  858   3.727   3.229   1.154
    2V3OU    H5  859   3.707   3.223   0.974
    2V3OU    C2  860   3.814   3.398   1.051
    2V3OU    O6  861   3.802   3.476   1.171
    2V3OU   H21  862   3.765   3.560   1.139
    2V3OU    C3  863   3.776   3.492   0.936
    2V3OU    H2  864   3.859   3.566   0.930
    2V3OU    H3  865   3.778   3.435   0.840
    2V3OU   C25  866   3.949   3.329   1.030
    2V3OU    O7  867   3.992   3.301   0.918
    2V3OU   C26  868   4.030   3.288   1.152
    2V3OU   H22  869   4.062   3.382   1.205
    2V3OU   H23  870   4.114   3.220   1.122
    2V3OU    O8  871   3.958   3.206   1.241
    2V3OU   H24  872   3.920   3.262   1.310
    2V3OU    C1  873   3.642   3.561   0.952
    2V3OU    H1  874   3.621   3.615   0.855
    2V3OU    O3  875   3.652   3.654   1.061
    2V3OU   C19  876   3.615   3.791   1.042
    2V3OU    H9  877   3.518   3.800   0.985
    2V3OU    O4  878   3.715   3.849   0.961
    2V3OU   C20  879   3.845   3.868   1.018
    2V3OU   H10  880   3.898   3.770   1.035
    2V3OU   C24  881   3.605   3.855   1.180
    2V3OU   H16  882   3.539   3.787   1.240
    2V3OU   H17  883   3.560   3.957   1.174
    2V3OU   C23  884   3.742   3.876   1.246
    2V3OU   H15  885   3.786   3.773   1.267
    2V3OU    N1  886   3.734   3.956   1.367
    2V3OU   H19  887   3.805   3.923   1.429
    2V3OU   H20  888   3.648   3.933   1.413
    2V3OU   C21  889   3.845   3.944   1.151
    2V3OU   H11  890   3.943   3.918   1.202
    2V3OU    O5  891   3.827   4.084   1.149
    2V3OU   H18  892   3.782   4.104   1.233
    2V3OU   C22  893   3.911   3.944   0.904
    2V3OU   H12  894   3.862   4.042   0.885
    2V3OU   H13  895   3.897   3.888   0.808
    2V3OU   H14  896   4.022   3.952   0.921
    2V3OU   C11  897   3.155   3.467   1.003
    2V3OU    O1  898   3.132   3.586   0.973
    2V3OU    C9  899   3.296   3.423   1.016
    2V3OU    C7  900   3.400   3.503   0.971
    2V3OU    O9  901   3.382   3.616   0.894
    2V3OU   H25  902   3.286   3.626   0.884
    2V3OU   C17  903   2.819   3.311   1.037
    2V3OU    H7  904   2.715   3.340   1.022
    2V3OU   C18  905   2.838   3.206   1.127
    2V3OU    H8  906   2.754   3.152   1.173
    3SOL     OW  907   0.735   4.828   1.040
    3SOL    HW1  908   0.703   4.748   1.092
    3SOL    HW2  909   0.738   4.908   1.100
    4SOL     OW  910   6.152   1.815   2.167
    4SOL    HW1  911   6.249   1.794   2.185
    4SOL    HW2  912   6.133   1.801   2.070
    5SOL     OW  913   3.742   2.943   0.912
    5SOL    HW1  914   3.747   2.873   0.983
    5SOL    HW2  915   3.656   2.992   0.918
    6SOL     OW  916   3.317   2.216   0.168
    6SOL    HW1  917   3.225   2.181   0.187
    6SOL    HW2  918   3.381   2.140   0.163
    7SOL     OW  919   5.764   0.914   1.943
    7SOL    HW1  920   5.749   0.823   1.905
    7SOL    HW2  921   5.677   0.950   1.977
    8SOL     OW  922   3.218   2.077   3.278
    8SOL    HW1  923   3.137   2.133   3.258
    8SOL    HW2  924   3.290   2.098   3.211
    9SOL     OW  925   6.367   4.028   6.804
    9SOL    HW1  926   6.306   4.089   6.854
    9SOL    HW2  927   6.320   3.941   6.787
   10SOL     OW  928   0.233   4.312   1.809
   10SOL    HW1  929   0.274   4.332   1.898
   10SOL    HW2  930   0.193   4.395   1.771
   11SOL     OW  931   3.845   6.950   6.877
   11SOL    HW1  932   3.928   6.902   6.848
   11SOL    HW2  933   3.765   6.893   6.858
   12SOL     OW  934   5.470   6.835   2.314
   12SOL    HW1  935   5.512   6.798   2.232
   12SOL    HW2  936   5.380   6.792   2.327
   13SOL     OW  937   2.250   6.809   2.431
   13SOL    HW1  938   2.348   6.827   2.441
   13SOL    HW2  939   2.206   6.887   2.388
   14SOL     OW  940   2.833   0.345   3.146
   14SOL    HW1  941   2.916   0.342   3.090
   14SOL    HW2  942   2.779   0.425   3.120
   15SOL     OW  943   2.906   6.950   6.156
   15SOL    HW1  944   2.886   6.929   6.252
   15SOL    HW2  945   2.834   7.009   6.119
   16SOL     OW  946   6.403   2.104   0.655
   16SOL    HW1  947   6.421   2.162   0.734
   16SOL    HW2  948   6.321   2.135   0.609
   17SOL     OW  949   4.106   5.433   3.890
   17SOL    HW1  950   4.028   5.384   3.853
   17SOL    HW2  951   4.168   5.459   3.816
   18SOL     OW  952   1.536   0.428   0.015
   18SOL    HW1  953   1.591   0.366   0.071
   18SOL    HW2  954   1.466   0.470   0.071
   19SOL     OW  955   0.395   6.483   0.940
   19SOL    HW1  956   0.351   6.394   0.929
   19SOL    HW2  957   0.364   6.545   0.869
   20SOL     OW  958   3.506   0.324   4.639
   20SOL    HW1  959   3.508   0.248   4.574
   20SOL    HW2  960   3.583   0.386   4.621
   21SOL     OW  961   2.866   2.949   1.416
   21SOL    HW1  962   2.863   2.881   1.489
   21SOL    HW2  963   2.904   3.035   1.452
   22SOL     OW  964   1.668   0.718   5.275
   22SOL    HW1  965   1.627   0.632   5.245
   22SOL    HW2  966   1.736   0.701   5.346
   23SOL     OW  967   2.525   6.372   4.528
   23SOL    HW1  968   2.584   6.336   4.456
   23SOL    HW2  969   2.580   6.427   4.591
   24SOL     OW  970   4.798   1.644   4.816
   24SOL    HW1  971   4.790   1.733   4.771
   24SOL    HW2  972   4.742   1.577   4.768
   25SOL     OW  973   2.387   6.101   0.930
   25SOL    HW1  974   2.333   6.049   0.864
   25SOL    HW2  975   2.430   6.179   0.885
   26SOL     OW  976   6.015   1.135   2.796
   26SOL    HW1  977   5.961   1.111   2.877
   26SOL    HW2  978   6.080   1.061   2.777
   27SOL     OW  979   5.940   6.960   2.340
   27SOL    HW1  980   5.959   0.037   2.359
   27SOL    HW2  981   6.016   6.921   2.288
   28SOL     OW  982   2.821   1.132   0.192
   28SOL    HW1  983   2.737   1.115   0.242
   28SOL    HW2  984   2.858   1.222   0.216
   29SOL     OW  985   4.827   2.939   1.711
   29SOL    HW1  986   4.761   2.992   1.765
   29SOL    HW2  987   4.882   2.882   1.772
   30SOL     OW  988   4.266   1.242   6.548
   30SOL    HW1  989   4.169   1.238   6.569
   30SOL    HW2  990   4.317   1.188   6.615
   31SOL     OW  991   0.951   1.900   5.519
   31SOL    HW1  992   1.041   1.894   5.476
   31SOL    HW2  993   0.881   1.913   5.449
   32SOL     OW  994   6.422   1.703   2.161
   32SOL    HW1  995   6.437   1.632   2.230
   32SOL    HW2  996   6.494   1.697   2.091
   33SOL     OW  997   1.416   1.223   4.915
   33SOL    HW1  998   1.388   1.216   5.011
   33SOL    HW2  999   1.512   1.254   4.911
   34SOL     OW 1000   0.746   0.772   4.842
   34SOL    HW1 1001   0.656   0.802   4.874
   34SOL    HW2 1002   0.757   0.675   4.859
   35SOL     OW 1003   4.702   2.525   6.235
   35SOL    HW1 1004   4.725   2.562   6.326
   35SOL    HW2 1005   4.706   2.425   6.238
   36SOL     OW 1006   0.846   2.516   5.993
   36SOL    HW1 1007   0.756   2.472   6.001
   36SOL    HW2 1008   0.836   2.614   6.011
   37SOL     OW 1009   3.273   6.680   1.900
   37SOL    HW1 1010   3.176   6.694   1.881
   37SOL    HW2 1011   3.286   6.660   1.997
   38SOL     OW 1012   6.634   5.675   1.654
   38SOL    HW1 1013   6.543   5.718   1.653
   38SOL    HW2 1014   6.702   5.743   1.680
   39SOL     OW 1015   6.911   2.563   6.389
   39SOL    HW1 1016   6.875   2.573   6.296
   39SOL    HW2 1017   6.977   2.487   6.390
   40SOL     OW 1018   0.204   1.476   1.831
   40SOL    HW1 1019   0.177   1.523   1.747
   40SOL    HW2 1020   0.162   1.385   1.833
   41SOL     OW 1021   0.819   1.379   6.375
   41SOL    HW1 1022   0.832   1.478   6.368
   41SOL    HW2 1023   0.897   1.339   6.424
   42SOL     OW 1024   3.966   6.854   0.608
   42SOL    HW1 1025   4.032   6.808   0.668
   42SOL    HW2 1026   4.013   6.921   0.550
   43SOL     OW 1027   4.578   5.573   5.579
   43SOL    HW1 1028   4.525   5.633   5.518
   43SOL    HW2 1029   4.662   5.620   5.606
   44SOL     OW 1030   0.866   4.755   6.654
   44SOL    HW1 1031   0.787   4.695   6.668
   44SOL    HW2 1032   0.900   4.743   6.561
   45SOL     OW 1033   2.655   6.937   0.989
   45SOL    HW1 1034   2.686   6.842   0.979
   45SOL    HW2 1035   2.629   6.973   0.900
   46SOL     OW 1036   0.601   5.602   3.871
   46SOL    HW1 1037   0.626   5.520   3.923
   46SOL    HW2 1038   0.662   5.613   3.793
   47SOL     OW 1039   6.727   4.438   2.537
   47SOL    HW1 1040   6.777   4.515   2.576
   47SOL    HW2 1041   6.784   4.356   2.540
   48SOL     OW 1042   0.698   1.696   5.282
   48SOL    HW1 1043   0.783   1.672   5.235
   48SOL    HW2 1044   0.691   1.795   5.291
   49SOL     OW 1045   5.662   3.346   0.072
   49SOL    HW1 1046   5.637   3.252   0.095
   49SOL    HW2 1047   5.752   3.367   0.109
   50SOL     OW 1048   0.671   4.095   4.621
   50SOL    HW1 1049   0.725   4.155   4.681
   50SOL    HW2 1050   0.727   4.017   4.593
   51SOL     OW 1051   2.971   6.019   1.897
   51SOL    HW1 1052   2.982   5.930   1.940
   51SOL    HW2 1053   2.888   6.019   1.841
   52SOL     OW 1054   0.487   2.349   2.222
   52SOL    HW1 1055   0.546   2.314   2.149
   52SOL    HW2 1056   0.543   2.397   2.289
   53SOL     OW 1057   4.575   6.567   3.910
   53SOL    HW1 1058   4.662   6.614   3.898
   53SOL    HW2 1059   4.523   6.611   3.983
   54SOL     OW 1060   4.380   4.587   5.541
   54SOL    HW1 1061   4.457   4.643   5.512
   54SOL    HW2 1062   4.362   4.517   5.472
   55SOL     OW 1063   3.946   2.311   1.443
   55SOL    HW1 1064   4.007   2.368   1.388
   55SOL    HW2 1065   3.962   2.329   1.540
   56SOL     OW 1066   0.121   0.693   2.229
   56SOL    HW1 1067   0.066   0.775   2.211
   56SOL    HW2 1068   0.136   0.643   2.144
   57SOL     OW 1069   5.111   0.610   0.073
   57SOL    HW1 1070   5.075   0.613   6.999
   57SOL    HW2 1071   5.189   0.672   0.081
   58SOL     OW 1072   6.918   0.591   6.983
   58SOL    HW1 1073   6.980   0.669   6.971
   58SOL    HW2 1074   6.826   0.625   7.003
   59SOL     OW 1075   0.117   6.697   5.789
   59SOL    HW1 1076   0.026   6.736   5.804
   59SOL    HW2 1077   0.119   6.652   5.699
   60SOL     OW 1078   4.808   6.785   4.857
   60SOL    HW1 1079   4.759   6.754   4.938
   60SOL    HW2 1080   4.804   6.884   4.850
   61SOL     OW 1081   3.526   0.041   5.711
   61SOL    HW1 1082   3.448   0.050   5.649
   61SOL    HW2 1083   3.563   0.132   5.730
   62SOL     OW 1084   2.731   0.124   4.557
   62SOL    HW1 1085   2.696   0.132   4.650
   62SOL    HW2 1086   2.659   0.087   4.497
   63SOL     OW 1087   6.810   2.934   4.136
   63SOL    HW1 1088   6.873   2.860   4.159
   63SOL    HW2 1089   6.839   2.978   4.051
   64SOL     OW 1090   0.155   2.420   5.621
   64SOL    HW1 1091   0.123   2.514   5.610
   64SOL    HW2 1092   0.199   2.409   5.710
   65SOL     OW 1093   1.347   4.405   5.448
   65SOL    HW1 1094   1.416   4.332   5.450
   65SOL    HW2 1095   1.353   4.454   5.361
   66SOL     OW 1096   2.664   0.889   1.636
   66SOL    HW1 1097   2.610   0.918   1.556
   66SOL    HW2 1098   2.643   0.949   1.713
   67SOL     OW 1099   4.529   5.170   4.290
   67SOL    HW1 1100   4.514   5.227   4.371
   67SOL    HW2 1101   4.513   5.074   4.313
   68SOL     OW 1102   5.262   2.837   6.810
   68SOL    HW1 1103   5.212   2.799   6.888
   68SOL    HW2 1104   5.205   2.832   6.728
   69SOL     OW 1105   2.548   3.302   5.607
   69SOL    HW1 1106   2.516   3.255   5.525
   69SOL    HW2 1107   2.647   3.293   5.615
   70SOL     OW 1108   5.761   0.831   2.825
   70SOL    HW1 1109   5.772   0.784   2.738
   70SOL    HW2 1110   5.848   0.830   2.875
   71SOL     OW 1111   1.847   4.689   1.947
   71SOL    HW1 1112   1.821   4.628   2.023
   71SOL    HW2 1113   1.922   4.748   1.976
   72SOL     OW 1114   4.030   5.660   3.972
   72SOL    HW1 1115   4.046   5.664   4.071
   72SOL    HW2 1116   4.058   5.570   3.937
   73SOL     OW 1117   3.458   2.921   6.867
   73SOL    HW1 1118   3.437   2.903   6.963
   73SOL    HW2 1119   3.375   2.910   6.812
   74SOL     OW 1120   5.035   0.009   5.738
   74SOL    HW1 1121   5.008   6.932   5.729
   74SOL    HW2 1122   4.960   0.067   5.705
   75SOL     OW 1123   3.534   5.745   5.657
   75SOL    HW1 1124   3.488   5.735   5.569
   75SOL    HW2 1125   3.623   5.788   5.644
   76SOL     OW 1126   3.043   2.568   0.993
   76SOL    HW1 1127   2.964   2.512   1.017
   76SOL    HW2 1128   3.056   2.639   1.063
   77SOL     OW 1129   5.963   3.831   6.732
   77SOL    HW1 1130   5.976   3.884   6.648
   77SOL    HW2 1131   5.961   3.893   6.810
   78SOL     OW 1132   6.174   0.349   5.532
   78SOL    HW1 1133   6.168   0.314   5.626
   78SOL    HW2 1134   6.106   0.420   5.519
   79SOL     OW 1135   3.328   6.247   0.633
   79SOL    HW1 1136   3.384   6.165   0.643
   79SOL    HW2 1137   3.359   6.316   0.699
   80SOL     OW 1138   0.166   1.302   4.370
   80SOL    HW1 1139   0.180   1.255   4.283
   80SOL    HW2 1140   0.083   1.267   4.414
   81SOL     OW 1141   1.649   5.897   2.556
   81SOL    HW1 1142   1.574   5.892   2.490
   81SOL    HW2 1143   1.715   5.966   2.526
   82SOL     OW 1144   6.426   4.146   5.912
   82SOL    HW1 1145   6.508   4.149   5.854
   82SOL    HW2 1146   6.360   4.083   5.872
   83SOL     OW 1147   5.553   0.004   5.476
   83SOL    HW1 1148   5.623   6.954   5.495
   83SOL    HW2 1149   5.531   0.005   5.379
   84SOL     OW 1150   6.835   3.222   2.001
   84SOL    HW1 1151   6.786   3.235   1.914
   84SOL    HW2 1152   6.865   3.127   2.008
   85SOL     OW 1153   1.072   1.379   5.077
   85SOL    HW1 1154   1.101   1.301   5.021
   85SOL    HW2 1155   1.135   1.388   5.155
   86SOL     OW 1156   1.914   0.894   4.450
   86SOL    HW1 1157   1.942   0.889   4.354
   86SOL    HW2 1158   1.928   0.987   4.484
   87SOL     OW 1159   4.652   6.825   2.051
   87SOL    HW1 1160   4.588   6.814   2.127
   87SOL    HW2 1161   4.706   6.741   2.040
   88SOL     OW 1162   6.066   0.711   1.607
   88SOL    HW1 1163   6.001   0.653   1.558
   88SOL    HW2 1164   6.080   0.675   1.700
   89SOL     OW 1165   2.010   1.985   5.396
   89SOL    HW1 1166   1.922   1.938   5.409
   89SOL    HW2 1167   2.071   1.926   5.342
   90SOL     OW 1168   5.805   5.937   3.664
   90SOL    HW1 1169   5.714   5.976   3.649
   90SOL    HW2 1170   5.865   5.963   3.589
   91SOL     OW 1171   5.036   5.024   4.353
   91SOL    HW1 1172   4.991   5.114   4.349
   91SOL    HW2 1173   4.990   4.967   4.421
   92SOL     OW 1174   3.740   5.663   1.286
   92SOL    HW1 1175   3.666   5.716   1.327
   92SOL    HW2 1176   3.740   5.676   1.187
   93SOL     OW 1177   2.862   5.036   5.901
   93SOL    HW1 1178   2.942   4.979   5.880
   93SOL    HW2 1179   2.866   5.064   5.997
   94SOL     OW 1180   1.930   6.503   2.306
   94SOL    HW1 1181   1.857   6.457   2.255
   94SOL    HW2 1182   1.932   6.600   2.282
   95SOL     OW 1183   6.962   0.214   3.962
   95SOL    HW1 1184   0.034   0.242   3.933
   95SOL    HW2 1185   6.895   0.242   3.894
   96SOL     OW 1186   1.714   6.447   4.464
   96SOL    HW1 1187   1.761   6.375   4.516
   96SOL    HW2 1188   1.780   6.497   4.409
   97SOL     OW 1189   6.488   2.589   4.089
   97SOL    HW1 1190   6.490   2.491   4.066
   97SOL    HW2 1191   6.581   2.621   4.106
   98SOL     OW 1192   4.684   1.025   5.190
   98SOL    HW1 1193   4.616   0.954   5.172
   98SOL    HW2 1194   4.731   1.006   5.276
   99SOL     OW 1195   4.487   1.048   0.814
   99SOL    HW1 1196   4.543   1.028   0.895
   99SOL    HW2 1197   4.451   1.141   0.821
  100SOL     OW 1198   6.485   5.923   0.534
  100SOL    HW1 1199   6.555   5.974   0.482
  100SOL    HW2 1200   6.522   5.898   0.623
  101SOL     OW 1201   1.622   6.695   3.735
  101SOL    HW1 1202   1.569   6.741   3.664
  101SOL    HW2 1203   1.654   6.762   3.802
  102SOL     OW 1204   4.675   0.515   2.768
  102SOL    HW1 1205   4.725   0.547   2.688
  102SOL    HW2 1206   4.640   0.593   2.820
  103SOL     OW 1207   4.199   1.436   2.793
  103SOL    HW1 1208   4.168   1.509   2.733
  103SOL    HW2 1209   4.132   1.362   2.793
  104SOL     OW 1210   6.058   6.301   2.319
  104SOL    HW1 1211   6.028   6.265   2.407
  104SOL    HW2 1212   6.149   6.341   2.329
  105SOL     OW 1213   5.524   1.130   6.014
  105SOL    HW1 1214   5.572   1.216   6.028
  105SOL    HW2 1215   5.589   1.060   5.985
  106SOL     OW 1216   3.724   6.888   1.074
  106SOL    HW1 1217   3.734   6.818   1.144
  106SOL    HW2 1218   3.674   6.966   1.112
  107SOL     OW 1219   2.677   3.764   6.960
  107SOL    HW1 1220   2.611   3.836   6.936
  107SOL    HW2 1221   2.721   3.788   0.028
  108SOL     OW 1222   4.436   4.061   5.357
  108SOL    HW1 1223   4.499   4.029   5.427
  108SOL    HW2 1224   4.348   4.082   5.398
  109SOL     OW 1225   5.898   0.915   2.191
  109SOL    HW1 1226   5.836   0.952   2.260
  109SOL    HW2 1227   5.858   0.926   2.100
  110SOL     OW 1228   3.573   6.719   4.389
  110SOL    HW1 1229   3.483   6.707   4.431
  110SOL    HW2 1230   3.628   6.637   4.404
  111SOL     OW 1231   3.155   1.286   3.268
  111SOL    HW1 1232   3.153   1.323   3.175
  111SOL    HW2 1233   3.182   1.190   3.265
  112SOL     OW 1234   0.043   1.605   6.667
  112SOL    HW1 1235   0.054   1.539   6.593
  112SOL    HW2 1236   6.967   1.608   6.696
  113SOL     OW 1237   6.567   6.415   3.983
  113SOL    HW1 1238   6.496   6.423   3.913
  113SOL    HW2 1239   6.657   6.426   3.940
  114SOL     OW 1240   1.504   6.159   0.544
  114SOL    HW1 1241   1.439   6.235   0.548
  114SOL    HW2 1242   1.454   6.072   0.547
  115SOL     OW 1243   5.415   1.021   5.674
  115SOL    HW1 1244   5.367   0.999   5.589
  115SOL    HW2 1245   5.350   1.029   5.749
  116SOL     OW 1246   6.333   4.019   2.990
  116SOL    HW1 1247   6.276   3.961   2.931
  116SOL    HW2 1248   6.298   4.113   2.988
  117SOL     OW 1249   0.529   6.663   6.220
  117SOL    HW1 1250   0.485   6.602   6.154
  117SOL    HW2 1251   0.502   6.757   6.202
  118SOL     OW 1252   2.440   1.329   3.567
  118SOL    HW1 1253   2.470   1.289   3.481
  118SOL    HW2 1254   2.379   1.265   3.614
  119SOL     OW 1255   6.554   2.344   6.611
  119SOL    HW1 1256   6.491   2.304   6.678
  119SOL    HW2 1257   6.527   2.438   6.592
  120SOL     OW 1258   4.368   5.855   1.465
  120SOL    HW1 1259   4.413   5.942   1.445
  120SOL    HW2 1260   4.415   5.782   1.416
  121SOL     OW 1261   2.635   3.160   6.113
  121SOL    HW1 1262   2.570   3.085   6.100
  121SOL    HW2 1263   2.667   3.162   6.207
  122SOL     OW 1264   1.153   3.237   4.657
  122SOL    HW1 1265   1.064   3.212   4.618
  122SOL    HW2 1266   1.221   3.170   4.629
  123SOL     OW 1267   6.394   1.465   1.947
  123SOL    HW1 1268   6.412   1.435   2.041
  123SOL    HW2 1269   6.346   1.393   1.898
  124SOL     OW 1270   5.240   3.836   1.298
  124SOL    HW1 1271   5.188   3.753   1.284
  124SOL    HW2 1272   5.289   3.830   1.385
  125SOL     OW 1273   2.562   3.551   1.493
  125SOL    HW1 1274   2.568   3.639   1.539
  125SOL    HW2 1275   2.510   3.487   1.549
  126SOL     OW 1276   3.821   4.446   0.309
  126SOL    HW1 1277   3.917   4.439   0.333
  126SOL    HW2 1278   3.806   4.530   0.256
  127SOL     OW 1279   0.516   5.753   5.808
  127SOL    HW1 1280   0.549   5.680   5.748
  127SOL    HW2 1281   0.488   5.832   5.753
  128SOL     OW 1282   4.763   2.260   0.495
  128SOL    HW1 1283   4.681   2.203   0.487
  128SOL    HW2 1284   4.809   2.264   0.406
  129SOL     OW 1285   2.625   3.717   6.633
  129SOL    HW1 1286   2.570   3.775   6.573
  129SOL    HW2 1287   2.719   3.751   6.636
  130SOL     OW 1288   1.629   2.134   4.899
  130SOL    HW1 1289   1.538   2.096   4.918
  130SOL    HW2 1290   1.699   2.064   4.917
  131SOL     OW 1291   6.131   1.400   2.425
  131SOL    HW1 1292   6.086   1.488   2.408
  131SOL    HW2 1293   6.078   1.327   2.383
  132SOL     OW 1294   0.893   1.869   1.967
  132SOL    HW1 1295   0.965   1.924   2.008
  132SOL    HW2 1296   0.895   1.776   2.005
  133SOL     OW 1297   0.053   5.668   2.813
  133SOL    HW1 1298   0.018   5.702   2.900
  133SOL    HW2 1299   6.995   5.631   2.759
  134SOL     OW 1300   1.391   3.722   3.132
  134SOL    HW1 1301   1.432   3.631   3.129
  134SOL    HW2 1302   1.392   3.757   3.226
  135SOL     OW 1303   4.623   0.820   4.462
  135SOL    HW1 1304   4.548   0.841   4.399
  135SOL    HW2 1305   4.650   0.725   4.452
  136SOL     OW 1306   4.941   4.717   6.120
  136SOL    HW1 1307   4.847   4.689   6.141
  136SOL    HW2 1308   5.004   4.665   6.178
  137SOL     OW 1309   4.251   0.823   5.364
  137SOL    HW1 1310   4.187   0.764   5.412
  137SOL    HW2 1311   4.235   0.919   5.390
  138SOL     OW 1312   5.421   4.590   5.424
  138SOL    HW1 1313   5.380   4.579   5.515
  138SOL    HW2 1314   5.396   4.679   5.386
  139SOL     OW 1315   3.419   5.746   5.408
  139SOL    HW1 1316   3.448   5.816   5.342
  139SOL    HW2 1317   3.352   5.686   5.365
  140SOL     OW 1318   6.473   4.159   4.583
  140SOL    HW1 1319   6.403   4.205   4.528
  140SOL    HW2 1320   6.516   4.226   4.644
  141SOL     OW 1321   1.443   2.159   2.620
  141SOL    HW1 1322   1.482   2.243   2.582
  141SOL    HW2 1323   1.433   2.168   2.719
  142SOL     OW 1324   1.004   4.903   1.325
  142SOL    HW1 1325   1.048   4.903   1.236
  142SOL    HW2 1326   1.034   4.983   1.377
  143SOL     OW 1327   5.065   4.619   1.947
  143SOL    HW1 1328   5.139   4.664   1.996
  143SOL    HW2 1329   4.981   4.623   2.001
  144SOL     OW 1330   3.081   6.640   0.710
  144SOL    HW1 1331   3.107   6.544   0.705
  144SOL    HW2 1332   3.163   6.697   0.714
  145SOL     OW 1333   6.153   5.419   0.566
  145SOL    HW1 1334   6.127   5.515   0.558
  145SOL    HW2 1335   6.252   5.410   0.552
  146SOL     OW 1336   0.398   4.340   0.679
  146SOL    HW1 1337   0.407   4.261   0.618
  146SOL    HW2 1338   0.377   4.309   0.771
  147SOL     OW 1339   5.827   2.479   0.536
  147SOL    HW1 1340   5.826   2.391   0.585
  147SOL    HW2 1341   5.818   2.554   0.601
  148SOL     OW 1342   0.644   5.694   5.315
  148SOL    HW1 1343   0.622   5.654   5.226
  148SOL    HW2 1344   0.692   5.626   5.371
  149SOL     OW 1345   3.083   0.763   6.478
  149SOL    HW1 1346   3.102   0.860   6.465
  149SOL    HW2 1347   3.115   0.734   6.568
  150SOL     OW 1348   6.920   5.923   5.179
  150SOL    HW1 1349   6.942   5.827   5.163
  150SOL    HW2 1350   6.834   5.930   5.229
  151SOL     OW 1351   4.649   0.231   2.212
  151SOL    HW1 1352   4.573   0.288   2.245
  151SOL    HW2 1353   4.634   0.209   2.116
  152SOL     OW 1354   2.773   0.775   4.331
  152SOL    HW1 1355   2.740   0.846   4.393
  152SOL    HW2 1356   2.774   0.810   4.237
  153SOL     OW 1357   0.916   0.261   2.514
  153SOL    HW1 1358   0.889   0.196   2.586
  153SOL    HW2 1359   0.941   0.348   2.556
  154SOL     OW 1360   0.613   1.445   3.067
  154SOL    HW1 1361   0.676   1.517   3.098
  154SOL    HW2 1362   0.540   1.485   3.012
  155SOL     OW 1363   1.063   1.387   3.527
  155SOL    HW1 1364   0.972   1.355   3.556
  155SOL    HW2 1365   1.097   1.453   3.595
  156SOL     OW 1366   0.013   2.300   1.288
  156SOL    HW1 1367   0.080   2.374   1.285
  156SOL    HW2 1368   0.041   2.232   1.357
  157SOL     OW 1369   0.492   2.294   2.523
  157SOL    HW1 1370   0.552   2.215   2.514
  157SOL    HW2 1371   0.397   2.265   2.510
  158SOL     OW 1372   2.109   1.049   3.555
  158SOL    HW1 1373   2.126   0.962   3.510
  158SOL    HW2 1374   2.156   1.051   3.643
  159SOL     OW 1375   5.032   3.769   1.810
  159SOL    HW1 1376   5.079   3.681   1.799
  159SOL    HW2 1377   5.049   3.826   1.730
  160SOL     OW 1378   6.670   4.678   6.518
  160SOL    HW1 1379   6.753   4.704   6.568
  160SOL    HW2 1380   6.650   4.582   6.536
  161SOL     OW 1381   2.841   4.513   5.426
  161SOL    HW1 1382   2.878   4.526   5.334
  161SOL    HW2 1383   2.899   4.449   5.476
  162SOL     OW 1384   4.513   5.549   2.636
  162SOL    HW1 1385   4.602   5.551   2.681
  162SOL    HW2 1386   4.525   5.560   2.537
  163SOL     OW 1387   6.066   0.256   1.248
  163SOL    HW1 1388   6.073   0.269   1.149
  163SOL    HW2 1389   5.983   0.300   1.282
  164SOL     OW 1390   6.186   3.183   1.749
  164SOL    HW1 1391   6.227   3.113   1.807
  164SOL    HW2 1392   6.086   3.176   1.754
  165SOL     OW 1393   6.430   3.327   6.974
  165SOL    HW1 1394   6.381   3.324   0.042
  165SOL    HW2 1395   6.527   3.311   6.991
  166SOL     OW 1396   1.544   6.920   0.796
  166SOL    HW1 1397   1.496   6.834   0.810
  166SOL    HW2 1398   1.517   6.960   0.708
  167SOL     OW 1399   6.755   2.585   1.584
  167SOL    HW1 1400   6.683   2.516   1.580
  167SOL    HW2 1401   6.734   2.650   1.658
  168SOL     OW 1402   2.318   5.049   1.427
  168SOL    HW1 1403   2.391   5.007   1.480
  168SOL    HW2 1404   2.287   5.133   1.472
  169SOL     OW 1405   0.792   0.288   1.270
  169SOL    HW1 1406   0.795   0.375   1.319
  169SOL    HW2 1407   0.877   0.238   1.287
  170SOL     OW 1408   0.184   1.661   3.755
  170SOL    HW1 1409   0.191   1.761   3.763
  170SOL    HW2 1410   0.199   1.619   3.844
  171SOL     OW 1411   3.323   3.950   0.843
  171SOL    HW1 1412   3.334   3.978   0.938
  171SOL    HW2 1413   3.392   3.881   0.820
  172SOL     OW 1414   0.066   3.000   2.028
  172SOL    HW1 1415   0.131   2.929   2.055
  172SOL    HW2 1416   0.078   3.081   2.085
  173SOL     OW 1417   6.862   6.809   5.293
  173SOL    HW1 1418   6.924   6.886   5.279
  173SOL    HW2 1419   6.829   6.777   5.204
  174SOL     OW 1420   2.443   5.873   3.477
  174SOL    HW1 1421   2.361   5.892   3.424
  174SOL    HW2 1422   2.424   5.800   3.543
  175SOL     OW 1423   0.337   4.950   3.803
  175SOL    HW1 1424   0.424   4.994   3.782
  175SOL    HW2 1425   0.271   4.971   3.731
  176SOL     OW 1426   2.771   6.126   6.904
  176SOL    HW1 1427   2.754   6.134   6.805
  176SOL    HW2 1428   2.694   6.078   6.947
  177SOL     OW 1429   4.705   1.381   2.547
  177SOL    HW1 1430   4.607   1.383   2.563
  177SOL    HW2 1431   4.752   1.429   2.621
  178SOL     OW 1432   5.555   4.015   6.308
  178SOL    HW1 1433   5.644   3.969   6.300
  178SOL    HW2 1434   5.487   3.966   6.254
  179SOL     OW 1435   3.444   6.856   0.238
  179SOL    HW1 1436   3.535   6.852   0.196
  179SOL    HW2 1437   3.415   6.763   0.262
  180SOL     OW 1438   0.809   2.330   6.956
  180SOL    HW1 1439   0.831   2.382   0.020
  180SOL    HW2 1440   0.786   2.236   6.982
  181SOL     OW 1441   2.987   3.492   4.219
  181SOL    HW1 1442   3.070   3.540   4.192
  181SOL    HW2 1443   2.945   3.450   4.139
  182SOL     OW 1444   5.550   2.406   5.122
  182SOL    HW1 1445   5.563   2.505   5.112
  182SOL    HW2 1446   5.463   2.388   5.167
  183SOL     OW 1447   6.632   1.415   3.087
  183SOL    HW1 1448   6.602   1.479   3.158
  183SOL    HW2 1449   6.568   1.419   3.010
  184SOL     OW 1450   0.103   4.653   2.504
  184SOL    HW1 1451   0.176   4.605   2.455
  184SOL    HW2 1452   0.144   4.707   2.578
  185SOL     OW 1453   3.149   3.515   6.196
  185SOL    HW1 1454   3.150   3.416   6.181
  185SOL    HW2 1455   3.243   3.547   6.208
  186SOL     OW 1456   6.248   6.848   3.244
  186SOL    HW1 1457   6.313   6.800   3.186
  186SOL    HW2 1458   6.263   6.821   3.340
  187SOL     OW 1459   5.744   0.133   4.187
  187SOL    HW1 1460   5.667   0.195   4.169
  187SOL    HW2 1461   5.807   0.136   4.109
  188SOL     OW 1462   5.952   2.472   4.843
  188SOL    HW1 1463   5.869   2.528   4.844
  188SOL    HW2 1464   6.027   2.524   4.883
  189SOL     OW 1465   2.071   4.514   3.537
  189SOL    HW1 1466   2.114   4.480   3.621
  189SOL    HW2 1467   1.972   4.501   3.543
  190SOL     OW 1468   3.513   1.230   0.076
  190SOL    HW1 1469   3.508   1.151   0.015
  190SOL    HW2 1470   3.591   1.220   0.137
  191SOL     OW 1471   5.017   5.608   6.398
  191SOL    HW1 1472   5.016   5.576   6.492
  191SOL    HW2 1473   5.096   5.666   6.383
  192SOL     OW 1474   6.772   0.940   6.616
  192SOL    HW1 1475   6.859   0.912   6.576
  192SOL    HW2 1476   6.716   0.859   6.633
  193SOL     OW 1477   6.113   4.052   6.994
  193SOL    HW1 1478   6.056   3.975   0.006
  193SOL    HW2 1479   6.177   4.077   0.048
  194SOL     OW 1480   4.220   0.037   4.554
  194SOL    HW1 1481   4.166   0.048   4.637
  194SOL    HW2 1482   4.312   0.072   4.569
  195SOL     OW 1483   0.184   5.698   3.408
  195SOL    HW1 1484   0.275   5.670   3.377
  195SOL    HW2 1485   0.184   5.797   3.425
  196SOL     OW 1486   0.422   1.100   1.063
  196SOL    HW1 1487   0.409   1.017   1.118
  196SOL    HW2 1488   0.488   1.083   0.990
  197SOL     OW 1489   2.131   1.023   0.789
  197SOL    HW1 1490   2.217   1.005   0.741
  197SOL    HW2 1491   2.055   0.992   0.733
  198SOL     OW 1492   3.009   1.512   5.209
  198SOL    HW1 1493   2.997   1.420   5.247
  198SOL    HW2 1494   3.044   1.573   5.280
  199SOL     OW 1495   2.178   1.263   4.562
  199SOL    HW1 1496   2.125   1.310   4.491
  199SOL    HW2 1497   2.128   1.268   4.649
  200SOL     OW 1498   6.198   2.099   0.483
  200SOL    HW1 1499   6.134   2.171   0.510
  200SOL    HW2 1500   6.247   2.127   0.401
  201SOL     OW 1501   0.408   1.682   5.903
  201SOL    HW1 1502   0.391   1.610   5.836
  201SOL    HW2 1503   0.379   1.652   5.993
  202SOL     OW 1504   5.463   6.826   0.278
  202SOL    HW1 1505   5.447   6.873   0.191
  202SOL    HW2 1506   5.562   6.819   0.294
  203SOL     OW 1507   6.617   3.925   0.101
  203SOL    HW1 1508   6.661   3.875   0.175
  203SOL    HW2 1509   6.663   4.013   0.089
  204SOL     OW 1510   6.376   0.651   4.897
  204SOL    HW1 1511   6.474   0.668   4.904
  204SOL    HW2 1512   6.359   0.554   4.883
  205SOL     OW 1513   2.090   4.880   3.501
  205SOL    HW1 1514   2.145   4.955   3.464
  205SOL    HW2 1515   2.147   4.822   3.559
  206SOL     OW 1516   0.951   4.223   1.050
  206SOL    HW1 1517   0.996   4.167   0.980
  206SOL    HW2 1518   0.859   4.247   1.020
  207SOL     OW 1519   0.070   2.819   4.135
  207SOL    HW1 1520   0.125   2.737   4.118
  207SOL    HW2 1521   0.123   2.900   4.110
  208SOL     OW 1522   1.241   3.129   4.993
  208SOL    HW1 1523   1.247   3.215   4.944
  208SOL    HW2 1524   1.314   3.123   5.061
  209SOL     OW 1525   6.204   3.884   2.130
  209SOL    HW1 1526   6.225   3.813   2.197
  209SOL    HW2 1527   6.289   3.922   2.094
  210SOL     OW 1528   4.966   4.034   1.222
  210SOL    HW1 1529   5.026   3.955   1.231
  210SOL    HW2 1530   4.906   4.022   1.142
  211SOL     OW 1531   1.824   1.180   1.780
  211SOL    HW1 1532   1.781   1.121   1.849
  211SOL    HW2 1533   1.759   1.197   1.706
  212SOL     OW 1534   1.979   4.485   1.732
  212SOL    HW1 1535   1.893   4.449   1.766
  212SOL    HW2 1536   2.035   4.516   1.808
  213SOL     OW 1537   1.125   5.532   1.096
  213SOL    HW1 1538   1.196   5.480   1.144
  213SOL    HW2 1539   1.124   5.626   1.130
  214SOL     OW 1540   5.902   6.557   2.293
  214SOL    HW1 1541   5.974   6.615   2.330
  214SOL    HW2 1542   5.938   6.465   2.277
  215SOL     OW 1543   2.406   4.515   2.589
  215SOL    HW1 1544   2.402   4.603   2.637
  215SOL    HW2 1545   2.463   4.524   2.507
  216SOL     OW 1546   1.712   6.131   2.915
  216SOL    HW1 1547   1.775   6.132   2.993
  216SOL    HW2 1548   1.683   6.037   2.897
  217SOL     OW 1549   0.065   4.609   4.888
  217SOL    HW1 1550   0.072   4.555   4.804
  217SOL    HW2 1551   0.080   4.706   4.867
  218SOL     OW 1552   3.236   2.437   5.886
  218SOL    HW1 1553   3.183   2.398   5.810
  218SOL    HW2 1554   3.330   2.402   5.882
  219SOL     OW 1555   5.157   2.013   1.491
  219SOL    HW1 1556   5.232   2.003   1.426
  219SOL    HW2 1557   5.074   1.973   1.452
  220SOL     OW 1558   2.148   6.845   0.504
  220SOL    HW1 1559   2.159   6.745   0.496
  220SOL    HW2 1560   2.144   6.884   0.412
  221SOL     OW 1561   4.831   4.663   2.102
  221SOL    HW1 1562   4.760   4.593   2.093
  221SOL    HW2 1563   4.800   4.732   2.167
  222SOL     OW 1564   1.228   4.353   6.362
  222SOL    HW1 1565   1.270   4.356   6.271
  222SOL    HW2 1566   1.269   4.279   6.415
  223SOL     OW 1567   6.390   2.032   5.282
  223SOL    HW1 1568   6.413   2.051   5.378
  223SOL    HW2 1569   6.471   1.995   5.236
  224SOL     OW 1570   3.404   2.840   5.656
  224SOL    HW1 1571   3.316   2.812   5.617
  224SOL    HW2 1572   3.476   2.779   5.623
  225SOL     OW 1573   4.485   6.197   6.211
  225SOL    HW1 1574   4.485   6.244   6.123
  225SOL    HW2 1575   4.428   6.248   6.276
  226SOL     OW 1576   1.779   2.369   0.068
  226SOL    HW1 1577   1.734   2.330   0.149
  226SOL    HW2 1578   1.710   2.404   0.006
  227SOL     OW 1579   1.532   3.978   1.171
  227SOL    HW1 1580   1.596   3.914   1.213
  227SOL    HW2 1581   1.570   4.070   1.175
  228SOL     OW 1582   0.730   0.454   2.397
  228SOL    HW1 1583   0.787   0.383   2.437
  228SOL    HW2 1584   0.708   0.429   2.302
  229SOL     OW 1585   4.053   0.854   6.135
  229SOL    HW1 1586   4.095   0.942   6.158
  229SOL    HW2 1587   4.115   0.801   6.078
  230SOL     OW 1588   5.820   3.755   5.936
  230SOL    HW1 1589   5.794   3.813   5.858
  230SOL    HW2 1590   5.914   3.725   5.925
  231SOL     OW 1591   4.891   1.589   0.458
  231SOL    HW1 1592   4.912   1.667   0.400
  231SOL    HW2 1593   4.956   1.585   0.534
  232SOL     OW 1594   1.186   2.879   5.095
  232SOL    HW1 1595   1.171   2.962   5.041
  232SOL    HW2 1596   1.145   2.890   5.186
  233SOL     OW 1597   3.628   1.856   3.641
  233SOL    HW1 1598   3.652   1.790   3.569
  233SOL    HW2 1599   3.600   1.942   3.598
  234SOL     OW 1600   5.331   6.472   0.413
  234SOL    HW1 1601   5.328   6.544   0.343
  234SOL    HW2 1602   5.261   6.490   0.482
  235SOL     OW 1603   5.210   3.579   2.559
  235SOL    HW1 1604   5.124   3.551   2.602
  235SOL    HW2 1605   5.243   3.663   2.602
  236SOL     OW 1606   3.772   3.148   5.912
  236SOL    HW1 1607   3.831   3.068   5.912
  236SOL    HW2 1608   3.732   3.160   5.821
  237SOL     OW 1609   6.187   3.452   3.189
  237SOL    HW1 1610   6.259   3.401   3.237
  237SOL    HW2 1611   6.136   3.507   3.255
  238SOL     OW 1612   6.373   1.830   0.127
  238SOL    HW1 1613   6.280   1.819   0.161
  238SOL    HW2 1614   6.371   1.877   0.039
  239SOL     OW 1615   1.860   3.163   0.336
  239SOL    HW1 1616   1.870   3.064   0.346
  239SOL    HW2 1617   1.799   3.183   0.259
  240SOL     OW 1618   5.287   3.468   4.385
  240SOL    HW1 1619   5.220   3.517   4.329
  240SOL    HW2 1620   5.352   3.422   4.326
  241SOL     OW 1621   2.169   2.668   3.798
  241SOL    HW1 1622   2.209   2.734   3.862
  241SOL    HW2 1623   2.105   2.608   3.847
  242SOL     OW 1624   3.910   3.447   2.240
  242SOL    HW1 1625   3.995   3.500   2.240
  242SOL    HW2 1626   3.924   3.362   2.292
  243SOL     OW 1627   4.294   3.212   6.517
  243SOL    HW1 1628   4.220   3.278   6.531
  243SOL    HW2 1629   4.356   3.216   6.596
  244SOL     OW 1630   4.914   3.439   4.783
  244SOL    HW1 1631   4.954   3.352   4.812
  244SOL    HW2 1632   4.879   3.487   4.863
  245SOL     OW 1633   3.157   0.870   3.034
  245SOL    HW1 1634   3.237   0.813   3.017
  245SOL    HW2 1635   3.088   0.853   2.965
  246SOL     OW 1636   7.019   1.516   2.250
  246SOL    HW1 1637   6.940   1.577   2.261
  246SOL    HW2 1638   0.078   1.552   2.300
  247SOL     OW 1639   2.520   0.737   2.033
  247SOL    HW1 1640   2.494   0.787   1.950
  247SOL    HW2 1641   2.482   0.645   2.029
  248SOL     OW 1642   3.443   3.668   1.426
  248SOL    HW1 1643   3.343   3.669   1.413
  248SOL    HW2 1644   3.467   3.600   1.495
  249SOL     OW 1645   4.825   6.232   5.700
  249SOL    HW1 1646   4.880   6.300   5.652
  249SOL    HW2 1647   4.837   6.242   5.798
  250SOL     OW 1648   4.457   2.496   0.203
  250SOL    HW1 1649   4.458   2.531   0.109
  250SOL    HW2 1650   4.403   2.557   0.260
  251SOL     OW 1651   4.468   5.201   4.769
  251SOL    HW1 1652   4.373   5.172   4.784
  251SOL    HW2 1653   4.530   5.135   4.811
  252SOL     OW 1654   6.404   6.213   5.309
  252SOL    HW1 1655   6.453   6.130   5.282
  252SOL    HW2 1656   6.376   6.206   5.404
  253SOL     OW 1657   4.349   5.952   5.700
  253SOL    HW1 1658   4.338   5.932   5.798
  253SOL    HW2 1659   4.428   6.012   5.688
  254SOL     OW 1660   6.497   2.519   5.579
  254SOL    HW1 1661   6.399   2.500   5.587
  254SOL    HW2 1662   6.510   2.615   5.552
  255SOL     OW 1663   1.663   4.856   6.525
  255SOL    HW1 1664   1.644   4.762   6.554
  255SOL    HW2 1665   1.701   4.908   6.602
  256SOL     OW 1666   4.729   2.366   5.409
  256SOL    HW1 1667   4.672   2.448   5.408
  256SOL    HW2 1668   4.675   2.288   5.376
  257SOL     OW 1669   5.009   6.371   2.332
  257SOL    HW1 1670   5.044   6.300   2.270
  257SOL    HW2 1671   5.065   6.373   2.415
  258SOL     OW 1672   2.121   3.132   6.248
  258SOL    HW1 1673   2.125   3.174   6.158
  258SOL    HW2 1674   2.056   3.056   6.248
  259SOL     OW 1675   3.209   0.766   4.161
  259SOL    HW1 1676   3.273   0.831   4.203
  259SOL    HW2 1677   3.116   0.800   4.171
  260SOL     OW 1678   3.430   5.819   3.282
  260SOL    HW1 1679   3.527   5.794   3.282
  260SOL    HW2 1680   3.420   5.916   3.260
  261SOL     OW 1681   3.788   4.605   6.890
  261SOL    HW1 1682   3.840   4.652   6.818
  261SOL    HW2 1683   3.848   4.586   6.968
  262SOL     OW 1684   1.080   3.448   6.470
  262SOL    HW1 1685   1.042   3.356   6.476
  262SOL    HW2 1686   1.099   3.470   6.374
  263SOL     OW 1687   2.128   0.245   3.732
  263SOL    HW1 1688   2.059   0.295   3.784
  263SOL    HW2 1689   2.215   0.248   3.782
  264SOL     OW 1690   6.273   3.016   6.119
  264SOL    HW1 1691   6.300   3.026   6.214
  264SOL    HW2 1692   6.279   2.919   6.093
  265SOL     OW 1693   0.097   0.176   3.054
  265SOL    HW1 1694   0.107   0.102   3.120
  265SOL    HW2 1695   0.019   0.159   2.994
  266SOL     OW 1696   3.510   0.592   6.096
  266SOL    HW1 1697   3.429   0.534   6.098
  266SOL    HW2 1698   3.514   0.640   6.008
  267SOL     OW 1699   2.409   0.165   2.352
  267SOL    HW1 1700   2.313   0.156   2.325
  267SOL    HW2 1701   2.454   0.077   2.345
  268SOL     OW 1702   4.213   2.597   0.537
  268SOL    HW1 1703   4.313   2.591   0.546
  268SOL    HW2 1704   4.176   2.646   0.616
  269SOL     OW 1705   5.261   1.917   0.004
  269SOL    HW1 1706   5.337   1.922   6.959
  269SOL    HW2 1707   5.180   1.960   6.982
  270SOL     OW 1708   5.224   1.518   0.458
  270SOL    HW1 1709   5.236   1.561   0.369
  270SOL    HW2 1710   5.162   1.573   0.514
  271SOL     OW 1711   6.993   4.995   5.951
  271SOL    HW1 1712   7.012   4.929   6.025
  271SOL    HW2 1713   0.027   4.969   5.870
  272SOL     OW 1714   3.135   5.895   2.949
  272SOL    HW1 1715   3.059   5.861   2.894
  272SOL    HW2 1716   3.164   5.824   3.013
  273SOL     OW 1717   1.424   5.509   6.280
  273SOL    HW1 1718   1.483   5.525   6.200
  273SOL    HW2 1719   1.432   5.586   6.343
  274SOL     OW 1720   4.612   2.005   3.578
  274SOL    HW1 1721   4.702   1.968   3.557
  274SOL    HW2 1722   4.621   2.077   3.648
  275SOL     OW 1723   5.387   0.734   1.242
  275SOL    HW1 1724   5.350   0.650   1.201
  275SOL    HW2 1725   5.486   0.734   1.233
  276SOL     OW 1726   0.365   7.010   4.012
  276SOL    HW1 1727   0.347   6.982   3.918
  276SOL    HW2 1728   0.306   6.958   4.074
  277SOL     OW 1729   2.485   4.755   1.125
  277SOL    HW1 1730   2.441   4.697   1.193
  277SOL    HW2 1731   2.579   4.774   1.153
  278SOL     OW 1732   0.903   3.018   3.905
  278SOL    HW1 1733   0.999   3.046   3.903
  278SOL    HW2 1734   0.865   3.039   3.995
  279SOL     OW 1735   6.277   1.665   3.429
  279SOL    HW1 1736   6.288   1.607   3.348
  279SOL    HW2 1737   6.316   1.620   3.509
  280SOL     OW 1738   1.909   5.336   2.614
  280SOL    HW1 1739   1.927   5.410   2.550
  280SOL    HW2 1740   1.965   5.347   2.696
  281SOL     OW 1741   2.514   4.344   1.053
  281SOL    HW1 1742   2.462   4.265   1.019
  281SOL    HW2 1743   2.583   4.312   1.119
  282SOL     OW 1744   1.693   1.284   4.942
  282SOL    HW1 1745   1.725   1.340   5.019
  282SOL    HW2 1746   1.772   1.246   4.894
  283SOL     OW 1747   2.882   2.778   0.018
  283SOL    HW1 1748   2.864   2.825   6.950
  283SOL    HW2 1749   2.920   2.687   7.018
  284SOL     OW 1750   0.745   4.063   3.863
  284SOL    HW1 1751   0.665   4.051   3.922
  284SOL    HW2 1752   0.762   4.161   3.850
  285SOL     OW 1753   5.195   3.912   4.287
  285SOL    HW1 1754   5.242   3.965   4.216
  285SOL    HW2 1755   5.096   3.920   4.274
  286SOL     OW 1756   2.707   4.028   1.128
  286SOL    HW1 1757   2.766   4.098   1.088
  286SOL    HW2 1758   2.719   4.028   1.227
  287SOL     OW 1759   0.735   3.242   6.956
  287SOL    HW1 1760   0.692   3.167   6.906
  287SOL    HW2 1761   0.689   3.255   0.025
  288SOL     OW 1762   5.241   3.027   2.064
  288SOL    HW1 1763   5.191   3.058   2.145
  288SOL    HW2 1764   5.274   3.107   2.013
  289SOL     OW 1765   3.701   5.883   6.960
  289SOL    HW1 1766   3.657   5.915   0.025
  289SOL    HW2 1767   3.721   5.961   6.901
  290SOL     OW 1768   1.580   0.695   4.811
  290SOL    HW1 1769   1.611   0.621   4.869
  290SOL    HW2 1770   1.537   0.657   4.729
  291SOL     OW 1771   6.851   1.170   2.732
  291SOL    HW1 1772   6.883   1.076   2.722
  291SOL    HW2 1773   6.906   1.217   2.801
  292SOL     OW 1774   3.445   6.706   3.874
  292SOL    HW1 1775   3.365   6.698   3.934
  292SOL    HW2 1776   3.521   6.745   3.924
  293SOL     OW 1777   3.648   5.304   2.915
  293SOL    HW1 1778   3.590   5.239   2.964
  293SOL    HW2 1779   3.592   5.379   2.880
  294SOL     OW 1780   4.713   0.189   0.563
  294SOL    HW1 1781   4.665   0.234   0.488
  294SOL    HW2 1782   4.800   0.235   0.578
  295SOL     OW 1783   6.002   0.726   4.311
  295SOL    HW1 1784   5.965   0.644   4.354
  295SOL    HW2 1785   5.958   0.740   4.223
  296SOL     OW 1786   2.742   2.133   3.185
  296SOL    HW1 1787   2.711   2.084   3.103
  296SOL    HW2 1788   2.691   2.101   3.265
  297SOL     OW 1789   1.505   5.040   1.971
  297SOL    HW1 1790   1.596   5.079   1.964
  297SOL    HW2 1791   1.445   5.080   1.902
  298SOL     OW 1792   6.452   5.130   0.657
  298SOL    HW1 1793   6.453   5.215   0.604
  298SOL    HW2 1794   6.366   5.124   0.708
  299SOL     OW 1795   5.551   2.900   3.709
  299SOL    HW1 1796   5.606   2.953   3.774
  299SOL    HW2 1797   5.572   2.929   3.616
  300SOL     OW 1798   5.953   6.952   1.531
  300SOL    HW1 1799   5.897   6.956   1.448
  300SOL    HW2 1800   5.956   0.024   1.573
  301SOL     OW 1801   5.108   3.184   5.733
  301SOL    HW1 1802   5.190   3.133   5.708
  301SOL    HW2 1803   5.062   3.216   5.650
  302SOL     OW 1804   1.119   5.405   5.064
  302SOL    HW1 1805   1.103   5.356   4.978
  302SOL    HW2 1806   1.179   5.351   5.123
  303SOL     OW 1807   6.289   0.056   3.447
  303SOL    HW1 1808   6.317   6.979   3.450
  303SOL    HW2 1809   6.307   0.099   3.536
  304SOL     OW 1810   3.974   0.769   4.444
  304SOL    HW1 1811   3.935   0.744   4.532
  304SOL    HW2 1812   3.969   0.868   4.432
  305SOL     OW 1813   1.929   4.099   0.876
  305SOL    HW1 1814   2.011   4.069   0.925
  305SOL    HW2 1815   1.908   4.034   0.803
  306SOL     OW 1816   1.848   0.625   3.308
  306SOL    HW1 1817   1.854   0.695   3.237
  306SOL    HW2 1818   1.823   0.538   3.267
  307SOL     OW 1819   3.220   0.480   1.227
  307SOL    HW1 1820   3.194   0.383   1.224
  307SOL    HW2 1821   3.319   0.487   1.219
  308SOL     OW 1822   0.740   5.052   4.112
  308SOL    HW1 1823   0.674   5.049   4.186
  308SOL    HW2 1824   0.748   4.962   4.070
  309SOL     OW 1825   3.681   4.641   5.332
  309SOL    HW1 1826   3.712   4.629   5.426
  309SOL    HW2 1827   3.676   4.552   5.286
  310SOL     OW 1828   1.214   5.947   6.748
  310SOL    HW1 1829   1.299   5.994   6.771
  310SOL    HW2 1830   1.206   5.864   6.803
  311SOL     OW 1831   6.917   0.538   1.128
  311SOL    HW1 1832   6.955   0.463   1.074
  311SOL    HW2 1833   6.875   0.605   1.067
  312SOL     OW 1834   3.934   1.537   6.494
  312SOL    HW1 1835   3.897   1.532   6.586
  312SOL    HW2 1836   3.963   1.631   6.474
  313SOL     OW 1837   6.862   4.762   1.443
  313SOL    HW1 1838   6.894   4.747   1.537
  313SOL    HW2 1839   6.821   4.678   1.408
  314SOL     OW 1840   3.678   6.035   2.351
  314SOL    HW1 1841   3.678   5.982   2.266
  314SOL    HW2 1842   3.598   6.094   2.352
  315SOL     OW 1843   0.776   4.082   3.082
  315SOL    HW1 1844   0.781   4.079   3.182
  315SOL    HW2 1845   0.838   4.013   3.044
  316SOL     OW 1846   2.214   3.102   3.838
  316SOL    HW1 1847   2.244   3.074   3.747
  316SOL    HW2 1848   2.237   3.031   3.904
  317SOL     OW 1849   6.869   2.058   0.951
  317SOL    HW1 1850   6.866   2.080   0.853
  317SOL    HW2 1851   6.890   2.141   1.003
  318SOL     OW 1852   2.586   4.236   0.759
  318SOL    HW1 1853   2.546   4.272   0.675
  318SOL    HW2 1854   2.619   4.143   0.744
  319SOL     OW 1855   0.503   1.434   6.271
  319SOL    HW1 1856   0.599   1.407   6.274
  319SOL    HW2 1857   0.446   1.354   6.254
  320SOL     OW 1858   5.877   3.314   2.390
  320SOL    HW1 1859   5.894   3.360   2.303
  320SOL    HW2 1860   5.891   3.379   2.465
  321SOL     OW 1861   1.986   1.311   2.097
  321SOL    HW1 1862   1.973   1.310   1.997
  321SOL    HW2 1863   2.071   1.262   2.119
  322SOL     OW 1864   3.592   3.085   5.503
  322SOL    HW1 1865   3.547   2.996   5.507
  322SOL    HW2 1866   3.683   3.078   5.545
  323SOL     OW 1867   1.710   4.105   2.154
  323SOL    HW1 1868   1.790   4.051   2.126
  323SOL    HW2 1869   1.644   4.108   2.078
  324SOL     OW 1870   0.268   2.612   4.087
  324SOL    HW1 1871   0.362   2.640   4.067
  324SOL    HW2 1872   0.229   2.568   4.006
  325SOL     OW 1873   1.939   2.008   2.675
  325SOL    HW1 1874   1.866   1.943   2.696
  325SOL    HW2 1875   1.951   2.013   2.576
  326SOL     OW 1876   2.105   4.411   4.650
  326SOL    HW1 1877   2.178   4.347   4.674
  326SOL    HW2 1878   2.086   4.471   4.727
  327SOL     OW 1879   6.002   3.628   6.315
  327SOL    HW1 1880   5.903   3.630   6.325
  327SOL    HW2 1881   6.045   3.652   6.402
  328SOL     OW 1882   3.209   5.726   3.152
  328SOL    HW1 1883   3.237   5.635   3.122
  328SOL    HW2 1884   3.284   5.769   3.202
  329SOL     OW 1885   3.593   4.221   1.782
  329SOL    HW1 1886   3.645   4.143   1.745
  329SOL    HW2 1887   3.583   4.210   1.881
  330SOL     OW 1888   2.800   2.764   1.639
  330SOL    HW1 1889   2.855   2.706   1.699
  330SOL    HW2 1890   2.722   2.711   1.604
  331SOL     OW 1891   6.800   3.932   5.664
  331SOL    HW1 1892   6.862   3.856   5.644
  331SOL    HW2 1893   6.711   3.897   5.692
  332SOL     OW 1894   4.069   1.936   3.451
  332SOL    HW1 1895   4.083   1.847   3.408
  332SOL    HW2 1896   4.002   1.927   3.525
  333SOL     OW 1897   4.519   6.478   0.946
  333SOL    HW1 1898   4.509   6.560   1.003
  333SOL    HW2 1899   4.609   6.478   0.904
  334SOL     OW 1900   5.239   0.266   2.898
  334SOL    HW1 1901   5.266   0.177   2.862
  334SOL    HW2 1902   5.320   0.313   2.934
  335SOL     OW 1903   3.452   0.341   2.067
  335SOL    HW1 1904   3.452   0.428   2.116
  335SOL    HW2 1905   3.359   0.318   2.039
  336SOL     OW 1906   3.482   1.247   5.075
  336SOL    HW1 1907   3.506   1.342   5.057
  336SOL    HW2 1908   3.564   1.189   5.067
  337SOL     OW 1909   1.299   4.159   2.253
  337SOL    HW1 1910   1.206   4.193   2.268
  337SOL    HW2 1911   1.351   4.225   2.200
  338SOL     OW 1912   2.126   2.674   0.818
  338SOL    HW1 1913   2.196   2.742   0.840
  338SOL    HW2 1914   2.101   2.624   0.900
  339SOL     OW 1915   4.708   0.656   3.142
  339SOL    HW1 1916   4.685   0.753   3.154
  339SOL    HW2 1917   4.640   0.600   3.189
  340SOL     OW 1918   5.534   3.890   4.387
  340SOL    HW1 1919   5.496   3.846   4.305
  340SOL    HW2 1920   5.537   3.825   4.462
  341SOL     OW 1921   4.207   4.547   5.757
  341SOL    HW1 1922   4.260   4.537   5.673
  341SOL    HW2 1923   4.126   4.489   5.752
  342SOL     OW 1924   5.586   2.982   0.836
  342SOL    HW1 1925   5.632   2.961   0.922
  342SOL    HW2 1926   5.580   3.081   0.826
  343SOL     OW 1927   2.410   0.594   2.484
  343SOL    HW1 1928   2.328   0.630   2.530
  343SOL    HW2 1929   2.477   0.567   2.553
  344SOL     OW 1930   4.116   6.994   0.412
  344SOL    HW1 1931   4.063   7.018   0.330
  344SOL    HW2 1932   4.212   6.984   0.388
  345SOL     OW 1933   1.094   0.883   5.219
  345SOL    HW1 1934   1.040   0.831   5.153
  345SOL    HW2 1935   1.187   0.847   5.222
  346SOL     OW 1936   2.393   0.553   5.055
  346SOL    HW1 1937   2.344   0.636   5.029
  346SOL    HW2 1938   2.332   0.494   5.108
  347SOL     OW 1939   5.444   5.915   5.561
  347SOL    HW1 1940   5.539   5.927   5.532
  347SOL    HW2 1941   5.437   5.832   5.616
  348SOL     OW 1942   3.107   7.002   3.947
  348SOL    HW1 1943   3.109   0.049   3.872
  348SOL    HW2 1944   3.012   6.983   3.973
  349SOL     OW 1945   2.586   5.377   2.003
  349SOL    HW1 1946   2.508   5.437   1.985
  349SOL    HW2 1947   2.642   5.371   1.921
  350SOL     OW 1948   5.261   3.532   1.618
  350SOL    HW1 1949   5.320   3.540   1.699
  350SOL    HW2 1950   5.166   3.525   1.647
  351SOL     OW 1951   3.137   1.540   0.519
  351SOL    HW1 1952   3.209   1.522   0.586
  351SOL    HW2 1953   3.179   1.574   0.434
  352SOL     OW 1954   2.806   1.369   6.625
  352SOL    HW1 1955   2.797   1.458   6.580
  352SOL    HW2 1956   2.736   1.307   6.590
  353SOL     OW 1957   2.455   6.761   1.317
  353SOL    HW1 1958   2.449   6.757   1.417
  353SOL    HW2 1959   2.486   6.852   1.289
  354SOL     OW 1960   5.679   0.242   2.218
  354SOL    HW1 1961   5.603   0.206   2.272
  354SOL    HW2 1962   5.731   0.307   2.273
  355SOL     OW 1963   1.110   0.920   2.350
  355SOL    HW1 1964   1.035   0.923   2.417
  355SOL    HW2 1965   1.118   0.827   2.314
  356SOL     OW 1966   3.177   0.384   3.118
  356SOL    HW1 1967   3.191   0.421   3.210
  356SOL    HW2 1968   3.167   0.460   3.054
  357SOL     OW 1969   1.330   4.775   4.275
  357SOL    HW1 1970   1.374   4.713   4.210
  357SOL    HW2 1971   1.282   4.847   4.224
  358SOL     OW 1972   5.045   1.099   3.404
  358SOL    HW1 1973   5.121   1.163   3.403
  358SOL    HW2 1974   5.077   1.009   3.431
  359SOL     OW 1975   0.625   1.702   0.529
  359SOL    HW1 1976   0.558   1.709   0.456
  359SOL    HW2 1977   0.579   1.708   0.618
  360SOL     OW 1978   5.258   6.995   6.627
  360SOL    HW1 1979   5.307   6.946   6.699
  360SOL    HW2 1980   5.276   6.951   6.539
  361SOL     OW 1981   2.925   0.424   2.025
  361SOL    HW1 1982   2.871   0.506   2.047
  361SOL    HW2 1983   2.925   0.362   2.104
  362SOL     OW 1984   2.694   3.308   0.273
  362SOL    HW1 1985   2.676   3.404   0.254
  362SOL    HW2 1986   2.782   3.282   0.233
  363SOL     OW 1987   4.720   4.781   4.240
  363SOL    HW1 1988   4.630   4.746   4.214
  363SOL    HW2 1989   4.736   4.868   4.192
  364SOL     OW 1990   2.739   5.898   6.241
  364SOL    HW1 1991   2.647   5.861   6.255
  364SOL    HW2 1992   2.789   5.839   6.177
  365SOL     OW 1993   4.972   6.256   3.132
  365SOL    HW1 1994   5.012   6.177   3.086
  365SOL    HW2 1995   4.917   6.309   3.067
  366SOL     OW 1996   5.061   1.647   0.641
  366SOL    HW1 1997   5.096   1.584   0.710
  366SOL    HW2 1998   5.072   1.741   0.674
  367SOL     OW 1999   6.833   2.658   2.419
  367SOL    HW1 2000   6.880   2.727   2.474
  367SOL    HW2 2001   6.743   2.639   2.458
  368SOL     OW 2002   6.885   5.092   4.972
  368SOL    HW1 2003   6.815   5.025   4.998
  368SOL    HW2 2004   6.851   5.147   4.896
  369SOL     OW 2005   1.069   4.334   2.184
  369SOL    HW1 2006   1.010   4.414   2.179
  369SOL    HW2 2007   1.099   4.308   2.092
  370SOL     OW 2008   3.871   2.011   6.446
  370SOL    HW1 2009   3.909   2.063   6.370
  370SOL    HW2 2010   3.899   1.915   6.439
  371SOL     OW 2011   3.372   2.394   6.589
  371SOL    HW1 2012   3.376   2.477   6.645
  371SOL    HW2 2013   3.364   2.314   6.647
  372SOL     OW 2014   1.898   5.328   0.217
  372SOL    HW1 2015   1.806   5.365   0.223
  372SOL    HW2 2016   1.905   5.264   0.141
  373SOL     OW 2017   6.351   6.919   6.532
  373SOL    HW1 2018   6.448   6.901   6.550
  373SOL    HW2 2019   6.331   6.897   6.436
  374SOL     OW 2020   4.801   0.546   1.049
  374SOL    HW1 2021   4.722   0.507   1.002
  374SOL    HW2 2022   4.885   0.508   1.011
  375SOL     OW 2023   6.973   3.666   1.935
  375SOL    HW1 2024   6.939   3.578   1.969
  375SOL    HW2 2025   6.901   3.712   1.882
  376SOL     OW 2026   2.368   4.231   5.248
  376SOL    HW1 2027   2.454   4.280   5.259
  376SOL    HW2 2028   2.386   4.144   5.202
  377SOL     OW 2029   4.661   0.809   3.673
  377SOL    HW1 2030   4.637   0.866   3.595
  377SOL    HW2 2031   4.609   0.724   3.669
  378SOL     OW 2032   6.001   2.089   5.538
  378SOL    HW1 2033   5.931   2.081   5.466
  378SOL    HW2 2034   5.956   2.103   5.626
  379SOL     OW 2035   6.245   2.618   0.879
  379SOL    HW1 2036   6.287   2.551   0.940
  379SOL    HW2 2037   6.238   2.706   0.925
  380SOL     OW 2038   6.984   2.140   0.251
  380SOL    HW1 2039   6.929   2.210   0.298
  380SOL    HW2 2040   0.024   2.093   0.317
  381SOL     OW 2041   4.650   4.636   6.958
  381SOL    HW1 2042   4.653   4.567   0.012
  381SOL    HW2 2043   4.699   4.718   6.988
  382SOL     OW 2044   1.798   5.383   6.835
  382SOL    HW1 2045   1.792   5.423   6.743
  382SOL    HW2 2046   1.745   5.440   6.899
  383SOL     OW 2047   5.622   1.785   7.014
  383SOL    HW1 2048   5.597   1.856   0.061
  383SOL    HW2 2049   5.560   1.789   6.936
  384SOL     OW 2050   1.382   5.318   4.388
  384SOL    HW1 2051   1.440   5.368   4.323
  384SOL    HW2 2052   1.436   5.245   4.431
  385SOL     OW 2053   4.706   4.751   1.177
  385SOL    HW1 2054   4.657   4.805   1.109
  385SOL    HW2 2055   4.758   4.678   1.131
  386SOL     OW 2056   2.777   6.005   4.204
  386SOL    HW1 2057   2.852   5.952   4.244
  386SOL    HW2 2058   2.703   5.943   4.177
  387SOL     OW 2059   0.767   0.167   5.346
  387SOL    HW1 2060   0.810   0.221   5.274
  387SOL    HW2 2061   0.747   0.075   5.312
  388SOL     OW 2062   0.401   2.400   4.416
  388SOL    HW1 2063   0.439   2.376   4.327
  388SOL    HW2 2064   0.307   2.434   4.405
  389SOL     OW 2065   4.850   3.733   2.719
  389SOL    HW1 2066   4.778   3.683   2.670
  389SOL    HW2 2067   4.825   3.830   2.726
  390SOL     OW 2068   3.426   2.561   0.121
  390SOL    HW1 2069   3.450   2.495   0.192
  390SOL    HW2 2070   3.459   2.528   0.032
  391SOL     OW 2071   3.971   3.906   3.293
  391SOL    HW1 2072   4.057   3.956   3.301
  391SOL    HW2 2073   3.934   3.916   3.201
  392SOL     OW 2074   1.904   2.981   1.975
  392SOL    HW1 2075   1.948   2.896   2.006
  392SOL    HW2 2076   1.950   3.059   2.016
  393SOL     OW 2077   1.316   6.315   1.139
  393SOL    HW1 2078   1.298   6.327   1.042
  393SOL    HW2 2079   1.337   6.219   1.158
  394SOL     OW 2080   5.814   2.139   6.210
  394SOL    HW1 2081   5.888   2.189   6.254
  394SOL    HW2 2082   5.748   2.204   6.171
  395SOL     OW 2083   6.838   5.019   6.545
  395SOL    HW1 2084   6.915   4.955   6.546
  395SOL    HW2 2085   6.790   5.012   6.458
  396SOL     OW 2086   0.503   0.988   1.645
  396SOL    HW1 2087   0.530   1.074   1.601
  396SOL    HW2 2088   0.435   0.942   1.588
  397SOL     OW 2089   4.892   1.998   5.039
  397SOL    HW1 2090   4.960   1.928   5.018
  397SOL    HW2 2091   4.938   2.086   5.051
  398SOL     OW 2092   6.942   1.338   3.179
  398SOL    HW1 2093   6.886   1.266   3.220
  398SOL    HW2 2094   6.892   1.425   3.179
  399SOL     OW 2095   5.724   5.710   4.776
  399SOL    HW1 2096   5.757   5.751   4.691
  399SOL    HW2 2097   5.773   5.625   4.794
  400SOL     OW 2098   6.702   6.095   3.424
  400SOL    HW1 2099   6.732   6.137   3.339
  400SOL    HW2 2100   6.767   6.024   3.451
  401SOL     OW 2101   1.205   5.807   4.205
  401SOL    HW1 2102   1.182   5.717   4.241
  401SOL    HW2 2103   1.216   5.871   4.281
  402SOL     OW 2104   6.008   1.167   4.549
  402SOL    HW1 2105   5.947   1.225   4.494
  402SOL    HW2 2106   6.042   1.092   4.492
  403SOL     OW 2107   2.582   1.636   5.344
  403SOL    HW1 2108   2.488   1.641   5.379
  403SOL    HW2 2109   2.623   1.727   5.348
  404SOL     OW 2110   3.379   5.768   3.568
  404SOL    HW1 2111   3.410   5.782   3.474
  404SOL    HW2 2112   3.440   5.816   3.630
  405SOL     OW 2113   3.358   4.866   3.717
  405SOL    HW1 2114   3.331   4.771   3.702
  405SOL    HW2 2115   3.289   4.926   3.677
  406SOL     OW 2116   1.049   0.647   0.466
  406SOL    HW1 2117   1.145   0.620   0.455
  406SOL    HW2 2118   1.002   0.580   0.523
  407SOL     OW 2119   2.157   3.862   4.022
  407SOL    HW1 2120   2.072   3.898   3.985
  407SOL    HW2 2121   2.154   3.762   4.023
  408SOL     OW 2122   2.865   2.137   1.441
  408SOL    HW1 2123   2.937   2.178   1.385
  408SOL    HW2 2124   2.778   2.185   1.424
  409SOL     OW 2125   0.289   2.095   2.210
  409SOL    HW1 2126   0.209   2.137   2.253
  409SOL    HW2 2127   0.363   2.163   2.204
  410SOL     OW 2128   1.641   3.378   2.173
  410SOL    HW1 2129   1.594   3.465   2.190
  410SOL    HW2 2130   1.740   3.393   2.172
  411SOL     OW 2131   0.035   1.343   2.061
  411SOL    HW1 2132   6.965   1.302   2.041
  411SOL    HW2 2133   0.024   1.426   2.115
  412SOL     OW 2134   2.762   4.707   3.361
  412SOL    HW1 2135   2.811   4.707   3.274
  412SOL    HW2 2136   2.676   4.658   3.351
  413SOL     OW 2137   6.491   4.622   2.846
  413SOL    HW1 2138   6.515   4.719   2.847
  413SOL    HW2 2139   6.467   4.594   2.753
  414SOL     OW 2140   2.160   0.035   2.339
  414SOL    HW1 2141   2.124   0.022   2.247
  414SOL    HW2 2142   2.088   0.070   2.399
  415SOL     OW 2143   5.885   3.084   1.533
  415SOL    HW1 2144   5.823   3.007   1.516
  415SOL    HW2 2145   5.933   3.069   1.620
  416SOL     OW 2146   6.126   3.357   6.920
  416SOL    HW1 2147   6.083   3.448   6.915
  416SOL    HW2 2148   6.220   3.366   6.952
  417SOL     OW 2149   2.697   1.821   5.965
  417SOL    HW1 2150   2.629   1.865   5.906
  417SOL    HW2 2151   2.736   1.888   6.027
  418SOL     OW 2152   4.493   5.273   6.381
  418SOL    HW1 2153   4.482   5.261   6.282
  418SOL    HW2 2154   4.403   5.274   6.425
  419SOL     OW 2155   5.452   0.142   0.489
  419SOL    HW1 2156   5.535   0.123   0.437
  419SOL    HW2 2157   5.408   0.055   0.514
  420SOL     OW 2158   3.083   6.362   0.751
  420SOL    HW1 2159   3.137   6.279   0.751
  420SOL    HW2 2160   3.002   6.350   0.693
  421SOL     OW 2161   5.309   4.602   3.413
  421SOL    HW1 2162   5.279   4.614   3.318
  421SOL    HW2 2163   5.231   4.576   3.470
  422SOL     OW 2164   3.858   1.450   2.391
  422SOL    HW1 2165   3.820   1.512   2.322
  422SOL    HW2 2166   3.867   1.499   2.477
  423SOL     OW 2167   2.566   0.663   6.368
  423SOL    HW1 2168   2.649   0.720   6.372
  423SOL    HW2 2169   2.486   0.721   6.354
  424SOL     OW 2170   1.946   4.867   4.202
  424SOL    HW1 2171   1.958   4.908   4.112
  424SOL    HW2 2172   2.029   4.878   4.256
  425SOL     OW 2173   3.699   1.383   6.650
  425SOL    HW1 2174   3.734   1.337   6.732
  425SOL    HW2 2175   3.613   1.341   6.622
  426SOL     OW 2176   2.362   2.710   3.165
  426SOL    HW1 2177   2.316   2.694   3.078
  426SOL    HW2 2178   2.310   2.777   3.218
  427SOL     OW 2179   4.772   1.000   4.572
  427SOL    HW1 2180   4.714   1.032   4.647
  427SOL    HW2 2181   4.723   0.932   4.518
  428SOL     OW 2182   2.341   1.548   6.076
  428SOL    HW1 2183   2.347   1.474   6.009
  428SOL    HW2 2184   2.258   1.536   6.130
  429SOL     OW 2185   0.037   0.135   3.622
  429SOL    HW1 2186   0.069   0.180   3.705
  429SOL    HW2 2187   6.971   0.085   3.642
  430SOL     OW 2188   1.694   0.992   3.835
  430SOL    HW1 2189   1.750   0.917   3.869
  430SOL    HW2 2190   1.723   1.016   3.742
  431SOL     OW 2191   2.610   1.075   1.875
  431SOL    HW1 2192   2.517   1.044   1.856
  431SOL    HW2 2193   2.609   1.142   1.949
  432SOL     OW 2194   5.894   1.722   2.030
  432SOL    HW1 2195   5.917   1.667   1.950
  432SOL    HW2 2196   5.867   1.814   2.002
  433SOL     OW 2197   1.427   3.231   0.025
  433SOL    HW1 2198   1.348   3.230   0.085
  433SOL    HW2 2199   1.412   3.297   6.970
  434SOL     OW 2200   3.767   6.065   2.758
  434SOL    HW1 2201   3.829   6.054   2.836
  434SOL    HW2 2202   3.807   6.022   2.677
  435SOL     OW 2203   2.406   2.233   6.753
  435SOL    HW1 2204   2.420   2.171   6.831
  435SOL    HW2 2205   2.490   2.238   6.699
  436SOL     OW 2206   5.686   6.233   2.346
  436SOL    HW1 2207   5.759   6.184   2.300
  436SOL    HW2 2208   5.634   6.287   2.280
  437SOL     OW 2209   6.640   1.777   5.896
  437SOL    HW1 2210   6.702   1.770   5.974
  437SOL    HW2 2211   6.583   1.858   5.905
  438SOL     OW 2212   1.141   3.554   1.822
  438SOL    HW1 2213   1.104   3.508   1.902
  438SOL    HW2 2214   1.100   3.644   1.813
  439SOL     OW 2215   1.082   1.281   6.418
  439SOL    HW1 2216   1.096   1.300   6.321
  439SOL    HW2 2217   1.168   1.252   6.460
  440SOL     OW 2218   3.434   1.772   1.646
  440SOL    HW1 2219   3.462   1.694   1.589
  440SOL    HW2 2220   3.473   1.856   1.608
  441SOL     OW 2221   1.482   4.453   2.695
  441SOL    HW1 2222   1.401   4.394   2.692
  441SOL    HW2 2223   1.551   4.413   2.755
  442SOL     OW 2224   3.065   3.195   4.764
  442SOL    HW1 2225   3.093   3.289   4.747
  442SOL    HW2 2226   3.124   3.133   4.713
  443SOL     OW 2227   5.386   2.831   2.223
  443SOL    HW1 2228   5.370   2.733   2.210
  443SOL    HW2 2229   5.342   2.882   2.149
  444SOL     OW 2230   4.234   2.090   1.612
  444SOL    HW1 2231   4.188   2.145   1.681
  444SOL    HW2 2232   4.301   2.030   1.657
  445SOL     OW 2233   2.306   6.110   3.933
  445SOL    HW1 2234   2.212   6.091   3.962
  445SOL    HW2 2235   2.361   6.027   3.943
  446SOL     OW 2236   6.978   0.456   0.241
  446SOL    HW1 2237   7.005   0.484   0.149
  446SOL    HW2 2238   6.880   0.434   0.242
  447SOL     OW 2239   6.015   3.385   0.366
  447SOL    HW1 2240   6.025   3.376   0.466
  447SOL    HW2 2241   5.941   3.325   0.335
  448SOL     OW 2242   3.401   0.063   4.917
  448SOL    HW1 2243   3.481   0.031   4.867
  448SOL    HW2 2244   3.350   0.128   4.861
  449SOL     OW 2245   0.920   4.521   4.782
  449SOL    HW1 2246   0.915   4.528   4.882
  449SOL    HW2 2247   1.015   4.505   4.754
  450SOL     OW 2248   6.741   3.678   4.025
  450SOL    HW1 2249   6.694   3.671   3.937
  450SOL    HW2 2250   6.679   3.648   4.098
  451SOL     OW 2251   2.773   1.098   6.312
  451SOL    HW1 2252   2.731   1.121   6.399
  451SOL    HW2 2253   2.746   1.165   6.243
  452SOL     OW 2254   4.633   4.939   0.806
  452SOL    HW1 2255   4.609   5.035   0.794
  452SOL    HW2 2256   4.589   4.903   0.888
  453SOL     OW 2257   4.666   0.989   0.170
  453SOL    HW1 2258   4.719   0.906   0.157
  453SOL    HW2 2259   4.728   1.067   0.179
  454SOL     OW 2260   0.226   2.566   3.630
  454SOL    HW1 2261   0.267   2.559   3.720
  454SOL    HW2 2262   0.247   2.655   3.590
  455SOL     OW 2263   5.989   5.686   0.163
  455SOL    HW1 2264   5.946   5.756   0.106
  455SOL    HW2 2265   5.938   5.600   0.154
  456SOL     OW 2266   1.274   1.067   3.002
  456SOL    HW1 2267   1.339   1.058   3.078
  456SOL    HW2 2268   1.185   1.032   3.031
  457SOL     OW 2269   3.183   5.774   0.595
  457SOL    HW1 2270   3.218   5.839   0.528
  457SOL    HW2 2271   3.164   5.822   0.681
  458SOL     OW 2272   3.329   1.159   4.461
  458SOL    HW1 2273   3.243   1.197   4.496
  458SOL    HW2 2274   3.403   1.178   4.525
  459SOL     OW 2275   3.403   1.277   3.857
  459SOL    HW1 2276   3.485   1.303   3.805
  459SOL    HW2 2277   3.408   1.317   3.948
  460SOL     OW 2278   0.941   1.771   6.459
  460SOL    HW1 2279   1.018   1.742   6.403
  460SOL    HW2 2280   0.938   1.716   6.543
  461SOL     OW 2281   0.783   7.002   4.636
  461SOL    HW1 2282   0.750   6.908   4.648
  461SOL    HW2 2283   0.726   0.046   4.688
  462SOL     OW 2284   3.636   4.120   5.356
  462SOL    HW1 2285   3.616   4.099   5.260
  462SOL    HW2 2286   3.607   4.214   5.376
  463SOL     OW 2287   5.527   6.110   3.288
  463SOL    HW1 2288   5.467   6.111   3.369
  463SOL    HW2 2289   5.570   6.200   3.279
  464SOL     OW 2290   4.686   5.919   4.732
  464SOL    HW1 2291   4.725   6.010   4.742
  464SOL    HW2 2292   4.756   5.855   4.700
  465SOL     OW 2293   0.409   5.329   0.973
  465SOL    HW1 2294   0.314   5.332   1.004
  465SOL    HW2 2295   0.462   5.400   1.020
  466SOL     OW 2296   4.041   4.777   4.038
  466SOL    HW1 2297   3.958   4.827   4.062
  466SOL    HW2 2298   4.028   4.731   3.951
  467SOL     OW 2299   6.634   6.873   0.551
  467SOL    HW1 2300   6.582   6.907   0.631
  467SOL    HW2 2301   6.732   6.882   0.569
  468SOL     OW 2302   2.505   6.827   6.377
  468SOL    HW1 2303   2.514   6.926   6.390
  468SOL    HW2 2304   2.577   6.795   6.314
  469SOL     OW 2305   4.160   5.044   5.053
  469SOL    HW1 2306   4.100   4.966   5.069
  469SOL    HW2 2307   4.249   5.012   5.022
  470SOL     OW 2308   2.648   4.968   2.131
  470SOL    HW1 2309   2.677   4.917   2.050
  470SOL    HW2 2310   2.725   5.020   2.167
  471SOL     OW 2311   1.862   2.576   4.147
  471SOL    HW1 2312   1.909   2.531   4.224
  471SOL    HW2 2313   1.769   2.541   4.141
  472SOL     OW 2314   4.418   3.820   6.285
  472SOL    HW1 2315   4.408   3.919   6.293
  472SOL    HW2 2316   4.431   3.780   6.376
  473SOL     OW 2317   5.670   3.805   2.140
  473SOL    HW1 2318   5.603   3.814   2.067
  473SOL    HW2 2319   5.630   3.756   2.217
  474SOL     OW 2320   4.595   5.197   3.856
  474SOL    HW1 2321   4.653   5.154   3.788
  474SOL    HW2 2322   4.549   5.127   3.910
  475SOL     OW 2323   4.836   1.332   0.938
  475SOL    HW1 2324   4.841   1.430   0.956
  475SOL    HW2 2325   4.762   1.292   0.992
  476SOL     OW 2326   0.984   2.886   0.178
  476SOL    HW1 2327   0.999   2.868   0.275
  476SOL    HW2 2328   1.068   2.868   0.128
  477SOL     OW 2329   5.735   6.045   4.458
  477SOL    HW1 2330   5.653   5.991   4.435
  477SOL    HW2 2331   5.707   6.129   4.504
  478SOL     OW 2332   6.415   5.041   1.547
  478SOL    HW1 2333   6.461   4.958   1.580
  478SOL    HW2 2334   6.477   5.118   1.553
  479SOL     OW 2335   3.809   3.630   2.709
  479SOL    HW1 2336   3.874   3.591   2.775
  479SOL    HW2 2337   3.728   3.662   2.758
  480SOL     OW 2338   6.618   0.339   1.208
  480SOL    HW1 2339   6.714   0.318   1.226
  480SOL    HW2 2340   6.576   0.377   1.290
  481SOL     OW 2341   5.840   6.458   0.260
  481SOL    HW1 2342   5.890   6.482   0.344
  481SOL    HW2 2343   5.779   6.381   0.279
  482SOL     OW 2344   4.188   5.369   2.614
  482SOL    HW1 2345   4.236   5.352   2.700
  482SOL    HW2 2346   4.119   5.298   2.600
  483SOL     OW 2347   6.216   2.409   5.004
  483SOL    HW1 2348   6.265   2.360   5.077
  483SOL    HW2 2349   6.199   2.503   5.033
  484SOL     OW 2350   2.756   5.396   4.347
  484SOL    HW1 2351   2.835   5.393   4.286
  484SOL    HW2 2352   2.691   5.325   4.321
  485SOL     OW 2353   5.058   2.715   0.882
  485SOL    HW1 2354   4.986   2.703   0.950
  485SOL    HW2 2355   5.132   2.769   0.922
  486SOL     OW 2356   6.269   6.272   5.555
  486SOL    HW1 2357   6.250   6.341   5.485
  486SOL    HW2 2358   6.193   6.267   5.619
  487SOL     OW 2359   6.106   1.492   0.055
  487SOL    HW1 2360   6.138   1.514   6.982
  487SOL    HW2 2361   6.130   1.566   0.117
  488SOL     OW 2362   1.740   6.268   4.001
  488SOL    HW1 2363   1.713   6.325   3.923
  488SOL    HW2 2364   1.670   6.272   4.072
  489SOL     OW 2365   2.573   4.375   5.314
  489SOL    HW1 2366   2.650   4.415   5.364
  489SOL    HW2 2367   2.490   4.426   5.334
  490SOL     OW 2368   0.931   3.781   4.876
  490SOL    HW1 2369   0.993   3.850   4.839
  490SOL    HW2 2370   0.876   3.820   4.949
  491SOL     OW 2371   6.448   3.245   1.675
  491SOL    HW1 2372   6.490   3.308   1.741
  491SOL    HW2 2373   6.357   3.219   1.706
  492SOL     OW 2374   1.542   1.811   6.296
  492SOL    HW1 2375   1.639   1.788   6.291
  492SOL    HW2 2376   1.531   1.907   6.320
  493SOL     OW 2377   1.676   5.861   3.925
  493SOL    HW1 2378   1.599   5.892   3.982
  493SOL    HW2 2379   1.710   5.774   3.961
  494SOL     OW 2380   2.777   6.870   2.387
  494SOL    HW1 2381   2.861   6.816   2.395
  494SOL    HW2 2382   2.796   6.965   2.412
  495SOL     OW 2383   3.529   4.554   6.240
  495SOL    HW1 2384   3.540   4.521   6.146
  495SOL    HW2 2385   3.541   4.653   6.242
  496SOL     OW 2386   4.988   0.386   2.905
  496SOL    HW1 2387   5.065   0.325   2.885
  496SOL    HW2 2388   4.918   0.336   2.956
  497SOL     OW 2389   4.371   2.932   1.033
  497SOL    HW1 2390   4.437   2.857   1.033
  497SOL    HW2 2391   4.299   2.913   1.099
  498SOL     OW 2392   0.903   6.870   0.745
  498SOL    HW1 2393   0.811   6.844   0.774
  498SOL    HW2 2394   0.897   6.925   0.662
  499SOL     OW 2395   2.696   6.671   6.232
  499SOL    HW1 2396   2.679   6.589   6.287
  499SOL    HW2 2397   2.778   6.659   6.176
  500SOL     OW 2398   6.394   1.592   5.841
  500SOL    HW1 2399   6.433   1.657   5.775
  500SOL    HW2 2400   6.418   1.621   5.933
  501SOL     OW 2401   2.057   1.953   4.849
  501SOL    HW1 2402   2.025   1.960   4.754
  501SOL    HW2 2403   2.024   2.031   4.902
  502SOL     OW 2404   3.487   2.816   0.113
  502SOL    HW1 2405   3.462   2.719   0.110
  502SOL    HW2 2406   3.485   2.847   0.208
  503SOL     OW 2407   3.882   5.478   1.472
  503SOL    HW1 2408   3.875   5.512   1.378
  503SOL    HW2 2409   3.791   5.450   1.504
  504SOL     OW 2410   6.417   0.394   6.769
  504SOL    HW1 2411   6.443   0.299   6.751
  504SOL    HW2 2412   6.452   0.452   6.696
  505SOL     OW 2413   0.500   4.096   5.504
  505SOL    HW1 2414   0.592   4.057   5.512
  505SOL    HW2 2415   0.486   4.161   5.579
  506SOL     OW 2416   3.116   6.045   2.335
  506SOL    HW1 2417   3.173   5.998   2.268
  506SOL    HW2 2418   3.031   5.994   2.347
  507SOL     OW 2419   1.974   0.389   3.932
  507SOL    HW1 2420   1.874   0.396   3.929
  507SOL    HW2 2421   2.013   0.481   3.920
  508SOL     OW 2422   0.464   5.070   2.802
  508SOL    HW1 2423   0.519   5.076   2.885
  508SOL    HW2 2424   0.516   5.023   2.731
  509SOL     OW 2425   4.550   0.518   5.981
  509SOL    HW1 2426   4.540   0.617   5.973
  509SOL    HW2 2427   4.623   0.498   6.046
  510SOL     OW 2428   6.444   4.557   0.266
  510SOL    HW1 2429   6.371   4.568   0.200
  510SOL    HW2 2430   6.488   4.467   0.254
  511SOL     OW 2431   6.766   2.312   0.800
  511SOL    HW1 2432   6.849   2.309   0.855
  511SOL    HW2 2433   6.749   2.406   0.770
  512SOL     OW 2434   1.739   1.520   5.087
  512SOL    HW1 2435   1.766   1.591   5.022
  512SOL    HW2 2436   1.664   1.554   5.144
  513SOL     OW 2437   5.699   5.608   2.151
  513SOL    HW1 2438   5.632   5.683   2.151
  513SOL    HW2 2439   5.677   5.544   2.225
  514SOL     OW 2440   5.057   1.336   5.086
  514SOL    HW1 2441   5.112   1.404   5.134
  514SOL    HW2 2442   5.025   1.267   5.150
  515SOL     OW 2443   2.993   0.272   6.369
  515SOL    HW1 2444   3.046   0.187   6.365
  515SOL    HW2 2445   2.924   0.265   6.440
  516SOL     OW 2446   0.605   5.754   2.846
  516SOL    HW1 2447   0.506   5.742   2.832
  516SOL    HW2 2448   0.634   5.703   2.926
  517SOL     OW 2449   3.134   5.062   0.399
  517SOL    HW1 2450   3.190   4.988   0.361
  517SOL    HW2 2451   3.096   5.033   0.488
  518SOL     OW 2452   1.978   0.018   3.684
  518SOL    HW1 2453   2.020   6.961   3.635
  518SOL    HW2 2454   2.033   0.100   3.673
  519SOL     OW 2455   6.990   6.663   2.754
  519SOL    HW1 2456   0.033   6.609   2.697
  519SOL    HW2 2457   6.911   6.690   2.701
  520SOL     OW 2458   3.687   5.354   0.661
  520SOL    HW1 2459   3.776   5.399   0.663
  520SOL    HW2 2460   3.654   5.349   0.567
  521SOL     OW 2461   0.121   6.827   5.017
  521SOL    HW1 2462   0.113   6.842   5.115
  521SOL    HW2 2463   0.035   6.791   4.981
  522SOL     OW 2464   3.124   5.338   6.121
  522SOL    HW1 2465   3.052   5.281   6.160
  522SOL    HW2 2466   3.171   5.388   6.194
  523SOL     OW 2467   1.734   6.838   6.435
  523SOL    HW1 2468   1.681   6.866   6.355
  523SOL    HW2 2469   1.690   6.759   6.478
  524SOL     OW 2470   6.799   1.811   1.637
  524SOL    HW1 2471   6.743   1.730   1.655
  524SOL    HW2 2472   6.896   1.788   1.646
  525SOL     OW 2473   0.207   3.376   3.433
  525SOL    HW1 2474   0.197   3.281   3.462
  525SOL    HW2 2475   0.229   3.432   3.513
  526SOL     OW 2476   4.296   5.789   4.874
  526SOL    HW1 2477   4.300   5.807   4.776
  526SOL    HW2 2478   4.310   5.875   4.924
  527SOL     OW 2479   6.974   1.827   0.488
  527SOL    HW1 2480   6.997   1.763   0.414
  527SOL    HW2 2481   0.007   1.912   0.476
  528SOL     OW 2482   6.645   1.613   3.296
  528SOL    HW1 2483   6.741   1.636   3.279
  528SOL    HW2 2484   6.640   1.548   3.372
  529SOL     OW 2485   0.798   1.565   5.858
  529SOL    HW1 2486   0.747   1.495   5.808
  529SOL    HW2 2487   0.877   1.594   5.803
  530SOL     OW 2488   3.541   4.466   1.671
  530SOL    HW1 2489   3.559   4.377   1.712
  530SOL    HW2 2490   3.554   4.537   1.740
  531SOL     OW 2491   6.915   1.608   6.002
  531SOL    HW1 2492   6.848   1.565   6.062
  531SOL    HW2 2493   6.929   1.703   6.029
  532SOL     OW 2494   3.432   0.722   6.534
  532SOL    HW1 2495   3.403   0.691   6.443
  532SOL    HW2 2496   3.532   0.716   6.540
  533SOL     OW 2497   3.111   6.999   4.705
  533SOL    HW1 2498   3.183   7.000   4.636
  533SOL    HW2 2499   3.150   0.007   4.794
  534SOL     OW 2500   2.222   4.247   0.743
  534SOL    HW1 2501   2.184   4.283   0.827
  534SOL    HW2 2502   2.283   4.171   0.764
  535SOL     OW 2503   4.954   4.094   3.579
  535SOL    HW1 2504   5.003   4.176   3.608
  535SOL    HW2 2505   4.862   4.095   3.619
  536SOL     OW 2506   6.569   0.474   0.979
  536SOL    HW1 2507   6.535   0.563   1.010
  536SOL    HW2 2508   6.605   0.423   1.057
  537SOL     OW 2509   3.450   1.987   2.653
  537SOL    HW1 2510   3.360   1.975   2.612
  537SOL    HW2 2511   3.507   2.041   2.591
  538SOL     OW 2512   4.255   5.475   6.614
  538SOL    HW1 2513   4.207   5.396   6.651
  538SOL    HW2 2514   4.197   5.522   6.548
  539SOL     OW 2515   3.157   6.997   6.684
  539SOL    HW1 2516   3.205   6.983   6.597
  539SOL    HW2 2517   3.195   6.937   6.754
  540SOL     OW 2518   1.826   1.875   5.617
  540SOL    HW1 2519   1.766   1.952   5.593
  540SOL    HW2 2520   1.832   1.813   5.539
  541SOL     OW 2521   6.087   5.593   1.700
  541SOL    HW1 2522   6.014   5.643   1.747
  541SOL    HW2 2523   6.064   5.585   1.603
  542SOL     OW 2524   4.031   5.996   5.878
  542SOL    HW1 2525   3.991   6.074   5.925
  542SOL    HW2 2526   4.052   6.021   5.783
  543SOL     OW 2527   6.808   2.174   4.897
  543SOL    HW1 2528   6.780   2.190   4.992
  543SOL    HW2 2529   6.751   2.101   4.858
  544SOL     OW 2530   0.855   2.201   1.102
  544SOL    HW1 2531   0.774   2.149   1.130
  544SOL    HW2 2532   0.937   2.145   1.116
  545SOL     OW 2533   0.191   4.819   0.671
  545SOL    HW1 2534   0.222   4.868   0.753
  545SOL    HW2 2535   0.244   4.735   0.661
  546SOL     OW 2536   6.644   5.862   2.657
  546SOL    HW1 2537   6.693   5.919   2.722
  546SOL    HW2 2538   6.701   5.847   2.576
  547SOL     OW 2539   3.401   6.357   0.013
  547SOL    HW1 2540   3.426   6.342   0.108
  547SOL    HW2 2541   3.301   6.349   0.003
  548SOL     OW 2542   3.893   3.371   5.975
  548SOL    HW1 2543   3.843   3.301   6.026
  548SOL    HW2 2544   3.978   3.394   6.023
  549SOL     OW 2545   4.806   2.966   4.233
  549SOL    HW1 2546   4.880   2.919   4.185
  549SOL    HW2 2547   4.720   2.952   4.183
  550SOL     OW 2548   6.969   5.837   4.156
  550SOL    HW1 2549   7.015   5.923   4.131
  550SOL    HW2 2550   0.018   5.764   4.163
  551SOL     OW 2551   5.244   0.897   6.848
  551SOL    HW1 2552   5.319   0.853   6.898
  551SOL    HW2 2553   5.281   0.966   6.786
  552SOL     OW 2554   1.254   0.464   3.903
  552SOL    HW1 2555   1.325   0.534   3.915
  552SOL    HW2 2556   1.259   0.429   3.809
  553SOL     OW 2557   4.254   2.697   5.804
  553SOL    HW1 2558   4.165   2.688   5.761
  553SOL    HW2 2559   4.291   2.607   5.825
  554SOL     OW 2560   0.016   4.810   0.451
  554SOL    HW1 2561   6.983   4.728   0.428
  554SOL    HW2 2562   0.066   4.795   0.537
  555SOL     OW 2563   4.408   5.107   5.905
  555SOL    HW1 2564   4.402   5.143   5.998
  555SOL    HW2 2565   4.369   5.173   5.841
  556SOL     OW 2566   5.529   5.852   3.343
  556SOL    HW1 2567   5.546   5.942   3.303
  556SOL    HW2 2568   5.613   5.819   3.388
  557SOL     OW 2569   0.004   3.918   0.421
  557SOL    HW1 2570   6.975   3.924   0.508
  557SOL    HW2 2571   0.056   3.832   0.417
  558SOL     OW 2572   3.659   3.889   1.805
  558SOL    HW1 2573   3.601   3.834   1.864
  558SOL    HW2 2574   3.622   3.889   1.712
  559SOL     OW 2575   6.036   1.446   6.200
  559SOL    HW1 2576   5.956   1.492   6.162
  559SOL    HW2 2577   6.010   1.394   6.281
  560SOL     OW 2578   1.887   2.251   2.791
  560SOL    HW1 2579   1.974   2.298   2.804
  560SOL    HW2 2580   1.903   2.162   2.750
  561SOL     OW 2581   6.506   3.971   0.667
  561SOL    HW1 2582   6.493   3.872   0.659
  561SOL    HW2 2583   6.551   4.005   0.584
  562SOL     OW 2584   3.013   6.319   2.874
  562SOL    HW1 2585   2.957   6.402   2.865
  562SOL    HW2 2586   2.953   6.239   2.869
  563SOL     OW 2587   0.746   0.776   4.256
  563SOL    HW1 2588   0.690   0.838   4.200
  563SOL    HW2 2589   0.688   0.702   4.290
  564SOL     OW 2590   5.887   2.401   5.767
  564SOL    HW1 2591   5.908   2.382   5.672
  564SOL    HW2 2592   5.817   2.473   5.773
  565SOL     OW 2593   3.233   3.315   3.504
  565SOL    HW1 2594   3.149   3.300   3.452
  565SOL    HW2 2595   3.229   3.265   3.590
  566SOL     OW 2596   0.842   2.687   3.317
  566SOL    HW1 2597   0.752   2.707   3.277
  566SOL    HW2 2598   0.841   2.596   3.358
  567SOL     OW 2599   1.623   2.792   5.267
  567SOL    HW1 2600   1.656   2.885   5.284
  567SOL    HW2 2601   1.686   2.727   5.309
  568SOL     OW 2602   0.842   0.099   6.664
  568SOL    HW1 2603   0.830   0.097   6.763
  568SOL    HW2 2604   0.881   0.187   6.637
  569SOL     OW 2605   5.294   3.330   4.974
  569SOL    HW1 2606   5.208   3.341   4.923
  569SOL    HW2 2607   5.297   3.396   5.049
  570SOL     OW 2608   2.675   0.309   5.403
  570SOL    HW1 2609   2.726   0.307   5.317
  570SOL    HW2 2610   2.585   0.268   5.389
  571SOL     OW 2611   2.185   4.558   2.352
  571SOL    HW1 2612   2.154   4.652   2.371
  571SOL    HW2 2613   2.176   4.503   2.435
  572SOL     OW 2614   2.246   1.612   4.777
  572SOL    HW1 2615   2.247   1.512   4.773
  572SOL    HW2 2616   2.337   1.647   4.753
  573SOL     OW 2617   0.498   6.932   6.184
  573SOL    HW1 2618   0.417   6.896   6.138
  573SOL    HW2 2619   0.470   6.994   6.258
  574SOL     OW 2620   2.794   0.938   6.033
  574SOL    HW1 2621   2.744   0.854   6.055
  574SOL    HW2 2622   2.820   0.984   6.118
  575SOL     OW 2623   3.886   3.952   0.012
  575SOL    HW1 2624   3.898   3.873   0.072
  575SOL    HW2 2625   3.788   3.974   0.006
  576SOL     OW 2626   6.740   0.537   3.923
  576SOL    HW1 2627   6.652   0.563   3.964
  576SOL    HW2 2628   6.799   0.498   3.993
  577SOL     OW 2629   6.548   0.622   1.765
  577SOL    HW1 2630   6.638   0.579   1.766
  577SOL    HW2 2631   6.500   0.601   1.851
  578SOL     OW 2632   4.168   6.785   0.807
  578SOL    HW1 2633   4.193   6.871   0.852
  578SOL    HW2 2634   4.158   6.713   0.876
  579SOL     OW 2635   0.730   4.062   2.256
  579SOL    HW1 2636   0.634   4.037   2.239
  579SOL    HW2 2637   0.784   4.040   2.174
  580SOL     OW 2638   4.834   4.683   4.872
  580SOL    HW1 2639   4.791   4.701   4.961
  580SOL    HW2 2640   4.767   4.640   4.812
  581SOL     OW 2641   2.613   2.073   3.929
  581SOL    HW1 2642   2.604   2.130   3.847
  581SOL    HW2 2643   2.544   2.101   3.996
  582SOL     OW 2644   5.971   4.816   5.260
  582SOL    HW1 2645   6.064   4.808   5.296
  582SOL    HW2 2646   5.947   4.732   5.211
  583SOL     OW 2647   2.965   5.810   5.369
  583SOL    HW1 2648   2.937   5.755   5.448
  583SOL    HW2 2649   3.026   5.882   5.400
  584SOL     OW 2650   3.814   0.506   5.258
  584SOL    HW1 2651   3.821   0.507   5.358
  584SOL    HW2 2652   3.868   0.581   5.220
  585SOL     OW 2653   3.629   6.457   1.602
  585SOL    HW1 2654   3.582   6.519   1.539
  585SOL    HW2 2655   3.670   6.382   1.550
  586SOL     OW 2656   3.535   6.347   0.826
  586SOL    HW1 2657   3.495   6.404   0.898
  586SOL    HW2 2658   3.602   6.402   0.775
  587SOL     OW 2659   5.491   0.588   3.141
  587SOL    HW1 2660   5.422   0.531   3.098
  587SOL    HW2 2661   5.514   0.664   3.080
  588SOL     OW 2662   2.204   4.125   2.737
  588SOL    HW1 2663   2.277   4.189   2.760
  588SOL    HW2 2664   2.130   4.132   2.804
  589SOL     OW 2665   3.731   4.835   5.683
  589SOL    HW1 2666   3.754   4.915   5.739
  589SOL    HW2 2667   3.810   4.774   5.678
  590SOL     OW 2668   1.988   0.929   6.356
  590SOL    HW1 2669   1.982   1.029   6.346
  590SOL    HW2 2670   1.970   0.886   6.268
  591SOL     OW 2671   2.793   0.307   3.836
  591SOL    HW1 2672   2.878   0.306   3.889
  591SOL    HW2 2673   2.725   0.363   3.882
  592SOL     OW 2674   4.912   1.936   4.268
  592SOL    HW1 2675   4.828   1.918   4.319
  592SOL    HW2 2676   4.984   1.874   4.299
  593SOL     OW 2677   1.234   6.573   0.204
  593SOL    HW1 2678   1.190   6.618   0.282
  593SOL    HW2 2679   1.243   6.638   0.129
  594SOL     OW 2680   2.537   0.957   5.042
  594SOL    HW1 2681   2.451   1.007   5.038
  594SOL    HW2 2682   2.574   0.946   4.950
  595SOL     OW 2683   5.898   4.094   2.555
  595SOL    HW1 2684   5.971   4.077   2.490
  595SOL    HW2 2685   5.811   4.062   2.517
  596SOL     OW 2686   6.562   4.936   5.303
  596SOL    HW1 2687   6.599   4.873   5.235
  596SOL    HW2 2688   6.613   4.927   5.388
  597SOL     OW 2689   3.882   1.232   6.894
  597SOL    HW1 2690   3.819   1.178   6.838
  597SOL    HW2 2691   3.942   1.170   6.945
  598SOL     OW 2692   3.144   3.252   1.987
  598SOL    HW1 2693   3.228   3.290   1.947
  598SOL    HW2 2694   3.166   3.208   2.074
  599SOL     OW 2695   1.894   5.384   1.532
  599SOL    HW1 2696   1.819   5.450   1.537
  599SOL    HW2 2697   1.873   5.314   1.464
  600SOL     OW 2698   0.588   3.378   5.637
  600SOL    HW1 2699   0.683   3.374   5.605
  600SOL    HW2 2700   0.528   3.395   5.559
  601SOL     OW 2701   6.766   0.164   5.597
  601SOL    HW1 2702   6.681   0.195   5.640
  601SOL    HW2 2703   6.831   0.138   5.668
  602SOL     OW 2704   0.410   0.573   3.392
  602SOL    HW1 2705   0.312   0.581   3.379
  602SOL    HW2 2706   0.445   0.496   3.339
  603SOL     OW 2707   1.424   1.060   3.885
  603SOL    HW1 2708   1.414   1.096   3.792
  603SOL    HW2 2709   1.519   1.037   3.902
  604SOL     OW 2710   5.641   2.131   1.325
  604SOL    HW1 2711   5.661   2.153   1.230
  604SOL    HW2 2712   5.566   2.065   1.329
  605SOL     OW 2713   5.744   6.427   1.891
  605SOL    HW1 2714   5.667   6.489   1.877
  605SOL    HW2 2715   5.830   6.477   1.878
  606SOL     OW 2716   2.430   6.675   5.431
  606SOL    HW1 2717   2.390   6.645   5.344
  606SOL    HW2 2718   2.455   6.595   5.485
  607SOL     OW 2719   1.723   3.439   6.215
  607SOL    HW1 2720   1.654   3.412   6.282
  607SOL    HW2 2721   1.777   3.514   6.252
  608SOL     OW 2722   2.482   1.060   6.747
  608SOL    HW1 2723   2.404   1.109   6.709
  608SOL    HW2 2724   2.472   1.053   6.846
  609SOL     OW 2725   4.050   3.189   2.909
  609SOL    HW1 2726   4.114   3.152   2.842
  609SOL    HW2 2727   3.969   3.224   2.862
  610SOL     OW 2728   5.659   2.913   2.179
  610SOL    HW1 2729   5.683   3.000   2.222
  610SOL    HW2 2730   5.569   2.883   2.210
  611SOL     OW 2731   4.022   1.240   2.054
  611SOL    HW1 2732   4.042   1.338   2.060
  611SOL    HW2 2733   4.097   1.194   2.006
  612SOL     OW 2734   4.275   5.766   4.178
  612SOL    HW1 2735   4.289   5.854   4.133
  612SOL    HW2 2736   4.177   5.743   4.177
  613SOL     OW 2737   3.652   5.926   6.612
  613SOL    HW1 2738   3.684   5.997   6.674
  613SOL    HW2 2739   3.731   5.881   6.569
  614SOL     OW 2740   3.580   6.380   5.982
  614SOL    HW1 2741   3.505   6.318   5.960
  614SOL    HW2 2742   3.629   6.403   5.898
  615SOL     OW 2743   0.111   5.147   4.028
  615SOL    HW1 2744   0.139   5.078   3.962
  615SOL    HW2 2745   0.144   5.237   3.999
  616SOL     OW 2746   6.411   3.157   3.730
  616SOL    HW1 2747   6.341   3.108   3.677
  616SOL    HW2 2748   6.367   3.205   3.807
  617SOL     OW 2749   2.722   0.276   6.017
  617SOL    HW1 2750   2.692   0.210   6.086
  617SOL    HW2 2751   2.699   0.369   6.048
  618SOL     OW 2752   2.275   0.377   2.773
  618SOL    HW1 2753   2.369   0.411   2.768
  618SOL    HW2 2754   2.231   0.413   2.855
  619SOL     OW 2755   1.440   2.692   6.967
  619SOL    HW1 2756   1.506   2.659   0.016
  619SOL    HW2 2757   1.438   2.792   6.967
  620SOL     OW 2758   5.261   3.502   1.106
  620SOL    HW1 2759   5.202   3.578   1.078
  620SOL    HW2 2760   5.223   3.457   1.187
  621SOL     OW 2761   6.960   5.935   0.927
  621SOL    HW1 2762   6.904   5.866   0.880
  621SOL    HW2 2763   0.033   5.898   0.943
  622SOL     OW 2764   1.140   1.407   6.731
  622SOL    HW1 2765   1.190   1.343   6.672
  622SOL    HW2 2766   1.191   1.494   6.736
  623SOL     OW 2767   6.040   5.747   5.248
  623SOL    HW1 2768   5.987   5.668   5.278
  623SOL    HW2 2769   6.058   5.739   5.150
  624SOL     OW 2770   6.899   1.608   1.395
  624SOL    HW1 2771   6.825   1.558   1.439
  624SOL    HW2 2772   6.872   1.633   1.302
  625SOL     OW 2773   1.748   0.867   1.759
  625SOL    HW1 2774   1.745   0.906   1.667
  625SOL    HW2 2775   1.661   0.823   1.779
  626SOL     OW 2776   4.158   5.643   5.463
  626SOL    HW1 2777   4.077   5.601   5.423
  626SOL    HW2 2778   4.235   5.580   5.455
  627SOL     OW 2779   4.390   5.243   0.057
  627SOL    HW1 2780   4.357   5.168   0.114
  627SOL    HW2 2781   4.430   5.206   6.992
  628SOL     OW 2782   4.869   3.545   3.845
  628SOL    HW1 2783   4.902   3.482   3.916
  628SOL    HW2 2784   4.922   3.531   3.761
  629SOL     OW 2785   0.844   6.957   1.540
  629SOL    HW1 2786   0.882   6.867   1.558
  629SOL    HW2 2787   0.776   6.951   1.466
  630SOL     OW 2788   2.750   1.715   2.284
  630SOL    HW1 2789   2.782   1.702   2.190
  630SOL    HW2 2790   2.739   1.812   2.303
  631SOL     OW 2791   2.527   1.322   4.187
  631SOL    HW1 2792   2.483   1.351   4.272
  631SOL    HW2 2793   2.598   1.387   4.162
  632SOL     OW 2794   3.165   1.106   0.383
  632SOL    HW1 2795   3.085   1.152   0.421
  632SOL    HW2 2796   3.138   1.015   0.351
  633SOL     OW 2797   2.073   0.358   4.494
  633SOL    HW1 2798   2.062   0.439   4.550
  633SOL    HW2 2799   2.027   0.371   4.406
  634SOL     OW 2800   2.794   5.453   2.171
  634SOL    HW1 2801   2.807   5.436   2.268
  634SOL    HW2 2802   2.697   5.446   2.148
  635SOL     OW 2803   3.207   0.390   1.969
  635SOL    HW1 2804   3.228   0.460   1.900
  635SOL    HW2 2805   3.123   0.416   2.017
  636SOL     OW 2806   5.010   4.870   6.393
  636SOL    HW1 2807   5.063   4.788   6.417
  636SOL    HW2 2808   4.922   4.842   6.355
  637SOL     OW 2809   6.078   4.318   6.487
  637SOL    HW1 2810   6.087   4.327   6.387
  637SOL    HW2 2811   5.983   4.334   6.513
  638SOL     OW 2812   5.568   1.716   3.485
  638SOL    HW1 2813   5.648   1.766   3.517
  638SOL    HW2 2814   5.565   1.625   3.527
  639SOL     OW 2815   3.986   3.482   1.416
  639SOL    HW1 2816   3.900   3.454   1.460
  639SOL    HW2 2817   3.967   3.513   1.323
  640SOL     OW 2818   3.268   2.589   5.326
  640SOL    HW1 2819   3.243   2.509   5.270
  640SOL    HW2 2820   3.298   2.558   5.416
  641SOL     OW 2821   0.499   0.314   5.160
  641SOL    HW1 2822   0.429   0.369   5.116
  641SOL    HW2 2823   0.524   0.354   5.248
  642SOL     OW 2824   0.824   5.111   5.962
  642SOL    HW1 2825   0.735   5.088   5.922
  642SOL    HW2 2826   0.833   5.210   5.969
  643SOL     OW 2827   5.424   0.048   4.516
  643SOL    HW1 2828   5.467   0.094   4.438
  643SOL    HW2 2829   5.365   0.113   4.564
  644SOL     OW 2830   3.283   5.800   1.754
  644SOL    HW1 2831   3.247   5.893   1.760
  644SOL    HW2 2832   3.213   5.735   1.786
  645SOL     OW 2833   0.767   3.023   3.027
  645SOL    HW1 2834   0.835   2.950   3.036
  645SOL    HW2 2835   0.803   3.095   2.968
  646SOL     OW 2836   1.816   3.177   4.383
  646SOL    HW1 2837   1.894   3.200   4.325
  646SOL    HW2 2838   1.822   3.230   4.468
  647SOL     OW 2839   5.565   5.298   1.029
  647SOL    HW1 2840   5.661   5.299   1.055
  647SOL    HW2 2841   5.509   5.326   1.107
  648SOL     OW 2842   4.312   2.334   3.918
  648SOL    HW1 2843   4.323   2.242   3.956
  648SOL    HW2 2844   4.215   2.356   3.914
  649SOL     OW 2845   4.151   4.314   1.267
  649SOL    HW1 2846   4.117   4.256   1.193
  649SOL    HW2 2847   4.077   4.332   1.332
  650SOL     OW 2848   5.630   5.590   0.335
  650SOL    HW1 2849   5.705   5.630   0.281
  650SOL    HW2 2850   5.587   5.517   0.282
  651SOL     OW 2851   0.915   5.307   6.653
  651SOL    HW1 2852   0.933   5.241   6.727
  651SOL    HW2 2853   1.002   5.334   6.612
  652SOL     OW 2854   4.965   2.805   1.375
  652SOL    HW1 2855   5.044   2.857   1.344
  652SOL    HW2 2856   4.926   2.849   1.456
  653SOL     OW 2857   3.583   5.504   2.514
  653SOL    HW1 2858   3.567   5.532   2.609
  653SOL    HW2 2859   3.667   5.449   2.509
  654SOL     OW 2860   6.856   4.603   0.111
  654SOL    HW1 2861   6.950   4.634   0.102
  654SOL    HW2 2862   6.794   4.668   0.066
  655SOL     OW 2863   1.855   1.368   0.562
  655SOL    HW1 2864   1.903   1.322   0.487
  655SOL    HW2 2865   1.782   1.424   0.526
  656SOL     OW 2866   2.025   6.300   1.091
  656SOL    HW1 2867   1.933   6.262   1.084
  656SOL    HW2 2868   2.049   6.345   1.005
  657SOL     OW 2869   3.782   0.412   6.149
  657SOL    HW1 2870   3.701   0.389   6.204
  657SOL    HW2 2871   3.773   0.505   6.115
  658SOL     OW 2872   3.992   5.531   0.196
  658SOL    HW1 2873   3.976   5.629   0.212
  658SOL    HW2 2874   3.949   5.504   0.110
  659SOL     OW 2875   3.410   0.683   5.862
  659SOL    HW1 2876   3.400   0.675   5.762
  659SOL    HW2 2877   3.333   0.737   5.898
  660SOL     OW 2878   2.714   6.120   3.573
  660SOL    HW1 2879   2.789   6.065   3.536
  660SOL    HW2 2880   2.738   6.217   3.567
  661SOL     OW 2881   0.474   5.143   3.156
  661SOL    HW1 2882   0.566   5.104   3.151
  661SOL    HW2 2883   0.467   5.201   3.237
  662SOL     OW 2884   3.904   2.177   6.829
  662SOL    HW1 2885   3.886   2.150   6.924
  662SOL    HW2 2886   3.968   2.254   6.828
  663SOL     OW 2887   1.598   3.787   4.798
  663SOL    HW1 2888   1.688   3.752   4.773
  663SOL    HW2 2889   1.575   3.758   4.891
  664SOL     OW 2890   5.335   0.305   6.019
  664SOL    HW1 2891   5.393   0.245   6.073
  664SOL    HW2 2892   5.324   0.268   5.927
  665SOL     OW 2893   1.852   3.853   2.078
  665SOL    HW1 2894   1.937   3.804   2.095
  665SOL    HW2 2895   1.794   3.801   2.015
  666SOL     OW 2896   4.152   0.925   2.975
  666SOL    HW1 2897   4.067   0.875   2.992
  666SOL    HW2 2898   4.166   0.934   2.877
  667SOL     OW 2899   6.488   6.978   0.761
  667SOL    HW1 2900   6.393   6.954   0.741
  667SOL    HW2 2901   6.506   6.967   0.859
  668SOL     OW 2902   4.936   3.460   6.584
  668SOL    HW1 2903   4.956   3.371   6.625
  668SOL    HW2 2904   4.920   3.527   6.656
  669SOL     OW 2905   5.951   0.996   3.525
  669SOL    HW1 2906   5.921   1.006   3.620
  669SOL    HW2 2907   5.990   0.905   3.512
  670SOL     OW 2908   4.037   1.523   2.078
  670SOL    HW1 2909   4.066   1.617   2.096
  670SOL    HW2 2910   3.941   1.512   2.105
  671SOL     OW 2911   1.184   5.753   2.102
  671SOL    HW1 2912   1.085   5.762   2.088
  671SOL    HW2 2913   1.227   5.843   2.094
  672SOL     OW 2914   0.188   0.438   1.369
  672SOL    HW1 2915   0.152   0.345   1.364
  672SOL    HW2 2916   0.255   0.452   1.296
  673SOL     OW 2917   6.295   6.852   6.267
  673SOL    HW1 2918   6.209   6.847   6.216
  673SOL    HW2 2919   6.363   6.791   6.225
  674SOL     OW 2920   4.528   6.841   4.385
  674SOL    HW1 2921   4.583   6.760   4.405
  674SOL    HW2 2922   4.433   6.825   4.410
  675SOL     OW 2923   0.624   5.293   2.224
  675SOL    HW1 2924   0.537   5.267   2.266
  675SOL    HW2 2925   0.622   5.390   2.203
  676SOL     OW 2926   2.256   5.813   6.693
  676SOL    HW1 2927   2.206   5.789   6.777
  676SOL    HW2 2928   2.336   5.754   6.684
  677SOL     OW 2929   5.012   0.982   1.131
  677SOL    HW1 2930   4.932   0.923   1.136
  677SOL    HW2 2931   5.073   0.962   1.207
  678SOL     OW 2932   0.324   5.403   4.279
  678SOL    HW1 2933   0.419   5.386   4.307
  678SOL    HW2 2934   0.269   5.424   4.360
  679SOL     OW 2935   5.394   0.786   6.032
  679SOL    HW1 2936   5.357   0.774   6.124
  679SOL    HW2 2937   5.458   0.711   6.011
  680SOL     OW 2938   6.014   0.203   3.620
  680SOL    HW1 2939   6.036   0.135   3.690
  680SOL    HW2 2940   5.951   0.271   3.658
  681SOL     OW 2941   4.993   4.624   3.079
  681SOL    HW1 2942   4.934   4.613   3.158
  681SOL    HW2 2943   4.992   4.540   3.025
  682SOL     OW 2944   6.410   1.901   3.362
  682SOL    HW1 2945   6.371   1.819   3.404
  682SOL    HW2 2946   6.370   1.982   3.405
  683SOL     OW 2947   3.315   5.628   0.102
  683SOL    HW1 2948   3.400   5.583   0.131
  683SOL    HW2 2949   3.302   5.613   0.004
  684SOL     OW 2950   5.374   2.356   6.218
  684SOL    HW1 2951   5.282   2.318   6.211
  684SOL    HW2 2952   5.380   2.440   6.165
  685SOL     OW 2953   3.260   6.774   3.417
  685SOL    HW1 2954   3.243   6.685   3.374
  685SOL    HW2 2955   3.261   6.845   3.346
  686SOL     OW 2956   2.323   0.339   5.443
  686SOL    HW1 2957   2.349   0.359   5.537
  686SOL    HW2 2958   2.363   0.407   5.382
  687SOL     OW 2959   0.230   1.107   4.699
  687SOL    HW1 2960   0.308   1.045   4.707
  687SOL    HW2 2961   0.262   1.202   4.709
  688SOL     OW 2962   4.673   3.446   6.451
  688SOL    HW1 2963   4.679   3.486   6.359
  688SOL    HW2 2964   4.765   3.428   6.486
  689SOL     OW 2965   2.208   5.973   0.114
  689SOL    HW1 2966   2.225   5.990   0.017
  689SOL    HW2 2967   2.291   5.939   0.157
  690SOL     OW 2968   5.766   3.627   3.874
  690SOL    HW1 2969   5.831   3.668   3.810
  690SOL    HW2 2970   5.817   3.576   3.944
  691SOL     OW 2971   5.695   0.500   2.923
  691SOL    HW1 2972   5.639   0.576   2.957
  691SOL    HW2 2973   5.698   0.503   2.823
  692SOL     OW 2974   1.282   0.005   3.529
  692SOL    HW1 2975   1.277   0.089   3.583
  692SOL    HW2 2976   1.376   6.992   3.526
  693SOL     OW 2977   6.091   4.093   1.965
  693SOL    HW1 2978   6.106   3.997   1.988
  693SOL    HW2 2979   6.052   4.099   1.873
  694SOL     OW 2980   4.002   4.842   4.535
  694SOL    HW1 2981   4.084   4.785   4.535
  694SOL    HW2 2982   4.013   4.916   4.602
  695SOL     OW 2983   4.753   0.238   4.053
  695SOL    HW1 2984   4.734   0.335   4.072
  695SOL    HW2 2985   4.696   0.181   4.112
  696SOL     OW 2986   6.863   4.626   2.024
  696SOL    HW1 2987   6.780   4.648   2.076
  696SOL    HW2 2988   6.936   4.602   2.088
  697SOL     OW 2989   0.515   6.411   3.038
  697SOL    HW1 2990   0.568   6.481   2.991
  697SOL    HW2 2991   0.513   6.432   3.136
  698SOL     OW 2992   6.074   6.562   5.860
  698SOL    HW1 2993   6.133   6.617   5.801
  698SOL    HW2 2994   5.980   6.564   5.823
  699SOL     OW 2995   4.220   2.922   0.784
  699SOL    HW1 2996   4.306   2.932   0.832
  699SOL    HW2 2997   4.147   2.965   0.836
  700SOL     OW 2998   3.555   6.414   5.359
  700SOL    HW1 2999   3.589   6.508   5.369
  700SOL    HW2 3000   3.479   6.399   5.422
  701SOL     OW 3001   4.471   4.458   1.669
  701SOL    HW1 3002   4.533   4.431   1.596
  701SOL    HW2 3003   4.459   4.381   1.732
  702SOL     OW 3004   3.199   1.028   5.257
  702SOL    HW1 3005   3.276   1.053   5.315
  702SOL    HW2 3006   3.205   1.077   5.170
  703SOL     OW 3007   3.906   3.066   0.326
  703SOL    HW1 3008   3.926   2.978   0.282
  703SOL    HW2 3009   3.852   3.123   0.264
  704SOL     OW 3010   3.744   1.363   0.410
  704SOL    HW1 3011   3.648   1.381   0.431
  704SOL    HW2 3012   3.794   1.450   0.407
  705SOL     OW 3013   6.724   6.813   6.039
  705SOL    HW1 3014   6.678   6.727   6.019
  705SOL    HW2 3015   6.660   6.875   6.085
  706SOL     OW 3016   3.360   0.611   5.070
  706SOL    HW1 3017   3.327   0.518   5.087
  706SOL    HW2 3018   3.364   0.628   4.972
  707SOL     OW 3019   3.568   4.932   4.369
  707SOL    HW1 3020   3.668   4.921   4.365
  707SOL    HW2 3021   3.532   4.935   4.276
  708SOL     OW 3022   2.967   6.066   3.986
  708SOL    HW1 3023   2.924   6.058   4.077
  708SOL    HW2 3024   3.035   5.993   3.976
  709SOL     OW 3025   1.767   6.886   1.912
  709SOL    HW1 3026   1.740   6.833   1.832
  709SOL    HW2 3027   1.698   6.956   1.930
  710SOL     OW 3028   4.844   2.944   2.662
  710SOL    HW1 3029   4.938   2.921   2.688
  710SOL    HW2 3030   4.783   2.918   2.737
  711SOL     OW 3031   6.559   1.306   0.514
  711SOL    HW1 3032   6.602   1.222   0.545
  711SOL    HW2 3033   6.495   1.286   0.440
  712SOL     OW 3034   5.116   4.556   6.733
  712SOL    HW1 3035   5.172   4.489   6.781
  712SOL    HW2 3036   5.046   4.508   6.680
  713SOL     OW 3037   2.427   2.851   5.600
  713SOL    HW1 3038   2.503   2.828   5.661
  713SOL    HW2 3039   2.463   2.870   5.508
  714SOL     OW 3040   3.874   6.729   2.875
  714SOL    HW1 3041   3.966   6.751   2.842
  714SOL    HW2 3042   3.813   6.715   2.798
  715SOL     OW 3043   6.167   4.011   6.265
  715SOL    HW1 3044   6.165   3.924   6.216
  715SOL    HW2 3045   6.239   4.009   6.334
  716SOL     OW 3046   3.197   1.020   3.253
  716SOL    HW1 3047   3.200   0.963   3.171
  716SOL    HW2 3048   3.104   1.020   3.290
  717SOL     OW 3049   5.583   4.380   3.797
  717SOL    HW1 3050   5.538   4.291   3.786
  717SOL    HW2 3051   5.588   4.426   3.708
  718SOL     OW 3052   6.887   2.381   5.530
  718SOL    HW1 3053   6.978   2.393   5.569
  718SOL    HW2 3054   6.823   2.444   5.573
  719SOL     OW 3055   4.594   5.529   2.253
  719SOL    HW1 3056   4.586   5.616   2.302
  719SOL    HW2 3057   4.531   5.463   2.294
  720SOL     OW 3058   3.023   1.374   0.928
  720SOL    HW1 3059   3.042   1.472   0.935
  720SOL    HW2 3060   3.009   1.337   1.020
  721SOL     OW 3061   6.847   2.687   2.753
  721SOL    HW1 3062   6.893   2.660   2.837
  721SOL    HW2 3063   6.793   2.769   2.770
  722SOL     OW 3064   5.730   5.836   2.529
  722SOL    HW1 3065   5.689   5.795   2.611
  722SOL    HW2 3066   5.657   5.875   2.472
  723SOL     OW 3067   2.221   0.421   4.825
  723SOL    HW1 3068   2.263   0.475   4.899
  723SOL    HW2 3069   2.212   0.478   4.744
  724SOL     OW 3070   1.612   2.509   4.702
  724SOL    HW1 3071   1.700   2.507   4.750
  724SOL    HW2 3072   1.568   2.419   4.710
  725SOL     OW 3073   1.766   3.884   3.482
  725SOL    HW1 3074   1.746   3.886   3.384
  725SOL    HW2 3075   1.708   3.816   3.527
  726SOL     OW 3076   2.062   3.006   0.165
  726SOL    HW1 3077   2.000   3.015   0.087
  726SOL    HW2 3078   2.114   2.921   0.156
  727SOL     OW 3079   3.965   5.132   5.301
  727SOL    HW1 3080   3.988   5.043   5.340
  727SOL    HW2 3081   3.869   5.153   5.322
  728SOL     OW 3082   6.450   3.679   3.221
  728SOL    HW1 3083   6.534   3.624   3.212
  728SOL    HW2 3084   6.403   3.683   3.133
  729SOL     OW 3085   0.397   4.816   0.443
  729SOL    HW1 3086   0.486   4.813   0.487
  729SOL    HW2 3087   0.328   4.847   0.509
  730SOL     OW 3088   3.708   1.010   3.799
  730SOL    HW1 3089   3.707   1.024   3.700
  730SOL    HW2 3090   3.693   1.097   3.845
  731SOL     OW 3091   5.003   4.457   4.791
  731SOL    HW1 3092   4.990   4.401   4.709
  731SOL    HW2 3093   4.947   4.420   4.866
  732SOL     OW 3094   5.158   0.400   4.397
  732SOL    HW1 3095   5.140   0.323   4.337
  732SOL    HW2 3096   5.078   0.418   4.454
  733SOL     OW 3097   0.651   5.030   4.488
  733SOL    HW1 3098   0.654   4.941   4.533
  733SOL    HW2 3099   0.602   5.023   4.401
  734SOL     OW 3100   6.547   5.640   3.122
  734SOL    HW1 3101   6.462   5.666   3.076
  734SOL    HW2 3102   6.531   5.559   3.178
  735SOL     OW 3103   4.973   0.551   2.662
  735SOL    HW1 3104   4.940   0.484   2.729
  735SOL    HW2 3105   5.071   0.564   2.673
  736SOL     OW 3106   1.874   1.034   3.329
  736SOL    HW1 3107   1.901   0.944   3.294
  736SOL    HW2 3108   1.777   1.049   3.310
  737SOL     OW 3109   3.418   1.602   6.396
  737SOL    HW1 3110   3.383   1.677   6.341
  737SOL    HW2 3111   3.344   1.537   6.415
  738SOL     OW 3112   1.258   5.317   0.646
  738SOL    HW1 3113   1.212   5.287   0.729
  738SOL    HW2 3114   1.227   5.410   0.623
  739SOL     OW 3115   1.716   0.934   2.652
  739SOL    HW1 3116   1.815   0.949   2.654
  739SOL    HW2 3117   1.688   0.885   2.735
  740SOL     OW 3118   4.642   2.612   2.695
  740SOL    HW1 3119   4.669   2.682   2.762
  740SOL    HW2 3120   4.712   2.604   2.624
  741SOL     OW 3121   3.439   0.864   2.701
  741SOL    HW1 3122   3.435   0.867   2.601
  741SOL    HW2 3123   3.426   0.956   2.738
  742SOL     OW 3124   2.110   0.468   2.406
  742SOL    HW1 3125   2.208   0.448   2.413
  742SOL    HW2 3126   2.096   0.566   2.413
  743SOL     OW 3127   0.043   6.513   2.992
  743SOL    HW1 3128   0.113   6.442   2.991
  743SOL    HW2 3129   0.022   6.541   2.899
  744SOL     OW 3130   5.669   1.235   0.916
  744SOL    HW1 3131   5.745   1.300   0.917
  744SOL    HW2 3132   5.602   1.263   0.848
  745SOL     OW 3133   0.605   6.599   5.671
  745SOL    HW1 3134   0.698   6.564   5.679
  745SOL    HW2 3135   0.541   6.531   5.706
  746SOL     OW 3136   6.502   5.373   5.946
  746SOL    HW1 3137   6.475   5.279   5.923
  746SOL    HW2 3138   6.564   5.407   5.875
  747SOL     OW 3139   3.367   5.028   2.309
  747SOL    HW1 3140   3.273   4.998   2.295
  747SOL    HW2 3141   3.388   5.104   2.247
  748SOL     OW 3142   6.452   5.377   3.194
  748SOL    HW1 3143   6.415   5.309   3.132
  748SOL    HW2 3144   6.403   5.373   3.281
  749SOL     OW 3145   4.865   4.305   5.006
  749SOL    HW1 3146   4.769   4.331   4.991
  749SOL    HW2 3147   4.889   4.319   5.102
  750SOL     OW 3148   2.866   1.970   2.703
  750SOL    HW1 3149   2.810   1.890   2.723
  750SOL    HW2 3150   2.960   1.952   2.732
  751SOL     OW 3151   4.599   0.353   0.387
  751SOL    HW1 3152   4.659   0.425   0.349
  751SOL    HW2 3153   4.513   0.351   0.335
  752SOL     OW 3154   3.053   3.157   3.943
  752SOL    HW1 3155   3.047   3.122   4.036
  752SOL    HW2 3156   3.126   3.110   3.894
  753SOL     OW 3157   3.147   3.926   3.808
  753SOL    HW1 3158   3.161   3.922   3.709
  753SOL    HW2 3159   3.217   3.983   3.850
  754SOL     OW 3160   4.229   0.738   5.937
  754SOL    HW1 3161   4.318   0.733   5.983
  754SOL    HW2 3162   4.240   0.717   5.840
  755SOL     OW 3163   4.992   4.528   5.184
  755SOL    HW1 3164   5.041   4.532   5.271
  755SOL    HW2 3165   5.034   4.590   5.118
  756SOL     OW 3166   3.081   5.714   6.221
  756SOL    HW1 3167   3.061   5.782   6.292
  756SOL    HW2 3168   3.010   5.717   6.152
  757SOL     OW 3169   0.524   0.182   1.588
  757SOL    HW1 3170   0.546   0.184   1.490
  757SOL    HW2 3171   0.554   0.095   1.627
  758SOL     OW 3172   3.760   1.113   5.823
  758SOL    HW1 3173   3.692   1.051   5.863
  758SOL    HW2 3174   3.720   1.157   5.742
  759SOL     OW 3175   7.008   2.437   3.584
  759SOL    HW1 3176   6.979   2.474   3.495
  759SOL    HW2 3177   0.080   2.471   3.607
  760SOL     OW 3178   6.814   5.868   4.553
  760SOL    HW1 3179   6.847   5.917   4.634
  760SOL    HW2 3180   6.761   5.931   4.496
  761SOL     OW 3181   4.698   4.408   5.931
  761SOL    HW1 3182   4.771   4.470   5.959
  761SOL    HW2 3183   4.624   4.462   5.890
  762SOL     OW 3184   4.011   5.926   3.517
  762SOL    HW1 3185   3.995   5.876   3.602
  762SOL    HW2 3186   3.924   5.959   3.481
  763SOL     OW 3187   5.750   1.264   0.381
  763SOL    HW1 3188   5.810   1.319   0.323
  763SOL    HW2 3189   5.724   1.318   0.461
  764SOL     OW 3190   4.873   6.148   4.368
  764SOL    HW1 3191   4.866   6.227   4.430
  764SOL    HW2 3192   4.887   6.180   4.275
  765SOL     OW 3193   5.421   6.331   6.812
  765SOL    HW1 3194   5.350   6.357   6.878
  765SOL    HW2 3195   5.492   6.401   6.811
  766SOL     OW 3196   3.002   1.596   4.073
  766SOL    HW1 3197   3.065   1.674   4.073
  766SOL    HW2 3198   3.005   1.551   3.984
  767SOL     OW 3199   6.595   6.615   3.445
  767SOL    HW1 3200   6.520   6.549   3.445
  767SOL    HW2 3201   6.667   6.584   3.382
  768SOL     OW 3202   2.801   5.714   1.253
  768SOL    HW1 3203   2.854   5.631   1.235
  768SOL    HW2 3204   2.767   5.712   1.347
  769SOL     OW 3205   3.635   2.014   5.475
  769SOL    HW1 3206   3.704   2.063   5.528
  769SOL    HW2 3207   3.571   2.080   5.435
  770SOL     OW 3208   0.477   4.265   5.690
  770SOL    HW1 3209   0.489   4.361   5.715
  770SOL    HW2 3210   0.541   4.209   5.741
  771SOL     OW 3211   1.810   5.057   2.609
  771SOL    HW1 3212   1.751   5.049   2.528
  771SOL    HW2 3213   1.851   5.148   2.611
  772SOL     OW 3214   6.173   4.614   0.176
  772SOL    HW1 3215   6.119   4.616   0.092
  772SOL    HW2 3216   6.184   4.707   0.211
  773SOL     OW 3217   1.338   4.758   3.648
  773SOL    HW1 3218   1.271   4.824   3.614
  773SOL    HW2 3219   1.426   4.774   3.604
  774SOL     OW 3220   1.920   2.831   3.359
  774SOL    HW1 3221   1.905   2.788   3.448
  774SOL    HW2 3222   1.905   2.764   3.287
  775SOL     OW 3223   0.724   5.142   2.502
  775SOL    HW1 3224   0.737   5.183   2.412
  775SOL    HW2 3225   0.731   5.213   2.572
  776SOL     OW 3226   2.137   4.642   0.390
  776SOL    HW1 3227   2.181   4.570   0.336
  776SOL    HW2 3228   2.138   4.728   0.338
  777SOL     OW 3229   1.529   3.131   6.713
  777SOL    HW1 3230   1.464   3.202   6.739
  777SOL    HW2 3231   1.544   3.069   6.790
  778SOL     OW 3232   3.536   6.036   0.133
  778SOL    HW1 3233   3.569   6.107   0.071
  778SOL    HW2 3234   3.577   6.048   0.223
  779SOL     OW 3235   6.045   2.354   3.675
  779SOL    HW1 3236   6.093   2.270   3.702
  779SOL    HW2 3237   5.974   2.375   3.742
  780SOL     OW 3238   6.260   1.911   5.079
  780SOL    HW1 3239   6.181   1.972   5.069
  780SOL    HW2 3240   6.309   1.933   5.163
  781SOL     OW 3241   6.853   5.185   6.854
  781SOL    HW1 3242   6.839   5.095   6.894
  781SOL    HW2 3243   6.821   5.255   6.918
  782SOL     OW 3244   2.141   3.799   5.584
  782SOL    HW1 3245   2.158   3.807   5.486
  782SOL    HW2 3246   2.042   3.793   5.600
  783SOL     OW 3247   0.005   5.137   5.619
  783SOL    HW1 3248   0.030   5.195   5.541
  783SOL    HW2 3249   6.926   5.145   5.637
  784SOL     OW 3250   1.133   6.139   5.796
  784SOL    HW1 3251   1.090   6.048   5.796
  784SOL    HW2 3252   1.228   6.131   5.767
  785SOL     OW 3253   0.738   0.069   3.846
  785SOL    HW1 3254   0.772   0.108   3.760
  785SOL    HW2 3255   0.769   0.126   3.923
  786SOL     OW 3256   6.381   2.015   4.865
  786SOL    HW1 3257   6.354   1.960   4.944
  786SOL    HW2 3258   6.319   2.094   4.858
  787SOL     OW 3259   2.130   6.443   0.778
  787SOL    HW1 3260   2.224   6.452   0.809
  787SOL    HW2 3261   2.091   6.533   0.762
  788SOL     OW 3262   2.133   3.124   2.364
  788SOL    HW1 3263   2.111   3.060   2.438
  788SOL    HW2 3264   2.090   3.212   2.383
  789SOL     OW 3265   3.219   5.437   1.884
  789SOL    HW1 3266   3.124   5.467   1.895
  789SOL    HW2 3267   3.234   5.408   1.790
  790SOL     OW 3268   0.008   3.589   3.008
  790SOL    HW1 3269   6.989   3.630   3.090
  790SOL    HW2 3270   0.027   3.492   3.025
  791SOL     OW 3271   3.763   0.458   4.051
  791SOL    HW1 3272   3.667   0.467   4.028
  791SOL    HW2 3273   3.798   0.546   4.083
  792SOL     OW 3274   3.152   0.683   0.599
  792SOL    HW1 3275   3.160   0.643   0.690
  792SOL    HW2 3276   3.242   0.716   0.569
  793SOL     OW 3277   2.181   5.666   4.770
  793SOL    HW1 3278   2.234   5.668   4.686
  793SOL    HW2 3279   2.101   5.607   4.757
  794SOL     OW 3280   3.788   3.057   2.027
  794SOL    HW1 3281   3.729   3.033   2.104
  794SOL    HW2 3282   3.732   3.092   1.952
  795SOL     OW 3283   3.869   6.515   6.064
  795SOL    HW1 3284   3.850   6.455   6.142
  795SOL    HW2 3285   3.788   6.520   6.006
  796SOL     OW 3286   1.025   2.333   6.514
  796SOL    HW1 3287   1.001   2.428   6.498
  796SOL    HW2 3288   0.954   2.274   6.475
  797SOL     OW 3289   3.001   6.816   0.258
  797SOL    HW1 3290   3.055   6.749   0.208
  797SOL    HW2 3291   2.937   6.861   0.196
  798SOL     OW 3292   5.439   4.438   1.875
  798SOL    HW1 3293   5.381   4.407   1.951
  798SOL    HW2 3294   5.468   4.360   1.821
  799SOL     OW 3295   3.154   3.426   4.649
  799SOL    HW1 3296   3.241   3.403   4.604
  799SOL    HW2 3297   3.082   3.431   4.581
  800SOL     OW 3298   5.218   2.929   3.233
  800SOL    HW1 3299   5.170   3.016   3.245
  800SOL    HW2 3300   5.211   2.900   3.138
  801SOL     OW 3301   1.830   4.600   0.110
  801SOL    HW1 3302   1.812   4.635   0.202
  801SOL    HW2 3303   1.760   4.534   0.085
  802SOL     OW 3304   3.900   2.527   5.712
  802SOL    HW1 3305   3.956   2.567   5.640
  802SOL    HW2 3306   3.834   2.595   5.745
  803SOL     OW 3307   3.559   2.097   3.523
  803SOL    HW1 3308   3.537   2.092   3.425
  803SOL    HW2 3309   3.544   2.190   3.555
  804SOL     OW 3310   4.377   0.048   2.885
  804SOL    HW1 3311   4.373   6.976   2.842
  804SOL    HW2 3312   4.311   0.109   2.840
  805SOL     OW 3313   3.529   1.619   3.782
  805SOL    HW1 3314   3.519   1.553   3.707
  805SOL    HW2 3315   3.566   1.705   3.746
  806SOL     OW 3316   4.506   6.306   5.737
  806SOL    HW1 3317   4.451   6.337   5.659
  806SOL    HW2 3318   4.533   6.211   5.723
  807SOL     OW 3319   1.190   6.517   5.990
  807SOL    HW1 3320   1.161   6.572   6.069
  807SOL    HW2 3321   1.244   6.439   6.022
  808SOL     OW 3322   5.182   2.126   5.631
  808SOL    HW1 3323   5.250   2.067   5.674
  808SOL    HW2 3324   5.092   2.082   5.634
  809SOL     OW 3325   2.608   6.178   4.875
  809SOL    HW1 3326   2.548   6.242   4.923
  809SOL    HW2 3327   2.659   6.123   4.941
  810SOL     OW 3328   3.522   3.898   6.286
  810SOL    HW1 3329   3.487   3.850   6.205
  810SOL    HW2 3330   3.603   3.951   6.260
  811SOL     OW 3331   5.798   4.996   5.722
  811SOL    HW1 3332   5.770   5.089   5.696
  811SOL    HW2 3333   5.873   4.966   5.662
  812SOL     OW 3334   1.529   2.070   0.274
  812SOL    HW1 3335   1.581   2.144   0.316
  812SOL    HW2 3336   1.551   2.064   0.177
  813SOL     OW 3337   2.693   1.440   5.182
  813SOL    HW1 3338   2.631   1.492   5.241
  813SOL    HW2 3339   2.713   1.493   5.100
  814SOL     OW 3340   0.802   4.736   1.310
  814SOL    HW1 3341   0.882   4.789   1.285
  814SOL    HW2 3342   0.776   4.755   1.405
  815SOL     OW 3343   4.167   0.425   4.127
  815SOL    HW1 3344   4.120   0.348   4.083
  815SOL    HW2 3345   4.211   0.481   4.057
  816SOL     OW 3346   4.476   3.633   6.537
  816SOL    HW1 3347   4.550   3.567   6.532
  816SOL    HW2 3348   4.491   3.695   6.614
  817SOL     OW 3349   6.893   5.363   0.416
  817SOL    HW1 3350   6.915   5.265   0.414
  817SOL    HW2 3351   6.908   5.402   0.326
  818SOL     OW 3352   6.740   1.090   5.128
  818SOL    HW1 3353   6.644   1.112   5.110
  818SOL    HW2 3354   6.790   1.174   5.148
  819SOL     OW 3355   5.548   3.807   1.767
  819SOL    HW1 3356   5.476   3.853   1.819
  819SOL    HW2 3357   5.637   3.842   1.796
  820SOL     OW 3358   2.252   1.830   5.209
  820SOL    HW1 3359   2.214   1.802   5.121
  820SOL    HW2 3360   2.255   1.751   5.270
  821SOL     OW 3361   4.714   3.841   6.355
  821SOL    HW1 3362   4.669   3.754   6.338
  821SOL    HW2 3363   4.657   3.898   6.414
  822SOL     OW 3364   0.016   4.129   3.094
  822SOL    HW1 3365   0.051   4.219   3.070
  822SOL    HW2 3366   6.974   4.096   3.022
  823SOL     OW 3367   1.696   2.803   4.315
  823SOL    HW1 3368   1.792   2.777   4.300
  823SOL    HW2 3369   1.654   2.738   4.378
  824SOL     OW 3370   5.114   0.754   6.076
  824SOL    HW1 3371   5.095   0.852   6.079
  824SOL    HW2 3372   5.154   0.730   5.987
  825SOL     OW 3373   6.336   6.303   1.532
  825SOL    HW1 3374   6.324   6.316   1.631
  825SOL    HW2 3375   6.354   6.206   1.513
  826SOL     OW 3376   3.540   2.064   0.141
  826SOL    HW1 3377   3.612   2.129   0.117
  826SOL    HW2 3378   3.575   1.971   0.132
  827SOL     OW 3379   3.550   3.237   5.003
  827SOL    HW1 3380   3.621   3.173   4.971
  827SOL    HW2 3381   3.519   3.293   4.927
  828SOL     OW 3382   0.424   6.356   6.183
  828SOL    HW1 3383   0.484   6.402   6.248
  828SOL    HW2 3384   0.335   6.340   6.225
  829SOL     OW 3385   3.715   3.084   1.525
  829SOL    HW1 3386   3.705   3.174   1.484
  829SOL    HW2 3387   3.685   3.014   1.459
  830SOL     OW 3388   0.639   3.598   5.809
  830SOL    HW1 3389   0.641   3.520   5.746
  830SOL    HW2 3390   0.612   3.567   5.900
  831SOL     OW 3391   5.708   2.091   3.439
  831SOL    HW1 3392   5.769   2.169   3.452
  831SOL    HW2 3393   5.735   2.041   3.357
  832SOL     OW 3394   3.013   2.147   4.861
  832SOL    HW1 3395   3.078   2.197   4.918
  832SOL    HW2 3396   2.994   2.199   4.777
  833SOL     OW 3397   3.565   2.947   6.505
  833SOL    HW1 3398   3.534   2.910   6.593
  833SOL    HW2 3399   3.570   3.047   6.512
  834SOL     OW 3400   6.167   3.581   1.183
  834SOL    HW1 3401   6.203   3.528   1.106
  834SOL    HW2 3402   6.101   3.527   1.233
  835SOL     OW 3403   6.568   6.516   4.950
  835SOL    HW1 3404   6.578   6.467   4.863
  835SOL    HW2 3405   6.506   6.465   5.010
  836SOL     OW 3406   6.423   0.346   3.729
  836SOL    HW1 3407   6.349   0.370   3.793
  836SOL    HW2 3408   6.481   0.275   3.770
  837SOL     OW 3409   0.580   0.125   6.594
  837SOL    HW1 3410   0.517   0.047   6.601
  837SOL    HW2 3411   0.669   0.099   6.630
  838SOL     OW 3412   0.950   6.172   2.941
  838SOL    HW1 3413   0.904   6.086   2.920
  838SOL    HW2 3414   0.885   6.234   2.984
  839SOL     OW 3415   1.858   1.989   6.978
  839SOL    HW1 3416   1.864   1.968   0.057
  839SOL    HW2 3417   1.950   1.996   6.940
  840SOL     OW 3418   5.085   5.357   0.437
  840SOL    HW1 3419   5.130   5.268   0.447
  840SOL    HW2 3420   4.990   5.344   0.412
  841SOL     OW 3421   2.872   4.508   6.775
  841SOL    HW1 3422   2.938   4.574   6.811
  841SOL    HW2 3423   2.913   4.456   6.700
  842SOL     OW 3424   3.996   5.813   1.012
  842SOL    HW1 3425   3.954   5.835   1.100
  842SOL    HW2 3426   4.093   5.793   1.025
  843SOL     OW 3427   1.870   6.745   2.131
  843SOL    HW1 3428   1.874   6.789   2.042
  843SOL    HW2 3429   1.835   6.810   2.199
  844SOL     OW 3430   6.930   6.994   1.211
  844SOL    HW1 3431   6.924   6.912   1.154
  844SOL    HW2 3432   6.981   6.973   1.295
  845SOL     OW 3433   4.117   1.520   1.561
  845SOL    HW1 3434   4.216   1.511   1.558
  845SOL    HW2 3435   4.086   1.579   1.486
  846SOL     OW 3436   1.359   0.516   1.209
  846SOL    HW1 3437   1.396   0.434   1.252
  846SOL    HW2 3438   1.428   0.588   1.208
  847SOL     OW 3439   3.100   3.074   1.745
  847SOL    HW1 3440   3.144   3.059   1.657
  847SOL    HW2 3441   3.153   3.140   1.799
  848SOL     OW 3442   6.335   6.109   0.783
  848SOL    HW1 3443   6.311   6.122   0.880
  848SOL    HW2 3444   6.259   6.064   0.736
  849SOL     OW 3445   5.331   3.409   6.125
  849SOL    HW1 3446   5.364   3.316   6.113
  849SOL    HW2 3447   5.264   3.430   6.055
  850SOL     OW 3448   2.346   1.014   4.497
  850SOL    HW1 3449   2.275   1.065   4.545
  850SOL    HW2 3450   2.336   0.917   4.516
  851SOL     OW 3451   4.481   2.890   6.117
  851SOL    HW1 3452   4.529   2.976   6.100
  851SOL    HW2 3453   4.420   2.902   6.196
  852SOL     OW 3454   0.485   4.737   1.314
  852SOL    HW1 3455   0.538   4.683   1.249
  852SOL    HW2 3456   0.547   4.789   1.372
  853SOL     OW 3457   3.821   2.719   0.743
  853SOL    HW1 3458   3.823   2.684   0.837
  853SOL    HW2 3459   3.777   2.809   0.743
  854SOL     OW 3460   6.709   1.001   6.295
  854SOL    HW1 3461   6.715   0.953   6.383
  854SOL    HW2 3462   6.744   0.943   6.223
  855SOL     OW 3463   4.352   1.969   6.714
  855SOL    HW1 3464   4.446   1.988   6.686
  855SOL    HW2 3465   4.313   2.051   6.755
  856SOL     OW 3466   1.280   5.853   1.512
  856SOL    HW1 3467   1.370   5.896   1.518
  856SOL    HW2 3468   1.282   5.781   1.443
  857SOL     OW 3469   6.813   6.436   5.455
  857SOL    HW1 3470   6.746   6.492   5.407
  857SOL    HW2 3471   6.801   6.447   5.554
  858SOL     OW 3472   2.865   4.298   0.419
  858SOL    HW1 3473   2.841   4.205   0.447
  858SOL    HW2 3474   2.857   4.359   0.498
  859SOL     OW 3475   4.615   6.064   5.670
  859SOL    HW1 3476   4.690   6.120   5.636
  859SOL    HW2 3477   4.648   5.971   5.689
  860SOL     OW 3478   4.233   2.912   0.237
  860SOL    HW1 3479   4.195   2.923   0.328
  860SOL    HW2 3480   4.325   2.952   0.234
  861SOL     OW 3481   0.857   5.498   2.491
  861SOL    HW1 3482   0.899   5.584   2.519
  861SOL    HW2 3483   0.911   5.456   2.418
  862SOL     OW 3484   0.772   4.599   4.393
  862SOL    HW1 3485   0.772   4.636   4.486
  862SOL    HW2 3486   0.748   4.502   4.396
  863SOL     OW 3487   5.060   0.194   1.299
  863SOL    HW1 3488   4.969   0.231   1.279
  863SOL    HW2 3489   5.056   0.141   1.383
  864SOL     OW 3490   6.053   3.639   3.473
  864SOL    HW1 3491   6.021   3.733   3.461
  864SOL    HW2 3492   5.990   3.577   3.425
  865SOL     OW 3493   2.036   4.740   4.949
  865SOL    HW1 3494   2.101   4.665   4.939
  865SOL    HW2 3495   2.001   4.742   5.043
  866SOL     OW 3496   3.600   6.660   0.827
  866SOL    HW1 3497   3.535   6.715   0.878
  866SOL    HW2 3498   3.679   6.639   0.885
  867SOL     OW 3499   5.937   3.591   4.669
  867SOL    HW1 3500   6.005   3.531   4.627
  867SOL    HW2 3501   5.868   3.535   4.715
  868SOL     OW 3502   0.368   1.731   1.941
  868SOL    HW1 3503   0.435   1.696   1.875
  868SOL    HW2 3504   0.280   1.686   1.927
  869SOL     OW 3505   0.877   2.970   1.913
  869SOL    HW1 3506   0.920   2.902   1.853
  869SOL    HW2 3507   0.813   2.925   1.975
  870SOL     OW 3508   3.866   4.748   1.777
  870SOL    HW1 3509   3.779   4.725   1.820
  870SOL    HW2 3510   3.890   4.677   1.711
  871SOL     OW 3511   4.886   1.920   3.717
  871SOL    HW1 3512   4.928   2.002   3.678
  871SOL    HW2 3513   4.944   1.841   3.697
  872SOL     OW 3514   2.043   2.448   6.016
  872SOL    HW1 3515   1.946   2.433   5.996
  872SOL    HW2 3516   2.058   2.439   6.114
  873SOL     OW 3517   4.017   1.194   6.189
  873SOL    HW1 3518   4.114   1.168   6.188
  873SOL    HW2 3519   3.994   1.237   6.102
  874SOL     OW 3520   5.423   3.761   2.887
  874SOL    HW1 3521   5.482   3.681   2.885
  874SOL    HW2 3522   5.398   3.787   2.794
  875SOL     OW 3523   5.165   4.980   2.312
  875SOL    HW1 3524   5.096   5.052   2.312
  875SOL    HW2 3525   5.157   4.926   2.396
  876SOL     OW 3526   6.398   1.701   6.129
  876SOL    HW1 3527   6.464   1.768   6.161
  876SOL    HW2 3528   6.394   1.625   6.194
  877SOL     OW 3529   0.934   3.121   6.139
  877SOL    HW1 3530   0.990   3.146   6.061
  877SOL    HW2 3531   0.983   3.055   6.196
  878SOL     OW 3532   4.338   6.478   4.662
  878SOL    HW1 3533   4.330   6.467   4.762
  878SOL    HW2 3534   4.432   6.455   4.634
  879SOL     OW 3535   5.787   0.058   5.946
  879SOL    HW1 3536   5.800   0.075   5.849
  879SOL    HW2 3537   5.703   0.006   5.960
  880SOL     OW 3538   3.356   2.922   3.096
  880SOL    HW1 3539   3.265   2.909   3.057
  880SOL    HW2 3540   3.424   2.879   3.037
  881SOL     OW 3541   4.965   2.172   0.655
  881SOL    HW1 3542   4.890   2.214   0.604
  881SOL    HW2 3543   4.939   2.163   0.751
  882SOL     OW 3544   1.623   2.448   4.167
  882SOL    HW1 3545   1.661   2.410   4.251
  882SOL    HW2 3546   1.599   2.373   4.104
  883SOL     OW 3547   2.293   6.419   3.038
  883SOL    HW1 3548   2.256   6.326   3.044
  883SOL    HW2 3549   2.367   6.429   3.105
  884SOL     OW 3550   2.738   3.362   5.948
  884SOL    HW1 3551   2.702   3.299   6.017
  884SOL    HW2 3552   2.662   3.397   5.893
  885SOL     OW 3553   4.128   3.427   6.661
  885SOL    HW1 3554   4.065   3.372   6.715
  885SOL    HW2 3555   4.191   3.475   6.722
  886SOL     OW 3556   3.517   1.395   6.237
  886SOL    HW1 3557   3.614   1.375   6.246
  886SOL    HW2 3558   3.492   1.470   6.298
  887SOL     OW 3559   3.908   0.816   5.630
  887SOL    HW1 3560   3.956   0.900   5.607
  887SOL    HW2 3561   3.818   0.816   5.586
  888SOL     OW 3562   0.177   6.872   1.851
  888SOL    HW1 3563   0.162   6.970   1.837
  888SOL    HW2 3564   0.173   6.852   1.949
  889SOL     OW 3565   0.573   4.093   1.316
  889SOL    HW1 3566   0.607   4.018   1.259
  889SOL    HW2 3567   0.616   4.088   1.406
  890SOL     OW 3568   2.690   6.468   4.777
  890SOL    HW1 3569   2.711   6.370   4.784
  890SOL    HW2 3570   2.773   6.521   4.792
  891SOL     OW 3571   4.521   4.566   2.259
  891SOL    HW1 3572   4.590   4.638   2.257
  891SOL    HW2 3573   4.450   4.589   2.326
  892SOL     OW 3574   2.385   4.048   1.134
  892SOL    HW1 3575   2.442   4.024   1.212
  892SOL    HW2 3576   2.305   4.099   1.166
  893SOL     OW 3577   1.539   5.415   2.214
  893SOL    HW1 3578   1.490   5.349   2.270
  893SOL    HW2 3579   1.512   5.508   2.241
  894SOL     OW 3580   1.660   4.229   0.925
  894SOL    HW1 3581   1.750   4.202   0.891
  894SOL    HW2 3582   1.591   4.210   0.855
  895SOL     OW 3583   6.505   5.954   5.256
  895SOL    HW1 3584   6.501   5.891   5.178
  895SOL    HW2 3585   6.580   5.927   5.317
  896SOL     OW 3586   6.859   0.853   6.116
  896SOL    HW1 3587   6.807   0.783   6.068
  896SOL    HW2 3588   6.943   0.813   6.153
  897SOL     OW 3589   5.900   1.080   0.529
  897SOL    HW1 3590   5.829   1.101   0.461
  897SOL    HW2 3591   5.892   0.984   0.556
  898SOL     OW 3592   4.039   1.644   3.647
  898SOL    HW1 3593   4.093   1.622   3.728
  898SOL    HW2 3594   3.991   1.730   3.662
  899SOL     OW 3595   6.619   6.902   6.598
  899SOL    HW1 3596   6.683   6.846   6.544
  899SOL    HW2 3597   6.619   6.870   6.693
  900SOL     OW 3598   4.950   4.557   5.900
  900SOL    HW1 3599   4.971   4.640   5.952
  900SOL    HW2 3600   4.998   4.479   5.940
  901SOL     OW 3601   1.139   0.667   2.255
  901SOL    HW1 3602   1.204   0.682   2.181
  901SOL    HW2 3603   1.062   0.613   2.222
  902SOL     OW 3604   0.047   2.928   2.713
  902SOL    HW1 3605   0.031   2.830   2.725
  902SOL    HW2 3606   0.126   2.942   2.654
  903SOL     OW 3607   6.110   1.400   0.420
  903SOL    HW1 3608   6.180   1.331   0.405
  903SOL    HW2 3609   6.149   1.476   0.472
  904SOL     OW 3610   3.029   1.032   3.629
  904SOL    HW1 3611   3.087   1.112   3.637
  904SOL    HW2 3612   3.016   1.009   3.532
  905SOL     OW 3613   5.086   2.433   6.431
  905SOL    HW1 3614   5.121   2.354   6.381
  905SOL    HW2 3615   5.159   2.474   6.484
  906SOL     OW 3616   6.061   3.160   1.340
  906SOL    HW1 3617   5.996   3.115   1.401
  906SOL    HW2 3618   6.018   3.175   1.251
  907SOL     OW 3619   5.961   4.900   0.437
  907SOL    HW1 3620   5.993   4.993   0.422
  907SOL    HW2 3621   6.035   4.836   0.418
  908SOL     OW 3622   1.150   4.021   3.380
  908SOL    HW1 3623   1.126   4.072   3.463
  908SOL    HW2 3624   1.155   3.923   3.401
  909SOL     OW 3625   4.916   4.446   5.658
  909SOL    HW1 3626   5.012   4.420   5.647
  909SOL    HW2 3627   4.901   4.482   5.750
  910SOL     OW 3628   3.340   4.841   0.307
  910SOL    HW1 3629   3.433   4.874   0.295
  910SOL    HW2 3630   3.342   4.752   0.351
  911SOL     OW 3631   1.151   4.400   5.956
  911SOL    HW1 3632   1.235   4.395   6.010
  911SOL    HW2 3633   1.174   4.421   5.861
  912SOL     OW 3634   5.558   1.530   5.074
  912SOL    HW1 3635   5.652   1.548   5.045
  912SOL    HW2 3636   5.530   1.601   5.139
  913SOL     OW 3637   5.829   5.660   3.690
  913SOL    HW1 3638   5.922   5.622   3.688
  913SOL    HW2 3639   5.834   5.759   3.676
  914SOL     OW 3640   2.469   6.345   5.070
  914SOL    HW1 3641   2.475   6.274   5.140
  914SOL    HW2 3642   2.487   6.434   5.110
  915SOL     OW 3643   5.439   5.025   2.259
  915SOL    HW1 3644   5.463   4.928   2.263
  915SOL    HW2 3645   5.339   5.035   2.267
  916SOL     OW 3646   1.097   4.170   2.867
  916SOL    HW1 3647   1.141   4.187   2.954
  916SOL    HW2 3648   1.125   4.081   2.832
  917SOL     OW 3649   0.416   6.795   0.072
  917SOL    HW1 3650   0.387   6.712   0.024
  917SOL    HW2 3651   0.337   6.835   0.119
  918SOL     OW 3652   3.689   5.704   6.180
  918SOL    HW1 3653   3.699   5.801   6.198
  918SOL    HW2 3654   3.631   5.691   6.099
  919SOL     OW 3655   4.363   0.100   5.779
  919SOL    HW1 3656   4.268   0.099   5.751
  919SOL    HW2 3657   4.381   0.023   5.841
  920SOL     OW 3658   3.099   4.562   1.416
  920SOL    HW1 3659   3.069   4.487   1.357
  920SOL    HW2 3660   3.169   4.616   1.368
  921SOL     OW 3661   5.104   5.844   5.387
  921SOL    HW1 3662   5.139   5.768   5.441
  921SOL    HW2 3663   5.179   5.906   5.365
  922SOL     OW 3664   3.071   3.909   2.816
  922SOL    HW1 3665   3.169   3.889   2.810
  922SOL    HW2 3666   3.020   3.839   2.765
  923SOL     OW 3667   2.639   4.038   5.505
  923SOL    HW1 3668   2.545   4.052   5.537
  923SOL    HW2 3669   2.640   3.968   5.434
  924SOL     OW 3670   0.790   2.480   0.669
  924SOL    HW1 3671   0.778   2.423   0.751
  924SOL    HW2 3672   0.800   2.576   0.697
  925SOL     OW 3673   0.967   1.488   0.040
  925SOL    HW1 3674   0.988   1.542   6.978
  925SOL    HW2 3675   0.877   1.446   0.030
  926SOL     OW 3676   1.957   2.490   1.014
  926SOL    HW1 3677   1.919   2.466   1.104
  926SOL    HW2 3678   1.886   2.481   0.944
  927SOL     OW 3679   0.616   3.690   5.364
  927SOL    HW1 3680   0.527   3.723   5.395
  927SOL    HW2 3681   0.685   3.715   5.432
  928SOL     OW 3682   2.790   5.151   6.197
  928SOL    HW1 3683   2.871   5.156   6.255
  928SOL    HW2 3684   2.772   5.240   6.156
  929SOL     OW 3685   1.843   2.297   4.672
  929SOL    HW1 3686   1.790   2.227   4.720
  929SOL    HW2 3687   1.882   2.361   4.738
  930SOL     OW 3688   5.900   5.549   5.418
  930SOL    HW1 3689   5.845   5.557   5.501
  930SOL    HW2 3690   5.995   5.527   5.443
  931SOL     OW 3691   6.228   0.356   2.890
  931SOL    HW1 3692   6.174   0.329   2.970
  931SOL    HW2 3693   6.320   0.383   2.920
  932SOL     OW 3694   4.326   6.937   3.309
  932SOL    HW1 3695   4.331   6.876   3.388
  932SOL    HW2 3696   4.359   0.009   3.335
  933SOL     OW 3697   0.945   5.797   1.970
  933SOL    HW1 3698   0.874   5.727   1.970
  933SOL    HW2 3699   0.945   5.844   1.882
  934SOL     OW 3700   1.820   2.919   1.013
  934SOL    HW1 3701   1.901   2.973   1.037
  934SOL    HW2 3702   1.787   2.871   1.094
  935SOL     OW 3703   5.371   3.110   5.683
  935SOL    HW1 3704   5.399   3.196   5.641
  935SOL    HW2 3705   5.409   3.033   5.632
  936SOL     OW 3706   1.269   1.239   6.170
  936SOL    HW1 3707   1.233   1.145   6.170
  936SOL    HW2 3708   1.310   1.260   6.081
  937SOL     OW 3709   3.359   1.833   6.240
  937SOL    HW1 3710   3.350   1.808   6.144
  937SOL    HW2 3711   3.451   1.868   6.257
  938SOL     OW 3712   5.164   6.605   4.759
  938SOL    HW1 3713   5.224   6.662   4.703
  938SOL    HW2 3714   5.218   6.532   4.801
  939SOL     OW 3715   1.522   0.257   4.699
  939SOL    HW1 3716   1.588   0.204   4.753
  939SOL    HW2 3717   1.554   0.266   4.605
  940SOL     OW 3718   1.833   4.916   0.716
  940SOL    HW1 3719   1.845   4.817   0.701
  940SOL    HW2 3720   1.923   4.959   0.723
  941SOL     OW 3721   3.782   6.818   1.355
  941SOL    HW1 3722   3.835   6.903   1.365
  941SOL    HW2 3723   3.688   6.833   1.386
  942SOL     OW 3724   0.199   5.089   0.070
  942SOL    HW1 3725   0.152   5.177   0.082
  942SOL    HW2 3726   0.187   5.033   0.152
  943SOL     OW 3727   3.197   6.681   1.455
  943SOL    HW1 3728   3.155   6.592   1.472
  943SOL    HW2 3729   3.146   6.751   1.504
  944SOL     OW 3730   6.373   5.844   3.918
  944SOL    HW1 3731   6.320   5.929   3.914
  944SOL    HW2 3732   6.340   5.788   3.994
  945SOL     OW 3733   0.320   4.945   6.475
  945SOL    HW1 3734   0.273   5.033   6.473
  945SOL    HW2 3735   0.350   4.921   6.382
  946SOL     OW 3736   6.132   1.877   4.139
  946SOL    HW1 3737   6.095   1.883   4.232
  946SOL    HW2 3738   6.193   1.954   4.122
  947SOL     OW 3739   3.159   4.107   2.972
  947SOL    HW1 3740   3.161   4.042   3.048
  947SOL    HW2 3741   3.112   4.065   2.894
  948SOL     OW 3742   4.097   2.148   3.703
  948SOL    HW1 3743   4.118   2.225   3.642
  948SOL    HW2 3744   4.182   2.112   3.741
  949SOL     OW 3745   1.805   0.215   5.491
  949SOL    HW1 3746   1.731   0.274   5.522
  949SOL    HW2 3747   1.816   0.139   5.555
  950SOL     OW 3748   6.527   0.443   1.454
  950SOL    HW1 3749   6.538   0.540   1.436
  950SOL    HW2 3750   6.444   0.427   1.506
  951SOL     OW 3751   1.268   0.377   2.386
  951SOL    HW1 3752   1.274   0.282   2.417
  951SOL    HW2 3753   1.191   0.422   2.431
  952SOL     OW 3754   3.354   1.605   2.847
  952SOL    HW1 3755   3.333   1.581   2.753
  952SOL    HW2 3756   3.270   1.612   2.900
  953SOL     OW 3757   0.352   6.061   5.218
  953SOL    HW1 3758   0.391   6.124   5.285
  953SOL    HW2 3759   0.263   6.096   5.188
  954SOL     OW 3760   4.426   6.559   2.739
  954SOL    HW1 3761   4.500   6.509   2.692
  954SOL    HW2 3762   4.390   6.502   2.813
  955SOL     OW 3763   3.297   4.091   1.224
  955SOL    HW1 3764   3.318   4.178   1.180
  955SOL    HW2 3765   3.339   4.088   1.315
  956SOL     OW 3766   3.463   6.999   0.749
  956SOL    HW1 3767   3.561   7.005   0.732
  956SOL    HW2 3768   3.414   6.994   0.662
  957SOL     OW 3769   6.233   6.942   2.989
  957SOL    HW1 3770   6.210   6.951   3.087
  957SOL    HW2 3771   6.328   6.914   2.980
  958SOL     OW 3772   5.529   5.269   2.065
  958SOL    HW1 3773   5.574   5.317   1.989
  958SOL    HW2 3774   5.431   5.291   2.064
  959SOL     OW 3775   5.258   5.945   1.881
  959SOL    HW1 3776   5.357   5.943   1.889
  959SOL    HW2 3777   5.230   5.899   1.797
  960SOL     OW 3778   0.954   6.799   6.317
  960SOL    HW1 3779   1.045   6.808   6.357
  960SOL    HW2 3780   0.921   6.888   6.288
  961SOL     OW 3781   4.404   1.188   4.012
  961SOL    HW1 3782   4.396   1.282   4.043
  961SOL    HW2 3783   4.325   1.135   4.042
  962SOL     OW 3784   0.051   0.955   4.897
  962SOL    HW1 3785   0.092   1.025   4.838
  962SOL    HW2 3786   0.066   0.980   4.993
  963SOL     OW 3787   5.917   2.549   1.402
  963SOL    HW1 3788   5.875   2.640   1.408
  963SOL    HW2 3789   5.894   2.507   1.315
  964SOL     OW 3790   3.842   6.306   4.811
  964SOL    HW1 3791   3.796   6.228   4.854
  964SOL    HW2 3792   3.936   6.281   4.789
  965SOL     OW 3793   4.973   1.532   4.153
  965SOL    HW1 3794   4.922   1.551   4.070
  965SOL    HW2 3795   4.982   1.616   4.206
  966SOL     OW 3796   5.164   1.394   3.083
  966SOL    HW1 3797   5.142   1.465   3.150
  966SOL    HW2 3798   5.118   1.414   2.997
  967SOL     OW 3799   4.513   5.624   6.098
  967SOL    HW1 3800   4.607   5.642   6.070
  967SOL    HW2 3801   4.495   5.670   6.185
  968SOL     OW 3802   4.336   6.971   1.437
  968SOL    HW1 3803   4.407   0.005   1.390
  968SOL    HW2 3804   4.365   6.951   1.530
  969SOL     OW 3805   3.237   3.259   6.883
  969SOL    HW1 3806   3.248   3.356   6.860
  969SOL    HW2 3807   3.254   3.203   6.802
  970SOL     OW 3808   4.266   6.223   5.337
  970SOL    HW1 3809   4.188   6.167   5.365
  970SOL    HW2 3810   4.348   6.167   5.334
  971SOL     OW 3811   4.896   3.321   3.659
  971SOL    HW1 3812   4.963   3.297   3.729
  971SOL    HW2 3813   4.809   3.278   3.680
  972SOL     OW 3814   0.857   1.392   1.042
  972SOL    HW1 3815   0.940   1.399   0.986
  972SOL    HW2 3816   0.792   1.462   1.014
  973SOL     OW 3817   6.667   2.720   5.195
  973SOL    HW1 3818   6.750   2.687   5.150
  973SOL    HW2 3819   6.624   2.789   5.138
  974SOL     OW 3820   1.621   3.347   1.741
  974SOL    HW1 3821   1.652   3.259   1.704
  974SOL    HW2 3822   1.524   3.360   1.718
  975SOL     OW 3823   3.403   0.901   2.416
  975SOL    HW1 3824   3.365   0.926   2.327
  975SOL    HW2 3825   3.490   0.854   2.404
  976SOL     OW 3826   0.419   3.149   3.647
  976SOL    HW1 3827   0.496   3.204   3.680
  976SOL    HW2 3828   0.354   3.135   3.721
  977SOL     OW 3829   6.795   1.732   2.138
  977SOL    HW1 3830   6.741   1.720   2.221
  977SOL    HW2 3831   6.738   1.717   2.058
  978SOL     OW 3832   5.556   1.979   0.609
  978SOL    HW1 3833   5.651   1.951   0.624
  978SOL    HW2 3834   5.504   1.967   0.693
  979SOL     OW 3835   0.194   5.224   6.527
  979SOL    HW1 3836   0.245   5.310   6.523
  979SOL    HW2 3837   0.107   5.239   6.575
  980SOL     OW 3838   5.314   1.855   4.148
  980SOL    HW1 3839   5.246   1.853   4.074
  980SOL    HW2 3840   5.329   1.949   4.176
  981SOL     OW 3841   0.455   5.851   6.075
  981SOL    HW1 3842   0.360   5.824   6.059
  981SOL    HW2 3843   0.514   5.808   6.006
  982SOL     OW 3844   6.955   0.585   6.386
  982SOL    HW1 3845   6.865   0.585   6.342
  982SOL    HW2 3846   6.986   0.491   6.400
  983SOL     OW 3847   0.103   3.772   2.136
  983SOL    HW1 3848   0.044   3.736   2.064
  983SOL    HW2 3849   0.180   3.710   2.150
  984SOL     OW 3850   0.080   3.963   4.501
  984SOL    HW1 3851   0.014   3.984   4.573
  984SOL    HW2 3852   0.169   4.003   4.525
  985SOL     OW 3853   5.290   4.846   5.956
  985SOL    HW1 3854   5.337   4.882   6.036
  985SOL    HW2 3855   5.280   4.747   5.964
  986SOL     OW 3856   3.675   5.556   1.754
  986SOL    HW1 3857   3.620   5.564   1.837
  986SOL    HW2 3858   3.615   5.546   1.675
  987SOL     OW 3859   4.231   5.028   4.317
  987SOL    HW1 3860   4.216   4.930   4.302
  987SOL    HW2 3861   4.204   5.079   4.235
  988SOL     OW 3862   3.261   4.679   1.753
  988SOL    HW1 3863   3.269   4.590   1.707
  988SOL    HW2 3864   3.164   4.703   1.761
  989SOL     OW 3865   0.671   2.146   1.430
  989SOL    HW1 3866   0.767   2.123   1.418
  989SOL    HW2 3867   0.615   2.093   1.366
  990SOL     OW 3868   3.297   0.031   5.160
  990SOL    HW1 3869   3.330   0.017   5.066
  990SOL    HW2 3870   3.229   0.104   5.160
  991SOL     OW 3871   1.303   6.386   4.297
  991SOL    HW1 3872   1.296   6.353   4.391
  991SOL    HW2 3873   1.352   6.473   4.296
  992SOL     OW 3874   6.396   3.399   1.472
  992SOL    HW1 3875   6.327   3.450   1.523
  992SOL    HW2 3876   6.426   3.320   1.525
  993SOL     OW 3877   2.046   4.705   0.004
  993SOL    HW1 3878   1.960   4.672   0.044
  993SOL    HW2 3879   2.123   4.673   0.060
  994SOL     OW 3880   2.590   6.571   1.658
  994SOL    HW1 3881   2.507   6.627   1.662
  994SOL    HW2 3882   2.573   6.492   1.599
  995SOL     OW 3883   5.459   4.428   4.855
  995SOL    HW1 3884   5.442   4.439   4.953
  995SOL    HW2 3885   5.474   4.331   4.835
  996SOL     OW 3886   3.947   6.639   5.313
  996SOL    HW1 3887   3.860   6.605   5.277
  996SOL    HW2 3888   3.939   6.737   5.332
  997SOL     OW 3889   1.170   6.311   3.219
  997SOL    HW1 3890   1.158   6.335   3.316
  997SOL    HW2 3891   1.126   6.380   3.162
  998SOL     OW 3892   4.638   0.019   6.783
  998SOL    HW1 3893   4.635   0.073   6.698
  998SOL    HW2 3894   4.567   0.052   6.845
  999SOL     OW 3895   6.063   3.117   2.297
  999SOL    HW1 3896   6.149   3.151   2.259
  999SOL    HW2 3897   6.026   3.184   2.361
 1000SOL     OW 3898   6.015   1.628   2.302
 1000SOL    HW1 3899   6.044   1.711   2.253
 1000SOL    HW2 3900   5.965   1.569   2.239
 1001SOL     OW 3901   2.664   0.159   3.239
 1001SOL    HW1 3902   2.628   0.182   3.330
 1001SOL    HW2 3903   2.730   0.229   3.211
 1002SOL     OW 3904   4.711   2.551   0.263
 1002SOL    HW1 3905   4.710   2.573   0.360
 1002SOL    HW2 3906   4.622   2.515   0.236
 1003SOL     OW 3907   1.205   1.940   4.050
 1003SOL    HW1 3908   1.147   1.929   4.130
 1003SOL    HW2 3909   1.301   1.937   4.077
 1004SOL     OW 3910   4.272   1.705   4.884
 1004SOL    HW1 3911   4.283   1.640   4.809
 1004SOL    HW2 3912   4.342   1.689   4.953
 1005SOL     OW 3913   0.500   5.692   1.810
 1005SOL    HW1 3914   0.567   5.618   1.811
 1005SOL    HW2 3915   0.412   5.658   1.845
 1006SOL     OW 3916   1.828   4.061   1.824
 1006SOL    HW1 3917   1.853   3.991   1.892
 1006SOL    HW2 3918   1.894   4.136   1.829
 1007SOL     OW 3919   4.675   0.877   6.151
 1007SOL    HW1 3920   4.745   0.805   6.152
 1007SOL    HW2 3921   4.623   0.874   6.237
 1008SOL     OW 3922   0.308   4.581   4.296
 1008SOL    HW1 3923   0.334   4.527   4.216
 1008SOL    HW2 3924   0.251   4.526   4.357
 1009SOL     OW 3925   6.469   5.996   6.798
 1009SOL    HW1 3926   6.539   6.063   6.821
 1009SOL    HW2 3927   6.479   5.967   6.703
 1010SOL     OW 3928   3.204   3.879   0.114
 1010SOL    HW1 3929   3.123   3.934   0.092
 1010SOL    HW2 3930   3.193   3.788   0.076
 1011SOL     OW 3931   6.624   5.196   2.389
 1011SOL    HW1 3932   6.529   5.173   2.366
 1011SOL    HW2 3933   6.635   5.198   2.488
 1012SOL     OW 3934   5.065   5.988   3.055
 1012SOL    HW1 3935   5.081   5.961   3.150
 1012SOL    HW2 3936   5.151   5.987   3.005
 1013SOL     OW 3937   0.477   1.246   5.928
 1013SOL    HW1 3938   0.435   1.275   6.014
 1013SOL    HW2 3939   0.436   1.159   5.900
 1014SOL     OW 3940   0.679   4.332   4.356
 1014SOL    HW1 3941   0.750   4.283   4.305
 1014SOL    HW2 3942   0.632   4.267   4.417
 1015SOL     OW 3943   3.018   6.261   6.472
 1015SOL    HW1 3944   3.027   6.344   6.526
 1015SOL    HW2 3945   3.099   6.250   6.414
 1016SOL     OW 3946   6.977   4.473   0.690
 1016SOL    HW1 3947   6.926   4.555   0.665
 1016SOL    HW2 3948   0.056   4.494   0.690
 1017SOL     OW 3949   1.272   0.423   1.632
 1017SOL    HW1 3950   1.194   0.399   1.574
 1017SOL    HW2 3951   1.240   0.466   1.716
 1018SOL     OW 3952   5.726   5.804   6.727
 1018SOL    HW1 3953   5.663   5.748   6.782
 1018SOL    HW2 3954   5.687   5.819   6.636
 1019SOL     OW 3955   6.647   3.634   1.955
 1019SOL    HW1 3956   6.675   3.729   1.944
 1019SOL    HW2 3957   6.700   3.592   2.028
 1020SOL     OW 3958   5.090   1.334   1.232
 1020SOL    HW1 3959   5.127   1.287   1.151
 1020SOL    HW2 3960   5.044   1.268   1.290
 1021SOL     OW 3961   1.320   6.697   0.848
 1021SOL    HW1 3962   1.263   6.665   0.772
 1021SOL    HW2 3963   1.263   6.743   0.916
 1022SOL     OW 3964   1.760   5.124   6.306
 1022SOL    HW1 3965   1.759   5.025   6.293
 1022SOL    HW2 3966   1.812   5.147   6.388
 1023SOL     OW 3967   0.863   2.317   2.416
 1023SOL    HW1 3968   0.816   2.402   2.439
 1023SOL    HW2 3969   0.873   2.310   2.317
 1024SOL     OW 3970   1.586   3.104   4.660
 1024SOL    HW1 3971   1.657   3.087   4.592
 1024SOL    HW2 3972   1.610   3.057   4.746
 1025SOL     OW 3973   4.245   4.549   0.761
 1025SOL    HW1 3974   4.165   4.585   0.809
 1025SOL    HW2 3975   4.319   4.534   0.827
 1026SOL     OW 3976   3.415   2.856   1.630
 1026SOL    HW1 3977   3.428   2.796   1.551
 1026SOL    HW2 3978   3.491   2.845   1.694
 1027SOL     OW 3979   6.205   0.649   0.437
 1027SOL    HW1 3980   6.256   0.565   0.455
 1027SOL    HW2 3981   6.135   0.662   0.506
 1028SOL     OW 3982   0.866   5.591   3.767
 1028SOL    HW1 3983   0.815   5.564   3.686
 1028SOL    HW2 3984   0.964   5.576   3.752
 1029SOL     OW 3985   0.806   0.501   4.867
 1029SOL    HW1 3986   0.817   0.425   4.804
 1029SOL    HW2 3987   0.804   0.467   4.961
 1030SOL     OW 3988   4.450   3.481   0.874
 1030SOL    HW1 3989   4.445   3.517   0.967
 1030SOL    HW2 3990   4.401   3.394   0.869
 1031SOL     OW 3991   4.143   2.652   0.253
 1031SOL    HW1 3992   4.165   2.748   0.239
 1031SOL    HW2 3993   4.150   2.631   0.351
 1032SOL     OW 3994   1.275   1.217   1.117
 1032SOL    HW1 3995   1.366   1.244   1.148
 1032SOL    HW2 3996   1.207   1.281   1.152
 1033SOL     OW 3997   6.268   0.225   1.792
 1033SOL    HW1 3998   6.205   0.185   1.858
 1033SOL    HW2 3999   6.359   0.232   1.833
 1034SOL     OW 4000   1.973   0.303   5.058
 1034SOL    HW1 4001   1.929   0.283   5.146
 1034SOL    HW2 4002   2.039   0.378   5.071
 1035SOL     OW 4003   1.507   6.989   0.019
 1035SOL    HW1 4004   1.580   6.989   0.087
 1035SOL    HW2 4005   1.512   0.054   6.983
 1036SOL     OW 4006   5.503   1.306   2.736
 1036SOL    HW1 4007   5.533   1.214   2.763
 1036SOL    HW2 4008   5.501   1.365   2.816
 1037SOL     OW 4009   0.553   4.220   2.687
 1037SOL    HW1 4010   0.629   4.284   2.697
 1037SOL    HW2 4011   0.546   4.163   2.769
 1038SOL     OW 4012   1.343   6.352   6.522
 1038SOL    HW1 4013   1.437   6.339   6.552
 1038SOL    HW2 4014   1.331   6.312   6.431
 1039SOL     OW 4015   2.941   3.776   3.032
 1039SOL    HW1 4016   2.924   3.686   2.994
 1039SOL    HW2 4017   2.960   3.841   2.959
 1040SOL     OW 4018   4.192   1.623   3.024
 1040SOL    HW1 4019   4.205   1.533   2.983
 1040SOL    HW2 4020   4.261   1.637   3.096
 1041SOL     OW 4021   0.020   0.251   6.665
 1041SOL    HW1 4022   0.060   0.169   6.623
 1041SOL    HW2 4023   0.090   0.300   6.716
 1042SOL     OW 4024   5.583   3.260   4.057
 1042SOL    HW1 4025   5.524   3.329   4.016
 1042SOL    HW2 4026   5.553   3.241   4.150
 1043SOL     OW 4027   1.996   2.387   3.608
 1043SOL    HW1 4028   2.077   2.426   3.565
 1043SOL    HW2 4029   1.982   2.430   3.697
 1044SOL     OW 4030   4.868   4.318   2.167
 1044SOL    HW1 4031   4.785   4.335   2.219
 1044SOL    HW2 4032   4.879   4.219   2.153
 1045SOL     OW 4033   1.913   0.061   2.519
 1045SOL    HW1 4034   1.891   6.983   2.504
 1045SOL    HW2 4035   1.864   0.094   2.599
 1046SOL     OW 4036   3.585   2.353   0.754
 1046SOL    HW1 4037   3.629   2.386   0.670
 1046SOL    HW2 4038   3.653   2.345   0.827
 1047SOL     OW 4039   4.173   1.059   4.102
 1047SOL    HW1 4040   4.127   0.970   4.099
 1047SOL    HW2 4041   4.112   1.127   4.141
 1048SOL     OW 4042   6.632   0.030   2.050
 1048SOL    HW1 4043   6.628   6.958   2.091
 1048SOL    HW2 4044   6.727   0.058   2.039
 1049SOL     OW 4045   3.487   6.726   0.552
 1049SOL    HW1 4046   3.489   6.694   0.647
 1049SOL    HW2 4047   3.416   6.796   0.542
 1050SOL     OW 4048   2.550   1.471   4.618
 1050SOL    HW1 4049   2.631   1.494   4.564
 1050SOL    HW2 4050   2.558   1.376   4.651
 1051SOL     OW 4051   1.795   2.339   5.943
 1051SOL    HW1 4052   1.713   2.295   5.906
 1051SOL    HW2 4053   1.828   2.286   6.022
 1052SOL     OW 4054   4.470   2.627   6.136
 1052SOL    HW1 4055   4.560   2.604   6.171
 1052SOL    HW2 4056   4.466   2.725   6.115
 1053SOL     OW 4057   4.521   2.585   4.967
 1053SOL    HW1 4058   4.478   2.495   4.975
 1053SOL    HW2 4059   4.506   2.637   5.051
 1054SOL     OW 4060   5.195   5.251   6.757
 1054SOL    HW1 4061   5.164   5.268   6.663
 1054SOL    HW2 4062   5.286   5.209   6.755
 1055SOL     OW 4063   5.425   5.844   6.063
 1055SOL    HW1 4064   5.353   5.779   6.043
 1055SOL    HW2 4065   5.511   5.796   6.078
 1056SOL     OW 4066   3.497   3.352   0.002
 1056SOL    HW1 4067   3.541   3.428   0.050
 1056SOL    HW2 4068   3.399   3.353   0.022
 1057SOL     OW 4069   2.874   3.846   6.622
 1057SOL    HW1 4070   2.838   3.926   6.575
 1057SOL    HW2 4071   2.936   3.796   6.562
 1058SOL     OW 4072   3.037   1.905   1.518
 1058SOL    HW1 4073   3.083   1.900   1.430
 1058SOL    HW2 4074   2.990   1.993   1.526
 1059SOL     OW 4075   2.088   6.370   2.766
 1059SOL    HW1 4076   2.160   6.418   2.715
 1059SOL    HW2 4077   2.126   6.292   2.814
 1060SOL     OW 4078   6.582   6.764   4.852
 1060SOL    HW1 4079   6.538   6.822   4.921
 1060SOL    HW2 4080   6.572   6.668   4.878
 1061SOL     OW 4081   0.350   4.070   6.222
 1061SOL    HW1 4082   0.325   4.115   6.137
 1061SOL    HW2 4083   0.330   3.972   6.215
 1062SOL     OW 4084   4.137   4.906   5.739
 1062SOL    HW1 4085   4.116   5.003   5.754
 1062SOL    HW2 4086   4.133   4.885   5.642
 1063SOL     OW 4087   2.922   5.978   3.490
 1063SOL    HW1 4088   2.970   5.923   3.558
 1063SOL    HW2 4089   2.944   5.944   3.398
 1064SOL     OW 4090   1.101   3.844   0.114
 1064SOL    HW1 4091   1.010   3.876   0.137
 1064SOL    HW2 4092   1.111   3.839   0.014
 1065SOL     OW 4093   5.868   1.240   5.542
 1065SOL    HW1 4094   5.777   1.199   5.544
 1065SOL    HW2 4095   5.870   1.314   5.476
 1066SOL     OW 4096   4.751   6.186   0.979
 1066SOL    HW1 4097   4.837   6.138   0.994
 1066SOL    HW2 4098   4.705   6.201   1.066
 1067SOL     OW 4099   4.023   1.094   0.770
 1067SOL    HW1 4100   3.979   1.073   0.683
 1067SOL    HW2 4101   4.021   1.193   0.786
 1068SOL     OW 4102   5.898   2.649   2.417
 1068SOL    HW1 4103   5.948   2.568   2.448
 1068SOL    HW2 4104   5.909   2.723   2.483
 1069SOL     OW 4105   0.749   1.212   3.022
 1069SOL    HW1 4106   0.694   1.285   3.062
 1069SOL    HW2 4107   0.705   1.124   3.041
 1070SOL     OW 4108   1.189   0.544   1.884
 1070SOL    HW1 4109   1.240   0.624   1.917
 1070SOL    HW2 4110   1.186   0.475   1.956
 1071SOL     OW 4111   1.290   3.104   5.662
 1071SOL    HW1 4112   1.325   3.174   5.725
 1071SOL    HW2 4113   1.301   3.014   5.703
 1072SOL     OW 4114   2.242   1.487   1.638
 1072SOL    HW1 4115   2.302   1.408   1.646
 1072SOL    HW2 4116   2.288   1.567   1.677
 1073SOL     OW 4117   5.258   1.867   2.705
 1073SOL    HW1 4118   5.217   1.777   2.691
 1073SOL    HW2 4119   5.313   1.891   2.625
 1074SOL     OW 4120   3.392   6.233   1.633
 1074SOL    HW1 4121   3.422   6.318   1.677
 1074SOL    HW2 4122   3.414   6.236   1.536
 1075SOL     OW 4123   6.922   4.040   4.705
 1075SOL    HW1 4124   6.986   4.070   4.776
 1075SOL    HW2 4125   6.842   3.999   4.749
 1076SOL     OW 4126   2.720   4.462   5.705
 1076SOL    HW1 4127   2.622   4.476   5.688
 1076SOL    HW2 4128   2.756   4.397   5.638
 1077SOL     OW 4129   6.629   6.700   0.795
 1077SOL    HW1 4130   6.534   6.673   0.780
 1077SOL    HW2 4131   6.647   6.709   0.893
 1078SOL     OW 4132   5.947   6.995   3.742
 1078SOL    HW1 4133   5.906   0.010   3.657
 1078SOL    HW2 4134   5.889   6.923   3.780
 1079SOL     OW 4135   0.999   5.331   1.355
 1079SOL    HW1 4136   1.068   5.360   1.289
 1079SOL    HW2 4137   0.938   5.407   1.376
 1080SOL     OW 4138   5.053   6.224   0.543
 1080SOL    HW1 4139   5.133   6.179   0.504
 1080SOL    HW2 4140   4.971   6.174   0.515
 1081SOL     OW 4141   6.854   6.892   3.344
 1081SOL    HW1 4142   6.854   6.809   3.287
 1081SOL    HW2 4143   6.944   6.904   3.384
 1082SOL     OW 4144   4.649   6.534   6.977
 1082SOL    HW1 4145   4.584   6.487   0.019
 1082SOL    HW2 4146   4.610   6.621   6.947
 1083SOL     OW 4147   6.423   3.845   2.405
 1083SOL    HW1 4148   6.346   3.782   2.406
 1083SOL    HW2 4149   6.499   3.803   2.354
 1084SOL     OW 4150   3.920   0.074   5.221
 1084SOL    HW1 4151   4.001   0.128   5.243
 1084SOL    HW2 4152   3.862   0.125   5.158
 1085SOL     OW 4153   2.173   3.173   4.456
 1085SOL    HW1 4154   2.176   3.266   4.494
 1085SOL    HW2 4155   2.139   3.178   4.361
 1086SOL     OW 4156   5.032   4.151   2.787
 1086SOL    HW1 4157   5.107   4.133   2.849
 1086SOL    HW2 4158   5.068   4.180   2.698
 1087SOL     OW 4159   3.327   0.338   5.758
 1087SOL    HW1 4160   3.414   0.369   5.720
 1087SOL    HW2 4161   3.343   0.299   5.849
 1088SOL     OW 4162   6.265   5.855   4.435
 1088SOL    HW1 4163   6.301   5.938   4.392
 1088SOL    HW2 4164   6.280   5.777   4.374
 1089SOL     OW 4165   6.190   5.043   4.729
 1089SOL    HW1 4166   6.168   5.018   4.634
 1089SOL    HW2 4167   6.156   4.972   4.790
 1090SOL     OW 4168   6.042   2.803   4.934
 1090SOL    HW1 4169   6.105   2.871   4.971
 1090SOL    HW2 4170   6.006   2.835   4.846
 1091SOL     OW 4171   1.875   3.355   3.713
 1091SOL    HW1 4172   1.807   3.426   3.694
 1091SOL    HW2 4173   1.893   3.303   3.630
 1092SOL     OW 4174   0.788   5.800   0.219
 1092SOL    HW1 4175   0.855   5.824   0.149
 1092SOL    HW2 4176   0.802   5.705   0.248
 1093SOL     OW 4177   1.963   0.196   3.183
 1093SOL    HW1 4178   1.974   0.236   3.274
 1093SOL    HW2 4179   2.052   0.164   3.150
 1094SOL     OW 4180   0.642   0.189   3.489
 1094SOL    HW1 4181   0.720   0.202   3.550
 1094SOL    HW2 4182   0.557   0.194   3.541
 1095SOL     OW 4183   6.703   5.025   0.715
 1095SOL    HW1 4184   6.627   5.079   0.678
 1095SOL    HW2 4185   6.672   4.974   0.794
 1096SOL     OW 4186   2.133   6.207   2.169
 1096SOL    HW1 4187   2.109   6.127   2.224
 1096SOL    HW2 4188   2.151   6.284   2.231
 1097SOL     OW 4189   3.175   5.345   4.628
 1097SOL    HW1 4190   3.173   5.403   4.710
 1097SOL    HW2 4191   3.085   5.305   4.613
 1098SOL     OW 4192   0.365   4.145   0.441
 1098SOL    HW1 4193   0.348   4.046   0.433
 1098SOL    HW2 4194   0.283   4.195   0.416
 1099SOL     OW 4195   5.611   0.135   6.784
 1099SOL    HW1 4196   5.566   0.195   6.718
 1099SOL    HW2 4197   5.709   0.156   6.786
 1100SOL     OW 4198   4.919   0.657   4.032
 1100SOL    HW1 4199   4.909   0.647   3.933
 1100SOL    HW2 4200   4.905   0.753   4.057
 1101SOL     OW 4201   4.768   2.609   6.975
 1101SOL    HW1 4202   4.748   2.614   0.054
 1101SOL    HW2 4203   4.746   2.697   6.933
 1102SOL     OW 4204   4.083   1.332   4.787
 1102SOL    HW1 4205   4.080   1.314   4.688
 1102SOL    HW2 4206   4.151   1.274   4.830
 1103SOL     OW 4207   3.124   6.092   0.511
 1103SOL    HW1 4208   3.195   6.115   0.578
 1103SOL    HW2 4209   3.166   6.086   0.420
 1104SOL     OW 4210   6.333   1.247   3.978
 1104SOL    HW1 4211   6.257   1.224   3.918
 1104SOL    HW2 4212   6.407   1.180   3.966
 1105SOL     OW 4213   5.005   0.270   5.444
 1105SOL    HW1 4214   5.012   0.324   5.360
 1105SOL    HW2 4215   4.911   0.271   5.477
 1106SOL     OW 4216   6.355   1.387   2.232
 1106SOL    HW1 4217   6.290   1.403   2.306
 1106SOL    HW2 4218   6.408   1.304   2.251
 1107SOL     OW 4219   1.175   2.466   6.726
 1107SOL    HW1 4220   1.139   2.397   6.663
 1107SOL    HW2 4221   1.223   2.537   6.675
 1108SOL     OW 4222   2.528   1.539   2.350
 1108SOL    HW1 4223   2.618   1.573   2.321
 1108SOL    HW2 4224   2.478   1.613   2.395
 1109SOL     OW 4225   5.007   1.623   5.497
 1109SOL    HW1 4226   4.955   1.676   5.564
 1109SOL    HW2 4227   5.094   1.594   5.537
 1110SOL     OW 4228   1.587   0.400   2.068
 1110SOL    HW1 4229   1.572   0.477   2.130
 1110SOL    HW2 4230   1.685   0.391   2.050
 1111SOL     OW 4231   4.933   3.496   6.168
 1111SOL    HW1 4232   4.979   3.516   6.081
 1111SOL    HW2 4233   4.972   3.554   6.240
 1112SOL     OW 4234   6.003   0.490   2.838
 1112SOL    HW1 4235   6.097   0.459   2.848
 1112SOL    HW2 4236   5.997   0.589   2.854
 1113SOL     OW 4237   0.817   1.331   2.736
 1113SOL    HW1 4238   0.878   1.289   2.803
 1113SOL    HW2 4239   0.840   1.298   2.645
 1114SOL     OW 4240   3.685   3.155   4.398
 1114SOL    HW1 4241   3.710   3.199   4.312
 1114SOL    HW2 4242   3.739   3.194   4.472
 1115SOL     OW 4243   1.918   5.500   6.206
 1115SOL    HW1 4244   1.888   5.411   6.171
 1115SOL    HW2 4245   1.963   5.487   6.295
 1116SOL     OW 4246   4.511   6.792   0.237
 1116SOL    HW1 4247   4.577   6.820   0.167
 1116SOL    HW2 4248   4.446   6.728   0.197
 1117SOL     OW 4249   1.975   2.600   1.579
 1117SOL    HW1 4250   2.073   2.592   1.595
 1117SOL    HW2 4251   1.946   2.527   1.517
 1118SOL     OW 4252   4.309   6.888   6.945
 1118SOL    HW1 4253   4.356   6.976   6.950
 1118SOL    HW2 4254   4.374   6.816   6.920
 1119SOL     OW 4255   3.149   6.274   3.979
 1119SOL    HW1 4256   3.093   6.191   3.976
 1119SOL    HW2 4257   3.224   6.260   4.043
 1120SOL     OW 4258   0.673   3.379   1.584
 1120SOL    HW1 4259   0.756   3.425   1.553
 1120SOL    HW2 4260   0.697   3.290   1.623
 1121SOL     OW 4261   5.681   4.279   5.877
 1121SOL    HW1 4262   5.591   4.242   5.852
 1121SOL    HW2 4263   5.723   4.220   5.946
 1122SOL     OW 4264   6.107   0.635   2.516
 1122SOL    HW1 4265   6.182   0.637   2.581
 1122SOL    HW2 4266   6.059   0.547   2.523
 1123SOL     OW 4267   3.404   2.066   4.879
 1123SOL    HW1 4268   3.371   2.156   4.909
 1123SOL    HW2 4269   3.390   2.058   4.780
 1124SOL     OW 4270   2.671   2.439   3.530
 1124SOL    HW1 4271   2.688   2.449   3.628
 1124SOL    HW2 4272   2.636   2.525   3.493
 1125SOL     OW 4273   1.184   3.226   3.866
 1125SOL    HW1 4274   1.260   3.206   3.928
 1125SOL    HW2 4275   1.214   3.212   3.771
 1126SOL     OW 4276   4.847   4.607   3.564
 1126SOL    HW1 4277   4.794   4.539   3.614
 1126SOL    HW2 4278   4.818   4.699   3.591
 1127SOL     OW 4279   5.630   0.105   0.839
 1127SOL    HW1 4280   5.643   0.170   0.764
 1127SOL    HW2 4281   5.633   0.012   0.803
 1128SOL     OW 4282   3.068   1.731   4.832
 1128SOL    HW1 4283   2.978   1.771   4.816
 1128SOL    HW2 4284   3.090   1.668   4.757
 1129SOL     OW 4285   1.325   0.536   0.170
 1129SOL    HW1 4286   1.239   0.587   0.172
 1129SOL    HW2 4287   1.390   0.578   0.233
 1130SOL     OW 4288   2.325   5.552   0.883
 1130SOL    HW1 4289   2.338   5.535   0.981
 1130SOL    HW2 4290   2.414   5.558   0.838
 1131SOL     OW 4291   1.342   5.635   3.610
 1131SOL    HW1 4292   1.377   5.553   3.565
 1131SOL    HW2 4293   1.419   5.696   3.632
 1132SOL     OW 4294   1.375   2.529   3.195
 1132SOL    HW1 4295   1.444   2.598   3.173
 1132SOL    HW2 4296   1.419   2.452   3.242
 1133SOL     OW 4297   1.221   6.024   0.127
 1133SOL    HW1 4298   1.284   6.000   0.053
 1133SOL    HW2 4299   1.238   6.118   0.156
 1134SOL     OW 4300   3.994   5.479   1.018
 1134SOL    HW1 4301   4.022   5.549   1.084
 1134SOL    HW2 4302   4.014   5.512   0.926
 1135SOL     OW 4303   1.894   6.682   2.925
 1135SOL    HW1 4304   1.947   6.626   2.989
 1135SOL    HW2 4305   1.828   6.624   2.877
 1136SOL     OW 4306   1.833   5.193   3.063
 1136SOL    HW1 4307   1.867   5.245   3.141
 1136SOL    HW2 4308   1.826   5.253   2.983
 1137SOL     OW 4309   1.064   5.005   4.196
 1137SOL    HW1 4310   1.096   4.922   4.150
 1137SOL    HW2 4311   0.966   4.999   4.210
 1138SOL     OW 4312   2.602   4.574   4.221
 1138SOL    HW1 4313   2.581   4.616   4.133
 1138SOL    HW2 4314   2.660   4.636   4.275
 1139SOL     OW 4315   3.739   5.843   4.875
 1139SOL    HW1 4316   3.701   5.929   4.910
 1139SOL    HW2 4317   3.696   5.820   4.788
 1140SOL     OW 4318   2.049   3.072   1.066
 1140SOL    HW1 4319   2.012   3.140   1.129
 1140SOL    HW2 4320   2.124   3.022   1.110
 1141SOL     OW 4321   6.002   4.696   5.739
 1141SOL    HW1 4322   5.981   4.760   5.665
 1141SOL    HW2 4323   5.950   4.612   5.726
 1142SOL     OW 4324   0.575   6.152   2.794
 1142SOL    HW1 4325   0.546   6.092   2.719
 1142SOL    HW2 4326   0.653   6.208   2.765
 1143SOL     OW 4327   0.099   4.086   1.909
 1143SOL    HW1 4328   0.160   4.160   1.879
 1143SOL    HW2 4329   0.004   4.120   1.907
 1144SOL     OW 4330   5.395   4.754   6.869
 1144SOL    HW1 4331   5.383   4.776   6.772
 1144SOL    HW2 4332   5.306   4.731   6.909
 1145SOL     OW 4333   5.814   0.350   1.331
 1145SOL    HW1 4334   5.734   0.356   1.389
 1145SOL    HW2 4335   5.801   0.407   1.249
 1146SOL     OW 4336   1.496   0.321   1.358
 1146SOL    HW1 4337   1.549   0.381   1.417
 1146SOL    HW2 4338   1.447   0.254   1.414
 1147SOL     OW 4339   1.393   5.908   0.525
 1147SOL    HW1 4340   1.404   5.832   0.589
 1147SOL    HW2 4341   1.311   5.892   0.469
 1148SOL     OW 4342   3.824   5.802   1.797
 1148SOL    HW1 4343   3.800   5.759   1.884
 1148SOL    HW2 4344   3.826   5.733   1.725
 1149SOL     OW 4345   6.063   2.095   2.002
 1149SOL    HW1 4346   6.125   2.032   1.955
 1149SOL    HW2 4347   6.057   2.181   1.950
 1150SOL     OW 4348   1.180   1.603   1.007
 1150SOL    HW1 4349   1.166   1.651   0.920
 1150SOL    HW2 4350   1.276   1.575   1.014
 1151SOL     OW 4351   5.573   5.606   4.424
 1151SOL    HW1 4352   5.668   5.621   4.394
 1151SOL    HW2 4353   5.570   5.531   4.489
 1152SOL     OW 4354   3.275   6.191   5.759
 1152SOL    HW1 4355   3.193   6.190   5.816
 1152SOL    HW2 4356   3.355   6.170   5.816
 1153SOL     OW 4357   5.466   0.157   1.077
 1153SOL    HW1 4358   5.523   0.119   1.004
 1153SOL    HW2 4359   5.510   0.140   1.166
 1154SOL     OW 4360   1.912   3.247   1.207
 1154SOL    HW1 4361   1.813   3.234   1.218
 1154SOL    HW2 4362   1.929   3.335   1.163
 1155SOL     OW 4363   3.746   5.637   3.737
 1155SOL    HW1 4364   3.702   5.635   3.827
 1155SOL    HW2 4365   3.817   5.707   3.737
 1156SOL     OW 4366   2.892   0.511   1.277
 1156SOL    HW1 4367   2.935   0.592   1.238
 1156SOL    HW2 4368   2.918   0.430   1.225
 1157SOL     OW 4369   2.230   2.119   0.743
 1157SOL    HW1 4370   2.197   2.211   0.723
 1157SOL    HW2 4371   2.174   2.078   0.815
 1158SOL     OW 4372   5.323   4.490   4.038
 1158SOL    HW1 4373   5.350   4.574   4.084
 1158SOL    HW2 4374   5.394   4.421   4.049
 1159SOL     OW 4375   5.099   4.620   0.472
 1159SOL    HW1 4376   5.154   4.688   0.424
 1159SOL    HW2 4377   5.002   4.640   0.460
 1160SOL     OW 4378   4.187   2.163   1.208
 1160SOL    HW1 4379   4.275   2.118   1.193
 1160SOL    HW2 4380   4.134   2.112   1.276
 1161SOL     OW 4381   0.567   4.614   0.778
 1161SOL    HW1 4382   0.529   4.697   0.820
 1161SOL    HW2 4383   0.498   4.542   0.780
 1162SOL     OW 4384   2.191   3.174   4.775
 1162SOL    HW1 4385   2.205   3.141   4.682
 1162SOL    HW2 4386   2.250   3.123   4.837
 1163SOL     OW 4387   4.409   1.398   2.257
 1163SOL    HW1 4388   4.380   1.334   2.187
 1163SOL    HW2 4389   4.333   1.458   2.281
 1164SOL     OW 4390   3.887   1.953   6.099
 1164SOL    HW1 4391   3.954   1.887   6.132
 1164SOL    HW2 4392   3.933   2.039   6.077
 1165SOL     OW 4393   4.198   0.205   2.723
 1165SOL    HW1 4394   4.194   0.298   2.759
 1165SOL    HW2 4395   4.259   0.202   2.644
 1166SOL     OW 4396   3.954   3.780   6.760
 1166SOL    HW1 4397   3.977   3.853   6.696
 1166SOL    HW2 4398   3.941   3.820   6.851
 1167SOL     OW 4399   5.101   3.910   3.799
 1167SOL    HW1 4400   5.009   3.877   3.820
 1167SOL    HW2 4401   5.106   4.008   3.820
 1168SOL     OW 4402   0.240   6.988   0.457
 1168SOL    HW1 4403   0.325   0.021   0.454
 1168SOL    HW2 4404   0.170   0.023   0.505
 1169SOL     OW 4405   4.738   1.968   5.514
 1169SOL    HW1 4406   4.762   2.002   5.423
 1169SOL    HW2 4407   4.788   2.021   5.583
 1170SOL     OW 4408   5.261   4.265   3.176
 1170SOL    HW1 4409   5.320   4.215   3.241
 1170SOL    HW2 4410   5.195   4.202   3.137
 1171SOL     OW 4411   6.946   6.175   0.793
 1171SOL    HW1 4412   0.006   6.155   0.735
 1171SOL    HW2 4413   6.936   6.104   0.863
 1172SOL     OW 4414   5.750   2.897   6.781
 1172SOL    HW1 4415   5.822   2.836   6.814
 1172SOL    HW2 4416   5.663   2.848   6.780
 1173SOL     OW 4417   4.635   2.807   1.553
 1173SOL    HW1 4418   4.713   2.838   1.606
 1173SOL    HW2 4419   4.555   2.796   1.613
 1174SOL     OW 4420   2.657   5.380   6.857
 1174SOL    HW1 4421   2.673   5.372   6.759
 1174SOL    HW2 4422   2.617   5.470   6.876
 1175SOL     OW 4423   3.034   3.788   4.011
 1175SOL    HW1 4424   3.060   3.832   3.925
 1175SOL    HW2 4425   3.105   3.722   4.038
 1176SOL     OW 4426   5.521   3.717   0.254
 1176SOL    HW1 4427   5.595   3.660   0.290
 1176SOL    HW2 4428   5.506   3.694   0.158
 1177SOL     OW 4429   1.172   0.619   4.473
 1177SOL    HW1 4430   1.166   0.529   4.517
 1177SOL    HW2 4431   1.080   0.659   4.470
 1178SOL     OW 4432   4.100   6.447   6.595
 1178SOL    HW1 4433   4.116   6.520   6.528
 1178SOL    HW2 4434   4.177   6.441   6.657
 1179SOL     OW 4435   0.135   5.868   1.261
 1179SOL    HW1 4436   0.177   5.809   1.330
 1179SOL    HW2 4437   0.151   5.830   1.170
 1180SOL     OW 4438   3.692   6.465   0.624
 1180SOL    HW1 4439   3.644   6.540   0.670
 1180SOL    HW2 4440   3.788   6.489   0.614
 1181SOL     OW 4441   6.194   6.277   6.269
 1181SOL    HW1 4442   6.099   6.273   6.238
 1181SOL    HW2 4443   6.252   6.309   6.195
 1182SOL     OW 4444   4.900   3.664   4.407
 1182SOL    HW1 4445   4.895   3.568   4.435
 1182SOL    HW2 4446   4.899   3.722   4.488
 1183SOL     OW 4447   1.501   4.220   0.128
 1183SOL    HW1 4448   1.415   4.271   0.132
 1183SOL    HW2 4449   1.526   4.189   0.219
 1184SOL     OW 4450   0.531   1.473   4.988
 1184SOL    HW1 4451   0.600   1.450   5.057
 1184SOL    HW2 4452   0.472   1.546   5.023
 1185SOL     OW 4453   6.679   1.887   6.591
 1185SOL    HW1 4454   6.711   1.979   6.613
 1185SOL    HW2 4455   6.716   1.859   6.502
 1186SOL     OW 4456   4.705   6.359   3.757
 1186SOL    HW1 4457   4.663   6.392   3.842
 1186SOL    HW2 4458   4.794   6.403   3.744
 1187SOL     OW 4459   5.862   2.070   6.840
 1187SOL    HW1 4460   5.826   2.073   6.933
 1187SOL    HW2 4461   5.958   2.098   6.840
 1188SOL     OW 4462   4.352   1.973   6.165
 1188SOL    HW1 4463   4.288   1.912   6.211
 1188SOL    HW2 4464   4.445   1.938   6.176
 1189SOL     OW 4465   5.965   3.890   3.483
 1189SOL    HW1 4466   5.873   3.912   3.516
 1189SOL    HW2 4467   6.031   3.954   3.522
 1190SOL     OW 4468   2.328   1.046   3.776
 1190SOL    HW1 4469   2.244   1.036   3.829
 1190SOL    HW2 4470   2.401   1.080   3.836
 1191SOL     OW 4471   3.406   0.400   2.784
 1191SOL    HW1 4472   3.332   0.340   2.815
 1191SOL    HW2 4473   3.492   0.349   2.786
 1192SOL     OW 4474   5.649   5.509   4.153
 1192SOL    HW1 4475   5.711   5.565   4.207
 1192SOL    HW2 4476   5.665   5.525   4.056
 1193SOL     OW 4477   6.749   6.090   4.408
 1193SOL    HW1 4478   6.779   6.139   4.489
 1193SOL    HW2 4479   6.764   6.148   4.327
 1194SOL     OW 4480   3.488   0.510   1.206
 1194SOL    HW1 4481   3.501   0.575   1.281
 1194SOL    HW2 4482   3.565   0.446   1.204
 1195SOL     OW 4483   5.242   3.228   2.941
 1195SOL    HW1 4484   5.303   3.166   2.892
 1195SOL    HW2 4485   5.296   3.281   3.007
 1196SOL     OW 4486   6.937   6.319   5.212
 1196SOL    HW1 4487   7.009   6.386   5.193
 1196SOL    HW2 4488   6.903   6.332   5.305
 1197SOL     OW 4489   2.718   6.508   6.441
 1197SOL    HW1 4490   2.788   6.579   6.452
 1197SOL    HW2 4491   2.679   6.485   6.530
 1198SOL     OW 4492   1.298   2.758   0.590
 1198SOL    HW1 4493   1.284   2.791   0.497
 1198SOL    HW2 4494   1.213   2.719   0.625
 1199SOL     OW 4495   5.692   4.472   2.925
 1199SOL    HW1 4496   5.787   4.462   2.957
 1199SOL    HW2 4497   5.630   4.428   2.990
 1200SOL     OW 4498   3.308   4.054   2.102
 1200SOL    HW1 4499   3.363   3.977   2.132
 1200SOL    HW2 4500   3.228   4.020   2.052
 1201SOL     OW 4501   1.614   2.512   5.151
 1201SOL    HW1 4502   1.612   2.611   5.136
 1201SOL    HW2 4503   1.550   2.468   5.088
 1202SOL     OW 4504   0.742   6.459   4.759
 1202SOL    HW1 4505   0.727   6.415   4.670
 1202SOL    HW2 4506   0.830   6.428   4.797
 1203SOL     OW 4507   4.237   5.557   4.977
 1203SOL    HW1 4508   4.330   5.519   4.972
 1203SOL    HW2 4509   4.238   5.650   4.941
 1204SOL     OW 4510   1.959   0.327   2.665
 1204SOL    HW1 4511   1.946   0.284   2.575
 1204SOL    HW2 4512   1.967   0.257   2.735
 1205SOL     OW 4513   5.945   3.671   2.302
 1205SOL    HW1 4514   5.865   3.682   2.362
 1205SOL    HW2 4515   5.924   3.604   2.231
 1206SOL     OW 4516   3.076   3.057   4.190
 1206SOL    HW1 4517   3.043   3.060   4.285
 1206SOL    HW2 4518   3.128   2.973   4.176
 1207SOL     OW 4519   1.013   5.953   3.526
 1207SOL    HW1 4520   1.020   5.983   3.431
 1207SOL    HW2 4521   0.975   6.027   3.581
 1208SOL     OW 4522   3.649   2.360   6.547
 1208SOL    HW1 4523   3.563   2.363   6.598
 1208SOL    HW2 4524   3.647   2.282   6.484
 1209SOL     OW 4525   4.086   6.891   5.074
 1209SOL    HW1 4526   4.125   6.982   5.060
 1209SOL    HW2 4527   3.986   6.899   5.080
 1210SOL     OW 4528   2.393   0.986   3.337
 1210SOL    HW1 4529   2.459   1.031   3.278
 1210SOL    HW2 4530   2.429   0.982   3.430
 1211SOL     OW 4531   0.991   2.907   0.994
 1211SOL    HW1 4532   1.051   2.986   1.005
 1211SOL    HW2 4533   1.013   2.838   1.063
 1212SOL     OW 4534   0.651   6.720   0.487
 1212SOL    HW1 4535   0.614   6.627   0.487
 1212SOL    HW2 4536   0.744   6.719   0.450
 1213SOL     OW 4537   6.284   2.866   2.444
 1213SOL    HW1 4538   6.362   2.928   2.448
 1213SOL    HW2 4539   6.214   2.896   2.510
 1214SOL     OW 4540   0.678   2.536   2.298
 1214SOL    HW1 4541   0.749   2.569   2.236
 1214SOL    HW2 4542   0.590   2.574   2.269
 1215SOL     OW 4543   2.413   5.437   2.858
 1215SOL    HW1 4544   2.468   5.498   2.915
 1215SOL    HW2 4545   2.336   5.403   2.911
 1216SOL     OW 4546   4.174   6.803   1.971
 1216SOL    HW1 4547   4.177   6.851   1.884
 1216SOL    HW2 4548   4.140   6.710   1.957
 1217SOL     OW 4549   2.722   4.144   0.090
 1217SOL    HW1 4550   2.631   4.158   0.130
 1217SOL    HW2 4551   2.745   4.222   0.032
 1218SOL     OW 4552   2.534   5.278   4.238
 1218SOL    HW1 4553   2.492   5.209   4.298
 1218SOL    HW2 4554   2.482   5.363   4.244
 1219SOL     OW 4555   3.242   5.339   1.626
 1219SOL    HW1 4556   3.156   5.321   1.579
 1219SOL    HW2 4557   3.314   5.281   1.588
 1220SOL     OW 4558   0.805   5.253   1.880
 1220SOL    HW1 4559   0.884   5.206   1.841
 1220SOL    HW2 4560   0.773   5.204   1.961
 1221SOL     OW 4561   4.489   4.448   6.786
 1221SOL    HW1 4562   4.554   4.404   6.723
 1221SOL    HW2 4563   4.540   4.498   6.856
 1222SOL     OW 4564   6.728   1.417   6.824
 1222SOL    HW1 4565   6.763   1.351   6.757
 1222SOL    HW2 4566   6.687   1.368   6.901
 1223SOL     OW 4567   4.260   5.745   1.036
 1223SOL    HW1 4568   4.277   5.684   0.959
 1223SOL    HW2 4569   4.226   5.692   1.113
 1224SOL     OW 4570   2.922   1.460   1.416
 1224SOL    HW1 4571   2.965   1.469   1.506
 1224SOL    HW2 4572   2.911   1.550   1.375
 1225SOL     OW 4573   3.839   4.603   5.899
 1225SOL    HW1 4574   3.741   4.587   5.915
 1225SOL    HW2 4575   3.856   4.610   5.801
 1226SOL     OW 4576   2.230   5.307   1.027
 1226SOL    HW1 4577   2.245   5.212   1.055
 1226SOL    HW2 4578   2.317   5.346   0.998
 1227SOL     OW 4579   1.320   4.442   5.722
 1227SOL    HW1 4580   1.269   4.418   5.640
 1227SOL    HW2 4581   1.406   4.485   5.697
 1228SOL     OW 4582   3.815   2.202   0.071
 1228SOL    HW1 4583   3.853   2.116   0.107
 1228SOL    HW2 4584   3.849   2.279   0.125
 1229SOL     OW 4585   2.870   3.886   0.114
 1229SOL    HW1 4586   2.879   3.845   0.205
 1229SOL    HW2 4587   2.864   3.985   0.122
 1230SOL     OW 4588   4.384   0.178   3.342
 1230SOL    HW1 4589   4.317   0.251   3.331
 1230SOL    HW2 4590   4.475   0.213   3.318
 1231SOL     OW 4591   0.657   3.256   3.192
 1231SOL    HW1 4592   0.560   3.280   3.187
 1231SOL    HW2 4593   0.678   3.188   3.122
 1232SOL     OW 4594   2.074   1.595   2.512
 1232SOL    HW1 4595   2.031   1.569   2.426
 1232SOL    HW2 4596   2.004   1.601   2.584
 1233SOL     OW 4597   0.985   2.313   4.462
 1233SOL    HW1 4598   0.982   2.397   4.408
 1233SOL    HW2 4599   0.906   2.310   4.524
 1234SOL     OW 4600   6.624   4.571   4.485
 1234SOL    HW1 4601   6.589   4.575   4.578
 1234SOL    HW2 4602   6.708   4.625   4.479
 1235SOL     OW 4603   0.157   4.986   3.602
 1235SOL    HW1 4604   0.128   5.076   3.570
 1235SOL    HW2 4605   0.174   4.926   3.524
 1236SOL     OW 4606   5.782   0.576   6.857
 1236SOL    HW1 4607   5.745   0.643   6.921
 1236SOL    HW2 4608   5.803   0.491   6.906
 1237SOL     OW 4609   2.206   4.220   6.621
 1237SOL    HW1 4610   2.251   4.287   6.562
 1237SOL    HW2 4611   2.261   4.206   6.703
 1238SOL     OW 4612   2.330   1.317   1.416
 1238SOL    HW1 4613   2.405   1.285   1.358
 1238SOL    HW2 4614   2.348   1.411   1.445
 1239SOL     OW 4615   0.911   0.518   5.476
 1239SOL    HW1 4616   0.972   0.441   5.457
 1239SOL    HW2 4617   0.939   0.597   5.422
 1240SOL     OW 4618   6.178   5.056   0.840
 1240SOL    HW1 4619   6.218   5.111   0.913
 1240SOL    HW2 4620   6.096   5.102   0.804
 1241SOL     OW 4621   0.830   1.939   4.539
 1241SOL    HW1 4622   0.811   1.897   4.450
 1241SOL    HW2 4623   0.760   1.911   4.605
 1242SOL     OW 4624   2.032   2.134   6.668
 1242SOL    HW1 4625   2.106   2.118   6.602
 1242SOL    HW2 4626   2.039   2.068   6.743
 1243SOL     OW 4627   3.580   5.075   5.166
 1243SOL    HW1 4628   3.491   5.080   5.120
 1243SOL    HW2 4629   3.567   5.050   5.262
 1244SOL     OW 4630   1.311   1.638   3.238
 1244SOL    HW1 4631   1.268   1.718   3.281
 1244SOL    HW2 4632   1.378   1.669   3.171
 1245SOL     OW 4633   3.435   2.923   5.089
 1245SOL    HW1 4634   3.381   2.979   5.151
 1245SOL    HW2 4635   3.388   2.914   5.001
 1246SOL     OW 4636   1.457   6.687   1.726
 1246SOL    HW1 4637   1.556   6.679   1.712
 1246SOL    HW2 4638   1.411   6.616   1.673
 1247SOL     OW 4639   0.634   6.561   6.594
 1247SOL    HW1 4640   0.617   6.464   6.574
 1247SOL    HW2 4641   0.717   6.590   6.545
 1248SOL     OW 4642   2.317   0.043   4.102
 1248SOL    HW1 4643   2.361   7.008   4.174
 1248SOL    HW2 4644   2.254   0.108   4.144
 1249SOL     OW 4645   6.264   3.010   3.549
 1249SOL    HW1 4646   6.168   3.032   3.565
 1249SOL    HW2 4647   6.273   2.912   3.528
 1250SOL     OW 4648   6.599   3.846   4.585
 1250SOL    HW1 4649   6.669   3.775   4.568
 1250SOL    HW2 4650   6.585   3.899   4.501
 1251SOL     OW 4651   3.252   0.967   6.781
 1251SOL    HW1 4652   3.334   0.994   6.731
 1251SOL    HW2 4653   3.191   1.046   6.790
 1252SOL     OW 4654   3.709   3.831   0.290
 1252SOL    HW1 4655   3.628   3.785   0.255
 1252SOL    HW2 4656   3.681   3.901   0.356
 1253SOL     OW 4657   4.740   1.736   3.103
 1253SOL    HW1 4658   4.704   1.786   3.023
 1253SOL    HW2 4659   4.839   1.721   3.091
 1254SOL     OW 4660   5.569   0.903   3.735
 1254SOL    HW1 4661   5.565   0.929   3.639
 1254SOL    HW2 4662   5.491   0.942   3.784
 1255SOL     OW 4663   5.840   0.550   1.543
 1255SOL    HW1 4664   5.871   0.462   1.507
 1255SOL    HW2 4665   5.740   0.553   1.544
 1256SOL     OW 4666   5.746   3.300   3.424
 1256SOL    HW1 4667   5.719   3.325   3.517
 1256SOL    HW2 4668   5.785   3.208   3.425
 1257SOL     OW 4669   6.197   1.721   4.458
 1257SOL    HW1 4670   6.223   1.801   4.512
 1257SOL    HW2 4671   6.112   1.740   4.408
 1258SOL     OW 4672   0.179   4.779   3.953
 1258SOL    HW1 4673   0.252   4.824   3.902
 1258SOL    HW2 4674   0.205   4.771   4.049
 1259SOL     OW 4675   5.527   2.259   4.689
 1259SOL    HW1 4676   5.505   2.356   4.690
 1259SOL    HW2 4677   5.463   2.210   4.748
 1260SOL     OW 4678   0.772   1.575   4.650
 1260SOL    HW1 4679   0.808   1.574   4.744
 1260SOL    HW2 4680   0.673   1.585   4.652
 1261SOL     OW 4681   6.802   2.944   1.436
 1261SOL    HW1 4682   6.788   3.021   1.374
 1261SOL    HW2 4683   6.763   2.861   1.395
 1262SOL     OW 4684   5.125   5.847   1.658
 1262SOL    HW1 4685   5.031   5.878   1.643
 1262SOL    HW2 4686   5.184   5.882   1.585
 1263SOL     OW 4687   1.174   2.317   2.797
 1263SOL    HW1 4688   1.206   2.365   2.716
 1263SOL    HW2 4689   1.079   2.290   2.785
 1264SOL     OW 4690   1.467   3.012   5.458
 1264SOL    HW1 4691   1.383   3.048   5.499
 1264SOL    HW2 4692   1.473   2.914   5.475
 1265SOL     OW 4693   6.478   1.113   6.362
 1265SOL    HW1 4694   6.559   1.058   6.338
 1265SOL    HW2 4695   6.481   1.199   6.312
 1266SOL     OW 4696   3.645   1.844   5.869
 1266SOL    HW1 4697   3.736   1.882   5.882
 1266SOL    HW2 4698   3.639   1.755   5.914
 1267SOL     OW 4699   3.152   1.241   2.295
 1267SOL    HW1 4700   3.179   1.185   2.217
 1267SOL    HW2 4701   3.056   1.222   2.317
 1268SOL     OW 4702   4.311   2.186   5.260
 1268SOL    HW1 4703   4.376   2.166   5.333
 1268SOL    HW2 4704   4.301   2.106   5.201
 1269SOL     OW 4705   5.312   2.272   3.254
 1269SOL    HW1 4706   5.254   2.318   3.187
 1269SOL    HW2 4707   5.390   2.230   3.208
 1270SOL     OW 4708   6.080   5.543   3.662
 1270SOL    HW1 4709   6.116   5.479   3.730
 1270SOL    HW2 4710   6.135   5.626   3.662
 1271SOL     OW 4711   1.308   7.007   1.963
 1271SOL    HW1 4712   1.260   6.935   2.012
 1271SOL    HW2 4713   1.256   0.073   1.968
 1272SOL     OW 4714   6.060   2.106   1.169
 1272SOL    HW1 4715   6.104   2.085   1.082
 1272SOL    HW2 4716   6.110   2.062   1.243
 1273SOL     OW 4717   2.122   4.314   5.283
 1273SOL    HW1 4718   2.098   4.347   5.374
 1273SOL    HW2 4719   2.221   4.299   5.278
 1274SOL     OW 4720   6.945   4.622   4.445
 1274SOL    HW1 4721   7.017   4.580   4.500
 1274SOL    HW2 4722   6.948   4.585   4.352
 1275SOL     OW 4723   1.933   1.286   2.874
 1275SOL    HW1 4724   1.993   1.365   2.888
 1275SOL    HW2 4725   1.858   1.288   2.940
 1276SOL     OW 4726   5.744   4.048   3.834
 1276SOL    HW1 4727   5.653   4.011   3.853
 1276SOL    HW2 4728   5.809   4.013   3.902
 1277SOL     OW 4729   1.305   6.196   6.307
 1277SOL    HW1 4730   1.313   6.097   6.321
 1277SOL    HW2 4731   1.230   6.215   6.244
 1278SOL     OW 4732   0.120   6.290   2.407
 1278SOL    HW1 4733   0.045   6.346   2.370
 1278SOL    HW2 4734   0.090   6.195   2.414
 1279SOL     OW 4735   3.211   2.561   0.777
 1279SOL    HW1 4736   3.165   2.623   0.714
 1279SOL    HW2 4737   3.185   2.583   0.871
 1280SOL     OW 4738   3.011   2.236   3.218
 1280SOL    HW1 4739   3.023   2.264   3.122
 1280SOL    HW2 4740   2.918   2.201   3.231
 1281SOL     OW 4741   5.721   5.615   5.625
 1281SOL    HW1 4742   5.772   5.664   5.696
 1281SOL    HW2 4743   5.623   5.617   5.647
 1282SOL     OW 4744   0.679   2.519   1.181
 1282SOL    HW1 4745   0.756   2.508   1.118
 1282SOL    HW2 4746   0.706   2.485   1.272
 1283SOL     OW 4747   1.317   0.383   4.813
 1283SOL    HW1 4748   1.398   0.335   4.778
 1283SOL    HW2 4749   1.340   0.432   4.897
 1284SOL     OW 4750   3.996   2.383   1.692
 1284SOL    HW1 4751   3.924   2.319   1.718
 1284SOL    HW2 4752   4.076   2.370   1.752
 1285SOL     OW 4753   3.743   1.631   4.231
 1285SOL    HW1 4754   3.838   1.656   4.213
 1285SOL    HW2 4755   3.694   1.625   4.144
 1286SOL     OW 4756   5.075   0.949   2.225
 1286SOL    HW1 4757   5.069   0.916   2.319
 1286SOL    HW2 4758   5.084   0.871   2.163
 1287SOL     OW 4759   5.766   5.075   6.857
 1287SOL    HW1 4760   5.757   5.172   6.879
 1287SOL    HW2 4761   5.710   5.021   6.920
 1288SOL     OW 4762   4.772   4.734   5.745
 1288SOL    HW1 4763   4.734   4.653   5.789
 1288SOL    HW2 4764   4.872   4.725   5.740
 1289SOL     OW 4765   1.484   6.783   1.127
 1289SOL    HW1 4766   1.575   6.789   1.084
 1289SOL    HW2 4767   1.488   6.822   1.219
 1290SOL     OW 4768   1.369   6.764   4.405
 1290SOL    HW1 4769   1.379   6.863   4.410
 1290SOL    HW2 4770   1.389   6.733   4.312
 1291SOL     OW 4771   5.075   5.971   3.662
 1291SOL    HW1 4772   5.059   5.872   3.660
 1291SOL    HW2 4773   5.015   6.016   3.595
 1292SOL     OW 4774   0.199   6.780   2.486
 1292SOL    HW1 4775   0.103   6.807   2.500
 1292SOL    HW2 4776   0.257   6.832   2.548
 1293SOL     OW 4777   4.715   6.875   1.284
 1293SOL    HW1 4778   4.705   6.789   1.334
 1293SOL    HW2 4779   4.743   6.855   1.190
 1294SOL     OW 4780   2.408   4.570   5.392
 1294SOL    HW1 4781   2.460   4.622   5.325
 1294SOL    HW2 4782   2.455   4.570   5.480
 1295SOL     OW 4783   0.211   4.535   0.633
 1295SOL    HW1 4784   0.206   4.530   0.533
 1295SOL    HW2 4785   0.279   4.470   0.666
 1296SOL     OW 4786   3.732   0.867   6.022
 1296SOL    HW1 4787   3.727   0.793   5.955
 1296SOL    HW2 4788   3.825   0.874   6.057
 1297SOL     OW 4789   5.837   6.645   0.059
 1297SOL    HW1 4790   5.804   6.738   0.080
 1297SOL    HW2 4791   5.841   6.591   0.143
 1298SOL     OW 4792   5.163   0.142   3.171
 1298SOL    HW1 4793   5.181   0.142   3.073
 1298SOL    HW2 4794   5.065   0.133   3.187
 1299SOL     OW 4795   1.132   4.927   4.934
 1299SOL    HW1 4796   1.104   4.897   4.843
 1299SOL    HW2 4797   1.185   4.855   4.979
 1300SOL     OW 4798   1.256   5.322   0.329
 1300SOL    HW1 4799   1.165   5.359   0.346
 1300SOL    HW2 4800   1.266   5.302   0.231
 1301SOL     OW 4801   6.261   1.907   6.852
 1301SOL    HW1 4802   6.329   1.846   6.812
 1301SOL    HW2 4803   6.169   1.874   6.830
 1302SOL     OW 4804   6.895   6.864   4.841
 1302SOL    HW1 4805   6.871   6.934   4.908
 1302SOL    HW2 4806   6.838   6.783   4.855
 1303SOL     OW 4807   2.492   6.374   1.440
 1303SOL    HW1 4808   2.394   6.391   1.453
 1303SOL    HW2 4809   2.510   6.363   1.342
 1304SOL     OW 4810   6.968   0.955   0.140
 1304SOL    HW1 4811   6.977   0.983   0.236
 1304SOL    HW2 4812   6.976   1.034   0.081
 1305SOL     OW 4813   3.611   4.195   6.170
 1305SOL    HW1 4814   3.684   4.126   6.173
 1305SOL    HW2 4815   3.648   4.281   6.135
 1306SOL     OW 4816   2.328   6.414   4.205
 1306SOL    HW1 4817   2.267   6.455   4.137
 1306SOL    HW2 4818   2.297   6.322   4.226
 1307SOL     OW 4819   2.184   3.854   3.410
 1307SOL    HW1 4820   2.123   3.926   3.443
 1307SOL    HW2 4821   2.276   3.891   3.397
 1308SOL     OW 4822   1.266   3.535   5.684
 1308SOL    HW1 4823   1.205   3.592   5.739
 1308SOL    HW2 4824   1.277   3.576   5.594
 1309SOL     OW 4825   5.955   3.797   0.057
 1309SOL    HW1 4826   5.870   3.782   0.008
 1309SOL    HW2 4827   5.953   3.747   0.144
 1310SOL     OW 4828   2.356   2.269   3.448
 1310SOL    HW1 4829   2.289   2.343   3.442
 1310SOL    HW2 4830   2.436   2.291   3.392
 1311SOL     OW 4831   6.406   5.360   0.059
 1311SOL    HW1 4832   6.356   5.398   0.137
 1311SOL    HW2 4833   6.407   5.426   7.003
 1312SOL     OW 4834   2.405   1.516   6.732
 1312SOL    HW1 4835   2.504   1.522   6.722
 1312SOL    HW2 4836   2.365   1.607   6.728
 1313SOL     OW 4837   4.868   5.114   2.867
 1313SOL    HW1 4838   4.802   5.039   2.854
 1313SOL    HW2 4839   4.928   5.093   2.944
 1314SOL     OW 4840   2.878   1.694   3.722
 1314SOL    HW1 4841   2.901   1.613   3.775
 1314SOL    HW2 4842   2.925   1.774   3.761
 1315SOL     OW 4843   5.494   0.392   3.564
 1315SOL    HW1 4844   5.405   0.360   3.596
 1315SOL    HW2 4845   5.515   0.480   3.607
 1316SOL     OW 4846   5.036   0.449   6.351
 1316SOL    HW1 4847   5.037   0.429   6.253
 1316SOL    HW2 4848   4.979   0.381   6.398
 1317SOL     OW 4849   3.909   3.038   4.118
 1317SOL    HW1 4850   3.821   3.079   4.142
 1317SOL    HW2 4851   3.975   3.055   4.192
 1318SOL     OW 4852   1.760   1.220   0.026
 1318SOL    HW1 4853   1.736   1.145   6.985
 1318SOL    HW2 4854   1.851   1.255   0.003
 1319SOL     OW 4855   6.639   1.758   0.223
 1319SOL    HW1 4856   6.540   1.764   0.206
 1319SOL    HW2 4857   6.671   1.844   0.262
 1320SOL     OW 4858   2.753   2.645   5.661
 1320SOL    HW1 4859   2.844   2.632   5.699
 1320SOL    HW2 4860   2.723   2.739   5.678
 1321SOL     OW 4861   0.104   2.425   1.572
 1321SOL    HW1 4862   0.040   2.488   1.527
 1321SOL    HW2 4863   0.170   2.391   1.504
 1322SOL     OW 4864   1.905   2.747   0.167
 1322SOL    HW1 4865   1.963   2.774   0.244
 1322SOL    HW2 4866   1.933   2.656   0.135
 1323SOL     OW 4867   4.530   0.733   1.237
 1323SOL    HW1 4868   4.508   0.820   1.281
 1323SOL    HW2 4869   4.616   0.698   1.273
 1324SOL     OW 4870   2.453   3.919   6.152
 1324SOL    HW1 4871   2.476   3.867   6.070
 1324SOL    HW2 4872   2.404   4.002   6.127
 1325SOL     OW 4873   4.400   4.987   4.571
 1325SOL    HW1 4874   4.339   4.985   4.491
 1325SOL    HW2 4875   4.386   5.071   4.622
 1326SOL     OW 4876   4.116   1.677   5.190
 1326SOL    HW1 4877   4.132   1.690   5.093
 1326SOL    HW2 4878   4.115   1.766   5.236
 1327SOL     OW 4879   4.611   5.658   1.852
 1327SOL    HW1 4880   4.524   5.660   1.804
 1327SOL    HW2 4881   4.686   5.663   1.785
 1328SOL     OW 4882   0.993   2.483   5.286
 1328SOL    HW1 4883   1.007   2.536   5.201
 1328SOL    HW2 4884   0.897   2.488   5.312
 1329SOL     OW 4885   1.592   2.614   4.459
 1329SOL    HW1 4886   1.591   2.590   4.556
 1329SOL    HW2 4887   1.621   2.534   4.406
 1330SOL     OW 4888   6.364   3.231   2.330
 1330SOL    HW1 4889   6.427   3.215   2.254
 1330SOL    HW2 4890   6.386   3.169   2.405
 1331SOL     OW 4891   3.989   1.754   2.883
 1331SOL    HW1 4892   4.054   1.694   2.930
 1331SOL    HW2 4893   3.910   1.771   2.943
 1332SOL     OW 4894   2.294   6.624   6.897
 1332SOL    HW1 4895   2.246   6.571   6.827
 1332SOL    HW2 4896   2.287   6.578   6.985
 1333SOL     OW 4897   3.574   3.307   2.608
 1333SOL    HW1 4898   3.631   3.380   2.571
 1333SOL    HW2 4899   3.491   3.346   2.648
 1334SOL     OW 4900   0.622   4.041   1.584
 1334SOL    HW1 4901   0.657   3.971   1.646
 1334SOL    HW2 4902   0.641   4.132   1.622
 1335SOL     OW 4903   6.991   3.365   3.290
 1335SOL    HW1 4904   7.004   3.334   3.196
 1335SOL    HW2 4905   0.061   3.373   3.335
 1336SOL     OW 4906   2.095   6.226   5.692
 1336SOL    HW1 4907   2.117   6.226   5.789
 1336SOL    HW2 4908   2.012   6.173   5.676
 1337SOL     OW 4909   6.824   6.970   1.677
 1337SOL    HW1 4910   6.898   6.914   1.639
 1337SOL    HW2 4911   6.763   6.912   1.731
 1338SOL     OW 4912   0.796   4.258   4.804
 1338SOL    HW1 4913   0.815   4.342   4.754
 1338SOL    HW2 4914   0.854   4.254   4.886
 1339SOL     OW 4915   5.173   1.195   6.521
 1339SOL    HW1 4916   5.258   1.240   6.549
 1339SOL    HW2 4917   5.145   1.130   6.592
 1340SOL     OW 4918   2.436   2.637   1.010
 1340SOL    HW1 4919   2.462   2.657   1.104
 1340SOL    HW2 4920   2.430   2.722   0.958
 1341SOL     OW 4921   6.110   5.933   6.644
 1341SOL    HW1 4922   6.156   6.007   6.593
 1341SOL    HW2 4923   6.026   5.968   6.685
 1342SOL     OW 4924   1.545   5.957   1.460
 1342SOL    HW1 4925   1.593   5.885   1.411
 1342SOL    HW2 4926   1.609   6.030   1.483
 1343SOL     OW 4927   5.182   5.693   2.973
 1343SOL    HW1 4928   5.090   5.718   3.003
 1343SOL    HW2 4929   5.250   5.743   3.026
 1344SOL     OW 4930   1.503   0.469   3.366
 1344SOL    HW1 4931   1.491   0.406   3.289
 1344SOL    HW2 4932   1.550   0.552   3.333
 1345SOL     OW 4933   0.778   6.411   5.322
 1345SOL    HW1 4934   0.685   6.440   5.297
 1345SOL    HW2 4935   0.845   6.467   5.273
 1346SOL     OW 4936   3.619   5.914   3.666
 1346SOL    HW1 4937   3.624   5.999   3.719
 1346SOL    HW2 4938   3.679   5.846   3.705
 1347SOL     OW 4939   0.140   1.030   6.153
 1347SOL    HW1 4940   0.069   1.060   6.090
 1347SOL    HW2 4941   0.144   0.930   6.153
 1348SOL     OW 4942   1.604   6.918   4.610
 1348SOL    HW1 4943   1.678   6.856   4.583
 1348SOL    HW2 4944   1.636   6.980   4.681
 1349SOL     OW 4945   4.919   3.841   4.180
 1349SOL    HW1 4946   4.889   3.905   4.251
 1349SOL    HW2 4947   4.904   3.747   4.211
 1350SOL     OW 4948   5.598   4.502   6.808
 1350SOL    HW1 4949   5.639   4.593   6.799
 1350SOL    HW2 4950   5.540   4.499   6.889
 1351SOL     OW 4951   6.731   3.579   0.111
 1351SOL    HW1 4952   6.803   3.645   0.089
 1351SOL    HW2 4953   6.714   3.579   0.209
 1352SOL     OW 4954   7.006   1.203   3.908
 1352SOL    HW1 4955   6.962   1.114   3.901
 1352SOL    HW2 4956   6.971   1.263   3.836
 1353SOL     OW 4957   6.710   3.414   5.933
 1353SOL    HW1 4958   6.768   3.481   5.886
 1353SOL    HW2 4959   6.694   3.336   5.873
 1354SOL     OW 4960   5.064   4.843   3.267
 1354SOL    HW1 4961   5.004   4.790   3.208
 1354SOL    HW2 4962   5.089   4.789   3.348
 1355SOL     OW 4963   3.581   3.510   4.096
 1355SOL    HW1 4964   3.619   3.471   4.012
 1355SOL    HW2 4965   3.560   3.606   4.081
 1356SOL     OW 4966   3.036   3.061   6.593
 1356SOL    HW1 4967   2.950   3.087   6.548
 1356SOL    HW2 4968   3.108   3.125   6.568
 1357SOL     OW 4969   0.134   3.444   4.801
 1357SOL    HW1 4970   0.198   3.396   4.740
 1357SOL    HW2 4971   0.175   3.455   4.891
 1358SOL     OW 4972   2.145   6.408   6.069
 1358SOL    HW1 4973   2.049   6.393   6.095
 1358SOL    HW2 4974   2.196   6.442   6.148
 1359SOL     OW 4975   6.016   5.084   0.065
 1359SOL    HW1 4976   5.975   5.130   0.144
 1359SOL    HW2 4977   5.962   5.103   7.002
 1360SOL     OW 4978   2.251   1.872   6.327
 1360SOL    HW1 4979   2.317   1.803   6.357
 1360SOL    HW2 4980   2.266   1.957   6.377
 1361SOL     OW 4981   5.800   5.047   4.865
 1361SOL    HW1 4982   5.735   5.121   4.847
 1361SOL    HW2 4983   5.773   4.966   4.812
 1362SOL     OW 4984   3.050   3.892   4.288
 1362SOL    HW1 4985   3.038   3.867   4.192
 1362SOL    HW2 4986   2.997   3.829   4.346
 1363SOL     OW 4987   6.958   6.504   3.591
 1363SOL    HW1 4988   6.988   6.587   3.637
 1363SOL    HW2 4989   0.019   6.448   3.568
 1364SOL     OW 4990   3.511   4.103   0.133
 1364SOL    HW1 4991   3.472   4.136   0.219
 1364SOL    HW2 4992   3.605   4.136   0.124
 1365SOL     OW 4993   5.203   2.285   5.848
 1365SOL    HW1 4994   5.297   2.307   5.874
 1365SOL    HW2 4995   5.203   2.239   5.759
 1366SOL     OW 4996   1.400   1.129   4.660
 1366SOL    HW1 4997   1.314   1.079   4.649
 1366SOL    HW2 4998   1.407   1.165   4.753
 1367SOL     OW 4999   2.520   1.449   1.945
 1367SOL    HW1 5000   2.614   1.446   1.911
 1367SOL    HW2 5001   2.505   1.537   1.991
 1368SOL     OW 5002   7.000   1.006   3.304
 1368SOL    HW1 5003   0.080   1.001   3.315
 1368SOL    HW2 5004   6.958   0.923   3.342
 1369SOL     OW 5005   0.356   6.968   2.645
 1369SOL    HW1 5006   0.385   7.009   2.732
 1369SOL    HW2 5007   0.403   7.014   2.570
 1370SOL     OW 5008   0.889   1.052   2.833
 1370SOL    HW1 5009   0.921   0.964   2.868
 1370SOL    HW2 5010   0.861   1.110   2.910
 1371SOL     OW 5011   1.756   6.943   5.124
 1371SOL    HW1 5012   1.805   6.913   5.042
 1371SOL    HW2 5013   1.811   6.922   5.205
 1372SOL     OW 5014   3.073   1.866   1.236
 1372SOL    HW1 5015   3.171   1.884   1.236
 1372SOL    HW2 5016   3.032   1.901   1.151
 1373SOL     OW 5017   1.202   5.365   6.315
 1373SOL    HW1 5018   1.280   5.418   6.282
 1373SOL    HW2 5019   1.187   5.384   6.412
 1374SOL     OW 5020   5.648   3.569   4.406
 1374SOL    HW1 5021   5.578   3.602   4.343
 1374SOL    HW2 5022   5.671   3.641   4.471
 1375SOL     OW 5023   0.808   4.334   3.776
 1375SOL    HW1 5024   0.782   4.298   3.686
 1375SOL    HW2 5025   0.827   4.432   3.768
 1376SOL     OW 5026   5.347   0.290   2.467
 1376SOL    HW1 5027   5.367   0.225   2.394
 1376SOL    HW2 5028   5.334   0.241   2.553
 1377SOL     OW 5029   0.319   4.117   5.322
 1377SOL    HW1 5030   0.251   4.184   5.351
 1377SOL    HW2 5031   0.392   4.111   5.391
 1378SOL     OW 5032   1.715   1.762   0.633
 1378SOL    HW1 5033   1.752   1.847   0.672
 1378SOL    HW2 5034   1.773   1.733   0.557
 1379SOL     OW 5035   4.409   5.142   1.631
 1379SOL    HW1 5036   4.330   5.152   1.571
 1379SOL    HW2 5037   4.402   5.206   1.707
 1380SOL     OW 5038   6.289   5.218   3.010
 1380SOL    HW1 5039   6.324   5.162   2.935
 1380SOL    HW2 5040   6.250   5.158   3.080
 1381SOL     OW 5041   3.932   6.864   2.379
 1381SOL    HW1 5042   4.021   6.867   2.425
 1381SOL    HW2 5043   3.873   6.797   2.424
 1382SOL     OW 5044   6.642   4.290   0.589
 1382SOL    HW1 5045   6.638   4.210   0.530
 1382SOL    HW2 5046   6.641   4.373   0.533
 1383SOL     OW 5047   3.682   0.054   0.493
 1383SOL    HW1 5048   3.765   0.062   0.548
 1383SOL    HW2 5049   3.648   6.979   0.497
 1384SOL     OW 5050   0.936   1.208   2.525
 1384SOL    HW1 5051   1.032   1.234   2.519
 1384SOL    HW2 5052   0.930   1.112   2.554
 1385SOL     OW 5053   4.899   3.422   4.526
 1385SOL    HW1 5054   4.882   3.423   4.625
 1385SOL    HW2 5055   4.895   3.328   4.493
 1386SOL     OW 5056   2.556   2.552   3.021
 1386SOL    HW1 5057   2.589   2.506   3.103
 1386SOL    HW2 5058   2.510   2.637   3.047
 1387SOL     OW 5059   3.549   0.892   4.461
 1387SOL    HW1 5060   3.553   0.992   4.467
 1387SOL    HW2 5061   3.472   0.865   4.403
 1388SOL     OW 5062   4.903   2.451   3.735
 1388SOL    HW1 5063   4.854   2.457   3.648
 1388SOL    HW2 5064   4.973   2.523   3.739
 1389SOL     OW 5065   6.801   1.125   4.671
 1389SOL    HW1 5066   6.751   1.048   4.712
 1389SOL    HW2 5067   6.740   1.176   4.611
 1390SOL     OW 5068   5.693   2.348   2.510
 1390SOL    HW1 5069   5.765   2.286   2.478
 1390SOL    HW2 5070   5.665   2.408   2.436
 1391SOL     OW 5071   5.995   0.927   5.243
 1391SOL    HW1 5072   5.978   0.894   5.150
 1391SOL    HW2 5073   5.908   0.930   5.293
 1392SOL     OW 5074   2.810   6.771   4.816
 1392SOL    HW1 5075   2.786   6.822   4.734
 1392SOL    HW2 5076   2.728   6.756   4.871
 1393SOL     OW 5077   4.589   6.758   6.836
 1393SOL    HW1 5078   4.564   6.729   6.744
 1393SOL    HW2 5079   4.619   6.854   6.834
 1394SOL     OW 5080   4.155   1.242   5.072
 1394SOL    HW1 5081   4.063   1.258   5.038
 1394SOL    HW2 5082   4.171   1.297   5.154
 1395SOL     OW 5083   0.937   5.000   2.635
 1395SOL    HW1 5084   1.021   5.017   2.584
 1395SOL    HW2 5085   0.869   5.070   2.611
 1396SOL     OW 5086   1.599   1.708   3.101
 1396SOL    HW1 5087   1.546   1.780   3.056
 1396SOL    HW2 5088   1.616   1.734   3.196
 1397SOL     OW 5089   2.231   5.100   5.794
 1397SOL    HW1 5090   2.265   5.006   5.796
 1397SOL    HW2 5091   2.248   5.140   5.704
 1398SOL     OW 5092   3.165   6.798   6.152
 1398SOL    HW1 5093   3.179   6.816   6.249
 1398SOL    HW2 5094   3.108   6.870   6.113
 1399SOL     OW 5095   3.605   0.065   0.037
 1399SOL    HW1 5096   3.647   7.007   0.087
 1399SOL    HW2 5097   3.519   0.089   0.081
 1400SOL     OW 5098   0.288   2.395   5.862
 1400SOL    HW1 5099   0.287   2.366   5.958
 1400SOL    HW2 5100   0.359   2.345   5.813
 1401SOL     OW 5101   4.129   6.807   2.856
 1401SOL    HW1 5102   4.113   6.878   2.925
 1401SOL    HW2 5103   4.222   6.815   2.822
 1402SOL     OW 5104   5.314   3.859   2.629
 1402SOL    HW1 5105   5.244   3.903   2.573
 1402SOL    HW2 5106   5.381   3.927   2.658
 1403SOL     OW 5107   2.762   2.741   6.527
 1403SOL    HW1 5108   2.805   2.651   6.541
 1403SOL    HW2 5109   2.806   2.787   6.450
 1404SOL     OW 5110   3.959   5.771   6.861
 1404SOL    HW1 5111   4.015   5.853   6.848
 1404SOL    HW2 5112   3.863   5.798   6.872
 1405SOL     OW 5113   0.811   4.983   6.809
 1405SOL    HW1 5114   0.842   4.915   6.743
 1405SOL    HW2 5115   0.890   5.032   6.845
 1406SOL     OW 5116   1.720   2.323   0.336
 1406SOL    HW1 5117   1.706   2.422   0.334
 1406SOL    HW2 5118   1.818   2.304   0.341
 1407SOL     OW 5119   6.491   2.720   1.360
 1407SOL    HW1 5120   6.469   2.755   1.451
 1407SOL    HW2 5121   6.410   2.681   1.317
 1408SOL     OW 5122   5.871   5.928   1.478
 1408SOL    HW1 5123   5.927   5.954   1.557
 1408SOL    HW2 5124   5.884   5.994   1.405
 1409SOL     OW 5125   5.556   2.258   5.880
 1409SOL    HW1 5126   5.575   2.163   5.855
 1409SOL    HW2 5127   5.583   2.273   5.975
 1410SOL     OW 5128   3.634   0.484   0.709
 1410SOL    HW1 5129   3.581   0.456   0.629
 1410SOL    HW2 5130   3.574   0.492   0.788
 1411SOL     OW 5131   3.161   0.007   6.993
 1411SOL    HW1 5132   3.082   6.965   7.000
 1411SOL    HW2 5133   3.132   0.096   6.959
 1412SOL     OW 5134   1.474   0.857   6.187
 1412SOL    HW1 5135   1.522   0.855   6.099
 1412SOL    HW2 5136   1.393   0.915   6.179
 1413SOL     OW 5137   1.787   1.544   4.732
 1413SOL    HW1 5138   1.855   1.482   4.772
 1413SOL    HW2 5139   1.765   1.513   4.640
 1414SOL     OW 5140   0.461   5.311   2.689
 1414SOL    HW1 5141   0.539   5.364   2.722
 1414SOL    HW2 5142   0.465   5.218   2.726
 1415SOL     OW 5143   3.337   1.905   5.273
 1415SOL    HW1 5144   3.364   1.822   5.323
 1415SOL    HW2 5145   3.316   1.882   5.178
 1416SOL     OW 5146   4.078   0.528   5.110
 1416SOL    HW1 5147   4.008   0.461   5.088
 1416SOL    HW2 5148   4.091   0.590   5.032
 1417SOL     OW 5149   3.716   3.792   4.257
 1417SOL    HW1 5150   3.723   3.857   4.332
 1417SOL    HW2 5151   3.632   3.809   4.205
 1418SOL     OW 5152   3.319   3.805   5.620
 1418SOL    HW1 5153   3.356   3.828   5.530
 1418SOL    HW2 5154   3.222   3.783   5.611
 1419SOL     OW 5155   0.279   5.313   1.724
 1419SOL    HW1 5156   0.180   5.330   1.724
 1419SOL    HW2 5157   0.299   5.229   1.774
 1420SOL     OW 5158   2.303   6.817   3.819
 1420SOL    HW1 5159   2.233   6.856   3.880
 1420SOL    HW2 5160   2.381   6.787   3.874
 1421SOL     OW 5161   1.459   4.985   1.040
 1421SOL    HW1 5162   1.415   5.008   0.953
 1421SOL    HW2 5163   1.558   4.984   1.028
 1422SOL     OW 5164   1.431   3.417   6.848
 1422SOL    HW1 5165   1.371   3.464   6.783
 1422SOL    HW2 5166   1.526   3.443   6.831
 1423SOL     OW 5167   4.917   0.940   5.008
 1423SOL    HW1 5168   4.849   1.013   5.017
 1423SOL    HW2 5169   4.954   0.941   4.915
 1424SOL     OW 5170   6.233   4.156   1.574
 1424SOL    HW1 5171   6.222   4.255   1.586
 1424SOL    HW2 5172   6.284   4.138   1.489
 1425SOL     OW 5173   5.904   0.211   2.796
 1425SOL    HW1 5174   5.806   0.192   2.784
 1425SOL    HW2 5175   5.918   0.308   2.814
 1426SOL     OW 5176   3.732   0.746   0.836
 1426SOL    HW1 5177   3.659   0.717   0.898
 1426SOL    HW2 5178   3.736   0.683   0.758
 1427SOL     OW 5179   1.312   0.489   3.545
 1427SOL    HW1 5180   1.302   0.588   3.557
 1427SOL    HW2 5181   1.382   0.470   3.477
 1428SOL     OW 5182   2.256   4.118   4.047
 1428SOL    HW1 5183   2.240   4.021   4.029
 1428SOL    HW2 5184   2.302   4.128   4.135
 1429SOL     OW 5185   5.792   0.664   0.936
 1429SOL    HW1 5186   5.889   0.644   0.950
 1429SOL    HW2 5187   5.774   0.759   0.962
 1430SOL     OW 5188   2.209   4.042   4.522
 1430SOL    HW1 5189   2.183   4.014   4.615
 1430SOL    HW2 5190   2.183   3.969   4.458
 1431SOL     OW 5191   3.596   1.768   0.587
 1431SOL    HW1 5192   3.507   1.807   0.562
 1431SOL    HW2 5193   3.644   1.740   0.504
 1432SOL     OW 5194   2.840   0.117   2.449
 1432SOL    HW1 5195   2.753   0.167   2.442
 1432SOL    HW2 5196   2.911   0.169   2.403
 1433SOL     OW 5197   3.915   1.888   3.696
 1433SOL    HW1 5198   3.818   1.878   3.674
 1433SOL    HW2 5199   3.927   1.962   3.761
 1434SOL     OW 5200   6.256   3.403   0.974
 1434SOL    HW1 5201   6.281   3.354   1.058
 1434SOL    HW2 5202   6.238   3.336   0.902
 1435SOL     OW 5203   6.744   6.036   3.931
 1435SOL    HW1 5204   6.721   6.082   3.845
 1435SOL    HW2 5205   6.665   6.035   3.992
 1436SOL     OW 5206   6.144   0.493   6.688
 1436SOL    HW1 5207   6.216   0.436   6.728
 1436SOL    HW2 5208   6.069   0.504   6.753
 1437SOL     OW 5209   4.074   0.803   0.579
 1437SOL    HW1 5210   4.129   0.872   0.626
 1437SOL    HW2 5211   4.096   0.713   0.616
 1438SOL     OW 5212   2.713   6.907   3.746
 1438SOL    HW1 5213   2.791   6.849   3.768
 1438SOL    HW2 5214   2.744   6.997   3.716
 1439SOL     OW 5215   6.659   5.331   4.474
 1439SOL    HW1 5216   6.668   5.381   4.388
 1439SOL    HW2 5217   6.631   5.394   4.547
 1440SOL     OW 5218   3.625   3.026   2.251
 1440SOL    HW1 5219   3.536   2.981   2.257
 1440SOL    HW2 5220   3.659   3.045   2.342
 1441SOL     OW 5221   0.067   2.155   6.621
 1441SOL    HW1 5222   0.124   2.090   6.571
 1441SOL    HW2 5223   0.092   2.249   6.596
 1442SOL     OW 5224   5.514   5.946   0.028
 1442SOL    HW1 5225   5.422   5.979   0.049
 1442SOL    HW2 5226   5.548   5.992   6.965
 1443SOL     OW 5227   2.049   2.913   4.467
 1443SOL    HW1 5228   2.085   3.004   4.485
 1443SOL    HW2 5229   2.046   2.898   4.368
 1444SOL     OW 5230   4.387   6.765   4.771
 1444SOL    HW1 5231   4.296   6.761   4.812
 1444SOL    HW2 5232   4.403   6.682   4.719
 1445SOL     OW 5233   6.566   2.758   6.797
 1445SOL    HW1 5234   6.575   2.858   6.790
 1445SOL    HW2 5235   6.472   2.735   6.823
 1446SOL     OW 5236   2.798   6.088   2.461
 1446SOL    HW1 5237   2.843   6.169   2.498
 1446SOL    HW2 5238   2.799   6.015   2.529
 1447SOL     OW 5239   6.455   1.049   4.773
 1447SOL    HW1 5240   6.420   1.135   4.813
 1447SOL    HW2 5241   6.400   1.025   4.693
 1448SOL     OW 5242   5.099   1.659   1.143
 1448SOL    HW1 5243   5.047   1.580   1.111
 1448SOL    HW2 5244   5.067   1.741   1.095
 1449SOL     OW 5245   4.927   6.157   0.051
 1449SOL    HW1 5246   4.951   6.062   0.071
 1449SOL    HW2 5247   4.967   6.184   6.982
 1450SOL     OW 5248   5.482   1.396   4.303
 1450SOL    HW1 5249   5.540   1.475   4.282
 1450SOL    HW2 5250   5.433   1.367   4.220
 1451SOL     OW 5251   0.199   6.582   2.294
 1451SOL    HW1 5252   0.121   6.530   2.326
 1451SOL    HW2 5253   0.227   6.647   2.366
 1452SOL     OW 5254   1.538   0.167   6.467
 1452SOL    HW1 5255   1.531   0.077   6.511
 1452SOL    HW2 5256   1.456   0.220   6.486
 1453SOL     OW 5257   6.115   4.442   3.891
 1453SOL    HW1 5258   6.200   4.436   3.944
 1453SOL    HW2 5259   6.118   4.523   3.833
 1454SOL     OW 5260   6.160   4.420   1.674
 1454SOL    HW1 5261   6.065   4.387   1.668
 1454SOL    HW2 5262   6.179   4.479   1.596
 1455SOL     OW 5263   2.123   1.613   1.936
 1455SOL    HW1 5264   2.187   1.640   1.864
 1455SOL    HW2 5265   2.081   1.525   1.912
 1456SOL     OW 5266   5.319   5.021   5.049
 1456SOL    HW1 5267   5.344   5.107   5.005
 1456SOL    HW2 5268   5.399   4.961   5.054
 1457SOL     OW 5269   2.236   1.804   4.469
 1457SOL    HW1 5270   2.287   1.726   4.432
 1457SOL    HW2 5271   2.251   1.810   4.567
 1458SOL     OW 5272   6.266   5.457   6.580
 1458SOL    HW1 5273   6.204   5.518   6.628
 1458SOL    HW2 5274   6.360   5.475   6.609
 1459SOL     OW 5275   3.329   6.749   1.213
 1459SOL    HW1 5276   3.422   6.785   1.222
 1459SOL    HW2 5277   3.298   6.713   1.301
 1460SOL     OW 5278   0.694   1.440   6.798
 1460SOL    HW1 5279   0.666   1.351   6.761
 1460SOL    HW2 5280   0.672   1.444   6.895
 1461SOL     OW 5281   5.061   3.930   2.526
 1461SOL    HW1 5282   5.023   3.898   2.612
 1461SOL    HW2 5283   4.989   3.933   2.456
 1462SOL     OW 5284   5.771   0.517   5.361
 1462SOL    HW1 5285   5.840   0.509   5.432
 1462SOL    HW2 5286   5.815   0.513   5.271
 1463SOL     OW 5287   0.846   2.620   5.568
 1463SOL    HW1 5288   0.787   2.575   5.636
 1463SOL    HW2 5289   0.792   2.648   5.489
 1464SOL     OW 5290   0.545   0.778   1.136
 1464SOL    HW1 5291   0.466   0.832   1.163
 1464SOL    HW2 5292   0.572   0.719   1.212
 1465SOL     OW 5293   2.103   0.962   3.915
 1465SOL    HW1 5294   2.163   0.916   3.980
 1465SOL    HW2 5295   2.020   0.908   3.901
 1466SOL     OW 5296   5.941   6.087   4.783
 1466SOL    HW1 5297   6.001   6.036   4.721
 1466SOL    HW2 5298   5.989   6.104   4.869
 1467SOL     OW 5299   0.694   4.365   4.028
 1467SOL    HW1 5300   0.737   4.296   4.086
 1467SOL    HW2 5301   0.725   4.355   3.934
 1468SOL     OW 5302   4.885   0.007   2.699
 1468SOL    HW1 5303   4.977   7.001   2.668
 1468SOL    HW2 5304   4.836   0.052   2.624
 1469SOL     OW 5305   6.687   0.167   2.305
 1469SOL    HW1 5306   6.698   0.174   2.206
 1469SOL    HW2 5307   6.652   0.254   2.341
 1470SOL     OW 5308   6.800   0.856   2.081
 1470SOL    HW1 5309   6.719   0.908   2.053
 1470SOL    HW2 5310   6.851   0.827   2.000
 1471SOL     OW 5311   6.383   1.266   1.038
 1471SOL    HW1 5312   6.419   1.215   1.117
 1471SOL    HW2 5313   6.370   1.204   0.961
 1472SOL     OW 5314   4.804   4.901   4.471
 1472SOL    HW1 5315   4.771   4.864   4.385
 1472SOL    HW2 5316   4.729   4.907   4.537
 1473SOL     OW 5317   0.757   3.338   3.939
 1473SOL    HW1 5318   0.658   3.347   3.936
 1473SOL    HW2 5319   0.786   3.260   3.884
 1474SOL     OW 5320   4.818   6.155   2.232
 1474SOL    HW1 5321   4.848   6.243   2.267
 1474SOL    HW2 5322   4.895   6.090   2.233
 1475SOL     OW 5323   6.878   6.850   2.919
 1475SOL    HW1 5324   6.931   6.785   2.865
 1475SOL    HW2 5325   6.920   6.941   2.912
 1476SOL     OW 5326   0.798   2.093   0.587
 1476SOL    HW1 5327   0.894   2.121   0.596
 1476SOL    HW2 5328   0.792   2.013   0.527
 1477SOL     OW 5329   2.562   6.584   4.287
 1477SOL    HW1 5330   2.588   6.581   4.384
 1477SOL    HW2 5331   2.476   6.535   4.274
 1478SOL     OW 5332   0.106   4.104   0.982
 1478SOL    HW1 5333   0.058   4.191   0.972
 1478SOL    HW2 5334   0.064   4.050   1.055
 1479SOL     OW 5335   1.147   4.891   0.026
 1479SOL    HW1 5336   1.088   4.829   6.994
 1479SOL    HW2 5337   1.215   4.931   6.984
 1480SOL     OW 5338   3.514   0.463   6.901
 1480SOL    HW1 5339   3.487   0.415   6.817
 1480SOL    HW2 5340   3.432   0.488   6.952
 1481SOL     OW 5341   0.186   2.836   0.926
 1481SOL    HW1 5342   0.214   2.876   1.014
 1481SOL    HW2 5343   0.106   2.778   0.940
 1482SOL     OW 5344   6.039   0.468   5.762
 1482SOL    HW1 5345   6.127   0.468   5.810
 1482SOL    HW2 5346   5.999   0.559   5.766
 1483SOL     OW 5347   0.294   2.019   0.742
 1483SOL    HW1 5348   0.237   2.011   0.661
 1483SOL    HW2 5349   0.254   2.086   0.805
 1484SOL     OW 5350   5.490   0.020   3.114
 1484SOL    HW1 5351   5.540   0.096   3.071
 1484SOL    HW2 5352   5.445   0.053   3.197
 1485SOL     OW 5353   5.542   4.162   4.774
 1485SOL    HW1 5354   5.631   4.203   4.756
 1485SOL    HW2 5355   5.499   4.136   4.687
 1486SOL     OW 5356   5.089   2.901   1.857
 1486SOL    HW1 5357   5.134   2.956   1.928
 1486SOL    HW2 5358   5.128   2.922   1.768
 1487SOL     OW 5359   0.583   6.867   5.609
 1487SOL    HW1 5360   0.669   6.902   5.647
 1487SOL    HW2 5361   0.585   6.767   5.612
 1488SOL     OW 5362   4.519   2.217   3.739
 1488SOL    HW1 5363   4.578   2.291   3.772
 1488SOL    HW2 5364   4.425   2.234   3.768
 1489SOL     OW 5365   3.609   5.488   4.932
 1489SOL    HW1 5366   3.702   5.490   4.896
 1489SOL    HW2 5367   3.566   5.400   4.911
 1490SOL     OW 5368   2.867   2.838   0.763
 1490SOL    HW1 5369   2.942   2.780   0.731
 1490SOL    HW2 5370   2.806   2.858   0.687
 1491SOL     OW 5371   1.482   1.629   4.049
 1491SOL    HW1 5372   1.528   1.574   4.118
 1491SOL    HW2 5373   1.454   1.716   4.089
 1492SOL     OW 5374   6.837   2.322   1.675
 1492SOL    HW1 5375   6.831   2.380   1.756
 1492SOL    HW2 5376   6.870   2.377   1.598
 1493SOL     OW 5377   6.672   3.477   4.846
 1493SOL    HW1 5378   6.653   3.557   4.903
 1493SOL    HW2 5379   6.604   3.406   4.864
 1494SOL     OW 5380   5.660   2.091   4.016
 1494SOL    HW1 5381   5.578   2.068   4.069
 1494SOL    HW2 5382   5.675   2.190   4.019
 1495SOL     OW 5383   1.378   4.052   1.506
 1495SOL    HW1 5384   1.363   3.975   1.444
 1495SOL    HW2 5385   1.468   4.043   1.549
 1496SOL     OW 5386   6.936   0.085   2.832
 1496SOL    HW1 5387   0.015   0.089   2.813
 1496SOL    HW2 5388   6.885   0.105   2.749
 1497SOL     OW 5389   5.450   4.116   5.848
 1497SOL    HW1 5390   5.391   4.114   5.929
 1497SOL    HW2 5391   5.406   4.168   5.775
 1498SOL     OW 5392   2.951   5.587   6.460
 1498SOL    HW1 5393   3.041   5.577   6.418
 1498SOL    HW2 5394   2.948   5.534   6.544
 1499SOL     OW 5395   1.705   4.115   3.901
 1499SOL    HW1 5396   1.628   4.082   3.956
 1499SOL    HW2 5397   1.682   4.202   3.858
 1500SOL     OW 5398   4.072   6.023   5.386
 1500SOL    HW1 5399   4.103   5.974   5.304
 1500SOL    HW2 5400   3.973   6.023   5.390
 1501SOL     OW 5401   3.721   1.333   1.470
 1501SOL    HW1 5402   3.708   1.238   1.500
 1501SOL    HW2 5403   3.633   1.371   1.441
 1502SOL     OW 5404   6.636   0.467   6.559
 1502SOL    HW1 5405   6.641   0.426   6.468
 1502SOL    HW2 5406   6.702   0.422   6.619
 1503SOL     OW 5407   3.550   3.544   5.141
 1503SOL    HW1 5408   3.602   3.506   5.217
 1503SOL    HW2 5409   3.604   3.614   5.095
 1504SOL     OW 5410   2.950   0.684   3.430
 1504SOL    HW1 5411   3.038   0.716   3.396
 1504SOL    HW2 5412   2.949   0.584   3.433
 1505SOL     OW 5413   5.726   6.308   3.225
 1505SOL    HW1 5414   5.780   6.334   3.145
 1505SOL    HW2 5415   5.786   6.303   3.306
 1506SOL     OW 5416   6.808   0.307   3.763
 1506SOL    HW1 5417   6.816   0.305   3.664
 1506SOL    HW2 5418   6.789   0.401   3.793
 1507SOL     OW 5419   2.365   1.796   6.666
 1507SOL    HW1 5420   2.444   1.827   6.719
 1507SOL    HW2 5421   2.395   1.765   6.576
 1508SOL     OW 5422   4.129   6.363   0.721
 1508SOL    HW1 5423   4.140   6.411   0.807
 1508SOL    HW2 5424   4.151   6.266   0.733
 1509SOL     OW 5425   5.115   2.224   6.239
 1509SOL    HW1 5426   5.038   2.184   6.288
 1509SOL    HW2 5427   5.082   2.271   6.157
 1510SOL     OW 5428   6.891   1.995   2.493
 1510SOL    HW1 5429   6.807   1.945   2.470
 1510SOL    HW2 5430   6.965   1.930   2.507
 1511SOL     OW 5431   7.004   2.445   0.537
 1511SOL    HW1 5432   0.025   2.512   0.473
 1511SOL    HW2 5433   6.919   2.410   0.499
 1512SOL     OW 5434   0.497   0.587   3.013
 1512SOL    HW1 5435   0.508   0.519   3.086
 1512SOL    HW2 5436   0.481   0.539   2.926
 1513SOL     OW 5437   2.517   0.520   2.724
 1513SOL    HW1 5438   2.519   0.570   2.810
 1513SOL    HW2 5439   2.608   0.486   2.703
 1514SOL     OW 5440   4.388   0.387   5.794
 1514SOL    HW1 5441   4.436   0.422   5.874
 1514SOL    HW2 5442   4.371   0.289   5.805
 1515SOL     OW 5443   5.436   5.521   5.351
 1515SOL    HW1 5444   5.375   5.486   5.280
 1515SOL    HW2 5445   5.461   5.616   5.329
 1516SOL     OW 5446   6.164   2.208   2.498
 1516SOL    HW1 5447   6.168   2.197   2.398
 1516SOL    HW2 5448   6.161   2.118   2.541
 1517SOL     OW 5449   2.760   5.319   1.782
 1517SOL    HW1 5450   2.827   5.351   1.849
 1517SOL    HW2 5451   2.776   5.222   1.764
 1518SOL     OW 5452   1.082   4.911   0.624
 1518SOL    HW1 5453   1.100   4.982   0.556
 1518SOL    HW2 5454   0.987   4.919   0.656
 1519SOL     OW 5455   1.048   4.287   1.358
 1519SOL    HW1 5456   0.960   4.334   1.366
 1519SOL    HW2 5457   1.042   4.197   1.401
 1520SOL     OW 5458   1.748   4.146   2.690
 1520SOL    HW1 5459   1.659   4.142   2.644
 1520SOL    HW2 5460   1.808   4.076   2.651
 1521SOL     OW 5461   2.036   5.789   5.570
 1521SOL    HW1 5462   2.006   5.853   5.641
 1521SOL    HW2 5463   1.961   5.727   5.548
 1522SOL     OW 5464   1.396   1.892   6.031
 1522SOL    HW1 5465   1.332   1.948   6.083
 1522SOL    HW2 5466   1.417   1.809   6.082
 1523SOL     OW 5467   5.273   1.254   0.500
 1523SOL    HW1 5468   5.242   1.342   0.464
 1523SOL    HW2 5469   5.199   1.212   0.553
 1524SOL     OW 5470   1.108   1.951   1.610
 1524SOL    HW1 5471   1.187   2.004   1.578
 1524SOL    HW2 5472   1.140   1.868   1.655
 1525SOL     OW 5473   4.491   2.116   5.465
 1525SOL    HW1 5474   4.567   2.051   5.456
 1525SOL    HW2 5475   4.508   2.176   5.543
 1526SOL     OW 5476   5.590   2.601   0.840
 1526SOL    HW1 5477   5.573   2.507   0.870
 1526SOL    HW2 5478   5.504   2.648   0.823
 1527SOL     OW 5479   1.723   0.125   4.849
 1527SOL    HW1 5480   1.711   0.079   4.937
 1527SOL    HW2 5481   1.820   0.140   4.833
 1528SOL     OW 5482   5.089   5.886   3.304
 1528SOL    HW1 5483   5.172   5.836   3.329
 1528SOL    HW2 5484   5.009   5.833   3.332
 1529SOL     OW 5485   0.884   6.491   5.562
 1529SOL    HW1 5486   0.974   6.448   5.557
 1529SOL    HW2 5487   0.829   6.461   5.484
 1530SOL     OW 5488   3.518   6.892   1.330
 1530SOL    HW1 5489   3.545   6.972   1.275
 1530SOL    HW2 5490   3.494   6.921   1.422
 1531SOL     OW 5491   5.374   1.387   6.625
 1531SOL    HW1 5492   5.306   1.440   6.575
 1531SOL    HW2 5493   5.441   1.448   6.667
 1532SOL     OW 5494   2.823   1.054   5.028
 1532SOL    HW1 5495   2.858   0.992   4.958
 1532SOL    HW2 5496   2.735   1.022   5.061
 1533SOL     OW 5497   4.172   2.844   1.194
 1533SOL    HW1 5498   4.210   2.843   1.287
 1533SOL    HW2 5499   4.076   2.870   1.198
 1534SOL     OW 5500   6.013   0.354   0.317
 1534SOL    HW1 5501   5.997   0.259   0.292
 1534SOL    HW2 5502   6.073   0.397   0.249
 1535SOL     OW 5503   4.593   4.520   4.563
 1535SOL    HW1 5504   4.620   4.443   4.620
 1535SOL    HW2 5505   4.574   4.488   4.470
 1536SOL     OW 5506   2.764   6.131   2.843
 1536SOL    HW1 5507   2.760   6.084   2.931
 1536SOL    HW2 5508   2.680   6.185   2.830
 1537SOL     OW 5509   1.410   5.710   4.742
 1537SOL    HW1 5510   1.385   5.650   4.666
 1537SOL    HW2 5511   1.510   5.709   4.754
 1538SOL     OW 5512   3.618   6.267   0.448
 1538SOL    HW1 5513   3.641   6.335   0.517
 1538SOL    HW2 5514   3.534   6.294   0.401
 1539SOL     OW 5515   2.155   6.767   1.430
 1539SOL    HW1 5516   2.250   6.741   1.415
 1539SOL    HW2 5517   2.110   6.697   1.486
 1540SOL     OW 5518   6.353   1.014   5.985
 1540SOL    HW1 5519   6.385   1.107   5.999
 1540SOL    HW2 5520   6.270   1.015   5.929
 1541SOL     OW 5521   5.123   1.742   2.279
 1541SOL    HW1 5522   5.206   1.791   2.253
 1541SOL    HW2 5523   5.043   1.795   2.251
 1542SOL     OW 5524   0.234   4.940   1.042
 1542SOL    HW1 5525   0.149   4.991   1.033
 1542SOL    HW2 5526   0.301   4.994   1.093
 1543SOL     OW 5527   3.617   2.864   2.625
 1543SOL    HW1 5528   3.654   2.955   2.608
 1543SOL    HW2 5529   3.669   2.797   2.572
 1544SOL     OW 5530   3.520   3.434   1.569
 1544SOL    HW1 5531   3.448   3.365   1.567
 1544SOL    HW2 5532   3.557   3.441   1.661
 1545SOL     OW 5533   0.746   6.231   5.876
 1545SOL    HW1 5534   0.782   6.301   5.937
 1545SOL    HW2 5535   0.770   6.140   5.911
 1546SOL     OW 5536   0.056   6.364   1.102
 1546SOL    HW1 5537   0.108   6.366   1.187
 1546SOL    HW2 5538   0.053   6.457   1.063
 1547SOL     OW 5539   2.521   6.544   0.631
 1547SOL    HW1 5540   2.426   6.575   0.626
 1547SOL    HW2 5541   2.563   6.577   0.715
 1548SOL     OW 5542   6.177   4.262   3.406
 1548SOL    HW1 5543   6.111   4.293   3.474
 1548SOL    HW2 5544   6.133   4.255   3.317
 1549SOL     OW 5545   5.943   1.892   1.646
 1549SOL    HW1 5546   5.911   1.923   1.557
 1549SOL    HW2 5547   5.914   1.798   1.661
 1550SOL     OW 5548   2.766   4.683   2.252
 1550SOL    HW1 5549   2.826   4.753   2.291
 1550SOL    HW2 5550   2.807   4.647   2.169
 1551SOL     OW 5551   1.279   1.814   2.100
 1551SOL    HW1 5552   1.360   1.783   2.050
 1551SOL    HW2 5553   1.227   1.734   2.131
 1552SOL     OW 5554   1.664   6.305   2.315
 1552SOL    HW1 5555   1.564   6.303   2.305
 1552SOL    HW2 5556   1.707   6.297   2.225
 1553SOL     OW 5557   5.945   1.719   5.491
 1553SOL    HW1 5558   6.040   1.750   5.484
 1553SOL    HW2 5559   5.889   1.764   5.421
 1554SOL     OW 5560   2.587   3.168   0.036
 1554SOL    HW1 5561   2.626   3.188   0.126
 1554SOL    HW2 5562   2.661   3.145   6.992
 1555SOL     OW 5563   4.313   1.174   1.270
 1555SOL    HW1 5564   4.231   1.164   1.326
 1555SOL    HW2 5565   4.287   1.193   1.175
 1556SOL     OW 5566   2.526   2.110   0.253
 1556SOL    HW1 5567   2.577   2.150   0.330
 1556SOL    HW2 5568   2.432   2.094   0.281
 1557SOL     OW 5569   2.705   2.234   1.221
 1557SOL    HW1 5570   2.755   2.159   1.179
 1557SOL    HW2 5571   2.737   2.321   1.183
 1558SOL     OW 5572   4.883   1.857   0.020
 1558SOL    HW1 5573   4.849   1.949   0.039
 1558SOL    HW2 5574   4.921   1.817   0.103
 1559SOL     OW 5575   2.443   5.863   3.937
 1559SOL    HW1 5576   2.515   5.896   3.876
 1559SOL    HW2 5577   2.421   5.768   3.915
 1560SOL     OW 5578   4.934   3.223   1.591
 1560SOL    HW1 5579   4.907   3.223   1.687
 1560SOL    HW2 5580   4.884   3.152   1.542
 1561SOL     OW 5581   5.903   6.557   1.353
 1561SOL    HW1 5582   5.998   6.555   1.382
 1561SOL    HW2 5583   5.897   6.583   1.257
 1562SOL     OW 5584   2.691   6.894   3.160
 1562SOL    HW1 5585   2.638   6.882   3.076
 1562SOL    HW2 5586   2.714   6.991   3.172
 1563SOL     OW 5587   2.140   4.726   3.898
 1563SOL    HW1 5588   2.087   4.661   3.953
 1563SOL    HW2 5589   2.208   4.677   3.843
 1564SOL     OW 5590   2.318   1.913   3.009
 1564SOL    HW1 5591   2.223   1.920   2.979
 1564SOL    HW2 5592   2.357   1.826   2.976
 1565SOL     OW 5593   5.773   2.076   5.304
 1565SOL    HW1 5594   5.766   1.997   5.244
 1565SOL    HW2 5595   5.774   2.160   5.249
 1566SOL     OW 5596   1.088   3.268   3.294
 1566SOL    HW1 5597   1.034   3.198   3.248
 1566SOL    HW2 5598   1.166   3.294   3.236
 1567SOL     OW 5599   5.500   1.216   4.006
 1567SOL    HW1 5600   5.587   1.261   4.026
 1567SOL    HW2 5601   5.491   1.202   3.908
 1568SOL     OW 5602   2.065   5.040   0.786
 1568SOL    HW1 5603   2.126   4.965   0.760
 1568SOL    HW2 5604   2.047   5.036   0.884
 1569SOL     OW 5605   2.202   1.131   2.136
 1569SOL    HW1 5606   2.281   1.151   2.193
 1569SOL    HW2 5607   2.188   1.031   2.131
 1570SOL     OW 5608   2.420   5.875   5.779
 1570SOL    HW1 5609   2.479   5.916   5.848
 1570SOL    HW2 5610   2.476   5.833   5.708
 1571SOL     OW 5611   1.467   1.644   4.452
 1571SOL    HW1 5612   1.556   1.660   4.494
 1571SOL    HW2 5613   1.436   1.552   4.472
 1572SOL     OW 5614   2.737   5.459   3.788
 1572SOL    HW1 5615   2.804   5.396   3.827
 1572SOL    HW2 5616   2.645   5.429   3.811
 1573SOL     OW 5617   5.832   6.040   6.766
 1573SOL    HW1 5618   5.748   6.084   6.797
 1573SOL    HW2 5619   5.814   5.944   6.744
 1574SOL     OW 5620   0.498   2.360   3.465
 1574SOL    HW1 5621   0.547   2.274   3.480
 1574SOL    HW2 5622   0.560   2.427   3.424
 1575SOL     OW 5623   6.788   2.332   0.440
 1575SOL    HW1 5624   6.749   2.255   0.491
 1575SOL    HW2 5625   6.719   2.404   0.430
 1576SOL     OW 5626   1.070   6.329   2.640
 1576SOL    HW1 5627   1.032   6.237   2.642
 1576SOL    HW2 5628   1.133   6.339   2.563
 1577SOL     OW 5629   4.750   5.587   4.179
 1577SOL    HW1 5630   4.715   5.508   4.129
 1577SOL    HW2 5631   4.798   5.648   4.116
 1578SOL     OW 5632   5.602   1.684   2.211
 1578SOL    HW1 5633   5.663   1.655   2.285
 1578SOL    HW2 5634   5.527   1.619   2.203
 1579SOL     OW 5635   1.869   3.937   2.603
 1579SOL    HW1 5636   1.797   3.885   2.556
 1579SOL    HW2 5637   1.950   3.943   2.545
 1580SOL     OW 5638   3.400   3.182   4.425
 1580SOL    HW1 5639   3.367   3.267   4.385
 1580SOL    HW2 5640   3.489   3.159   4.385
 1581SOL     OW 5641   5.385   3.663   5.310
 1581SOL    HW1 5642   5.463   3.707   5.266
 1581SOL    HW2 5643   5.305   3.722   5.305
 1582SOL     OW 5644   3.924   6.625   4.101
 1582SOL    HW1 5645   3.936   6.595   4.196
 1582SOL    HW2 5646   3.971   6.562   4.040
 1583SOL     OW 5647   0.133   5.117   4.556
 1583SOL    HW1 5648   0.179   5.128   4.468
 1583SOL    HW2 5649   0.051   5.061   4.545
 1584SOL     OW 5650   0.623   4.695   0.538
 1584SOL    HW1 5651   0.623   4.618   0.474
 1584SOL    HW2 5652   0.596   4.662   0.628
 1585SOL     OW 5653   4.113   6.509   4.479
 1585SOL    HW1 5654   4.128   6.469   4.389
 1585SOL    HW2 5655   4.197   6.503   4.533
 1586SOL     OW 5656   2.798   6.020   3.106
 1586SOL    HW1 5657   2.813   6.071   3.190
 1586SOL    HW2 5658   2.726   5.953   3.120
 1587SOL     OW 5659   4.166   0.876   6.948
 1587SOL    HW1 5660   4.143   0.940   6.875
 1587SOL    HW2 5661   4.175   0.784   6.909
 1588SOL     OW 5662   6.366   1.500   3.925
 1588SOL    HW1 5663   6.356   1.404   3.951
 1588SOL    HW2 5664   6.306   1.557   3.981
 1589SOL     OW 5665   0.025   0.840   3.716
 1589SOL    HW1 5666   0.073   0.793   3.789
 1589SOL    HW2 5667   6.965   0.786   3.687
 1590SOL     OW 5668   5.561   6.941   4.125
 1590SOL    HW1 5669   5.630   6.909   4.059
 1590SOL    HW2 5670   5.600   7.014   4.181
 1591SOL     OW 5671   6.811   4.752   0.630
 1591SOL    HW1 5672   6.746   4.803   0.688
 1591SOL    HW2 5673   6.877   4.815   0.591
 1592SOL     OW 5674   6.780   4.622   4.057
 1592SOL    HW1 5675   6.866   4.572   4.069
 1592SOL    HW2 5676   6.716   4.565   4.005
 1593SOL     OW 5677   4.129   5.232   1.106
 1593SOL    HW1 5678   4.117   5.185   1.018
 1593SOL    HW2 5679   4.072   5.314   1.108
 1594SOL     OW 5680   5.512   1.112   3.105
 1594SOL    HW1 5681   5.414   1.129   3.113
 1594SOL    HW2 5682   5.535   1.025   3.147
 1595SOL     OW 5683   6.862   3.940   0.673
 1595SOL    HW1 5684   6.766   3.933   0.700
 1595SOL    HW2 5685   6.888   4.037   0.669
 1596SOL     OW 5686   5.338   4.441   4.580
 1596SOL    HW1 5687   5.349   4.371   4.509
 1596SOL    HW2 5688   5.384   4.413   4.663
 1597SOL     OW 5689   4.074   6.626   1.006
 1597SOL    HW1 5690   4.094   6.676   1.090
 1597SOL    HW2 5691   4.140   6.552   0.995
 1598SOL     OW 5692   0.759   5.982   5.973
 1598SOL    HW1 5693   0.832   5.921   6.002
 1598SOL    HW2 5694   0.706   5.939   5.899
 1599SOL     OW 5695   5.169   5.440   3.983
 1599SOL    HW1 5696   5.211   5.505   4.046
 1599SOL    HW2 5697   5.157   5.482   3.894
 1600SOL     OW 5698   4.972   1.145   1.424
 1600SOL    HW1 5699   5.028   1.162   1.505
 1600SOL    HW2 5700   4.975   1.048   1.401
 1601SOL     OW 5701   5.985   0.607   5.197
 1601SOL    HW1 5702   6.016   0.536   5.134
 1601SOL    HW2 5703   5.976   0.693   5.148
 1602SOL     OW 5704   3.458   6.087   3.335
 1602SOL    HW1 5705   3.404   6.153   3.387
 1602SOL    HW2 5706   3.531   6.135   3.286
 1603SOL     OW 5707   3.050   5.598   1.562
 1603SOL    HW1 5708   3.024   5.509   1.599
 1603SOL    HW2 5709   3.046   5.666   1.635
 1604SOL     OW 5710   4.443   5.448   1.589
 1604SOL    HW1 5711   4.541   5.433   1.602
 1604SOL    HW2 5712   4.416   5.532   1.635
 1605SOL     OW 5713   3.777   4.731   0.247
 1605SOL    HW1 5714   3.689   4.734   0.199
 1605SOL    HW2 5715   3.767   4.776   0.336
 1606SOL     OW 5716   4.881   5.452   4.974
 1606SOL    HW1 5717   4.823   5.438   5.054
 1606SOL    HW2 5718   4.824   5.459   4.893
 1607SOL     OW 5719   4.540   4.425   4.308
 1607SOL    HW1 5720   4.470   4.356   4.293
 1607SOL    HW2 5721   4.629   4.390   4.279
 1608SOL     OW 5722   6.519   3.190   2.750
 1608SOL    HW1 5723   6.471   3.105   2.771
 1608SOL    HW2 5724   6.604   3.169   2.702
 1609SOL     OW 5725   1.235   0.126   1.065
 1609SOL    HW1 5726   1.191   0.092   0.982
 1609SOL    HW2 5727   1.331   0.147   1.045
 1610SOL     OW 5728   5.425   5.253   0.805
 1610SOL    HW1 5729   5.406   5.348   0.781
 1610SOL    HW2 5730   5.473   5.250   0.893
 1611SOL     OW 5731   0.513   4.647   0.135
 1611SOL    HW1 5732   0.450   4.705   0.085
 1611SOL    HW2 5733   0.592   4.700   0.164
 1612SOL     OW 5734   5.449   0.612   2.282
 1612SOL    HW1 5735   5.372   0.572   2.332
 1612SOL    HW2 5736   5.488   0.544   2.220
 1613SOL     OW 5737   6.680   6.412   2.906
 1613SOL    HW1 5738   6.769   6.366   2.914
 1613SOL    HW2 5739   6.695   6.511   2.904
 1614SOL     OW 5740   6.099   1.049   5.870
 1614SOL    HW1 5741   6.115   1.107   5.790
 1614SOL    HW2 5742   6.080   1.107   5.949
 1615SOL     OW 5743   6.416   3.442   5.829
 1615SOL    HW1 5744   6.353   3.403   5.761
 1615SOL    HW2 5745   6.450   3.369   5.888
 1616SOL     OW 5746   1.811   1.067   3.608
 1616SOL    HW1 5747   1.733   1.126   3.588
 1616SOL    HW2 5748   1.864   1.052   3.524
 1617SOL     OW 5749   0.083   6.372   4.199
 1617SOL    HW1 5750   0.065   6.336   4.290
 1617SOL    HW2 5751   0.182   6.378   4.184
 1618SOL     OW 5752   3.400   5.452   2.890
 1618SOL    HW1 5753   3.313   5.464   2.843
 1618SOL    HW2 5754   3.388   5.472   2.987
 1619SOL     OW 5755   1.376   4.026   6.092
 1619SOL    HW1 5756   1.392   4.103   6.154
 1619SOL    HW2 5757   1.434   3.949   6.119
 1620SOL     OW 5758   2.853   6.906   4.583
 1620SOL    HW1 5759   2.800   6.989   4.563
 1620SOL    HW2 5760   2.946   6.932   4.608
 1621SOL     OW 5761   5.180   5.130   0.820
 1621SOL    HW1 5762   5.133   5.090   0.741
 1621SOL    HW2 5763   5.268   5.166   0.791
 1622SOL     OW 5764   6.555   3.402   3.809
 1622SOL    HW1 5765   6.588   3.344   3.884
 1622SOL    HW2 5766   6.542   3.347   3.727
 1623SOL     OW 5767   0.462   2.480   3.862
 1623SOL    HW1 5768   0.405   2.400   3.842
 1623SOL    HW2 5769   0.546   2.475   3.808
 1624SOL     OW 5770   4.451   3.055   0.185
 1624SOL    HW1 5771   4.452   3.064   0.085
 1624SOL    HW2 5772   4.489   3.138   0.226
 1625SOL     OW 5773   1.091   6.431   0.462
 1625SOL    HW1 5774   1.018   6.451   0.396
 1625SOL    HW2 5775   1.129   6.516   0.496
 1626SOL     OW 5776   3.003   1.484   1.925
 1626SOL    HW1 5777   2.970   1.410   1.984
 1626SOL    HW2 5778   3.025   1.564   1.980
 1627SOL     OW 5779   4.432   1.011   5.735
 1627SOL    HW1 5780   4.353   1.069   5.756
 1627SOL    HW2 5781   4.491   1.058   5.668
 1628SOL     OW 5782   5.603   5.765   1.083
 1628SOL    HW1 5783   5.620   5.732   1.176
 1628SOL    HW2 5784   5.672   5.727   1.021
 1629SOL     OW 5785   1.784   6.244   2.083
 1629SOL    HW1 5786   1.789   6.338   2.051
 1629SOL    HW2 5787   1.843   6.186   2.027
 1630SOL     OW 5788   0.389   4.665   5.913
 1630SOL    HW1 5789   0.323   4.594   5.889
 1630SOL    HW2 5790   0.357   4.714   5.994
 1631SOL     OW 5791   4.947   4.387   6.597
 1631SOL    HW1 5792   4.964   4.293   6.569
 1631SOL    HW2 5793   4.883   4.430   6.532
 1632SOL     OW 5794   6.431   5.282   2.196
 1632SOL    HW1 5795   6.387   5.199   2.231
 1632SOL    HW2 5796   6.395   5.302   2.105
 1633SOL     OW 5797   6.664   4.167   5.224
 1633SOL    HW1 5798   6.571   4.129   5.225
 1633SOL    HW2 5799   6.673   4.230   5.146
 1634SOL     OW 5800   1.145   4.121   5.903
 1634SOL    HW1 5801   1.112   4.209   5.938
 1634SOL    HW2 5802   1.239   4.106   5.935
 1635SOL     OW 5803   2.724   1.285   3.779
 1635SOL    HW1 5804   2.645   1.256   3.832
 1635SOL    HW2 5805   2.705   1.373   3.736
 1636SOL     OW 5806   7.009   6.158   1.937
 1636SOL    HW1 5807   0.028   6.195   1.852
 1636SOL    HW2 5808   0.063   6.117   1.991
 1637SOL     OW 5809   1.438   1.066   1.504
 1637SOL    HW1 5810   1.369   1.060   1.432
 1637SOL    HW2 5811   1.394   1.085   1.591
 1638SOL     OW 5812   5.509   1.836   3.917
 1638SOL    HW1 5813   5.449   1.884   3.852
 1638SOL    HW2 5814   5.464   1.831   4.006
 1639SOL     OW 5815   5.038   1.953   1.235
 1639SOL    HW1 5816   5.093   1.933   1.154
 1639SOL    HW2 5817   4.974   2.027   1.214
 1640SOL     OW 5818   6.510   1.349   6.213
 1640SOL    HW1 5819   6.494   1.326   6.117
 1640SOL    HW2 5820   6.426   1.384   6.254
 1641SOL     OW 5821   6.397   1.171   2.705
 1641SOL    HW1 5822   6.449   1.198   2.624
 1641SOL    HW2 5823   6.345   1.087   2.684
 1642SOL     OW 5824   0.287   3.707   6.792
 1642SOL    HW1 5825   0.378   3.690   6.831
 1642SOL    HW2 5826   0.286   3.798   6.749
 1643SOL     OW 5827   2.363   5.484   4.260
 1643SOL    HW1 5828   2.287   5.505   4.200
 1643SOL    HW2 5829   2.419   5.566   4.273
 1644SOL     OW 5830   5.813   1.663   1.672
 1644SOL    HW1 5831   5.806   1.656   1.572
 1644SOL    HW2 5832   5.803   1.573   1.713
 1645SOL     OW 5833   2.462   1.302   3.925
 1645SOL    HW1 5834   2.464   1.331   4.021
 1645SOL    HW2 5835   2.403   1.363   3.873
 1646SOL     OW 5836   6.819   5.448   1.819
 1646SOL    HW1 5837   6.861   5.539   1.818
 1646SOL    HW2 5838   6.720   5.458   1.809
 1647SOL     OW 5839   7.011   3.838   5.413
 1647SOL    HW1 5840   6.920   3.879   5.402
 1647SOL    HW2 5841   0.029   3.815   5.324
 1648SOL     OW 5842   5.844   5.700   1.772
 1648SOL    HW1 5843   5.880   5.745   1.853
 1648SOL    HW2 5844   5.768   5.754   1.735
 1649SOL     OW 5845   3.666   0.674   3.529
 1649SOL    HW1 5846   3.756   0.674   3.573
 1649SOL    HW2 5847   3.602   0.727   3.585
 1650SOL     OW 5848   2.640   2.906   5.767
 1650SOL    HW1 5849   2.698   2.979   5.730
 1650SOL    HW2 5850   2.607   2.933   5.857
 1651SOL     OW 5851   1.815   1.998   4.341
 1651SOL    HW1 5852   1.893   1.992   4.279
 1651SOL    HW2 5853   1.733   2.022   4.291
 1652SOL     OW 5854   0.645   4.295   1.711
 1652SOL    HW1 5855   0.642   4.273   1.809
 1652SOL    HW2 5856   0.560   4.338   1.683
 1653SOL     OW 5857   5.793   3.964   1.334
 1653SOL    HW1 5858   5.785   4.026   1.257
 1653SOL    HW2 5859   5.879   3.912   1.327
 1654SOL     OW 5860   0.257   3.037   1.687
 1654SOL    HW1 5861   0.352   3.050   1.715
 1654SOL    HW2 5862   0.233   3.103   1.616
 1655SOL     OW 5863   6.380   0.511   5.696
 1655SOL    HW1 5864   6.362   0.467   5.783
 1655SOL    HW2 5865   6.322   0.592   5.687
 1656SOL     OW 5866   1.966   4.463   2.937
 1656SOL    HW1 5867   2.026   4.504   3.006
 1656SOL    HW2 5868   1.872   4.463   2.971
 1657SOL     OW 5869   0.402   1.665   6.356
 1657SOL    HW1 5870   0.449   1.750   6.332
 1657SOL    HW2 5871   0.449   1.588   6.313
 1658SOL     OW 5872   4.679   0.145   5.308
 1658SOL    HW1 5873   4.707   0.068   5.251
 1658SOL    HW2 5874   4.582   0.162   5.296
 1659SOL     OW 5875   2.805   0.842   6.370
 1659SOL    HW1 5876   2.882   0.796   6.325
 1659SOL    HW2 5877   2.803   0.938   6.342
 1660SOL     OW 5878   2.547   0.967   1.386
 1660SOL    HW1 5879   2.468   0.978   1.326
 1660SOL    HW2 5880   2.578   1.056   1.417
 1661SOL     OW 5881   4.543   4.975   3.516
 1661SOL    HW1 5882   4.468   4.952   3.578
 1661SOL    HW2 5883   4.563   5.073   3.523
 1662SOL     OW 5884   0.740   2.400   4.192
 1662SOL    HW1 5885   0.816   2.446   4.146
 1662SOL    HW2 5886   0.711   2.455   4.271
 1663SOL     OW 5887   6.707   3.866   1.136
 1663SOL    HW1 5888   6.625   3.882   1.081
 1663SOL    HW2 5889   6.683   3.813   1.217
 1664SOL     OW 5890   1.185   0.869   0.043
 1664SOL    HW1 5891   1.124   0.800   0.082
 1664SOL    HW2 5892   1.155   0.960   0.071
 1665SOL     OW 5893   1.575   3.673   0.466
 1665SOL    HW1 5894   1.664   3.689   0.422
 1665SOL    HW2 5895   1.588   3.619   0.549
 1666SOL     OW 5896   5.880   6.241   5.401
 1666SOL    HW1 5897   5.944   6.212   5.331
 1666SOL    HW2 5898   5.794   6.270   5.358
 1667SOL     OW 5899   6.507   5.663   0.943
 1667SOL    HW1 5900   6.498   5.623   1.034
 1667SOL    HW2 5901   6.534   5.592   0.878
 1668SOL     OW 5902   6.836   2.900   2.152
 1668SOL    HW1 5903   6.779   2.876   2.074
 1668SOL    HW2 5904   6.917   2.950   2.120
 1669SOL     OW 5905   6.554   3.049   5.391
 1669SOL    HW1 5906   6.522   3.143   5.401
 1669SOL    HW2 5907   6.494   3.001   5.327
 1670SOL     OW 5908   3.140   4.295   5.255
 1670SOL    HW1 5909   3.152   4.236   5.175
 1670SOL    HW2 5910   3.098   4.381   5.227
 1671SOL     OW 5911   5.528   2.500   0.382
 1671SOL    HW1 5912   5.557   2.441   0.457
 1671SOL    HW2 5913   5.590   2.488   0.304
 1672SOL     OW 5914   0.855   1.883   1.710
 1672SOL    HW1 5915   0.861   1.882   1.810
 1672SOL    HW2 5916   0.937   1.924   1.672
 1673SOL     OW 5917   0.845   0.781   6.127
 1673SOL    HW1 5918   0.943   0.781   6.146
 1673SOL    HW2 5919   0.794   0.754   6.209
 1674SOL     OW 5920   4.859   2.803   3.157
 1674SOL    HW1 5921   4.907   2.749   3.089
 1674SOL    HW2 5922   4.827   2.743   3.231
 1675SOL     OW 5923   5.064   0.714   2.072
 1675SOL    HW1 5924   5.003   0.747   2.000
 1675SOL    HW2 5925   5.141   0.665   2.030
 1676SOL     OW 5926   1.951   1.632   3.759
 1676SOL    HW1 5927   1.886   1.672   3.694
 1676SOL    HW2 5928   2.020   1.700   3.784
 1677SOL     OW 5929   2.850   3.348   1.571
 1677SOL    HW1 5930   2.892   3.284   1.636
 1677SOL    HW2 5931   2.854   3.440   1.610
 1678SOL     OW 5932   6.732   0.028   0.883
 1678SOL    HW1 5933   6.692   7.013   0.968
 1678SOL    HW2 5934   6.662   0.031   0.811
 1679SOL     OW 5935   6.397   2.134   6.787
 1679SOL    HW1 5936   6.489   2.122   6.824
 1679SOL    HW2 5937   6.346   2.048   6.797
 1680SOL     OW 5938   5.466   1.963   3.485
 1680SOL    HW1 5939   5.536   2.027   3.452
 1680SOL    HW2 5940   5.482   1.873   3.445
 1681SOL     OW 5941   4.438   6.698   4.107
 1681SOL    HW1 5942   4.484   6.743   4.184
 1681SOL    HW2 5943   4.390   6.767   4.052
 1682SOL     OW 5944   4.494   1.837   5.212
 1682SOL    HW1 5945   4.532   1.796   5.295
 1682SOL    HW2 5946   4.569   1.871   5.155
 1683SOL     OW 5947   1.097   4.153   3.586
 1683SOL    HW1 5948   0.998   4.164   3.587
 1683SOL    HW2 5949   1.136   4.201   3.665
 1684SOL     OW 5950   3.642   5.934   1.256
 1684SOL    HW1 5951   3.723   5.961   1.204
 1684SOL    HW2 5952   3.561   5.943   1.198
 1685SOL     OW 5953   6.979   2.153   5.851
 1685SOL    HW1 5954   6.913   2.083   5.826
 1685SOL    HW2 5955   0.051   2.126   5.819
 1686SOL     OW 5956   3.119   6.158   1.577
 1686SOL    HW1 5957   3.200   6.202   1.616
 1686SOL    HW2 5958   3.051   6.144   1.648
 1687SOL     OW 5959   4.598   4.065   0.219
 1687SOL    HW1 5960   4.658   4.055   0.139
 1687SOL    HW2 5961   4.528   4.133   0.199
 1688SOL     OW 5962   2.881   0.643   2.753
 1688SOL    HW1 5963   2.954   0.616   2.816
 1688SOL    HW2 5964   2.844   0.562   2.707
 1689SOL     OW 5965   4.424   1.082   2.308
 1689SOL    HW1 5966   4.358   1.117   2.374
 1689SOL    HW2 5967   4.409   1.126   2.219
 1690SOL     OW 5968   0.458   4.599   3.911
 1690SOL    HW1 5969   0.472   4.596   3.812
 1690SOL    HW2 5970   0.454   4.506   3.947
 1691SOL     OW 5971   4.618   2.934   5.337
 1691SOL    HW1 5972   4.537   2.989   5.353
 1691SOL    HW2 5973   4.694   2.993   5.308
 1692SOL     OW 5974   5.719   5.499   2.900
 1692SOL    HW1 5975   5.711   5.435   2.824
 1692SOL    HW2 5976   5.747   5.449   2.982
 1693SOL     OW 5977   5.502   0.542   5.998
 1693SOL    HW1 5978   5.463   0.454   6.025
 1693SOL    HW2 5979   5.513   0.544   5.898
 1694SOL     OW 5980   4.549   1.354   6.624
 1694SOL    HW1 5981   4.571   1.439   6.673
 1694SOL    HW2 5982   4.495   1.294   6.684
 1695SOL     OW 5983   5.747   1.018   5.340
 1695SOL    HW1 5984   5.688   1.042   5.418
 1695SOL    HW2 5985   5.711   1.062   5.257
 1696SOL     OW 5986   5.236   0.044   1.154
 1696SOL    HW1 5987   5.172   0.111   1.193
 1696SOL    HW2 5988   5.316   0.092   1.119
 1697SOL     OW 5989   3.990   4.083   1.768
 1697SOL    HW1 5990   3.965   4.170   1.725
 1697SOL    HW2 5991   3.940   4.073   1.855
 1698SOL     OW 5992   4.805   2.110   1.215
 1698SOL    HW1 5993   4.776   2.205   1.205
 1698SOL    HW2 5994   4.779   2.058   1.133
 1699SOL     OW 5995   1.802   0.354   0.994
 1699SOL    HW1 5996   1.899   0.372   1.012
 1699SOL    HW2 5997   1.763   0.301   1.069
 1700SOL     OW 5998   6.065   3.291   2.995
 1700SOL    HW1 5999   6.113   3.349   3.060
 1700SOL    HW2 6000   6.107   3.200   2.994
 1701SOL     OW 6001   1.245   5.814   5.214
 1701SOL    HW1 6002   1.264   5.821   5.116
 1701SOL    HW2 6003   1.154   5.852   5.232
 1702SOL     OW 6004   2.244   2.373   6.922
 1702SOL    HW1 6005   2.184   2.301   6.957
 1702SOL    HW2 6006   2.311   2.332   6.859
 1703SOL     OW 6007   1.630   1.748   2.037
 1703SOL    HW1 6008   1.694   1.798   2.095
 1703SOL    HW2 6009   1.679   1.677   1.986
 1704SOL     OW 6010   3.294   2.871   6.637
 1704SOL    HW1 6011   3.219   2.937   6.636
 1704SOL    HW2 6012   3.286   2.811   6.557
 1705SOL     OW 6013   5.885   3.146   1.071
 1705SOL    HW1 6014   5.898   3.240   1.038
 1705SOL    HW2 6015   5.803   3.143   1.129
 1706SOL     OW 6016   6.083   0.741   5.893
 1706SOL    HW1 6017   6.065   0.840   5.893
 1706SOL    HW2 6018   6.135   0.717   5.811
 1707SOL     OW 6019   2.830   1.348   2.268
 1707SOL    HW1 6020   2.859   1.313   2.179
 1707SOL    HW2 6021   2.741   1.308   2.292
 1708SOL     OW 6022   2.454   4.528   1.543
 1708SOL    HW1 6023   2.365   4.565   1.571
 1708SOL    HW2 6024   2.444   4.479   1.456
 1709SOL     OW 6025   6.042   5.181   2.194
 1709SOL    HW1 6026   6.056   5.134   2.281
 1709SOL    HW2 6027   6.053   5.116   2.119
 1710SOL     OW 6028   4.893   2.824   2.028
 1710SOL    HW1 6029   4.854   2.916   2.032
 1710SOL    HW2 6030   4.970   2.824   1.964
 1711SOL     OW 6031   3.883   5.182   0.369
 1711SOL    HW1 6032   3.816   5.241   0.415
 1711SOL    HW2 6033   3.943   5.141   0.437
 1712SOL     OW 6034   0.255   2.595   2.372
 1712SOL    HW1 6035   0.243   2.515   2.431
 1712SOL    HW2 6036   0.189   2.591   2.297
 1713SOL     OW 6037   2.746   1.391   2.988
 1713SOL    HW1 6038   2.770   1.358   2.897
 1713SOL    HW2 6039   2.647   1.397   2.997
 1714SOL     OW 6040   3.249   4.968   1.008
 1714SOL    HW1 6041   3.272   4.924   0.921
 1714SOL    HW2 6042   3.329   5.020   1.042
 1715SOL     OW 6043   1.163   5.637   0.842
 1715SOL    HW1 6044   1.254   5.677   0.837
 1715SOL    HW2 6045   1.156   5.579   0.924
 1716SOL     OW 6046   5.120   1.393   2.484
 1716SOL    HW1 6047   5.031   1.397   2.437
 1716SOL    HW2 6048   5.165   1.307   2.464
 1717SOL     OW 6049   3.644   0.091   4.523
 1717SOL    HW1 6050   3.585   0.072   4.444
 1717SOL    HW2 6051   3.728   0.136   4.491
 1718SOL     OW 6052   1.446   3.886   1.894
 1718SOL    HW1 6053   1.475   3.913   1.803
 1718SOL    HW2 6054   1.455   3.963   1.957
 1719SOL     OW 6055   1.636   5.044   3.208
 1719SOL    HW1 6056   1.620   4.954   3.168
 1719SOL    HW2 6057   1.726   5.077   3.179
 1720SOL     OW 6058   1.348   2.642   5.534
 1720SOL    HW1 6059   1.443   2.623   5.557
 1720SOL    HW2 6060   1.325   2.597   5.448
 1721SOL     OW 6061   2.042   2.214   0.022
 1721SOL    HW1 6062   2.042   2.175   0.114
 1721SOL    HW2 6063   1.956   2.264   0.007
 1722SOL     OW 6064   3.803   2.160   2.849
 1722SOL    HW1 6065   3.821   2.072   2.806
 1722SOL    HW2 6066   3.705   2.180   2.845
 1723SOL     OW 6067   6.357   5.501   1.350
 1723SOL    HW1 6068   6.288   5.571   1.368
 1723SOL    HW2 6069   6.322   5.412   1.377
 1724SOL     OW 6070   6.171   3.838   1.098
 1724SOL    HW1 6071   6.187   3.747   1.061
 1724SOL    HW2 6072   6.097   3.834   1.165
 1725SOL     OW 6073   1.774   6.592   4.234
 1725SOL    HW1 6074   1.840   6.549   4.172
 1725SOL    HW2 6075   1.794   6.689   4.242
 1726SOL     OW 6076   5.647   5.035   3.352
 1726SOL    HW1 6077   5.723   4.971   3.363
 1726SOL    HW2 6078   5.674   5.126   3.385
 1727SOL     OW 6079   2.895   3.368   4.006
 1727SOL    HW1 6080   2.799   3.342   3.995
 1727SOL    HW2 6081   2.953   3.293   3.975
 1728SOL     OW 6082   5.455   2.090   4.454
 1728SOL    HW1 6083   5.541   2.059   4.413
 1728SOL    HW2 6084   5.474   2.135   4.541
 1729SOL     OW 6085   1.751   3.400   2.626
 1729SOL    HW1 6086   1.718   3.481   2.576
 1729SOL    HW2 6087   1.674   3.339   2.643
 1730SOL     OW 6088   2.944   0.600   4.423
 1730SOL    HW1 6089   2.876   0.659   4.381
 1730SOL    HW2 6090   2.905   0.509   4.437
 1731SOL     OW 6091   6.423   5.096   2.795
 1731SOL    HW1 6092   6.343   5.071   2.741
 1731SOL    HW2 6093   6.485   5.151   2.739
 1732SOL     OW 6094   3.889   3.285   4.558
 1732SOL    HW1 6095   3.971   3.282   4.615
 1732SOL    HW2 6096   3.843   3.373   4.569
 1733SOL     OW 6097   1.068   2.012   6.931
 1733SOL    HW1 6098   1.066   2.058   6.842
 1733SOL    HW2 6099   1.139   2.053   6.988
 1734SOL     OW 6100   0.785   4.799   2.391
 1734SOL    HW1 6101   0.805   4.878   2.449
 1734SOL    HW2 6102   0.709   4.748   2.431
 1735SOL     OW 6103   3.521   5.679   5.941
 1735SOL    HW1 6104   3.515   5.697   5.843
 1735SOL    HW2 6105   3.429   5.672   5.980
 1736SOL     OW 6106   4.274   1.922   5.071
 1736SOL    HW1 6107   4.270   1.864   4.989
 1736SOL    HW2 6108   4.347   1.889   5.131
 1737SOL     OW 6109   1.989   0.301   0.147
 1737SOL    HW1 6110   2.012   0.285   0.243
 1737SOL    HW2 6111   2.003   0.397   0.125
 1738SOL     OW 6112   1.201   3.736   2.120
 1738SOL    HW1 6113   1.270   3.711   2.051
 1738SOL    HW2 6114   1.241   3.800   2.185
 1739SOL     OW 6115   4.401   5.952   3.026
 1739SOL    HW1 6116   4.337   6.011   3.076
 1739SOL    HW2 6117   4.374   5.950   2.929
 1740SOL     OW 6118   0.054   2.284   4.792
 1740SOL    HW1 6119   0.072   2.217   4.720
 1740SOL    HW2 6120   6.992   2.256   4.844
 1741SOL     OW 6121   1.711   2.348   4.425
 1741SOL    HW1 6122   1.659   2.269   4.391
 1741SOL    HW2 6123   1.765   2.320   4.504
 1742SOL     OW 6124   5.931   0.454   6.092
 1742SOL    HW1 6125   5.892   0.514   6.022
 1742SOL    HW2 6126   5.984   0.508   6.157
 1743SOL     OW 6127   0.840   1.947   2.360
 1743SOL    HW1 6128   0.764   1.971   2.299
 1743SOL    HW2 6129   0.832   2.000   2.445
 1744SOL     OW 6130   2.811   2.071   5.324
 1744SOL    HW1 6131   2.903   2.067   5.285
 1744SOL    HW2 6132   2.779   2.166   5.325
 1745SOL     OW 6133   5.824   0.240   0.969
 1745SOL    HW1 6134   5.767   0.297   1.029
 1745SOL    HW2 6135   5.767   0.172   0.923
 1746SOL     OW 6136   2.774   5.337   2.430
 1746SOL    HW1 6137   2.687   5.333   2.480
 1746SOL    HW2 6138   2.847   5.360   2.494
 1747SOL     OW 6139   2.984   6.748   1.874
 1747SOL    HW1 6140   2.984   6.845   1.896
 1747SOL    HW2 6141   2.927   6.731   1.794
 1748SOL     OW 6142   6.725   1.110   4.038
 1748SOL    HW1 6143   6.767   1.021   4.022
 1748SOL    HW2 6144   6.745   1.140   4.131
 1749SOL     OW 6145   6.225   5.756   2.380
 1749SOL    HW1 6146   6.149   5.797   2.430
 1749SOL    HW2 6147   6.189   5.702   2.304
 1750SOL     OW 6148   2.642   2.082   0.598
 1750SOL    HW1 6149   2.551   2.066   0.559
 1750SOL    HW2 6150   2.678   2.169   0.564
 1751SOL     OW 6151   6.800   4.282   4.123
 1751SOL    HW1 6152   6.761   4.292   4.032
 1751SOL    HW2 6153   6.831   4.188   4.136
 1752SOL     OW 6154   6.076   0.333   3.124
 1752SOL    HW1 6155   5.977   0.336   3.137
 1752SOL    HW2 6156   6.121   0.315   3.212
 1753SOL     OW 6157   0.043   1.428   1.076
 1753SOL    HW1 6158   0.127   1.455   1.124
 1753SOL    HW2 6159   6.988   1.491   1.099
 1754SOL     OW 6160   1.719   4.583   3.955
 1754SOL    HW1 6161   1.816   4.568   3.975
 1754SOL    HW2 6162   1.690   4.671   3.993
 1755SOL     OW 6163   5.019   6.894   5.108
 1755SOL    HW1 6164   5.080   6.901   5.029
 1755SOL    HW2 6165   5.054   6.951   5.182
 1756SOL     OW 6166   4.502   5.285   1.144
 1756SOL    HW1 6167   4.479   5.191   1.172
 1756SOL    HW2 6168   4.480   5.298   1.048
 1757SOL     OW 6169   3.093   5.125   5.238
 1757SOL    HW1 6170   3.076   5.096   5.332
 1757SOL    HW2 6171   3.131   5.048   5.185
 1758SOL     OW 6172   7.012   6.416   3.949
 1758SOL    HW1 6173   7.012   6.403   4.048
 1758SOL    HW2 6174   0.073   6.369   3.910
 1759SOL     OW 6175   1.604   5.567   6.071
 1759SOL    HW1 6176   1.651   5.649   6.102
 1759SOL    HW2 6177   1.671   5.495   6.055
 1760SOL     OW 6178   5.844   1.332   4.402
 1760SOL    HW1 6179   5.853   1.387   4.485
 1760SOL    HW2 6180   5.924   1.349   4.343
 1761SOL     OW 6181   4.641   2.352   4.203
 1761SOL    HW1 6182   4.678   2.420   4.265
 1761SOL    HW2 6183   4.702   2.341   4.125
 1762SOL     OW 6184   0.950   1.666   5.174
 1762SOL    HW1 6185   1.011   1.744   5.184
 1762SOL    HW2 6186   0.985   1.589   5.228
 1763SOL     OW 6187   1.124   5.178   4.440
 1763SOL    HW1 6188   1.056   5.182   4.367
 1763SOL    HW2 6189   1.202   5.236   4.416
 1764SOL     OW 6190   0.747   5.102   3.043
 1764SOL    HW1 6191   0.758   5.197   3.071
 1764SOL    HW2 6192   0.837   5.062   3.025
 1765SOL     OW 6193   5.134   4.240   2.529
 1765SOL    HW1 6194   5.108   4.290   2.447
 1765SOL    HW2 6195   5.143   4.143   2.507
 1766SOL     OW 6196   3.881   5.022   3.750
 1766SOL    HW1 6197   3.850   4.968   3.828
 1766SOL    HW2 6198   3.846   4.981   3.665
 1767SOL     OW 6199   2.421   4.834   1.828
 1767SOL    HW1 6200   2.424   4.799   1.922
 1767SOL    HW2 6201   2.344   4.794   1.780
 1768SOL     OW 6202   3.826   5.378   2.530
 1768SOL    HW1 6203   3.864   5.362   2.439
 1768SOL    HW2 6204   3.844   5.298   2.588
 1769SOL     OW 6205   5.236   0.149   0.265
 1769SOL    HW1 6206   5.206   0.215   0.196
 1769SOL    HW2 6207   5.285   0.197   0.338
 1770SOL     OW 6208   2.057   3.299   0.431
 1770SOL    HW1 6209   1.969   3.258   0.410
 1770SOL    HW2 6210   2.095   3.341   0.349
 1771SOL     OW 6211   1.683   2.835   6.379
 1771SOL    HW1 6212   1.753   2.856   6.310
 1771SOL    HW2 6213   1.689   2.901   6.454
 1772SOL     OW 6214   2.474   5.254   1.660
 1772SOL    HW1 6215   2.487   5.156   1.643
 1772SOL    HW2 6216   2.525   5.281   1.741
 1773SOL     OW 6217   1.885   5.869   4.712
 1773SOL    HW1 6218   1.876   5.954   4.762
 1773SOL    HW2 6219   1.958   5.813   4.752
 1774SOL     OW 6220   5.828   4.895   1.591
 1774SOL    HW1 6221   5.830   4.940   1.680
 1774SOL    HW2 6222   5.736   4.898   1.554
 1775SOL     OW 6223   1.718   6.566   1.042
 1775SOL    HW1 6224   1.743   6.657   1.009
 1775SOL    HW2 6225   1.789   6.500   1.018
 1776SOL     OW 6226   4.422   3.227   5.860
 1776SOL    HW1 6227   4.325   3.248   5.850
 1776SOL    HW2 6228   4.461   3.284   5.933
 1777SOL     OW 6229   4.733   4.769   6.395
 1777SOL    HW1 6230   4.645   4.813   6.412
 1777SOL    HW2 6231   4.717   4.676   6.361
 1778SOL     OW 6232   0.146   0.142   2.664
 1778SOL    HW1 6233   0.220   0.075   2.661
 1778SOL    HW2 6234   0.179   0.230   2.631
 1779SOL     OW 6235   6.835   6.573   5.080
 1779SOL    HW1 6236   6.778   6.524   5.014
 1779SOL    HW2 6237   6.852   6.515   5.160
 1780SOL     OW 6238   2.631   6.852   5.067
 1780SOL    HW1 6239   2.591   6.913   5.136
 1780SOL    HW2 6240   2.567   6.844   4.990
 1781SOL     OW 6241   3.977   1.277   5.417
 1781SOL    HW1 6242   3.912   1.251   5.345
 1781SOL    HW2 6243   3.938   1.351   5.472
 1782SOL     OW 6244   5.983   0.193   2.431
 1782SOL    HW1 6245   5.931   0.271   2.466
 1782SOL    HW2 6246   6.044   0.159   2.502
 1783SOL     OW 6247   1.054   3.163   6.508
 1783SOL    HW1 6248   1.100   3.199   6.589
 1783SOL    HW2 6249   1.122   3.134   6.441
 1784SOL     OW 6250   1.751   6.168   1.487
 1784SOL    HW1 6251   1.715   6.213   1.569
 1784SOL    HW2 6252   1.843   6.134   1.505
 1785SOL     OW 6253   2.444   4.829   5.491
 1785SOL    HW1 6254   2.394   4.749   5.456
 1785SOL    HW2 6255   2.520   4.798   5.549
 1786SOL     OW 6256   0.594   5.578   2.434
 1786SOL    HW1 6257   0.691   5.559   2.450
 1786SOL    HW2 6258   0.541   5.494   2.445
 1787SOL     OW 6259   2.732   1.511   6.273
 1787SOL    HW1 6260   2.761   1.435   6.214
 1787SOL    HW2 6261   2.655   1.558   6.230
 1788SOL     OW 6262   3.669   4.040   0.465
 1788SOL    HW1 6263   3.755   4.069   0.506
 1788SOL    HW2 6264   3.595   4.101   0.493
 1789SOL     OW 6265   6.159   3.350   3.525
 1789SOL    HW1 6266   6.089   3.284   3.550
 1789SOL    HW2 6267   6.115   3.433   3.491
 1790SOL     OW 6268   2.506   2.561   4.588
 1790SOL    HW1 6269   2.417   2.514   4.581
 1790SOL    HW2 6270   2.521   2.615   4.506
 1791SOL     OW 6271   6.525   0.423   3.259
 1791SOL    HW1 6272   6.501   0.366   3.180
 1791SOL    HW2 6273   6.469   0.397   3.337
 1792SOL     OW 6274   0.132   3.534   5.890
 1792SOL    HW1 6275   0.200   3.462   5.889
 1792SOL    HW2 6276   0.129   3.577   5.980
 1793SOL     OW 6277   0.691   2.108   5.083
 1793SOL    HW1 6278   0.596   2.086   5.060
 1793SOL    HW2 6279   0.748   2.092   5.002
 1794SOL     OW 6280   6.771   2.154   6.625
 1794SOL    HW1 6281   6.835   2.188   6.556
 1794SOL    HW2 6282   6.707   2.227   6.651
 1795SOL     OW 6283   5.970   3.635   0.871
 1795SOL    HW1 6284   5.912   3.679   0.803
 1795SOL    HW2 6285   6.062   3.676   0.870
 1796SOL     OW 6286   6.524   6.679   6.242
 1796SOL    HW1 6287   6.565   6.735   6.315
 1796SOL    HW2 6288   6.499   6.590   6.279
 1797SOL     OW 6289   2.857   6.242   5.662
 1797SOL    HW1 6290   2.773   6.206   5.619
 1797SOL    HW2 6291   2.931   6.241   5.595
 1798SOL     OW 6292   2.336   4.550   0.182
 1798SOL    HW1 6293   2.369   4.635   0.141
 1798SOL    HW2 6294   2.407   4.513   0.242
 1799SOL     OW 6295   3.867   1.735   1.568
 1799SOL    HW1 6296   3.962   1.749   1.597
 1799SOL    HW2 6297   3.818   1.822   1.573
 1800SOL     OW 6298   5.525   2.442   5.688
 1800SOL    HW1 6299   5.542   2.360   5.743
 1800SOL    HW2 6300   5.449   2.494   5.727
 1801SOL     OW 6301   0.694   2.101   2.601
 1801SOL    HW1 6302   0.689   2.110   2.700
 1801SOL    HW2 6303   0.754   2.172   2.564
 1802SOL     OW 6304   6.262   4.353   4.967
 1802SOL    HW1 6305   6.239   4.382   4.874
 1802SOL    HW2 6306   6.184   4.305   5.007
 1803SOL     OW 6307   6.088   6.485   3.411
 1803SOL    HW1 6308   6.092   6.492   3.311
 1803SOL    HW2 6309   6.035   6.405   3.436
 1804SOL     OW 6310   1.283   3.014   6.005
 1804SOL    HW1 6311   1.323   2.950   5.939
 1804SOL    HW2 6312   1.245   2.963   6.082
 1805SOL     OW 6313   6.753   4.989   5.839
 1805SOL    HW1 6314   6.850   5.000   5.861
 1805SOL    HW2 6315   6.721   4.900   5.870
 1806SOL     OW 6316   0.311   1.193   2.251
 1806SOL    HW1 6317   0.223   1.215   2.208
 1806SOL    HW2 6318   0.308   1.219   2.347
 1807SOL     OW 6319   6.599   2.802   2.269
 1807SOL    HW1 6320   6.579   2.786   2.172
 1807SOL    HW2 6321   6.697   2.816   2.281
 1808SOL     OW 6322   6.184   1.233   0.145
 1808SOL    HW1 6323   6.140   1.174   0.077
 1808SOL    HW2 6324   6.157   1.328   0.131
 1809SOL     OW 6325   4.436   0.587   4.924
 1809SOL    HW1 6326   4.360   0.627   4.975
 1809SOL    HW2 6327   4.512   0.651   4.922
 1810SOL     OW 6328   1.129   1.019   4.071
 1810SOL    HW1 6329   1.167   0.982   4.156
 1810SOL    HW2 6330   1.200   1.021   4.001
 1811SOL     OW 6331   2.983   5.323   1.566
 1811SOL    HW1 6332   2.894   5.323   1.611
 1811SOL    HW2 6333   2.988   5.248   1.501
 1812SOL     OW 6334   3.713   0.748   6.471
 1812SOL    HW1 6335   3.803   0.780   6.501
 1812SOL    HW2 6336   3.689   0.792   6.385
 1813SOL     OW 6337   5.357   3.782   1.551
 1813SOL    HW1 6338   5.395   3.826   1.632
 1813SOL    HW2 6339   5.342   3.685   1.570
 1814SOL     OW 6340   6.297   5.794   1.343
 1814SOL    HW1 6341   6.392   5.826   1.336
 1814SOL    HW2 6342   6.249   5.815   1.258
 1815SOL     OW 6343   6.164   5.865   1.092
 1815SOL    HW1 6344   6.071   5.858   1.129
 1815SOL    HW2 6345   6.162   5.846   0.994
 1816SOL     OW 6346   3.667   4.928   4.813
 1816SOL    HW1 6347   3.731   4.979   4.871
 1816SOL    HW2 6348   3.674   4.962   4.719
 1817SOL     OW 6349   6.430   3.036   4.408
 1817SOL    HW1 6350   6.431   3.018   4.506
 1817SOL    HW2 6351   6.489   2.969   4.362
 1818SOL     OW 6352   2.232   2.606   0.313
 1818SOL    HW1 6353   2.292   2.535   0.278
 1818SOL    HW2 6354   2.138   2.589   0.284
 1819SOL     OW 6355   0.770   3.298   0.632
 1819SOL    HW1 6356   0.830   3.375   0.657
 1819SOL    HW2 6357   0.765   3.234   0.709
 1820SOL     OW 6358   3.639   6.482   4.771
 1820SOL    HW1 6359   3.676   6.575   4.767
 1820SOL    HW2 6360   3.714   6.417   4.782
 1821SOL     OW 6361   4.251   1.175   2.517
 1821SOL    HW1 6362   4.174   1.221   2.472
 1821SOL    HW2 6363   4.219   1.093   2.563
 1822SOL     OW 6364   2.592   4.572   5.134
 1822SOL    HW1 6365   2.679   4.604   5.096
 1822SOL    HW2 6366   2.607   4.488   5.185
 1823SOL     OW 6367   4.834   0.151   4.474
 1823SOL    HW1 6368   4.739   0.123   4.460
 1823SOL    HW2 6369   4.893   0.071   4.471
 1824SOL     OW 6370   4.463   2.800   1.749
 1824SOL    HW1 6371   4.513   2.872   1.798
 1824SOL    HW2 6372   4.368   2.828   1.738
 1825SOL     OW 6373   1.490   3.736   0.202
 1825SOL    HW1 6374   1.487   3.708   0.298
 1825SOL    HW2 6375   1.452   3.828   0.193
 1826SOL     OW 6376   3.952   3.307   6.824
 1826SOL    HW1 6377   3.895   3.242   6.774
 1826SOL    HW2 6378   3.959   3.278   6.919
 1827SOL     OW 6379   4.932   4.322   0.668
 1827SOL    HW1 6380   5.019   4.370   0.658
 1827SOL    HW2 6381   4.907   4.319   0.765
 1828SOL     OW 6382   2.685   5.884   5.246
 1828SOL    HW1 6383   2.620   5.814   5.277
 1828SOL    HW2 6384   2.773   5.871   5.293
 1829SOL     OW 6385   2.208   6.562   2.542
 1829SOL    HW1 6386   2.288   6.530   2.594
 1829SOL    HW2 6387   2.227   6.653   2.504
 1830SOL     OW 6388   4.739   1.586   6.910
 1830SOL    HW1 6389   4.770   1.665   6.963
 1830SOL    HW2 6390   4.818   1.534   6.878
 1831SOL     OW 6391   3.204   4.120   6.584
 1831SOL    HW1 6392   3.302   4.138   6.596
 1831SOL    HW2 6393   3.178   4.042   6.641
 1832SOL     OW 6394   2.201   2.139   5.497
 1832SOL    HW1 6395   2.123   2.080   5.479
 1832SOL    HW2 6396   2.173   2.234   5.492
 1833SOL     OW 6397   5.628   1.573   0.170
 1833SOL    HW1 6398   5.689   1.504   0.129
 1833SOL    HW2 6399   5.632   1.657   0.116
 1834SOL     OW 6400   1.587   3.390   6.445
 1834SOL    HW1 6401   1.679   3.386   6.482
 1834SOL    HW2 6402   1.541   3.303   6.459
 1835SOL     OW 6403   6.139   0.524   6.415
 1835SOL    HW1 6404   6.087   0.607   6.394
 1835SOL    HW2 6405   6.146   0.514   6.514
 1836SOL     OW 6406   5.649   1.087   4.852
 1836SOL    HW1 6407   5.663   1.129   4.762
 1836SOL    HW2 6408   5.584   1.011   4.843
 1837SOL     OW 6409   1.314   1.678   1.309
 1837SOL    HW1 6410   1.312   1.622   1.226
 1837SOL    HW2 6411   1.221   1.710   1.329
 1838SOL     OW 6412   4.805   0.480   0.210
 1838SOL    HW1 6413   4.877   0.505   0.275
 1838SOL    HW2 6414   4.846   0.461   0.121
 1839SOL     OW 6415   0.197   2.291   7.003
 1839SOL    HW1 6416   0.248   2.239   6.935
 1839SOL    HW2 6417   0.227   2.264   0.076
 1840SOL     OW 6418   1.788   6.608   5.322
 1840SOL    HW1 6419   1.875   6.558   5.323
 1840SOL    HW2 6420   1.801   6.696   5.367
 1841SOL     OW 6421   2.089   0.163   1.645
 1841SOL    HW1 6422   2.021   0.091   1.625
 1841SOL    HW2 6423   2.179   0.132   1.616
 1842SOL     OW 6424   0.277   4.729   1.690
 1842SOL    HW1 6425   0.357   4.671   1.673
 1842SOL    HW2 6426   0.278   4.807   1.628
 1843SOL     OW 6427   3.783   0.483   6.993
 1843SOL    HW1 6428   3.838   0.408   6.955
 1843SOL    HW2 6429   3.687   0.466   6.975
 1844SOL     OW 6430   5.204   3.142   1.497
 1844SOL    HW1 6431   5.121   3.187   1.529
 1844SOL    HW2 6432   5.187   3.099   1.408
 1845SOL     OW 6433   0.151   2.742   4.505
 1845SOL    HW1 6434   0.188   2.717   4.594
 1845SOL    HW2 6435   0.166   2.668   4.440
 1846SOL     OW 6436   3.719   1.298   2.188
 1846SOL    HW1 6437   3.790   1.341   2.244
 1846SOL    HW2 6438   3.741   1.309   2.091
 1847SOL     OW 6439   2.784   5.742   6.668
 1847SOL    HW1 6440   2.847   5.785   6.604
 1847SOL    HW2 6441   2.706   5.704   6.618
 1848SOL     OW 6442   2.925   6.071   4.632
 1848SOL    HW1 6443   2.923   6.165   4.598
 1848SOL    HW2 6444   2.835   6.029   4.617
 1849SOL     OW 6445   5.104   2.915   2.290
 1849SOL    HW1 6446   5.109   2.856   2.210
 1849SOL    HW2 6447   5.013   2.906   2.332
 1850SOL     OW 6448   4.598   1.106   0.552
 1850SOL    HW1 6449   4.556   1.069   0.636
 1850SOL    HW2 6450   4.683   1.152   0.575
 1851SOL     OW 6451   1.868   4.919   3.657
 1851SOL    HW1 6452   1.962   4.896   3.632
 1851SOL    HW2 6453   1.806   4.850   3.620
 1852SOL     OW 6454   0.158   0.498   4.622
 1852SOL    HW1 6455   0.157   0.590   4.662
 1852SOL    HW2 6456   0.084   0.444   4.661
 1853SOL     OW 6457   0.767   1.793   4.992
 1853SOL    HW1 6458   0.834   1.826   4.925
 1853SOL    HW2 6459   0.816   1.748   5.067
 1854SOL     OW 6460   1.193   6.808   3.822
 1854SOL    HW1 6461   1.269   6.872   3.824
 1854SOL    HW2 6462   1.120   6.841   3.882
 1855SOL     OW 6463   6.453   1.521   5.158
 1855SOL    HW1 6464   6.446   1.562   5.067
 1855SOL    HW2 6465   6.519   1.572   5.212
 1856SOL     OW 6466   4.321   3.852   6.813
 1856SOL    HW1 6467   4.284   3.895   6.896
 1856SOL    HW2 6468   4.342   3.922   6.745
 1857SOL     OW 6469   4.948   1.143   6.824
 1857SOL    HW1 6470   4.945   1.093   6.737
 1857SOL    HW2 6471   4.856   1.144   6.864
 1858SOL     OW 6472   4.395   2.031   4.722
 1858SOL    HW1 6473   4.326   2.044   4.793
 1858SOL    HW2 6474   4.365   2.076   4.638
 1859SOL     OW 6475   6.495   5.918   3.297
 1859SOL    HW1 6476   6.530   5.830   3.264
 1859SOL    HW2 6477   6.566   5.965   3.349
 1860SOL     OW 6478   1.767   6.929   0.429
 1860SOL    HW1 6479   1.767   6.834   0.400
 1860SOL    HW2 6480   1.676   6.953   0.464
 1861SOL     OW 6481   6.274   0.125   5.162
 1861SOL    HW1 6482   6.373   0.122   5.166
 1861SOL    HW2 6483   6.236   0.036   5.188
 1862SOL     OW 6484   4.209   4.782   4.839
 1862SOL    HW1 6485   4.232   4.720   4.914
 1862SOL    HW2 6486   4.118   4.821   4.855
 1863SOL     OW 6487   6.831   1.000   0.940
 1863SOL    HW1 6488   6.738   0.964   0.938
 1863SOL    HW2 6489   6.833   1.086   0.991
 1864SOL     OW 6490   3.164   5.527   2.786
 1864SOL    HW1 6491   3.096   5.593   2.817
 1864SOL    HW2 6492   3.117   5.449   2.745
 1865SOL     OW 6493   5.949   2.558   6.196
 1865SOL    HW1 6494   5.990   2.482   6.145
 1865SOL    HW2 6495   5.873   2.596   6.144
 1866SOL     OW 6496   6.979   4.378   5.140
 1866SOL    HW1 6497   6.879   4.385   5.129
 1866SOL    HW2 6498   7.004   4.283   5.158
 1867SOL     OW 6499   1.512   6.990   0.529
 1867SOL    HW1 6500   1.533   0.066   0.553
 1867SOL    HW2 6501   1.427   6.987   0.477
 1868SOL     OW 6502   6.072   3.606   5.899
 1868SOL    HW1 6503   6.023   3.536   5.952
 1868SOL    HW2 6504   6.167   3.611   5.929
 1869SOL     OW 6505   4.560   1.251   5.096
 1869SOL    HW1 6506   4.608   1.338   5.103
 1869SOL    HW2 6507   4.622   1.177   5.122
 1870SOL     OW 6508   5.838   1.582   6.059
 1870SOL    HW1 6509   5.847   1.681   6.046
 1870SOL    HW2 6510   5.855   1.535   5.973
 1871SOL     OW 6511   2.851   4.322   6.958
 1871SOL    HW1 6512   2.852   4.403   6.900
 1871SOL    HW2 6513   2.945   4.293   6.976
 1872SOL     OW 6514   2.114   3.934   6.510
 1872SOL    HW1 6515   2.204   3.961   6.476
 1872SOL    HW2 6516   2.075   4.010   6.563
 1873SOL     OW 6517   5.743   0.975   2.393
 1873SOL    HW1 6518   5.739   1.036   2.472
 1873SOL    HW2 6519   5.655   0.931   2.381
 1874SOL     OW 6520   2.236   4.983   6.714
 1874SOL    HW1 6521   2.274   4.914   6.652
 1874SOL    HW2 6522   2.310   5.024   6.768
 1875SOL     OW 6523   1.196   6.263   2.069
 1875SOL    HW1 6524   1.242   6.351   2.065
 1875SOL    HW2 6525   1.160   6.240   1.979
 1876SOL     OW 6526   1.587   4.952   5.356
 1876SOL    HW1 6527   1.623   4.985   5.269
 1876SOL    HW2 6528   1.661   4.945   5.423
 1877SOL     OW 6529   0.042   1.332   3.666
 1877SOL    HW1 6530   0.008   1.238   3.652
 1877SOL    HW2 6531   0.117   1.331   3.732
 1878SOL     OW 6532   5.593   3.858   3.610
 1878SOL    HW1 6533   5.528   3.840   3.684
 1878SOL    HW2 6534   5.543   3.893   3.531
 1879SOL     OW 6535   3.972   6.508   4.939
 1879SOL    HW1 6536   3.985   6.454   5.023
 1879SOL    HW2 6537   3.918   6.456   4.873
 1880SOL     OW 6538   2.138   3.872   4.319
 1880SOL    HW1 6539   2.068   3.931   4.280
 1880SOL    HW2 6540   2.197   3.838   4.246
 1881SOL     OW 6541   3.047   2.200   2.917
 1881SOL    HW1 6542   3.052   2.107   2.882
 1881SOL    HW2 6543   3.012   2.261   2.845
 1882SOL     OW 6544   4.296   0.473   6.653
 1882SOL    HW1 6545   4.298   0.572   6.669
 1882SOL    HW2 6546   4.387   0.435   6.663
 1883SOL     OW 6547   2.217   3.839   2.722
 1883SOL    HW1 6548   2.314   3.822   2.706
 1883SOL    HW2 6549   2.199   3.937   2.719
 1884SOL     OW 6550   4.879   0.883   0.474
 1884SOL    HW1 6551   4.857   0.978   0.497
 1884SOL    HW2 6552   4.795   0.831   0.460
 1885SOL     OW 6553   0.051   1.990   1.368
 1885SOL    HW1 6554   0.126   1.965   1.431
 1885SOL    HW2 6555   0.081   1.975   1.274
 1886SOL     OW 6556   3.693   2.953   5.018
 1886SOL    HW1 6557   3.603   2.947   5.062
 1886SOL    HW2 6558   3.762   2.971   5.087
 1887SOL     OW 6559   0.458   5.955   5.602
 1887SOL    HW1 6560   0.542   5.973   5.551
 1887SOL    HW2 6561   0.386   5.925   5.539
 1888SOL     OW 6562   2.430   1.383   5.614
 1888SOL    HW1 6563   2.396   1.308   5.558
 1888SOL    HW2 6564   2.422   1.359   5.711
 1889SOL     OW 6565   3.621   3.769   6.783
 1889SOL    HW1 6566   3.684   3.692   6.784
 1889SOL    HW2 6567   3.611   3.803   6.689
 1890SOL     OW 6568   5.981   6.561   6.113
 1890SOL    HW1 6569   6.025   6.645   6.146
 1890SOL    HW2 6570   6.027   6.531   6.029
 1891SOL     OW 6571   4.847   3.380   0.139
 1891SOL    HW1 6572   4.925   3.395   0.199
 1891SOL    HW2 6573   4.804   3.293   0.162
 1892SOL     OW 6574   3.254   0.759   3.360
 1892SOL    HW1 6575   3.277   0.839   3.306
 1892SOL    HW2 6576   3.269   0.778   3.457
 1893SOL     OW 6577   2.863   2.516   6.675
 1893SOL    HW1 6578   2.888   2.425   6.706
 1893SOL    HW2 6579   2.783   2.548   6.726
 1894SOL     OW 6580   5.359   3.095   1.053
 1894SOL    HW1 6581   5.325   3.181   1.016
 1894SOL    HW2 6582   5.457   3.088   1.039
 1895SOL     OW 6583   4.226   6.110   3.157
 1895SOL    HW1 6584   4.231   6.155   3.246
 1895SOL    HW2 6585   4.159   6.158   3.100
 1896SOL     OW 6586   0.353   1.988   4.251
 1896SOL    HW1 6587   0.419   2.061   4.265
 1896SOL    HW2 6588   0.260   2.026   4.253
 1897SOL     OW 6589   5.220   5.635   3.380
 1897SOL    HW1 6590   5.275   5.588   3.312
 1897SOL    HW2 6591   5.220   5.583   3.466
 1898SOL     OW 6592   5.241   6.081   0.375
 1898SOL    HW1 6593   5.293   6.093   0.290
 1898SOL    HW2 6594   5.168   6.014   0.360
 1899SOL     OW 6595   2.036   3.209   4.178
 1899SOL    HW1 6596   2.101   3.133   4.182
 1899SOL    HW2 6597   1.983   3.202   4.093
 1900SOL     OW 6598   2.476   5.519   1.530
 1900SOL    HW1 6599   2.468   5.427   1.568
 1900SOL    HW2 6600   2.386   5.552   1.501
 1901SOL     OW 6601   0.431   1.664   0.004
 1901SOL    HW1 6602   0.355   1.710   6.977
 1901SOL    HW2 6603   0.438   1.570   6.990
 1902SOL     OW 6604   1.658   2.948   4.889
 1902SOL    HW1 6605   1.757   2.935   4.893
 1902SOL    HW2 6606   1.615   2.860   4.867
 1903SOL     OW 6607   0.013   6.085   4.027
 1903SOL    HW1 6608   0.072   6.143   3.971
 1903SOL    HW2 6609   6.948   6.064   3.976
 1904SOL     OW 6610   0.514   1.191   3.923
 1904SOL    HW1 6611   0.579   1.119   3.895
 1904SOL    HW2 6612   0.510   1.194   4.023
 1905SOL     OW 6613   5.717   2.985   6.257
 1905SOL    HW1 6614   5.790   2.956   6.195
 1905SOL    HW2 6615   5.737   2.952   6.350
 1906SOL     OW 6616   2.502   5.434   6.000
 1906SOL    HW1 6617   2.602   5.434   6.008
 1906SOL    HW2 6618   2.469   5.340   5.996
 1907SOL     OW 6619   4.510   0.815   2.881
 1907SOL    HW1 6620   4.605   0.825   2.910
 1907SOL    HW2 6621   4.500   0.849   2.787
 1908SOL     OW 6622   5.525   4.203   0.535
 1908SOL    HW1 6623   5.609   4.243   0.571
 1908SOL    HW2 6624   5.455   4.201   0.607
 1909SOL     OW 6625   4.741   5.301   4.125
 1909SOL    HW1 6626   4.662   5.253   4.162
 1909SOL    HW2 6627   4.802   5.326   4.201
 1910SOL     OW 6628   5.217   3.997   4.538
 1910SOL    HW1 6629   5.212   3.957   4.447
 1910SOL    HW2 6630   5.299   4.052   4.546
 1911SOL     OW 6631   0.616   2.461   5.740
 1911SOL    HW1 6632   0.600   2.362   5.740
 1911SOL    HW2 6633   0.604   2.497   5.832
 1912SOL     OW 6634   3.561   0.509   2.304
 1912SOL    HW1 6635   3.648   0.521   2.256
 1912SOL    HW2 6636   3.533   0.595   2.346
 1913SOL     OW 6637   2.992   3.766   6.896
 1913SOL    HW1 6638   2.948   3.762   6.806
 1913SOL    HW2 6639   2.926   3.796   6.964
 1914SOL     OW 6640   4.706   1.489   5.038
 1914SOL    HW1 6641   4.744   1.513   5.127
 1914SOL    HW2 6642   4.755   1.538   4.966
 1915SOL     OW 6643   2.578   6.576   5.162
 1915SOL    HW1 6644   2.560   6.627   5.078
 1915SOL    HW2 6645   2.631   6.633   5.225
 1916SOL     OW 6646   3.922   6.438   2.905
 1916SOL    HW1 6647   3.950   6.413   2.813
 1916SOL    HW2 6648   3.881   6.529   2.904
 1917SOL     OW 6649   3.700   4.046   3.350
 1917SOL    HW1 6650   3.692   4.071   3.446
 1917SOL    HW2 6651   3.783   3.992   3.336
 1918SOL     OW 6652   0.781   6.591   6.317
 1918SOL    HW1 6653   0.699   6.630   6.275
 1918SOL    HW2 6654   0.852   6.661   6.323
 1919SOL     OW 6655   5.262   0.909   1.724
 1919SOL    HW1 6656   5.268   0.924   1.823
 1919SOL    HW2 6657   5.191   0.841   1.705
 1920SOL     OW 6658   5.713   6.432   4.459
 1920SOL    HW1 6659   5.740   6.409   4.365
 1920SOL    HW2 6660   5.630   6.488   4.457
 1921SOL     OW 6661   2.349   6.907   0.162
 1921SOL    HW1 6662   2.367   6.811   0.140
 1921SOL    HW2 6663   2.403   6.966   0.101
 1922SOL     OW 6664   3.435   4.908   6.894
 1922SOL    HW1 6665   3.443   4.985   6.957
 1922SOL    HW2 6666   3.493   4.925   6.814
 1923SOL     OW 6667   1.469   2.713   1.505
 1923SOL    HW1 6668   1.496   2.701   1.409
 1923SOL    HW2 6669   1.396   2.780   1.510
 1924SOL     OW 6670   1.196   3.869   1.701
 1924SOL    HW1 6671   1.132   3.818   1.644
 1924SOL    HW2 6672   1.289   3.834   1.687
 1925SOL     OW 6673   2.946   4.770   0.138
 1925SOL    HW1 6674   3.032   4.820   0.135
 1925SOL    HW2 6675   2.950   4.700   0.211
 1926SOL     OW 6676   0.375   0.292   3.000
 1926SOL    HW1 6677   0.392   0.346   2.917
 1926SOL    HW2 6678   0.278   0.268   3.005
 1927SOL     OW 6679   5.495   3.031   1.408
 1927SOL    HW1 6680   5.422   3.097   1.391
 1927SOL    HW2 6681   5.487   2.996   1.501
 1928SOL     OW 6682   0.137   4.877   4.780
 1928SOL    HW1 6683   0.129   4.948   4.850
 1928SOL    HW2 6684   0.075   4.897   4.704
 1929SOL     OW 6685   1.803   4.618   3.362
 1929SOL    HW1 6686   1.845   4.689   3.305
 1929SOL    HW2 6687   1.854   4.533   3.353
 1930SOL     OW 6688   6.492   5.898   6.506
 1930SOL    HW1 6689   6.463   5.802   6.504
 1930SOL    HW2 6690   6.437   5.951   6.441
 1931SOL     OW 6691   2.458   2.654   3.440
 1931SOL    HW1 6692   2.450   2.665   3.341
 1931SOL    HW2 6693   2.421   2.735   3.485
 1932SOL     OW 6694   6.023   2.941   2.515
 1932SOL    HW1 6695   5.944   2.987   2.556
 1932SOL    HW2 6696   6.051   2.990   2.432
 1933SOL     OW 6697   2.140   5.218   0.372
 1933SOL    HW1 6698   2.043   5.224   0.351
 1933SOL    HW2 6699   2.154   5.221   0.471
 1934SOL     OW 6700   0.230   6.428   2.650
 1934SOL    HW1 6701   0.263   6.362   2.718
 1934SOL    HW2 6702   0.202   6.379   2.567
 1935SOL     OW 6703   0.873   1.684   2.264
 1935SOL    HW1 6704   0.804   1.640   2.320
 1935SOL    HW2 6705   0.870   1.783   2.278
 1936SOL     OW 6706   0.209   6.015   4.903
 1936SOL    HW1 6707   0.170   6.030   4.994
 1936SOL    HW2 6708   0.146   5.960   4.849
 1937SOL     OW 6709   5.029   2.055   3.535
 1937SOL    HW1 6710   5.062   2.033   3.443
 1937SOL    HW2 6711   5.084   2.006   3.602
 1938SOL     OW 6712   4.510   0.132   3.601
 1938SOL    HW1 6713   4.468   0.204   3.656
 1938SOL    HW2 6714   4.461   0.122   3.515
 1939SOL     OW 6715   2.413   1.082   4.248
 1939SOL    HW1 6716   2.472   1.160   4.226
 1939SOL    HW2 6717   2.393   1.082   4.346
 1940SOL     OW 6718   6.659   0.685   6.698
 1940SOL    HW1 6719   6.669   0.684   6.798
 1940SOL    HW2 6720   6.655   0.591   6.664
 1941SOL     OW 6721   4.701   4.892   2.738
 1941SOL    HW1 6722   4.651   4.973   2.709
 1941SOL    HW2 6723   4.671   4.813   2.684
 1942SOL     OW 6724   0.082   3.379   2.638
 1942SOL    HW1 6725   0.013   3.429   2.691
 1942SOL    HW2 6726   0.131   3.444   2.579
 1943SOL     OW 6727   3.587   5.186   3.765
 1943SOL    HW1 6728   3.660   5.213   3.701
 1943SOL    HW2 6729   3.498   5.195   3.720
 1944SOL     OW 6730   6.356   6.529   1.842
 1944SOL    HW1 6731   6.443   6.479   1.850
 1944SOL    HW2 6732   6.375   6.624   1.818
 1945SOL     OW 6733   3.413   5.287   2.164
 1945SOL    HW1 6734   3.504   5.304   2.127
 1945SOL    HW2 6735   3.347   5.281   2.089
 1946SOL     OW 6736   1.153   6.206   6.635
 1946SOL    HW1 6737   1.240   6.254   6.622
 1946SOL    HW2 6738   1.170   6.119   6.681
 1947SOL     OW 6739   4.430   1.431   3.760
 1947SOL    HW1 6740   4.486   1.501   3.715
 1947SOL    HW2 6741   4.431   1.347   3.706
 1948SOL     OW 6742   6.227   2.969   5.038
 1948SOL    HW1 6743   6.170   3.012   5.108
 1948SOL    HW2 6744   6.288   2.903   5.081
 1949SOL     OW 6745   4.748   3.784   0.031
 1949SOL    HW1 6746   4.805   3.718   0.079
 1949SOL    HW2 6747   4.653   3.776   0.062
 1950SOL     OW 6748   2.438   4.953   0.761
 1950SOL    HW1 6749   2.473   5.041   0.729
 1950SOL    HW2 6750   2.502   4.913   0.826
 1951SOL     OW 6751   5.326   3.035   6.493
 1951SOL    HW1 6752   5.237   3.001   6.524
 1951SOL    HW2 6753   5.377   2.960   6.449
 1952SOL     OW 6754   3.013   3.230   3.161
 1952SOL    HW1 6755   3.033   3.309   3.219
 1952SOL    HW2 6756   3.013   3.147   3.217
 1953SOL     OW 6757   0.843   2.103   4.857
 1953SOL    HW1 6758   0.885   2.025   4.811
 1953SOL    HW2 6759   0.829   2.176   4.790
 1954SOL     OW 6760   2.376   1.627   4.297
 1954SOL    HW1 6761   2.445   1.700   4.300
 1954SOL    HW2 6762   2.416   1.542   4.332
 1955SOL     OW 6763   6.189   5.458   3.027
 1955SOL    HW1 6764   6.238   5.515   2.961
 1955SOL    HW2 6765   6.232   5.368   3.032
 1956SOL     OW 6766   3.858   6.293   3.634
 1956SOL    HW1 6767   3.779   6.338   3.676
 1956SOL    HW2 6768   3.898   6.228   3.698
 1957SOL     OW 6769   2.323   6.065   5.587
 1957SOL    HW1 6770   2.246   6.124   5.612
 1957SOL    HW2 6771   2.345   6.005   5.664
 1958SOL     OW 6772   3.883   3.599   5.803
 1958SOL    HW1 6773   3.916   3.544   5.879
 1958SOL    HW2 6774   3.807   3.657   5.834
 1959SOL     OW 6775   3.390   0.146   0.954
 1959SOL    HW1 6776   3.292   0.135   0.971
 1959SOL    HW2 6777   3.416   0.093   0.873
 1960SOL     OW 6778   4.327   5.686   3.063
 1960SOL    HW1 6779   4.327   5.786   3.065
 1960SOL    HW2 6780   4.324   5.655   2.968
 1961SOL     OW 6781   6.031   5.215   5.338
 1961SOL    HW1 6782   6.120   5.183   5.304
 1961SOL    HW2 6783   5.975   5.245   5.262
 1962SOL     OW 6784   0.476   6.583   4.380
 1962SOL    HW1 6785   0.504   6.674   4.352
 1962SOL    HW2 6786   0.557   6.531   4.408
 1963SOL     OW 6787   2.316   1.502   3.763
 1963SOL    HW1 6788   2.229   1.495   3.812
 1963SOL    HW2 6789   2.307   1.570   3.690
 1964SOL     OW 6790   6.560   2.464   2.036
 1964SOL    HW1 6791   6.546   2.385   2.096
 1964SOL    HW2 6792   6.641   2.449   1.980
 1965SOL     OW 6793   1.418   6.475   3.429
 1965SOL    HW1 6794   1.485   6.433   3.368
 1965SOL    HW2 6795   1.391   6.564   3.392
 1966SOL     OW 6796   6.574   6.423   0.268
 1966SOL    HW1 6797   6.561   6.375   0.181
 1966SOL    HW2 6798   6.593   6.357   0.340
 1967SOL     OW 6799   6.660   2.659   4.884
 1967SOL    HW1 6800   6.680   2.644   4.788
 1967SOL    HW2 6801   6.607   2.744   4.894
 1968SOL     OW 6802   4.611   5.704   4.404
 1968SOL    HW1 6803   4.675   5.675   4.333
 1968SOL    HW2 6804   4.565   5.624   4.442
 1969SOL     OW 6805   5.944   0.684   1.225
 1969SOL    HW1 6806   5.954   0.593   1.185
 1969SOL    HW2 6807   6.017   0.744   1.189
 1970SOL     OW 6808   2.264   1.373   4.971
 1970SOL    HW1 6809   2.240   1.365   5.068
 1970SOL    HW2 6810   2.347   1.319   4.953
 1971SOL     OW 6811   0.027   1.603   5.766
 1971SOL    HW1 6812   7.007   1.618   5.857
 1971SOL    HW2 6813   7.009   1.518   5.728
 1972SOL     OW 6814   1.072   6.578   3.927
 1972SOL    HW1 6815   1.115   6.666   3.945
 1972SOL    HW2 6816   1.085   6.518   4.006
 1973SOL     OW 6817   3.814   2.756   0.313
 1973SOL    HW1 6818   3.828   2.704   0.228
 1973SOL    HW2 6819   3.859   2.708   0.388
 1974SOL     OW 6820   6.045   6.266   4.140
 1974SOL    HW1 6821   6.054   6.266   4.041
 1974SOL    HW2 6822   6.120   6.319   4.181
 1975SOL     OW 6823   2.401   0.134   3.852
 1975SOL    HW1 6824   2.385   0.049   3.801
 1975SOL    HW2 6825   2.389   0.117   3.950
 1976SOL     OW 6826   6.395   4.227   6.613
 1976SOL    HW1 6827   6.308   4.241   6.566
 1976SOL    HW2 6828   6.387   4.151   6.677
 1977SOL     OW 6829   3.062   2.134   5.195
 1977SOL    HW1 6830   3.088   2.230   5.202
 1977SOL    HW2 6831   3.114   2.091   5.121
 1978SOL     OW 6832   0.210   2.755   4.940
 1978SOL    HW1 6833   0.282   2.820   4.963
 1978SOL    HW2 6834   0.246   2.684   4.880
 1979SOL     OW 6835   6.661   4.105   2.346
 1979SOL    HW1 6836   6.679   4.032   2.412
 1979SOL    HW2 6837   6.725   4.098   2.270
 1980SOL     OW 6838   2.784   0.621   3.133
 1980SOL    HW1 6839   2.801   0.692   3.066
 1980SOL    HW2 6840   2.847   0.633   3.210
 1981SOL     OW 6841   5.509   3.197   2.552
 1981SOL    HW1 6842   5.545   3.290   2.557
 1981SOL    HW2 6843   5.563   3.144   2.488
 1982SOL     OW 6844   0.177   6.704   5.291
 1982SOL    HW1 6845   0.227   6.789   5.306
 1982SOL    HW2 6846   0.105   6.695   5.360
 1983SOL     OW 6847   0.941   5.092   1.730
 1983SOL    HW1 6848   1.007   5.121   1.660
 1983SOL    HW2 6849   0.987   5.032   1.796
 1984SOL     OW 6850   3.634   0.300   5.738
 1984SOL    HW1 6851   3.700   0.315   5.812
 1984SOL    HW2 6852   3.647   0.370   5.668
 1985SOL     OW 6853   0.962   5.460   2.180
 1985SOL    HW1 6854   0.890   5.524   2.154
 1985SOL    HW2 6855   0.987   5.404   2.101
 1986SOL     OW 6856   5.824   2.002   1.067
 1986SOL    HW1 6857   5.825   1.919   1.012
 1986SOL    HW2 6858   5.913   2.015   1.110
 1987SOL     OW 6859   1.756   3.313   0.615
 1987SOL    HW1 6860   1.734   3.261   0.532
 1987SOL    HW2 6861   1.831   3.267   0.663
 1988SOL     OW 6862   5.265   2.637   1.482
 1988SOL    HW1 6863   5.342   2.580   1.510
 1988SOL    HW2 6864   5.213   2.589   1.411
 1989SOL     OW 6865   2.641   2.381   3.253
 1989SOL    HW1 6866   2.662   2.299   3.199
 1989SOL    HW2 6867   2.670   2.366   3.348
 1990SOL     OW 6868   1.363   6.979   2.947
 1990SOL    HW1 6869   1.429   0.030   2.975
 1990SOL    HW2 6870   1.406   6.889   2.950
 1991SOL     OW 6871   5.393   5.579   2.393
 1991SOL    HW1 6872   5.487   5.561   2.420
 1991SOL    HW2 6873   5.332   5.562   2.470
 1992SOL     OW 6874   2.117   5.875   5.197
 1992SOL    HW1 6875   2.101   5.778   5.212
 1992SOL    HW2 6876   2.105   5.896   5.100
 1993SOL     OW 6877   3.395   3.151   4.130
 1993SOL    HW1 6878   3.370   3.224   4.195
 1993SOL    HW2 6879   3.312   3.108   4.095
 1994SOL     OW 6880   6.222   1.754   1.176
 1994SOL    HW1 6881   6.282   1.834   1.182
 1994SOL    HW2 6882   6.183   1.735   1.266
 1995SOL     OW 6883   4.175   2.881   1.737
 1995SOL    HW1 6884   4.111   2.918   1.803
 1995SOL    HW2 6885   4.145   2.790   1.708
 1996SOL     OW 6886   2.245   5.343   6.241
 1996SOL    HW1 6887   2.316   5.326   6.173
 1996SOL    HW2 6888   2.198   5.258   6.262
 1997SOL     OW 6889   5.687   6.168   4.813
 1997SOL    HW1 6890   5.673   6.209   4.903
 1997SOL    HW2 6891   5.781   6.135   4.805
 1998SOL     OW 6892   3.034   5.220   4.961
 1998SOL    HW1 6893   3.070   5.168   5.039
 1998SOL    HW2 6894   3.039   5.164   4.878
 1999SOL     OW 6895   3.442   1.243   2.185
 1999SOL    HW1 6896   3.541   1.245   2.201
 1999SOL    HW2 6897   3.395   1.290   2.259
 2000SOL     OW 6898   3.201   0.775   6.002
 2000SOL    HW1 6899   3.128   0.723   5.959
 2000SOL    HW2 6900   3.162   0.848   6.059
 2001SOL     OW 6901   1.926   3.324   0.047
 2001SOL    HW1 6902   1.973   3.274   6.993
 2001SOL    HW2 6903   1.988   3.338   0.124
 2002SOL     OW 6904   1.930   4.888   5.187
 2002SOL    HW1 6905   1.837   4.916   5.163
 2002SOL    HW2 6906   1.931   4.855   5.281
 2003SOL     OW 6907   6.424   4.153   3.447
 2003SOL    HW1 6908   6.325   4.137   3.451
 2003SOL    HW2 6909   6.461   4.105   3.367
 2004SOL     OW 6910   3.196   0.059   6.347
 2004SOL    HW1 6911   3.272   0.030   6.405
 2004SOL    HW2 6912   3.230   0.080   6.255
 2005SOL     OW 6913   2.599   6.926   5.495
 2005SOL    HW1 6914   2.630   6.900   5.586
 2005SOL    HW2 6915   2.523   6.867   5.468
 2006SOL     OW 6916   5.239   0.545   2.558
 2006SOL    HW1 6917   5.267   0.449   2.564
 2006SOL    HW2 6918   5.195   0.561   2.469
 2007SOL     OW 6919   6.793   5.234   0.143
 2007SOL    HW1 6920   6.751   5.149   0.114
 2007SOL    HW2 6921   6.748   5.311   0.097
 2008SOL     OW 6922   0.142   5.657   5.784
 2008SOL    HW1 6923   0.207   5.582   5.771
 2008SOL    HW2 6924   0.162   5.703   5.870
 2009SOL     OW 6925   1.150   0.307   0.110
 2009SOL    HW1 6926   1.172   0.404   0.123
 2009SOL    HW2 6927   1.068   0.284   0.162
 2010SOL     OW 6928   2.643   0.780   1.015
 2010SOL    HW1 6929   2.723   0.804   0.960
 2010SOL    HW2 6930   2.586   0.715   0.964
 2011SOL     OW 6931   0.097   1.661   4.944
 2011SOL    HW1 6932   0.090   1.696   4.851
 2011SOL    HW2 6933   0.114   1.563   4.943
 2012SOL     OW 6934   6.878   3.467   2.375
 2012SOL    HW1 6935   6.822   3.385   2.371
 2012SOL    HW2 6936   6.970   3.444   2.406
 2013SOL     OW 6937   3.573   2.202   1.582
 2013SOL    HW1 6938   3.613   2.263   1.650
 2013SOL    HW2 6939   3.624   2.210   1.496
 2014SOL     OW 6940   3.766   4.942   3.514
 2014SOL    HW1 6941   3.671   4.961   3.493
 2014SOL    HW2 6942   3.814   4.916   3.430
 2015SOL     OW 6943   2.913   5.344   6.980
 2015SOL    HW1 6944   2.914   5.248   7.009
 2015SOL    HW2 6945   2.819   5.373   6.963
 2016SOL     OW 6946   6.816   5.175   5.264
 2016SOL    HW1 6947   6.733   5.199   5.315
 2016SOL    HW2 6948   6.806   5.203   5.169
 2017SOL     OW 6949   2.009   4.746   1.376
 2017SOL    HW1 6950   2.040   4.763   1.283
 2017SOL    HW2 6951   2.039   4.820   1.436
 2018SOL     OW 6952   0.350   4.696   4.705
 2018SOL    HW1 6953   0.291   4.616   4.696
 2018SOL    HW2 6954   0.298   4.771   4.747
 2019SOL     OW 6955   5.672   0.562   2.642
 2019SOL    HW1 6956   5.637   0.490   2.582
 2019SOL    HW2 6957   5.600   0.630   2.658
 2020SOL     OW 6958   2.260   5.051   3.362
 2020SOL    HW1 6959   2.196   5.116   3.322
 2020SOL    HW2 6960   2.349   5.059   3.316
 2021SOL     OW 6961   1.700   6.262   1.727
 2021SOL    HW1 6962   1.794   6.250   1.757
 2021SOL    HW2 6963   1.639   6.255   1.806
 2022SOL     OW 6964   4.036   5.242   1.596
 2022SOL    HW1 6965   3.954   5.288   1.561
 2022SOL    HW2 6966   4.009   5.169   1.659
 2023SOL     OW 6967   0.053   2.690   6.109
 2023SOL    HW1 6968   0.098   2.683   6.020
 2023SOL    HW2 6969   6.978   2.656   6.101
 2024SOL     OW 6970   5.726   6.912   3.306
 2024SOL    HW1 6971   5.659   6.858   3.255
 2024SOL    HW2 6972   5.813   6.911   3.257
 2025SOL     OW 6973   6.124   0.883   1.176
 2025SOL    HW1 6974   6.158   0.963   1.225
 2025SOL    HW2 6975   6.082   0.911   1.090
 2026SOL     OW 6976   2.446   2.171   4.989
 2026SOL    HW1 6977   2.378   2.145   5.058
 2026SOL    HW2 6978   2.527   2.114   5.000
 2027SOL     OW 6979   6.264   6.718   2.080
 2027SOL    HW1 6980   6.200   6.784   2.039
 2027SOL    HW2 6981   6.242   6.626   2.049
 2028SOL     OW 6982   3.752   4.277   5.882
 2028SOL    HW1 6983   3.688   4.201   5.892
 2028SOL    HW2 6984   3.746   4.314   5.789
 2029SOL     OW 6985   2.149   0.491   6.967
 2029SOL    HW1 6986   2.087   0.483   6.889
 2029SOL    HW2 6987   2.231   0.541   6.940
 2030SOL     OW 6988   2.200   2.973   2.641
 2030SOL    HW1 6989   2.247   2.903   2.588
 2030SOL    HW2 6990   2.219   2.960   2.739
 2031SOL     OW 6991   6.236   6.942   2.349
 2031SOL    HW1 6992   6.289   6.954   2.264
 2031SOL    HW2 6993   6.270   7.006   2.418
 2032SOL     OW 6994   4.299   6.239   2.637
 2032SOL    HW1 6995   4.319   6.146   2.669
 2032SOL    HW2 6996   4.385   6.289   2.627
 2033SOL     OW 6997   0.385   4.847   7.006
 2033SOL    HW1 6998   0.381   4.884   6.913
 2033SOL    HW2 6999   0.310   4.886   0.041
 2034SOL     OW 7000   1.839   5.651   3.973
 2034SOL    HW1 7001   1.927   5.699   3.971
 2034SOL    HW2 7002   1.854   5.555   3.996
 2035SOL     OW 7003   0.712   0.798   2.831
 2035SOL    HW1 7004   0.715   0.786   2.930
 2035SOL    HW2 7005   0.762   0.723   2.787
 2036SOL     OW 7006   1.093   4.225   1.663
 2036SOL    HW1 7007   1.020   4.281   1.624
 2036SOL    HW2 7008   1.100   4.140   1.611
 2037SOL     OW 7009   0.778   2.786   5.997
 2037SOL    HW1 7010   0.849   2.821   5.935
 2037SOL    HW2 7011   0.688   2.807   5.958
 2038SOL     OW 7012   1.711   6.683   4.869
 2038SOL    HW1 7013   1.740   6.772   4.902
 2038SOL    HW2 7014   1.699   6.621   4.947
 2039SOL     OW 7015   1.104   5.322   1.985
 2039SOL    HW1 7016   1.130   5.227   1.966
 2039SOL    HW2 7017   1.064   5.363   1.903
 2040SOL     OW 7018   3.952   3.048   4.416
 2040SOL    HW1 7019   3.904   2.965   4.445
 2040SOL    HW2 7020   3.918   3.126   4.468
 2041SOL     OW 7021   5.083   3.114   0.363
 2041SOL    HW1 7022   5.031   3.042   0.319
 2041SOL    HW2 7023   5.129   3.078   0.444
 2042SOL     OW 7024   3.416   6.587   0.317
 2042SOL    HW1 7025   3.441   6.621   0.408
 2042SOL    HW2 7026   3.373   6.497   0.325
 2043SOL     OW 7027   4.778   5.211   2.453
 2043SOL    HW1 7028   4.696   5.205   2.510
 2043SOL    HW2 7029   4.859   5.204   2.511
 2044SOL     OW 7030   6.417   0.930   1.782
 2044SOL    HW1 7031   6.333   0.915   1.835
 2044SOL    HW2 7032   6.436   0.850   1.726
 2045SOL     OW 7033   3.605   6.695   5.387
 2045SOL    HW1 7034   3.519   6.747   5.386
 2045SOL    HW2 7035   3.681   6.755   5.361
 2046SOL     OW 7036   6.192   0.726   5.645
 2046SOL    HW1 7037   6.130   0.677   5.584
 2046SOL    HW2 7038   6.235   0.801   5.596
 2047SOL     OW 7039   5.023   3.387   0.336
 2047SOL    HW1 7040   5.084   3.462   0.361
 2047SOL    HW2 7041   5.061   3.300   0.368
 2048SOL     OW 7042   4.716   6.575   5.093
 2048SOL    HW1 7043   4.790   6.546   5.032
 2048SOL    HW2 7044   4.735   6.543   5.186
 2049SOL     OW 7045   5.507   5.792   6.506
 2049SOL    HW1 7046   5.554   5.758   6.424
 2049SOL    HW2 7047   5.453   5.719   6.546
 2050SOL     OW 7048   5.808   1.048   3.782
 2050SOL    HW1 7049   5.724   1.007   3.747
 2050SOL    HW2 7050   5.790   1.142   3.810
 2051SOL     OW 7051   3.367   5.919   1.141
 2051SOL    HW1 7052   3.313   5.967   1.211
 2051SOL    HW2 7053   3.321   5.833   1.117
 2052SOL     OW 7054   1.157   2.309   1.039
 2052SOL    HW1 7055   1.070   2.276   1.003
 2052SOL    HW2 7056   1.225   2.236   1.038
 2053SOL     OW 7057   4.993   0.662   0.354
 2053SOL    HW1 7058   4.951   0.744   0.392
 2053SOL    HW2 7059   5.040   0.684   0.269
 2054SOL     OW 7060   0.677   2.695   0.464
 2054SOL    HW1 7061   0.633   2.739   0.543
 2054SOL    HW2 7062   0.671   2.755   0.385
 2055SOL     OW 7063   6.235   0.966   4.004
 2055SOL    HW1 7064   6.314   0.979   3.944
 2055SOL    HW2 7065   6.200   1.055   4.032
 2056SOL     OW 7066   6.931   6.696   2.142
 2056SOL    HW1 7067   7.018   6.737   2.115
 2056SOL    HW2 7068   6.857   6.733   2.085
 2057SOL     OW 7069   4.958   3.120   4.016
 2057SOL    HW1 7070   4.976   3.050   4.085
 2057SOL    HW2 7071   4.962   3.079   3.925
 2058SOL     OW 7072   1.108   1.417   1.209
 2058SOL    HW1 7073   1.125   1.457   1.119
 2058SOL    HW2 7074   1.025   1.456   1.248
 2059SOL     OW 7075   1.691   0.271   0.239
 2059SOL    HW1 7076   1.757   0.282   0.313
 2059SOL    HW2 7077   1.727   0.205   0.172
 2060SOL     OW 7078   0.673   5.097   3.445
 2060SOL    HW1 7079   0.646   5.013   3.398
 2060SOL    HW2 7080   0.756   5.134   3.404
 2061SOL     OW 7081   1.544   0.434   0.404
 2061SOL    HW1 7082   1.554   0.525   0.363
 2061SOL    HW2 7083   1.566   0.365   0.335
 2062SOL     OW 7084   4.106   0.067   3.930
 2062SOL    HW1 7085   4.030   0.095   3.988
 2062SOL    HW2 7086   4.083   0.087   3.834
 2063SOL     OW 7087   2.467   3.029   1.068
 2063SOL    HW1 7088   2.382   3.015   1.120
 2063SOL    HW2 7089   2.545   3.025   1.130
 2064SOL     OW 7090   0.692   1.852   0.817
 2064SOL    HW1 7091   0.754   1.857   0.738
 2064SOL    HW2 7092   0.640   1.936   0.824
 2065SOL     OW 7093   0.270   3.150   3.063
 2065SOL    HW1 7094   0.268   3.070   3.123
 2065SOL    HW2 7095   0.310   3.228   3.112
 2066SOL     OW 7096   0.928   6.215   3.377
 2066SOL    HW1 7097   0.993   6.172   3.315
 2066SOL    HW2 7098   0.971   6.295   3.419
 2067SOL     OW 7099   0.035   0.337   0.971
 2067SOL    HW1 7100   0.118   0.381   0.938
 2067SOL    HW2 7101   6.976   0.363   0.914
 2068SOL     OW 7102   2.317   2.089   5.251
 2068SOL    HW1 7103   2.307   1.990   5.237
 2068SOL    HW2 7104   2.306   2.110   5.348
 2069SOL     OW 7105   2.072   2.076   1.949
 2069SOL    HW1 7106   2.020   2.050   1.867
 2069SOL    HW2 7107   2.134   2.151   1.926
 2070SOL     OW 7108   0.491   1.924   2.505
 2070SOL    HW1 7109   0.490   1.830   2.537
 2070SOL    HW2 7110   0.576   1.969   2.534
 2071SOL     OW 7111   2.721   5.966   5.886
 2071SOL    HW1 7112   2.739   6.056   5.846
 2071SOL    HW2 7113   2.654   5.976   5.959
 2072SOL     OW 7114   5.320   4.262   2.735
 2072SOL    HW1 7115   5.239   4.255   2.677
 2072SOL    HW2 7116   5.330   4.356   2.767
 2073SOL     OW 7117   3.378   6.752   4.851
 2073SOL    HW1 7118   3.352   6.843   4.883
 2073SOL    HW2 7119   3.358   6.684   4.922
 2074SOL     OW 7120   4.523   1.969   3.298
 2074SOL    HW1 7121   4.593   1.898   3.298
 2074SOL    HW2 7122   4.499   1.992   3.393
 2075SOL     OW 7123   3.751   2.743   6.452
 2075SOL    HW1 7124   3.763   2.676   6.525
 2075SOL    HW2 7125   3.681   2.809   6.479
 2076SOL     OW 7126   5.038   6.896   0.681
 2076SOL    HW1 7127   4.959   6.891   0.618
 2076SOL    HW2 7128   5.098   6.818   0.665
 2077SOL     OW 7129   3.794   1.238   5.218
 2077SOL    HW1 7130   3.750   1.153   5.189
 2077SOL    HW2 7131   3.835   1.283   5.139
 2078SOL     OW 7132   3.946   6.249   4.087
 2078SOL    HW1 7133   4.042   6.274   4.104
 2078SOL    HW2 7134   3.886   6.313   4.135
 2079SOL     OW 7135   5.342   0.003   3.983
 2079SOL    HW1 7136   5.421   6.980   4.030
 2079SOL    HW2 7137   5.260   6.968   4.003
 2080SOL     OW 7138   3.123   1.680   2.986
 2080SOL    HW1 7139   3.026   1.669   3.012
 2080SOL    HW2 7140   3.173   1.722   3.062
 2081SOL     OW 7141   1.139   5.731   3.476
 2081SOL    HW1 7142   1.212   5.701   3.536
 2081SOL    HW2 7143   1.084   5.801   3.523
 2082SOL     OW 7144   4.660   0.958   3.171
 2082SOL    HW1 7145   4.680   0.930   3.078
 2082SOL    HW2 7146   4.686   1.054   3.184
 2083SOL     OW 7147   4.015   4.801   5.975
 2083SOL    HW1 7148   4.043   4.859   5.899
 2083SOL    HW2 7149   3.967   4.720   5.940
 2084SOL     OW 7150   0.320   2.292   3.124
 2084SOL    HW1 7151   0.397   2.237   3.092
 2084SOL    HW2 7152   0.343   2.389   3.119
 2085SOL     OW 7153   5.853   6.824   0.489
 2085SOL    HW1 7154   5.929   6.760   0.481
 2085SOL    HW2 7155   5.886   6.912   0.524
 2086SOL     OW 7156   3.684   5.531   6.543
 2086SOL    HW1 7157   3.761   5.594   6.545
 2086SOL    HW2 7158   3.600   5.581   6.567
 2087SOL     OW 7159   6.095   5.840   2.897
 2087SOL    HW1 7160   6.090   5.819   2.995
 2087SOL    HW2 7161   6.057   5.764   2.845
 2088SOL     OW 7162   2.287   6.386   1.183
 2088SOL    HW1 7163   2.219   6.313   1.180
 2088SOL    HW2 7164   2.277   6.437   1.268
 2089SOL     OW 7165   2.309   0.689   6.614
 2089SOL    HW1 7166   2.394   0.732   6.646
 2089SOL    HW2 7167   2.233   0.721   6.670
 2090SOL     OW 7168   2.934   3.546   3.561
 2090SOL    HW1 7169   2.891   3.461   3.530
 2090SOL    HW2 7170   2.923   3.554   3.660
 2091SOL     OW 7171   2.475   4.149   1.430
 2091SOL    HW1 7172   2.492   4.153   1.528
 2091SOL    HW2 7173   2.384   4.184   1.410
 2092SOL     OW 7174   6.000   0.072   0.358
 2092SOL    HW1 7175   5.976   0.081   0.455
 2092SOL    HW2 7176   6.094   0.040   0.350
 2093SOL     OW 7177   1.442   1.332   1.824
 2093SOL    HW1 7178   1.482   1.310   1.913
 2093SOL    HW2 7179   1.512   1.374   1.766
 2094SOL     OW 7180   0.114   1.034   2.555
 2094SOL    HW1 7181   0.074   1.077   2.474
 2094SOL    HW2 7182   0.191   0.977   2.528
 2095SOL     OW 7183   6.182   4.404   5.516
 2095SOL    HW1 7184   6.209   4.315   5.480
 2095SOL    HW2 7185   6.263   4.457   5.541
 2096SOL     OW 7186   4.910   4.343   3.787
 2096SOL    HW1 7187   4.912   4.415   3.856
 2096SOL    HW2 7188   4.817   4.307   3.779
 2097SOL     OW 7189   6.776   3.461   5.281
 2097SOL    HW1 7190   6.850   3.524   5.256
 2097SOL    HW2 7191   6.814   3.370   5.298
 2098SOL     OW 7192   4.560   0.321   4.423
 2098SOL    HW1 7193   4.462   0.327   4.404
 2098SOL    HW2 7194   4.586   0.225   4.432
 2099SOL     OW 7195   2.695   1.548   4.119
 2099SOL    HW1 7196   2.792   1.572   4.120
 2099SOL    HW2 7197   2.649   1.600   4.047
 2100SOL     OW 7198   4.533   4.571   5.802
 2100SOL    HW1 7199   4.514   4.549   5.706
 2100SOL    HW2 7200   4.476   4.649   5.830
 2101SOL     OW 7201   5.703   6.974   1.844
 2101SOL    HW1 7202   5.628   6.995   1.781
 2101SOL    HW2 7203   5.672   6.989   1.938
 2102SOL     OW 7204   0.001   5.055   0.988
 2102SOL    HW1 7205   6.992   5.070   0.894
 2102SOL    HW2 7206   6.945   5.081   1.050
 2103SOL     OW 7207   3.358   3.509   6.566
 2103SOL    HW1 7208   3.433   3.447   6.543
 2103SOL    HW2 7209   3.367   3.538   6.661
 2104SOL     OW 7210   0.620   4.886   6.165
 2104SOL    HW1 7211   0.641   4.957   6.232
 2104SOL    HW2 7212   0.677   4.806   6.182
 2105SOL     OW 7213   5.146   6.156   2.272
 2105SOL    HW1 7214   5.227   6.189   2.321
 2105SOL    HW2 7215   5.174   6.088   2.204
 2106SOL     OW 7216   6.489   6.220   6.551
 2106SOL    HW1 7217   6.419   6.158   6.514
 2106SOL    HW2 7218   6.538   6.174   6.625
 2107SOL     OW 7219   2.683   5.098   6.927
 2107SOL    HW1 7220   2.695   5.064   6.834
 2107SOL    HW2 7221   2.665   5.197   6.924
 2108SOL     OW 7222   5.630   4.536   6.548
 2108SOL    HW1 7223   5.613   4.478   6.628
 2108SOL    HW2 7224   5.592   4.627   6.563
 2109SOL     OW 7225   5.596   5.733   2.939
 2109SOL    HW1 7226   5.562   5.783   2.859
 2109SOL    HW2 7227   5.623   5.641   2.912
 2110SOL     OW 7228   1.390   5.073   5.535
 2110SOL    HW1 7229   1.428   5.081   5.443
 2110SOL    HW2 7230   1.432   4.995   5.582
 2111SOL     OW 7231   1.689   1.839   6.672
 2111SOL    HW1 7232   1.770   1.806   6.720
 2111SOL    HW2 7233   1.710   1.927   6.629
 2112SOL     OW 7234   4.986   3.854   0.558
 2112SOL    HW1 7235   4.896   3.876   0.523
 2112SOL    HW2 7236   5.024   3.776   0.507
 2113SOL     OW 7237   6.499   1.029   3.881
 2113SOL    HW1 7238   6.586   1.052   3.924
 2113SOL    HW2 7239   6.511   1.027   3.781
 2114SOL     OW 7240   1.345   3.508   6.206
 2114SOL    HW1 7241   1.383   3.416   6.223
 2114SOL    HW2 7242   1.389   3.574   6.268
 2115SOL     OW 7243   3.972   4.996   1.727
 2115SOL    HW1 7244   4.071   4.982   1.727
 2115SOL    HW2 7245   3.926   4.912   1.757
 2116SOL     OW 7246   0.409   4.135   4.294
 2116SOL    HW1 7247   0.321   4.161   4.254
 2116SOL    HW2 7248   0.419   4.179   4.384
 2117SOL     OW 7249   5.901   5.674   5.804
 2117SOL    HW1 7250   5.933   5.606   5.871
 2117SOL    HW2 7251   5.954   5.759   5.816
 2118SOL     OW 7252   6.904   2.974   2.405
 2118SOL    HW1 7253   6.993   3.020   2.407
 2118SOL    HW2 7254   6.882   2.949   2.311
 2119SOL     OW 7255   4.077   6.793   6.823
 2119SOL    HW1 7256   4.151   6.827   6.881
 2119SOL    HW2 7257   4.092   6.695   6.806
 2120SOL     OW 7258   6.447   3.940   1.993
 2120SOL    HW1 7259   6.428   4.038   2.001
 2120SOL    HW2 7260   6.545   3.924   1.995
 2121SOL     OW 7261   0.521   3.872   4.371
 2121SOL    HW1 7262   0.612   3.834   4.355
 2121SOL    HW2 7263   0.516   3.964   4.334
 2122SOL     OW 7264   4.018   5.296   5.099
 2122SOL    HW1 7265   4.004   5.237   5.178
 2122SOL    HW2 7266   4.093   5.260   5.043
 2123SOL     OW 7267   3.957   6.211   3.338
 2123SOL    HW1 7268   3.982   6.283   3.403
 2123SOL    HW2 7269   3.907   6.139   3.385
 2124SOL     OW 7270   2.246   2.642   1.644
 2124SOL    HW1 7271   2.286   2.552   1.626
 2124SOL    HW2 7272   2.309   2.695   1.701
 2125SOL     OW 7273   4.631   6.073   6.808
 2125SOL    HW1 7274   4.655   5.979   6.780
 2125SOL    HW2 7275   4.691   6.137   6.761
 2126SOL     OW 7276   2.837   1.896   1.040
 2126SOL    HW1 7277   2.765   1.837   1.075
 2126SOL    HW2 7278   2.797   1.965   0.979
 2127SOL     OW 7279   5.743   2.582   4.263
 2127SOL    HW1 7280   5.745   2.492   4.219
 2127SOL    HW2 7281   5.648   2.611   4.274
 2128SOL     OW 7282   0.829   3.559   4.388
 2128SOL    HW1 7283   0.805   3.654   4.364
 2128SOL    HW2 7284   0.819   3.501   4.307
 2129SOL     OW 7285   4.459   2.327   5.014
 2129SOL    HW1 7286   4.394   2.333   5.090
 2129SOL    HW2 7287   4.455   2.236   4.974
 2130SOL     OW 7288   4.786   6.569   2.768
 2130SOL    HW1 7289   4.771   6.558   2.866
 2130SOL    HW2 7290   4.807   6.481   2.727
 2131SOL     OW 7291   4.770   1.783   6.628
 2131SOL    HW1 7292   4.797   1.693   6.594
 2131SOL    HW2 7293   4.831   1.812   6.701
 2132SOL     OW 7294   0.905   3.059   1.455
 2132SOL    HW1 7295   0.996   3.055   1.415
 2132SOL    HW2 7296   0.839   3.022   1.390
 2133SOL     OW 7297   2.354   4.367   6.060
 2133SOL    HW1 7298   2.297   4.416   6.125
 2133SOL    HW2 7299   2.421   4.429   6.019
 2134SOL     OW 7300   0.300   6.704   0.495
 2134SOL    HW1 7301   0.309   6.804   0.496
 2134SOL    HW2 7302   0.381   6.663   0.452
 2135SOL     OW 7303   6.350   5.193   5.637
 2135SOL    HW1 7304   6.338   5.183   5.538
 2135SOL    HW2 7305   6.447   5.195   5.659
 2136SOL     OW 7306   1.617   5.238   0.010
 2136SOL    HW1 7307   1.665   5.254   6.943
 2136SOL    HW2 7308   1.585   5.143   0.014
 2137SOL     OW 7309   1.643   6.412   3.780
 2137SOL    HW1 7310   1.668   6.508   3.771
 2137SOL    HW2 7311   1.546   6.405   3.804
 2138SOL     OW 7312   4.753   2.219   1.723
 2138SOL    HW1 7313   4.677   2.169   1.765
 2138SOL    HW2 7314   4.778   2.174   1.637
 2139SOL     OW 7315   2.600   5.795   5.599
 2139SOL    HW1 7316   2.563   5.720   5.545
 2139SOL    HW2 7317   2.695   5.774   5.625
 2140SOL     OW 7318   2.362   2.209   3.062
 2140SOL    HW1 7319   2.453   2.246   3.082
 2140SOL    HW2 7320   2.372   2.123   3.011
 2141SOL     OW 7321   6.700   3.302   2.922
 2141SOL    HW1 7322   6.608   3.274   2.894
 2141SOL    HW2 7323   6.747   3.344   2.845
 2142SOL     OW 7324   2.036   1.366   1.819
 2142SOL    HW1 7325   2.094   1.394   1.742
 2142SOL    HW2 7326   1.963   1.307   1.785
 2143SOL     OW 7327   6.792   5.277   5.748
 2143SOL    HW1 7328   6.767   5.374   5.756
 2143SOL    HW2 7329   6.823   5.243   5.837
 2144SOL     OW 7330   6.107   4.483   2.805
 2144SOL    HW1 7331   6.113   4.489   2.706
 2144SOL    HW2 7332   6.198   4.498   2.845
 2145SOL     OW 7333   3.448   1.018   3.404
 2145SOL    HW1 7334   3.494   0.936   3.368
 2145SOL    HW2 7335   3.381   1.050   3.338
 2146SOL     OW 7336   1.955   1.464   6.694
 2146SOL    HW1 7337   1.938   1.561   6.674
 2146SOL    HW2 7338   1.868   1.418   6.710
 2147SOL     OW 7339   5.864   0.138   5.370
 2147SOL    HW1 7340   5.774   0.097   5.358
 2147SOL    HW2 7341   5.856   0.223   5.421
 2148SOL     OW 7342   1.871   2.597   5.386
 2148SOL    HW1 7343   1.940   2.524   5.396
 2148SOL    HW2 7344   1.911   2.674   5.336
 2149SOL     OW 7345   0.034   6.651   0.153
 2149SOL    HW1 7346   0.071   6.559   0.164
 2149SOL    HW2 7347   0.105   6.718   0.172
 2150SOL     OW 7348   1.373   2.497   0.451
 2150SOL    HW1 7349   1.354   2.495   0.353
 2150SOL    HW2 7350   1.309   2.559   0.496
 2151SOL     OW 7351   0.839   5.488   6.860
 2151SOL    HW1 7352   0.745   5.516   6.880
 2151SOL    HW2 7353   0.837   5.411   6.796
 2152SOL     OW 7354   5.224   6.463   3.830
 2152SOL    HW1 7355   5.253   6.369   3.846
 2152SOL    HW2 7356   5.300   6.516   3.792
 2153SOL     OW 7357   4.885   6.953   3.734
 2153SOL    HW1 7358   4.896   0.000   3.809
 2153SOL    HW2 7359   4.825   6.879   3.764
 2154SOL     OW 7360   2.374   6.328   2.045
 2154SOL    HW1 7361   2.289   6.297   2.089
 2154SOL    HW2 7362   2.401   6.416   2.081
 2155SOL     OW 7363   5.133   0.490   0.516
 2155SOL    HW1 7364   5.073   0.531   0.446
 2155SOL    HW2 7365   5.158   0.559   0.583
 2156SOL     OW 7366   6.604   1.689   4.221
 2156SOL    HW1 7367   6.584   1.761   4.154
 2156SOL    HW2 7368   6.671   1.723   4.287
 2157SOL     OW 7369   4.150   5.787   3.311
 2157SOL    HW1 7370   4.234   5.833   3.283
 2157SOL    HW2 7371   4.104   5.842   3.381
 2158SOL     OW 7372   2.810   0.072   0.170
 2158SOL    HW1 7373   2.879   0.136   0.136
 2158SOL    HW2 7374   2.758   0.114   0.244
 2159SOL     OW 7375   0.873   2.280   5.712
 2159SOL    HW1 7376   0.929   2.209   5.755
 2159SOL    HW2 7377   0.932   2.355   5.682
 2160SOL     OW 7378   5.380   6.796   6.762
 2160SOL    HW1 7379   5.353   6.745   6.844
 2160SOL    HW2 7380   5.473   6.830   6.773
 2161SOL     OW 7381   1.307   3.602   0.015
 2161SOL    HW1 7382   1.364   3.619   0.095
 2161SOL    HW2 7383   1.358   3.546   6.968
 2162SOL     OW 7384   2.024   6.666   0.186
 2162SOL    HW1 7385   2.059   6.759   0.198
 2162SOL    HW2 7386   1.924   6.668   0.186
 2163SOL     OW 7387   0.755   3.060   4.130
 2163SOL    HW1 7388   0.781   2.978   4.180
 2163SOL    HW2 7389   0.708   3.124   4.192
 2164SOL     OW 7390   2.023   4.897   1.971
 2164SOL    HW1 7391   2.050   4.992   1.956
 2164SOL    HW2 7392   2.090   4.852   2.030
 2165SOL     OW 7393   6.259   2.172   5.561
 2165SOL    HW1 7394   6.177   2.142   5.512
 2165SOL    HW2 7395   6.276   2.110   5.637
 2166SOL     OW 7396   6.484   2.210   2.203
 2166SOL    HW1 7397   6.387   2.225   2.186
 2166SOL    HW2 7398   6.498   2.180   2.297
 2167SOL     OW 7399   1.441   2.215   2.903
 2167SOL    HW1 7400   1.522   2.272   2.891
 2167SOL    HW2 7401   1.359   2.272   2.893
 2168SOL     OW 7402   1.498   2.173   3.675
 2168SOL    HW1 7403   1.432   2.098   3.669
 2168SOL    HW2 7404   1.465   2.250   3.621
 2169SOL     OW 7405   6.216   6.893   0.662
 2169SOL    HW1 7406   6.197   6.809   0.714
 2169SOL    HW2 7407   6.153   6.965   0.692
 2170SOL     OW 7408   2.051   2.715   6.326
 2170SOL    HW1 7409   1.973   2.657   6.349
 2170SOL    HW2 7410   2.124   2.702   6.393
 2171SOL     OW 7411   6.205   6.864   1.466
 2171SOL    HW1 7412   6.258   6.846   1.548
 2171SOL    HW2 7413   6.113   6.893   1.491
 2172SOL     OW 7414   2.413   2.645   4.815
 2172SOL    HW1 7415   2.475   2.626   4.738
 2172SOL    HW2 7416   2.446   2.597   4.896
 2173SOL     OW 7417   4.128   0.686   4.890
 2173SOL    HW1 7418   4.149   0.779   4.921
 2173SOL    HW2 7419   4.143   0.680   4.791
 2174SOL     OW 7420   5.097   0.033   5.313
 2174SOL    HW1 7421   5.098   0.125   5.350
 2174SOL    HW2 7422   5.144   6.989   5.375
 2175SOL     OW 7423   2.987   2.622   5.795
 2175SOL    HW1 7424   2.984   2.708   5.845
 2175SOL    HW2 7425   2.991   2.546   5.860
 2176SOL     OW 7426   6.718   1.733   2.890
 2176SOL    HW1 7427   6.766   1.821   2.888
 2176SOL    HW2 7428   6.624   1.745   2.857
 2177SOL     OW 7429   0.778   0.290   5.065
 2177SOL    HW1 7430   0.797   0.205   5.015
 2177SOL    HW2 7431   0.683   0.291   5.095
 2178SOL     OW 7432   1.888   3.436   2.224
 2178SOL    HW1 7433   1.927   3.388   2.146
 2178SOL    HW2 7434   1.906   3.385   2.308
 2179SOL     OW 7435   1.379   4.157   6.672
 2179SOL    HW1 7436   1.352   4.090   6.742
 2179SOL    HW2 7437   1.375   4.249   6.711
 2180SOL     OW 7438   0.200   5.122   2.754
 2180SOL    HW1 7439   0.186   5.213   2.793
 2180SOL    HW2 7440   0.295   5.094   2.767
 2181SOL     OW 7441   4.300   4.623   3.360
 2181SOL    HW1 7442   4.237   4.593   3.289
 2181SOL    HW2 7443   4.331   4.716   3.341
 2182SOL     OW 7444   0.148   6.849   0.907
 2182SOL    HW1 7445   0.098   6.926   0.867
 2182SOL    HW2 7446   0.235   6.881   0.945
 2183SOL     OW 7447   3.996   2.808   0.015
 2183SOL    HW1 7448   4.085   2.849   7.017
 2183SOL    HW2 7449   3.929   2.880   0.035
 2184SOL     OW 7450   6.414   1.992   6.496
 2184SOL    HW1 7451   6.484   1.937   6.541
 2184SOL    HW2 7452   6.390   2.070   6.554
 2185SOL     OW 7453   0.071   1.365   6.545
 2185SOL    HW1 7454   7.005   1.311   6.539
 2185SOL    HW2 7455   0.142   1.322   6.490
 2186SOL     OW 7456   6.824   6.071   5.977
 2186SOL    HW1 7457   6.767   6.116   5.908
 2186SOL    HW2 7458   6.918   6.102   5.968
 2187SOL     OW 7459   6.037   3.816   1.367
 2187SOL    HW1 7460   5.970   3.744   1.350
 2187SOL    HW2 7461   6.087   3.795   1.451
 2188SOL     OW 7462   3.289   2.159   1.234
 2188SOL    HW1 7463   3.309   2.093   1.307
 2188SOL    HW2 7464   3.294   2.113   1.145
 2189SOL     OW 7465   2.528   0.938   2.228
 2189SOL    HW1 7466   2.504   1.026   2.187
 2189SOL    HW2 7467   2.500   0.864   2.166
 2190SOL     OW 7468   6.889   4.507   1.757
 2190SOL    HW1 7469   6.886   4.537   1.852
 2190SOL    HW2 7470   6.984   4.509   1.725
 2191SOL     OW 7471   3.663   0.074   6.490
 2191SOL    HW1 7472   3.755   0.084   6.451
 2191SOL    HW2 7473   3.634   0.162   6.528
 2192SOL     OW 7474   5.201   2.379   1.808
 2192SOL    HW1 7475   5.198   2.478   1.826
 2192SOL    HW2 7476   5.201   2.364   1.709
 2193SOL     OW 7477   1.648   0.234   6.223
 2193SOL    HW1 7478   1.569   0.199   6.274
 2193SOL    HW2 7479   1.725   0.172   6.234
 2194SOL     OW 7480   1.087   4.300   5.351
 2194SOL    HW1 7481   1.153   4.333   5.419
 2194SOL    HW2 7482   0.998   4.342   5.368
 2195SOL     OW 7483   0.650   4.291   5.248
 2195SOL    HW1 7484   0.596   4.210   5.229
 2195SOL    HW2 7485   0.590   4.369   5.266
 2196SOL     OW 7486   4.048   1.441   6.836
 2196SOL    HW1 7487   4.009   1.351   6.816
 2196SOL    HW2 7488   3.991   1.512   6.795
 2197SOL     OW 7489   4.115   5.036   6.895
 2197SOL    HW1 7490   4.076   4.975   6.963
 2197SOL    HW2 7491   4.181   4.986   6.839
 2198SOL     OW 7492   1.200   0.795   6.398
 2198SOL    HW1 7493   1.185   0.857   6.474
 2198SOL    HW2 7494   1.297   0.771   6.391
 2199SOL     OW 7495   4.707   6.123   3.657
 2199SOL    HW1 7496   4.768   6.129   3.578
 2199SOL    HW2 7497   4.692   6.215   3.693
 2200SOL     OW 7498   2.600   1.904   4.990
 2200SOL    HW1 7499   2.694   1.879   5.012
 2200SOL    HW2 7500   2.537   1.834   5.025
 2201SOL     OW 7501   5.839   3.547   4.216
 2201SOL    HW1 7502   5.855   3.458   4.173
 2201SOL    HW2 7503   5.806   3.533   4.309
 2202SOL     OW 7504   4.905   0.396   4.502
 2202SOL    HW1 7505   4.888   0.299   4.489
 2202SOL    HW2 7506   4.907   0.417   4.600
 2203SOL     OW 7507   2.128   6.111   1.267
 2203SOL    HW1 7508   2.132   6.018   1.233
 2203SOL    HW2 7509   2.068   6.166   1.207
 2204SOL     OW 7510   4.844   3.654   0.350
 2204SOL    HW1 7511   4.934   3.646   0.308
 2204SOL    HW2 7512   4.786   3.579   0.318
 2205SOL     OW 7513   5.300   5.456   1.148
 2205SOL    HW1 7514   5.201   5.470   1.150
 2205SOL    HW2 7515   5.338   5.475   1.238
 2206SOL     OW 7516   3.320   3.191   5.492
 2206SOL    HW1 7517   3.307   3.288   5.515
 2206SOL    HW2 7518   3.417   3.168   5.499
 2207SOL     OW 7519   4.563   4.832   1.438
 2207SOL    HW1 7520   4.607   4.840   1.527
 2207SOL    HW2 7521   4.625   4.786   1.374
 2208SOL     OW 7522   6.471   6.044   3.035
 2208SOL    HW1 7523   6.524   6.125   3.061
 2208SOL    HW2 7524   6.455   5.988   3.117
 2209SOL     OW 7525   2.707   5.695   3.630
 2209SOL    HW1 7526   2.722   5.619   3.693
 2209SOL    HW2 7527   2.725   5.665   3.536
 2210SOL     OW 7528   5.460   6.414   2.235
 2210SOL    HW1 7529   5.398   6.380   2.306
 2210SOL    HW2 7530   5.440   6.367   2.149
 2211SOL     OW 7531   1.631   0.749   1.337
 2211SOL    HW1 7532   1.562   0.798   1.284
 2211SOL    HW2 7533   1.665   0.808   1.411
 2212SOL     OW 7534   2.792   6.384   6.220
 2212SOL    HW1 7535   2.861   6.446   6.183
 2212SOL    HW2 7536   2.772   6.408   6.315
 2213SOL     OW 7537   3.570   1.830   4.321
 2213SOL    HW1 7538   3.619   1.748   4.294
 2213SOL    HW2 7539   3.519   1.813   4.406
 2214SOL     OW 7540   3.997   4.876   0.098
 2214SOL    HW1 7541   4.077   4.826   0.066
 2214SOL    HW2 7542   3.952   4.825   0.172
 2215SOL     OW 7543   6.942   5.209   6.336
 2215SOL    HW1 7544   6.859   5.249   6.296
 2215SOL    HW2 7545   6.931   5.110   6.344
 2216SOL     OW 7546   0.159   6.312   0.312
 2216SOL    HW1 7547   0.084   6.283   0.252
 2216SOL    HW2 7548   0.121   6.350   0.397
 2217SOL     OW 7549   4.011   1.287   3.978
 2217SOL    HW1 7550   4.051   1.257   3.891
 2217SOL    HW2 7551   3.948   1.362   3.962
 2218SOL     OW 7552   5.948   5.190   5.936
 2218SOL    HW1 7553   6.036   5.193   5.984
 2218SOL    HW2 7554   5.959   5.144   5.848
 2219SOL     OW 7555   5.219   2.253   0.765
 2219SOL    HW1 7556   5.145   2.221   0.705
 2219SOL    HW2 7557   5.203   2.349   0.789
 2220SOL     OW 7558   6.530   6.809   4.343
 2220SOL    HW1 7559   6.533   6.896   4.293
 2220SOL    HW2 7560   6.563   6.824   4.436
 2221SOL     OW 7561   5.003   0.076   3.540
 2221SOL    HW1 7562   4.950   0.051   3.621
 2221SOL    HW2 7563   5.099   0.087   3.566
 2222SOL     OW 7564   4.123   0.547   4.372
 2222SOL    HW1 7565   4.062   0.626   4.385
 2222SOL    HW2 7566   4.110   0.510   4.281
 2223SOL     OW 7567   0.562   0.245   5.736
 2223SOL    HW1 7568   0.501   0.168   5.715
 2223SOL    HW2 7569   0.646   0.236   5.684
 2224SOL     OW 7570   5.182   4.677   6.496
 2224SOL    HW1 7571   5.150   4.641   6.584
 2224SOL    HW2 7572   5.231   4.606   6.447
 2225SOL     OW 7573   6.908   0.437   0.756
 2225SOL    HW1 7574   6.863   0.441   0.667
 2225SOL    HW2 7575   6.941   0.529   0.780
 2226SOL     OW 7576   2.961   3.214   6.858
 2226SOL    HW1 7577   2.922   3.130   6.819
 2226SOL    HW2 7578   3.058   3.217   6.838
 2227SOL     OW 7579   4.541   1.845   1.265
 2227SOL    HW1 7580   4.518   1.758   1.222
 2227SOL    HW2 7581   4.562   1.830   1.362
 2228SOL     OW 7582   4.807   6.367   6.763
 2228SOL    HW1 7583   4.789   6.316   6.678
 2228SOL    HW2 7584   4.722   6.409   6.795
 2229SOL     OW 7585   3.501   2.907   4.202
 2229SOL    HW1 7586   3.464   2.999   4.196
 2229SOL    HW2 7587   3.567   2.903   4.277
 2230SOL     OW 7588   6.791   1.799   6.317
 2230SOL    HW1 7589   6.858   1.832   6.251
 2230SOL    HW2 7590   6.816   1.708   6.347
 2231SOL     OW 7591   0.819   6.883   5.797
 2231SOL    HW1 7592   0.784   6.920   5.884
 2231SOL    HW2 7593   0.848   6.789   5.811
 2232SOL     OW 7594   1.446   0.894   0.076
 2232SOL    HW1 7595   1.428   0.973   0.135
 2232SOL    HW2 7596   1.360   0.863   0.035
 2233SOL     OW 7597   3.082   5.814   0.858
 2233SOL    HW1 7598   3.014   5.742   0.845
 2233SOL    HW2 7599   3.137   5.793   0.939
 2234SOL     OW 7600   5.319   1.910   1.901
 2234SOL    HW1 7601   5.363   1.986   1.854
 2234SOL    HW2 7602   5.222   1.931   1.914
 2235SOL     OW 7603   1.635   1.953   3.588
 2235SOL    HW1 7604   1.599   2.046   3.598
 2235SOL    HW2 7605   1.584   1.891   3.646
 2236SOL     OW 7606   2.650   5.120   5.255
 2236SOL    HW1 7607   2.661   5.181   5.176
 2236SOL    HW2 7608   2.626   5.029   5.223
 2237SOL     OW 7609   6.015   6.857   6.166
 2237SOL    HW1 7610   5.972   6.894   6.084
 2237SOL    HW2 7611   5.950   6.861   6.242
 2238SOL     OW 7612   5.286   4.313   1.610
 2238SOL    HW1 7613   5.370   4.261   1.620
 2238SOL    HW2 7614   5.217   4.278   1.674
 2239SOL     OW 7615   3.459   0.087   3.076
 2239SOL    HW1 7616   3.457   7.009   3.101
 2239SOL    HW2 7617   3.424   0.098   2.983
 2240SOL     OW 7618   5.278   5.428   2.644
 2240SOL    HW1 7619   5.210   5.405   2.713
 2240SOL    HW2 7620   5.355   5.364   2.650
 2241SOL     OW 7621   1.585   2.039   3.118
 2241SOL    HW1 7622   1.504   2.030   3.060
 2241SOL    HW2 7623   1.641   2.115   3.086
 2242SOL     OW 7624   5.272   2.430   4.272
 2242SOL    HW1 7625   5.345   2.367   4.248
 2242SOL    HW2 7626   5.231   2.467   4.188
 2243SOL     OW 7627   2.342   0.409   0.181
 2243SOL    HW1 7628   2.434   0.405   0.141
 2243SOL    HW2 7629   2.274   0.386   0.111
 2244SOL     OW 7630   2.128   2.025   0.967
 2244SOL    HW1 7631   2.190   2.100   0.988
 2244SOL    HW2 7632   2.147   1.948   1.028
 2245SOL     OW 7633   6.897   1.138   0.407
 2245SOL    HW1 7634   6.958   1.061   0.389
 2245SOL    HW2 7635   6.831   1.113   0.478
 2246SOL     OW 7636   5.648   0.858   5.693
 2246SOL    HW1 7637   5.737   0.903   5.685
 2246SOL    HW2 7638   5.577   0.921   5.662
 2247SOL     OW 7639   3.878   3.418   1.684
 2247SOL    HW1 7640   3.804   3.383   1.742
 2247SOL    HW2 7641   3.872   3.517   1.679
 2248SOL     OW 7642   5.007   2.937   4.593
 2248SOL    HW1 7643   5.080   2.915   4.657
 2248SOL    HW2 7644   4.925   2.962   4.644
 2249SOL     OW 7645   2.245   6.156   3.608
 2249SOL    HW1 7646   2.194   6.228   3.562
 2249SOL    HW2 7647   2.303   6.196   3.679
 2250SOL     OW 7648   4.173   6.269   5.820
 2250SOL    HW1 7649   4.167   6.197   5.751
 2250SOL    HW2 7650   4.175   6.228   5.911
 2251SOL     OW 7651   3.834   6.755   5.044
 2251SOL    HW1 7652   3.776   6.683   5.083
 2251SOL    HW2 7653   3.927   6.719   5.032
 2252SOL     OW 7654   3.601   1.350   2.586
 2252SOL    HW1 7655   3.508   1.347   2.548
 2252SOL    HW2 7656   3.647   1.433   2.556
 2253SOL     OW 7657   1.250   2.565   1.936
 2253SOL    HW1 7658   1.321   2.548   1.867
 2253SOL    HW2 7659   1.160   2.548   1.896
 2254SOL     OW 7660   3.362   2.978   2.420
 2254SOL    HW1 7661   3.434   2.969   2.489
 2254SOL    HW2 7662   3.273   2.980   2.465
 2255SOL     OW 7663   1.763   1.530   6.439
 2255SOL    HW1 7664   1.759   1.553   6.342
 2255SOL    HW2 7665   1.690   1.577   6.488
 2256SOL     OW 7666   4.827   0.059   1.443
 2256SOL    HW1 7667   4.805   0.148   1.403
 2256SOL    HW2 7668   4.808   7.006   1.376
 2257SOL     OW 7669   0.439   0.897   6.236
 2257SOL    HW1 7670   0.390   0.908   6.150
 2257SOL    HW2 7671   0.410   0.811   6.280
 2258SOL     OW 7672   2.041   0.260   3.454
 2258SOL    HW1 7673   2.069   0.262   3.550
 2258SOL    HW2 7674   2.082   0.181   3.409
 2259SOL     OW 7675   5.906   0.053   5.131
 2259SOL    HW1 7676   5.916   0.118   5.055
 2259SOL    HW2 7677   5.906   0.103   5.218
 2260SOL     OW 7678   1.120   3.587   1.302
 2260SOL    HW1 7679   1.059   3.507   1.305
 2260SOL    HW2 7680   1.193   3.569   1.237
 2261SOL     OW 7681   4.150   4.448   6.404
 2261SOL    HW1 7682   4.136   4.497   6.318
 2261SOL    HW2 7683   4.199   4.507   6.468
 2262SOL     OW 7684   6.796   0.416   3.484
 2262SOL    HW1 7685   6.835   0.439   3.395
 2262SOL    HW2 7686   6.712   0.363   3.471
 2263SOL     OW 7687   2.633   4.205   6.799
 2263SOL    HW1 7688   2.719   4.252   6.818
 2263SOL    HW2 7689   2.639   4.159   6.711
 2264SOL     OW 7690   1.892   0.698   6.813
 2264SOL    HW1 7691   1.820   0.694   6.743
 2264SOL    HW2 7692   1.850   0.708   6.903
 2265SOL     OW 7693   0.528   6.245   3.693
 2265SOL    HW1 7694   0.462   6.283   3.627
 2265SOL    HW2 7695   0.518   6.146   3.697
 2266SOL     OW 7696   4.335   4.082   6.647
 2266SOL    HW1 7697   4.352   4.122   6.737
 2266SOL    HW2 7698   4.339   4.153   6.577
 2267SOL     OW 7699   5.811   3.128   4.747
 2267SOL    HW1 7700   5.794   3.205   4.684
 2267SOL    HW2 7701   5.806   3.160   4.841
 2268SOL     OW 7702   0.921   6.049   4.715
 2268SOL    HW1 7703   0.987   6.006   4.777
 2268SOL    HW2 7704   0.922   6.001   4.627
 2269SOL     OW 7705   1.806   2.155   5.337
 2269SOL    HW1 7706   1.797   2.222   5.264
 2269SOL    HW2 7707   1.903   2.134   5.351
 2270SOL     OW 7708   4.310   1.526   6.465
 2270SOL    HW1 7709   4.296   1.427   6.475
 2270SOL    HW2 7710   4.273   1.573   6.544
 2271SOL     OW 7711   3.991   5.743   4.919
 2271SOL    HW1 7712   3.913   5.801   4.894
 2271SOL    HW2 7713   4.070   5.770   4.864
 2272SOL     OW 7714   5.979   1.260   6.374
 2272SOL    HW1 7715   5.968   1.257   6.473
 2272SOL    HW2 7716   6.010   1.171   6.341
 2273SOL     OW 7717   2.090   2.136   4.291
 2273SOL    HW1 7718   2.170   2.077   4.283
 2273SOL    HW2 7719   2.079   2.164   4.386
 2274SOL     OW 7720   1.361   1.173   0.148
 2274SOL    HW1 7721   1.310   1.244   0.099
 2274SOL    HW2 7722   1.440   1.214   0.193
 2275SOL     OW 7723   5.333   3.434   3.133
 2275SOL    HW1 7724   5.346   3.532   3.124
 2275SOL    HW2 7725   5.270   3.415   3.208
 2276SOL     OW 7726   2.062   1.596   1.365
 2276SOL    HW1 7727   2.101   1.537   1.435
 2276SOL    HW2 7728   1.967   1.570   1.349
 2277SOL     OW 7729   3.916   3.033   3.403
 2277SOL    HW1 7730   3.857   3.009   3.480
 2277SOL    HW2 7731   3.891   2.978   3.323
 2278SOL     OW 7732   6.657   3.635   3.768
 2278SOL    HW1 7733   6.618   3.548   3.796
 2278SOL    HW2 7734   6.749   3.621   3.731
 2279SOL     OW 7735   0.590   5.426   5.878
 2279SOL    HW1 7736   0.581   5.441   5.780
 2279SOL    HW2 7737   0.687   5.417   5.902
 2280SOL     OW 7738   4.920   2.753   5.295
 2280SOL    HW1 7739   5.012   2.741   5.333
 2280SOL    HW2 7740   4.911   2.846   5.259
 2281SOL     OW 7741   5.217   6.700   2.365
 2281SOL    HW1 7742   5.243   6.644   2.444
 2281SOL    HW2 7743   5.128   6.742   2.383
 2282SOL     OW 7744   3.462   5.291   5.728
 2282SOL    HW1 7745   3.456   5.200   5.769
 2282SOL    HW2 7746   3.503   5.354   5.794
 2283SOL     OW 7747   6.665   0.504   4.962
 2283SOL    HW1 7748   6.741   0.452   5.001
 2283SOL    HW2 7749   6.641   0.579   5.024
 2284SOL     OW 7750   1.614   3.768   6.139
 2284SOL    HW1 7751   1.676   3.833   6.185
 2284SOL    HW2 7752   1.585   3.698   6.204
 2285SOL     OW 7753   1.333   5.335   0.065
 2285SOL    HW1 7754   1.319   5.420   0.016
 2285SOL    HW2 7755   1.422   5.295   0.039
 2286SOL     OW 7756   4.728   4.371   2.683
 2286SOL    HW1 7757   4.751   4.298   2.618
 2286SOL    HW2 7758   4.701   4.330   2.770
 2287SOL     OW 7759   1.751   1.422   4.085
 2287SOL    HW1 7760   1.834   1.472   4.108
 2287SOL    HW2 7761   1.745   1.408   3.986
 2288SOL     OW 7762   6.600   4.889   2.838
 2288SOL    HW1 7763   6.692   4.908   2.871
 2288SOL    HW2 7764   6.548   4.974   2.833
 2289SOL     OW 7765   0.277   4.567   0.375
 2289SOL    HW1 7766   0.323   4.480   0.356
 2289SOL    HW2 7767   0.340   4.642   0.356
 2290SOL     OW 7768   0.715   5.044   0.070
 2290SOL    HW1 7769   0.732   5.016   6.994
 2290SOL    HW2 7770   0.704   4.963   0.127
 2291SOL     OW 7771   2.024   1.309   0.053
 2291SOL    HW1 7772   2.090   1.235   0.042
 2291SOL    HW2 7773   2.068   1.397   0.033
 2292SOL     OW 7774   2.264   0.761   4.936
 2292SOL    HW1 7775   2.251   0.859   4.924
 2292SOL    HW2 7776   2.277   0.717   4.847
 2293SOL     OW 7777   5.035   3.939   3.392
 2293SOL    HW1 7778   5.019   3.984   3.304
 2293SOL    HW2 7779   5.004   3.999   3.466
 2294SOL     OW 7780   3.959   0.079   6.467
 2294SOL    HW1 7781   3.998   7.013   6.504
 2294SOL    HW2 7782   4.006   0.157   6.509
 2295SOL     OW 7783   0.942   0.505   1.722
 2295SOL    HW1 7784   1.025   0.540   1.766
 2295SOL    HW2 7785   0.958   0.495   1.624
 2296SOL     OW 7786   2.891   6.389   6.928
 2296SOL    HW1 7787   2.861   6.435   7.012
 2296SOL    HW2 7788   2.860   6.294   6.929
 2297SOL     OW 7789   4.022   6.124   6.361
 2297SOL    HW1 7790   4.071   6.094   6.443
 2297SOL    HW2 7791   4.057   6.075   6.282
 2298SOL     OW 7792   4.488   2.939   6.633
 2298SOL    HW1 7793   4.577   2.976   6.659
 2298SOL    HW2 7794   4.420   2.964   6.703
 2299SOL     OW 7795   4.656   0.100   1.663
 2299SOL    HW1 7796   4.706   0.072   1.582
 2299SOL    HW2 7797   4.581   0.161   1.637
 2300SOL     OW 7798   0.844   4.921   0.751
 2300SOL    HW1 7799   0.795   4.998   0.710
 2300SOL    HW2 7800   0.811   4.905   0.843
 2301SOL     OW 7801   3.344   3.190   1.595
 2301SOL    HW1 7802   3.295   3.114   1.551
 2301SOL    HW2 7803   3.376   3.162   1.685
 2302SOL     OW 7804   3.055   5.443   3.099
 2302SOL    HW1 7805   3.073   5.433   3.197
 2302SOL    HW2 7806   3.039   5.354   3.058
 2303SOL     OW 7807   0.618   3.490   6.059
 2303SOL    HW1 7808   0.665   3.409   6.093
 2303SOL    HW2 7809   0.637   3.568   6.118
 2304SOL     OW 7810   1.737   0.948   4.789
 2304SOL    HW1 7811   1.713   0.854   4.812
 2304SOL    HW2 7812   1.678   0.980   4.716
 2305SOL     OW 7813   4.265   4.898   1.668
 2305SOL    HW1 7814   4.351   4.949   1.660
 2305SOL    HW2 7815   4.271   4.815   1.613
 2306SOL     OW 7816   0.609   4.481   0.346
 2306SOL    HW1 7817   0.683   4.422   0.314
 2306SOL    HW2 7818   0.555   4.512   0.268
 2307SOL     OW 7819   0.257   1.049   3.318
 2307SOL    HW1 7820   0.326   1.003   3.262
 2307SOL    HW2 7821   0.303   1.104   3.388
 2308SOL     OW 7822   0.930   0.247   0.252
 2308SOL    HW1 7823   0.886   0.311   0.315
 2308SOL    HW2 7824   0.876   0.163   0.247
 2309SOL     OW 7825   1.914   5.104   6.515
 2309SOL    HW1 7826   1.988   5.156   6.559
 2309SOL    HW2 7827   1.929   5.007   6.531
 2310SOL     OW 7828   5.576   1.465   3.559
 2310SOL    HW1 7829   5.546   1.402   3.487
 2310SOL    HW2 7830   5.674   1.480   3.552
 2311SOL     OW 7831   2.841   0.086   2.734
 2311SOL    HW1 7832   2.748   0.072   2.769
 2311SOL    HW2 7833   2.840   0.080   2.635
 2312SOL     OW 7834   2.789   0.696   2.049
 2312SOL    HW1 7835   2.826   0.739   2.132
 2312SOL    HW2 7836   2.690   0.695   2.053
 2313SOL     OW 7837   5.035   4.814   1.270
 2313SOL    HW1 7838   4.987   4.758   1.337
 2313SOL    HW2 7839   5.079   4.891   1.316
 2314SOL     OW 7840   6.957   5.830   3.245
 2314SOL    HW1 7841   6.932   5.819   3.341
 2314SOL    HW2 7842   6.874   5.825   3.189
 2315SOL     OW 7843   4.953   6.476   4.972
 2315SOL    HW1 7844   4.980   6.516   4.885
 2315SOL    HW2 7845   5.002   6.390   4.987
 2316SOL     OW 7846   4.211   2.240   6.454
 2316SOL    HW1 7847   4.174   2.147   6.451
 2316SOL    HW2 7848   4.182   2.290   6.372
 2317SOL     OW 7849   0.258   5.068   2.137
 2317SOL    HW1 7850   0.189   4.998   2.116
 2317SOL    HW2 7851   0.285   5.061   2.233
 2318SOL     OW 7852   1.404   4.839   3.923
 2318SOL    HW1 7853   1.398   4.820   3.825
 2318SOL    HW2 7854   1.367   4.930   3.942
 2319SOL     OW 7855   2.739   5.310   2.996
 2319SOL    HW1 7856   2.675   5.260   2.937
 2319SOL    HW2 7857   2.832   5.277   2.980
 2320SOL     OW 7858   1.334   2.219   5.214
 2320SOL    HW1 7859   1.234   2.220   5.208
 2320SOL    HW2 7860   1.367   2.312   5.230
 2321SOL     OW 7861   2.007   5.063   5.508
 2321SOL    HW1 7862   2.003   5.129   5.583
 2321SOL    HW2 7863   2.009   5.111   5.421
 2322SOL     OW 7864   1.922   3.246   1.770
 2322SOL    HW1 7865   1.973   3.165   1.800
 2322SOL    HW2 7866   1.859   3.274   1.843
 2323SOL     OW 7867   2.315   5.969   6.474
 2323SOL    HW1 7868   2.276   5.945   6.563
 2323SOL    HW2 7869   2.262   6.043   6.433
 2324SOL     OW 7870   6.382   4.548   2.474
 2324SOL    HW1 7871   6.457   4.533   2.408
 2324SOL    HW2 7872   6.388   4.640   2.511
 2325SOL     OW 7873   6.783   3.900   2.508
 2325SOL    HW1 7874   6.718   3.826   2.527
 2325SOL    HW2 7875   6.843   3.872   2.432
 2326SOL     OW 7876   2.317   0.185   0.315
 2326SOL    HW1 7877   2.222   0.189   0.345
 2326SOL    HW2 7878   2.338   0.265   0.259
 2327SOL     OW 7879   6.337   5.979   1.791
 2327SOL    HW1 7880   6.256   5.977   1.850
 2327SOL    HW2 7881   6.415   6.013   1.843
 2328SOL     OW 7882   2.169   3.926   2.180
 2328SOL    HW1 7883   2.207   3.951   2.091
 2328SOL    HW2 7884   2.136   3.832   2.177
 2329SOL     OW 7885   1.121   4.912   1.916
 2329SOL    HW1 7886   1.039   4.855   1.926
 2329SOL    HW2 7887   1.199   4.853   1.895
 2330SOL     OW 7888   5.981   3.546   1.634
 2330SOL    HW1 7889   6.036   3.474   1.593
 2330SOL    HW2 7890   5.921   3.586   1.565
 2331SOL     OW 7891   4.702   5.356   1.546
 2331SOL    HW1 7892   4.703   5.262   1.580
 2331SOL    HW2 7893   4.702   5.355   1.446
 2332SOL     OW 7894   5.741   0.268   6.130
 2332SOL    HW1 7895   5.810   0.337   6.109
 2332SOL    HW2 7896   5.745   0.195   6.062
 2333SOL     OW 7897   1.743   4.585   2.567
 2333SOL    HW1 7898   1.797   4.509   2.530
 2333SOL    HW2 7899   1.646   4.562   2.563
 2334SOL     OW 7900   3.330   1.222   6.020
 2334SOL    HW1 7901   3.331   1.217   6.120
 2334SOL    HW2 7902   3.388   1.150   5.982
 2335SOL     OW 7903   6.289   0.622   3.778
 2335SOL    HW1 7904   6.252   0.678   3.852
 2335SOL    HW2 7905   6.386   0.644   3.765
 2336SOL     OW 7906   1.732   1.464   3.033
 2336SOL    HW1 7907   1.764   1.430   3.121
 2336SOL    HW2 7908   1.688   1.553   3.046
 2337SOL     OW 7909   4.118   1.000   2.292
 2337SOL    HW1 7910   4.130   1.030   2.197
 2337SOL    HW2 7911   4.085   1.077   2.347
 2338SOL     OW 7912   0.083   3.790   3.752
 2338SOL    HW1 7913   0.027   3.865   3.716
 2338SOL    HW2 7914   0.177   3.801   3.721
 2339SOL     OW 7915   3.212   2.925   2.695
 2339SOL    HW1 7916   3.122   2.892   2.725
 2339SOL    HW2 7917   3.230   3.013   2.738
 2340SOL     OW 7918   1.885   3.760   6.516
 2340SOL    HW1 7919   1.959   3.826   6.512
 2340SOL    HW2 7920   1.903   3.685   6.452
 2341SOL     OW 7921   2.712   5.062   4.218
 2341SOL    HW1 7922   2.636   5.010   4.256
 2341SOL    HW2 7923   2.799   5.021   4.247
 2342SOL     OW 7924   3.849   1.571   4.559
 2342SOL    HW1 7925   3.911   1.630   4.612
 2342SOL    HW2 7926   3.755   1.591   4.585
 2343SOL     OW 7927   6.999   0.082   0.853
 2343SOL    HW1 7928   7.019   0.164   0.906
 2343SOL    HW2 7929   6.903   0.058   0.864
 2344SOL     OW 7930   6.042   4.385   0.238
 2344SOL    HW1 7931   6.090   4.456   0.187
 2344SOL    HW2 7932   6.024   4.416   0.331
 2345SOL     OW 7933   3.599   6.040   4.173
 2345SOL    HW1 7934   3.593   6.100   4.093
 2345SOL    HW2 7935   3.686   6.056   4.220
 2346SOL     OW 7936   4.941   3.376   0.925
 2346SOL    HW1 7937   5.000   3.296   0.933
 2346SOL    HW2 7938   4.847   3.346   0.909
 2347SOL     OW 7939   1.699   1.242   0.989
 2347SOL    HW1 7940   1.622   1.271   0.932
 2347SOL    HW2 7941   1.784   1.251   0.937
 2348SOL     OW 7942   0.326   5.721   2.532
 2348SOL    HW1 7943   0.273   5.640   2.557
 2348SOL    HW2 7944   0.419   5.713   2.567
 2349SOL     OW 7945   0.770   4.690   4.631
 2349SOL    HW1 7946   0.775   4.779   4.677
 2349SOL    HW2 7947   0.806   4.619   4.692
 2350SOL     OW 7948   5.725   4.003   0.654
 2350SOL    HW1 7949   5.630   4.032   0.643
 2350SOL    HW2 7950   5.779   4.037   0.577
 2351SOL     OW 7951   2.153   5.794   1.558
 2351SOL    HW1 7952   2.161   5.707   1.511
 2351SOL    HW2 7953   2.221   5.858   1.523
 2352SOL     OW 7954   6.892   2.548   3.349
 2352SOL    HW1 7955   6.944   2.578   3.269
 2352SOL    HW2 7956   6.815   2.610   3.363
 2353SOL     OW 7957   3.286   6.176   4.193
 2353SOL    HW1 7958   3.229   6.148   4.271
 2353SOL    HW2 7959   3.363   6.112   4.184
 2354SOL     OW 7960   2.563   2.458   4.026
 2354SOL    HW1 7961   2.603   2.377   4.071
 2354SOL    HW2 7962   2.594   2.462   3.931
 2355SOL     OW 7963   2.624   5.646   4.389
 2355SOL    HW1 7964   2.670   5.599   4.313
 2355SOL    HW2 7965   2.633   5.745   4.377
 2356SOL     OW 7966   6.680   2.562   6.928
 2356SOL    HW1 7967   6.744   2.510   6.871
 2356SOL    HW2 7968   6.633   2.630   6.873
 2357SOL     OW 7969   2.330   6.514   2.778
 2357SOL    HW1 7970   2.329   6.468   2.867
 2357SOL    HW2 7971   2.313   6.612   2.791
 2358SOL     OW 7972   4.642   5.229   6.091
 2358SOL    HW1 7973   4.661   5.262   5.999
 2358SOL    HW2 7974   4.724   5.186   6.128
 2359SOL     OW 7975   1.575   6.988   5.697
 2359SOL    HW1 7976   1.529   6.999   5.609
 2359SOL    HW2 7977   1.521   6.927   5.755
 2360SOL     OW 7978   0.108   3.947   0.125
 2360SOL    HW1 7979   0.080   3.885   0.199
 2360SOL    HW2 7980   0.148   4.029   0.165
 2361SOL     OW 7981   3.344   1.163   0.598
 2361SOL    HW1 7982   3.290   1.130   0.521
 2361SOL    HW2 7983   3.285   1.173   0.678
 2362SOL     OW 7984   2.744   5.250   3.253
 2362SOL    HW1 7985   2.733   5.275   3.157
 2362SOL    HW2 7986   2.779   5.157   3.259
 2363SOL     OW 7987   3.895   0.438   3.816
 2363SOL    HW1 7988   3.833   0.387   3.756
 2363SOL    HW2 7989   3.856   0.443   3.908
 2364SOL     OW 7990   1.238   2.479   1.266
 2364SOL    HW1 7991   1.325   2.443   1.300
 2364SOL    HW2 7992   1.210   2.428   1.185
 2365SOL     OW 7993   5.247   1.827   0.741
 2365SOL    HW1 7994   5.300   1.899   0.786
 2365SOL    HW2 7995   5.300   1.788   0.666
 2366SOL     OW 7996   4.559   5.558   0.523
 2366SOL    HW1 7997   4.622   5.635   0.505
 2366SOL    HW2 7998   4.585   5.480   0.466
 2367SOL     OW 7999   2.472   3.415   5.848
 2367SOL    HW1 8000   2.389   3.468   5.832
 2367SOL    HW2 8001   2.498   3.368   5.763
 2368SOL     OW 8002   5.820   5.818   2.025
 2368SOL    HW1 8003   5.780   5.737   2.067
 2368SOL    HW2 8004   5.880   5.863   2.091
 2369SOL     OW 8005   2.274   1.562   3.245
 2369SOL    HW1 8006   2.214   1.544   3.323
 2369SOL    HW2 8007   2.230   1.531   3.161
 2370SOL     OW 8008   5.727   2.621   6.041
 2370SOL    HW1 8009   5.723   2.650   5.945
 2370SOL    HW2 8010   5.665   2.678   6.095
 2371SOL     OW 8011   1.361   5.961   1.768
 2371SOL    HW1 8012   1.335   5.878   1.718
 2371SOL    HW2 8013   1.461   5.963   1.779
 2372SOL     OW 8014   6.500   2.365   3.189
 2372SOL    HW1 8015   6.579   2.325   3.235
 2372SOL    HW2 8016   6.531   2.432   3.121
 2373SOL     OW 8017   2.318   3.462   6.582
 2373SOL    HW1 8018   2.366   3.508   6.656
 2373SOL    HW2 8019   2.304   3.526   6.506
 2374SOL     OW 8020   5.080   2.630   4.958
 2374SOL    HW1 8021   5.082   2.543   4.909
 2374SOL    HW2 8022   5.012   2.626   5.031
 2375SOL     OW 8023   0.993   0.053   5.705
 2375SOL    HW1 8024   0.954   0.133   5.659
 2375SOL    HW2 8025   0.920   7.006   5.724
 2376SOL     OW 8026   0.245   2.288   3.865
 2376SOL    HW1 8027   0.252   2.267   3.962
 2376SOL    HW2 8028   0.182   2.223   3.821
 2377SOL     OW 8029   3.274   2.936   3.934
 2377SOL    HW1 8030   3.370   2.923   3.958
 2377SOL    HW2 8031   3.242   2.857   3.881
 2378SOL     OW 8032   5.303   1.994   1.086
 2378SOL    HW1 8033   5.272   2.087   1.107
 2378SOL    HW2 8034   5.346   1.993   0.996
 2379SOL     OW 8035   6.571   0.062   6.054
 2379SOL    HW1 8036   6.514   0.018   5.984
 2379SOL    HW2 8037   6.513   0.096   6.128
 2380SOL     OW 8038   6.175   2.036   3.133
 2380SOL    HW1 8039   6.262   2.021   3.085
 2380SOL    HW2 8040   6.141   1.949   3.168
 2381SOL     OW 8041   1.725   5.758   2.261
 2381SOL    HW1 8042   1.658   5.831   2.245
 2381SOL    HW2 8043   1.814   5.787   2.225
 2382SOL     OW 8044   1.799   2.551   5.778
 2382SOL    HW1 8045   1.827   2.494   5.701
 2382SOL    HW2 8046   1.817   2.503   5.863
 2383SOL     OW 8047   5.738   5.428   1.475
 2383SOL    HW1 8048   5.820   5.373   1.455
 2383SOL    HW2 8049   5.723   5.431   1.574
 2384SOL     OW 8050   4.303   1.446   1.382
 2384SOL    HW1 8051   4.376   1.489   1.329
 2384SOL    HW2 8052   4.307   1.347   1.370
 2385SOL     OW 8053   1.207   2.744   0.094
 2385SOL    HW1 8054   1.127   2.715   0.042
 2385SOL    HW2 8055   1.289   2.703   0.054
 2386SOL     OW 8056   4.357   4.898   3.305
 2386SOL    HW1 8057   4.363   4.960   3.227
 2386SOL    HW2 8058   4.442   4.901   3.357
 2387SOL     OW 8059   1.370   1.267   2.825
 2387SOL    HW1 8060   1.316   1.301   2.748
 2387SOL    HW2 8061   1.313   1.205   2.880
 2388SOL     OW 8062   6.919   1.573   3.915
 2388SOL    HW1 8063   6.872   1.546   3.999
 2388SOL    HW2 8064   6.887   1.516   3.839
 2389SOL     OW 8065   3.697   6.683   2.187
 2389SOL    HW1 8066   3.702   6.706   2.090
 2389SOL    HW2 8067   3.677   6.765   2.240
 2390SOL     OW 8068   3.018   4.655   1.087
 2390SOL    HW1 8069   2.937   4.596   1.083
 2390SOL    HW2 8070   3.097   4.601   1.116
 2391SOL     OW 8071   4.309   5.380   4.246
 2391SOL    HW1 8072   4.224   5.350   4.288
 2391SOL    HW2 8073   4.313   5.349   4.151
 2392SOL     OW 8074   4.333   1.341   6.938
 2392SOL    HW1 8075   4.349   1.270   6.869
 2392SOL    HW2 8076   4.270   1.409   6.901
 2393SOL     OW 8077   3.818   5.084   5.021
 2393SOL    HW1 8078   3.878   5.156   5.054
 2393SOL    HW2 8079   3.724   5.101   5.051
 2394SOL     OW 8080   0.432   4.782   5.659
 2394SOL    HW1 8081   0.450   4.880   5.660
 2394SOL    HW2 8082   0.417   4.750   5.753
 2395SOL     OW 8083   4.311   6.332   6.345
 2395SOL    HW1 8084   4.241   6.285   6.398
 2395SOL    HW2 8085   4.267   6.389   6.275
 2396SOL     OW 8086   2.859   6.062   0.633
 2396SOL    HW1 8087   2.943   6.038   0.584
 2396SOL    HW2 8088   2.873   6.052   0.731
 2397SOL     OW 8089   0.767   3.250   4.460
 2397SOL    HW1 8090   0.762   3.298   4.547
 2397SOL    HW2 8091   0.788   3.316   4.387
 2398SOL     OW 8092   4.910   3.674   5.460
 2398SOL    HW1 8093   4.968   3.614   5.514
 2398SOL    HW2 8094   4.930   3.661   5.363
 2399SOL     OW 8095   4.849   2.531   1.437
 2399SOL    HW1 8096   4.860   2.629   1.425
 2399SOL    HW2 8097   4.819   2.512   1.531
 2400SOL     OW 8098   1.339   4.466   0.167
 2400SOL    HW1 8099   1.321   4.510   0.079
 2400SOL    HW2 8100   1.381   4.533   0.229
 2401SOL     OW 8101   6.289   5.806   6.821
 2401SOL    HW1 8102   6.228   5.834   6.747
 2401SOL    HW2 8103   6.359   5.876   6.835
 2402SOL     OW 8104   6.835   6.813   4.063
 2402SOL    HW1 8105   6.932   6.793   4.077
 2402SOL    HW2 8106   6.780   6.735   4.094
 2403SOL     OW 8107   1.341   0.893   3.587
 2403SOL    HW1 8108   1.318   0.985   3.621
 2403SOL    HW2 8109   1.258   0.838   3.584
 2404SOL     OW 8110   1.059   0.083   6.948
 2404SOL    HW1 8111   1.116   0.106   6.869
 2404SOL    HW2 8112   1.108   0.104   0.014
 2405SOL     OW 8113   2.906   4.719   1.535
 2405SOL    HW1 8114   2.991   4.683   1.498
 2405SOL    HW2 8115   2.905   4.708   1.635
 2406SOL     OW 8116   4.872   1.476   1.313
 2406SOL    HW1 8117   4.968   1.453   1.295
 2406SOL    HW2 8118   4.859   1.574   1.300
 2407SOL     OW 8119   5.051   6.651   3.747
 2407SOL    HW1 8120   5.123   6.708   3.709
 2407SOL    HW2 8121   5.092   6.580   3.805
 2408SOL     OW 8122   4.288   4.609   2.099
 2408SOL    HW1 8123   4.376   4.580   2.137
 2408SOL    HW2 8124   4.214   4.566   2.151
 2409SOL     OW 8125   1.476   4.072   0.770
 2409SOL    HW1 8126   1.430   4.023   0.845
 2409SOL    HW2 8127   1.471   4.016   0.687
 2410SOL     OW 8128   4.044   3.594   2.536
 2410SOL    HW1 8129   4.065   3.596   2.634
 2410SOL    HW2 8130   3.964   3.651   2.518
 2411SOL     OW 8131   3.545   0.387   4.942
 2411SOL    HW1 8132   3.528   0.335   4.859
 2411SOL    HW2 8133   3.472   0.370   5.008
 2412SOL     OW 8134   4.185   3.617   1.020
 2412SOL    HW1 8135   4.277   3.593   1.051
 2412SOL    HW2 8136   4.131   3.651   1.097
 2413SOL     OW 8137   3.390   0.229   3.295
 2413SOL    HW1 8138   3.344   0.315   3.274
 2413SOL    HW2 8139   3.405   0.177   3.211
 2414SOL     OW 8140   4.880   3.210   4.378
 2414SOL    HW1 8141   4.977   3.204   4.399
 2414SOL    HW2 8142   4.850   3.124   4.336
 2415SOL     OW 8143   3.922   0.209   3.404
 2415SOL    HW1 8144   3.894   0.304   3.386
 2415SOL    HW2 8145   3.991   0.209   3.476
 2416SOL     OW 8146   5.460   1.904   6.311
 2416SOL    HW1 8147   5.410   1.891   6.397
 2416SOL    HW2 8148   5.554   1.873   6.322
 2417SOL     OW 8149   3.416   3.919   5.399
 2417SOL    HW1 8150   3.330   3.911   5.348
 2417SOL    HW2 8151   3.484   3.965   5.342
 2418SOL     OW 8152   3.398   2.824   2.195
 2418SOL    HW1 8153   3.376   2.868   2.283
 2418SOL    HW2 8154   3.430   2.731   2.212
 2419SOL     OW 8155   6.525   0.330   4.057
 2419SOL    HW1 8156   6.519   0.424   4.022
 2419SOL    HW2 8157   6.589   0.328   4.134
 2420SOL     OW 8158   2.017   6.935   1.895
 2420SOL    HW1 8159   2.017   6.943   1.795
 2420SOL    HW2 8160   1.923   6.941   1.929
 2421SOL     OW 8161   4.515   2.300   3.041
 2421SOL    HW1 8162   4.422   2.335   3.031
 2421SOL    HW2 8163   4.577   2.350   2.980
 2422SOL     OW 8164   5.383   1.683   1.066
 2422SOL    HW1 8165   5.420   1.771   1.095
 2422SOL    HW2 8166   5.285   1.680   1.087
 2423SOL     OW 8167   1.374   5.207   2.354
 2423SOL    HW1 8168   1.320   5.146   2.296
 2423SOL    HW2 8169   1.313   5.264   2.409
 2424SOL     OW 8170   6.619   6.807   6.866
 2424SOL    HW1 8171   6.606   6.864   6.947
 2424SOL    HW2 8172   6.541   6.745   6.856
 2425SOL     OW 8173   6.813   0.168   4.478
 2425SOL    HW1 8174   6.866   0.138   4.557
 2425SOL    HW2 8175   6.852   0.127   4.395
 2426SOL     OW 8176   1.564   5.750   4.380
 2426SOL    HW1 8177   1.548   5.840   4.339
 2426SOL    HW2 8178   1.479   5.718   4.423
 2427SOL     OW 8179   5.877   0.819   5.016
 2427SOL    HW1 8180   5.889   0.842   4.920
 2427SOL    HW2 8181   5.788   0.775   5.030
 2428SOL     OW 8182   5.574   2.245   0.573
 2428SOL    HW1 8183   5.550   2.148   0.565
 2428SOL    HW2 8184   5.645   2.267   0.505
 2429SOL     OW 8185   4.363   4.603   2.758
 2429SOL    HW1 8186   4.401   4.538   2.824
 2429SOL    HW2 8187   4.393   4.695   2.781
 2430SOL     OW 8188   5.208   0.069   2.279
 2430SOL    HW1 8189   5.272   7.012   2.285
 2430SOL    HW2 8190   5.139   0.049   2.209
 2431SOL     OW 8191   3.992   6.976   2.095
 2431SOL    HW1 8192   4.053   6.916   2.044
 2431SOL    HW2 8193   3.963   6.931   2.180
 2432SOL     OW 8194   3.026   5.503   2.489
 2432SOL    HW1 8195   3.037   5.422   2.546
 2432SOL    HW2 8196   2.971   5.571   2.538
 2433SOL     OW 8197   5.107   0.133   0.803
 2433SOL    HW1 8198   5.202   0.115   0.830
 2433SOL    HW2 8199   5.070   0.054   0.755
 2434SOL     OW 8200   3.266   3.016   5.268
 2434SOL    HW1 8201   3.211   2.934   5.283
 2434SOL    HW2 8202   3.268   3.070   5.352
 2435SOL     OW 8203   5.620   5.189   6.541
 2435SOL    HW1 8204   5.649   5.283   6.556
 2435SOL    HW2 8205   5.602   5.174   6.444
 2436SOL     OW 8206   3.391   4.218   0.723
 2436SOL    HW1 8207   3.330   4.149   0.760
 2436SOL    HW2 8208   3.470   4.228   0.784
 2437SOL     OW 8209   0.054   0.919   5.796
 2437SOL    HW1 8210   0.148   0.930   5.829
 2437SOL    HW2 8211   0.046   0.832   5.746
 2438SOL     OW 8212   3.534   3.452   0.632
 2438SOL    HW1 8213   3.451   3.508   0.627
 2438SOL    HW2 8214   3.611   3.508   0.661
 2439SOL     OW 8215   6.243   3.787   6.699
 2439SOL    HW1 8216   6.145   3.808   6.703
 2439SOL    HW2 8217   6.258   3.710   6.638
 2440SOL     OW 8218   6.104   4.953   6.164
 2440SOL    HW1 8219   6.145   4.912   6.083
 2440SOL    HW2 8220   6.004   4.951   6.156
 2441SOL     OW 8221   6.666   2.126   0.597
 2441SOL    HW1 8222   6.679   2.211   0.647
 2441SOL    HW2 8223   6.574   2.090   0.616
 2442SOL     OW 8224   6.741   1.821   4.401
 2442SOL    HW1 8225   6.698   1.909   4.425
 2442SOL    HW2 8226   6.715   1.752   4.469
 2443SOL     OW 8227   2.879   4.651   6.384
 2443SOL    HW1 8228   2.824   4.665   6.301
 2443SOL    HW2 8229   2.900   4.740   6.425
 2444SOL     OW 8230   3.670   2.440   6.037
 2444SOL    HW1 8231   3.655   2.539   6.046
 2444SOL    HW2 8232   3.602   2.401   5.976
 2445SOL     OW 8233   1.172   0.631   0.859
 2445SOL    HW1 8234   1.150   0.729   0.864
 2445SOL    HW2 8235   1.254   0.618   0.804
 2446SOL     OW 8236   4.779   3.162   6.432
 2446SOL    HW1 8237   4.713   3.096   6.466
 2446SOL    HW2 8238   4.740   3.212   6.355
 2447SOL     OW 8239   0.866   3.648   6.652
 2447SOL    HW1 8240   0.929   3.571   6.652
 2447SOL    HW2 8241   0.778   3.620   6.691
 2448SOL     OW 8242   6.287   0.408   4.796
 2448SOL    HW1 8243   6.292   0.451   4.706
 2448SOL    HW2 8244   6.314   0.312   4.789
 2449SOL     OW 8245   0.095   3.418   5.563
 2449SOL    HW1 8246   0.181   3.380   5.596
 2449SOL    HW2 8247   0.018   3.367   5.603
 2450SOL     OW 8248   2.631   2.991   1.302
 2450SOL    HW1 8249   2.604   3.064   1.364
 2450SOL    HW2 8250   2.729   2.972   1.313
 2451SOL     OW 8251   1.984   6.339   3.488
 2451SOL    HW1 8252   1.924   6.387   3.423
 2451SOL    HW2 8253   2.076   6.379   3.484
 2452SOL     OW 8254   2.729   1.563   4.402
 2452SOL    HW1 8255   2.811   1.618   4.417
 2452SOL    HW2 8256   2.715   1.551   4.304
 2453SOL     OW 8257   0.614   4.122   0.829
 2453SOL    HW1 8258   0.617   4.103   0.731
 2453SOL    HW2 8259   0.520   4.117   0.862
 2454SOL     OW 8260   0.718   6.955   2.013
 2454SOL    HW1 8261   0.784   7.016   1.968
 2454SOL    HW2 8262   0.707   6.872   1.958
 2455SOL     OW 8263   5.627   3.766   1.430
 2455SOL    HW1 8264   5.564   3.802   1.499
 2455SOL    HW2 8265   5.665   3.842   1.378
 2456SOL     OW 8266   2.672   6.188   1.562
 2456SOL    HW1 8267   2.655   6.094   1.533
 2456SOL    HW2 8268   2.619   6.250   1.505
 2457SOL     OW 8269   4.926   5.818   0.562
 2457SOL    HW1 8270   4.993   5.892   0.565
 2457SOL    HW2 8271   4.858   5.832   0.635
 2458SOL     OW 8272   0.357   6.480   1.653
 2458SOL    HW1 8273   0.383   6.387   1.679
 2458SOL    HW2 8274   0.434   6.525   1.610
 2459SOL     OW 8275   1.313   2.019   0.417
 2459SOL    HW1 8276   1.405   2.032   0.379
 2459SOL    HW2 8277   1.253   2.092   0.385
 2460SOL     OW 8278   2.095   4.561   0.633
 2460SOL    HW1 8279   2.078   4.462   0.624
 2460SOL    HW2 8280   2.087   4.604   0.543
 2461SOL     OW 8281   4.432   1.192   3.291
 2461SOL    HW1 8282   4.396   1.111   3.337
 2461SOL    HW2 8283   4.453   1.170   3.196
 2462SOL     OW 8284   3.112   4.850   6.398
 2462SOL    HW1 8285   3.141   4.758   6.373
 2462SOL    HW2 8286   3.161   4.879   6.480
 2463SOL     OW 8287   1.828   3.087   5.261
 2463SOL    HW1 8288   1.894   3.012   5.263
 2463SOL    HW2 8289   1.875   3.173   5.243
 2464SOL     OW 8290   1.062   3.306   0.888
 2464SOL    HW1 8291   1.029   3.222   0.844
 2464SOL    HW2 8292   1.160   3.317   0.870
 2465SOL     OW 8293   6.306   4.316   3.029
 2465SOL    HW1 8294   6.208   4.296   3.024
 2465SOL    HW2 8295   6.320   4.415   3.023
 2466SOL     OW 8296   4.105   1.801   1.677
 2466SOL    HW1 8297   4.164   1.872   1.715
 2466SOL    HW2 8298   4.147   1.711   1.693
 2467SOL     OW 8299   1.258   1.287   4.220
 2467SOL    HW1 8300   1.240   1.215   4.154
 2467SOL    HW2 8301   1.357   1.300   4.230
 2468SOL     OW 8302   6.441   4.807   6.546
 2468SOL    HW1 8303   6.485   4.871   6.610
 2468SOL    HW2 8304   6.508   4.739   6.516
 2469SOL     OW 8305   2.504   1.708   6.439
 2469SOL    HW1 8306   2.524   1.714   6.341
 2469SOL    HW2 8307   2.588   1.724   6.491
 2470SOL     OW 8308   5.044   2.938   0.722
 2470SOL    HW1 8309   4.957   2.982   0.698
 2470SOL    HW2 8310   5.027   2.862   0.785
 2471SOL     OW 8311   0.403   1.475   3.526
 2471SOL    HW1 8312   0.380   1.458   3.430
 2471SOL    HW2 8313   0.341   1.544   3.564
 2472SOL     OW 8314   6.667   0.731   4.244
 2472SOL    HW1 8315   6.763   0.757   4.243
 2472SOL    HW2 8316   6.636   0.720   4.339
 2473SOL     OW 8317   0.575   5.427   4.474
 2473SOL    HW1 8318   0.645   5.358   4.490
 2473SOL    HW2 8319   0.497   5.410   4.534
 2474SOL     OW 8320   5.580   6.714   4.343
 2474SOL    HW1 8321   5.497   6.770   4.344
 2474SOL    HW2 8322   5.660   6.773   4.360
 2475SOL     OW 8323   3.850   2.521   6.238
 2475SOL    HW1 8324   3.810   2.593   6.295
 2475SOL    HW2 8325   3.788   2.500   6.163
 2476SOL     OW 8326   0.794   1.755   4.121
 2476SOL    HW1 8327   0.738   1.774   4.040
 2476SOL    HW2 8328   0.804   1.656   4.132
 2477SOL     OW 8329   4.593   4.515   1.972
 2477SOL    HW1 8330   4.552   4.430   2.005
 2477SOL    HW2 8331   4.646   4.497   1.889
 2478SOL     OW 8332   6.735   0.603   2.187
 2478SOL    HW1 8333   6.771   0.525   2.137
 2478SOL    HW2 8334   6.781   0.687   2.157
 2479SOL     OW 8335   1.041   3.171   0.486
 2479SOL    HW1 8336   1.092   3.225   0.419
 2479SOL    HW2 8337   0.953   3.215   0.504
 2480SOL     OW 8338   6.636   4.566   0.515
 2480SOL    HW1 8339   6.665   4.647   0.566
 2480SOL    HW2 8340   6.578   4.594   0.438
 2481SOL     OW 8341   4.078   4.863   2.603
 2481SOL    HW1 8342   3.984   4.832   2.600
 2481SOL    HW2 8343   4.134   4.809   2.540
 2482SOL     OW 8344   3.946   1.960   4.629
 2482SOL    HW1 8345   3.869   2.000   4.580
 2482SOL    HW2 8346   4.028   2.013   4.611
 2483SOL     OW 8347   0.445   3.253   6.755
 2483SOL    HW1 8348   0.520   3.188   6.742
 2483SOL    HW2 8349   0.450   3.324   6.684
 2484SOL     OW 8350   3.451   4.300   5.517
 2484SOL    HW1 8351   3.393   4.291   5.599
 2484SOL    HW2 8352   3.406   4.360   5.451
 2485SOL     OW 8353   0.729   4.755   0.246
 2485SOL    HW1 8354   0.827   4.740   0.232
 2485SOL    HW2 8355   0.709   4.758   0.343
 2486SOL     OW 8356   0.393   5.355   4.018
 2486SOL    HW1 8357   0.378   5.404   4.105
 2486SOL    HW2 8358   0.489   5.329   4.011
 2487SOL     OW 8359   2.567   1.240   1.240
 2487SOL    HW1 8360   2.588   1.159   1.185
 2487SOL    HW2 8361   2.637   1.251   1.311
 2488SOL     OW 8362   2.539   5.632   6.534
 2488SOL    HW1 8363   2.480   5.695   6.484
 2488SOL    HW2 8364   2.498   5.612   6.623
 2489SOL     OW 8365   6.438   6.024   4.661
 2489SOL    HW1 8366   6.461   6.078   4.580
 2489SOL    HW2 8367   6.352   5.976   4.646
 2490SOL     OW 8368   5.682   2.755   1.099
 2490SOL    HW1 8369   5.658   2.716   1.188
 2490SOL    HW2 8370   5.642   2.699   1.026
 2491SOL     OW 8371   6.876   4.077   2.169
 2491SOL    HW1 8372   6.911   4.149   2.108
 2491SOL    HW2 8373   6.943   4.057   2.240
 2492SOL     OW 8374   3.975   1.768   0.447
 2492SOL    HW1 8375   4.058   1.820   0.465
 2492SOL    HW2 8376   3.985   1.676   0.484
 2493SOL     OW 8377   6.273   0.932   5.484
 2493SOL    HW1 8378   6.323   1.011   5.450
 2493SOL    HW2 8379   6.191   0.917   5.429
 2494SOL     OW 8380   5.692   5.262   0.456
 2494SOL    HW1 8381   5.632   5.323   0.507
 2494SOL    HW2 8382   5.782   5.259   0.499
 2495SOL     OW 8383   0.040   1.489   2.638
 2495SOL    HW1 8384   0.109   1.425   2.603
 2495SOL    HW2 8385   0.017   1.465   2.733
 2496SOL     OW 8386   1.776   4.631   0.664
 2496SOL    HW1 8387   1.868   4.592   0.663
 2496SOL    HW2 8388   1.713   4.569   0.618
 2497SOL     OW 8389   6.298   1.482   6.298
 2497SOL    HW1 8390   6.206   1.468   6.262
 2497SOL    HW2 8391   6.294   1.541   6.379
 2498SOL     OW 8392   1.391   3.200   4.339
 2498SOL    HW1 8393   1.376   3.299   4.350
 2498SOL    HW2 8394   1.489   3.183   4.322
 2499SOL     OW 8395   5.027   0.225   6.837
 2499SOL    HW1 8396   5.020   0.126   6.850
 2499SOL    HW2 8397   5.054   0.244   6.742
 2500SOL     OW 8398   5.086   3.005   6.192
 2500SOL    HW1 8399   5.079   3.083   6.255
 2500SOL    HW2 8400   5.042   3.028   6.105
 2501SOL     OW 8401   5.941   5.141   0.732
 2501SOL    HW1 8402   5.869   5.205   0.761
 2501SOL    HW2 8403   5.946   5.139   0.632
 2502SOL     OW 8404   1.270   6.933   2.671
 2502SOL    HW1 8405   1.282   6.993   2.750
 2502SOL    HW2 8406   1.175   6.903   2.667
 2503SOL     OW 8407   5.542   5.627   3.625
 2503SOL    HW1 8408   5.612   5.687   3.663
 2503SOL    HW2 8409   5.460   5.680   3.605
 2504SOL     OW 8410   3.176   5.009   2.769
 2504SOL    HW1 8411   3.211   5.058   2.689
 2504SOL    HW2 8412   3.119   4.933   2.739
 2505SOL     OW 8413   4.903   3.778   4.647
 2505SOL    HW1 8414   5.003   3.774   4.641
 2505SOL    HW2 8415   4.871   3.708   4.711
 2506SOL     OW 8416   1.636   1.505   6.916
 2506SOL    HW1 8417   1.589   1.539   6.834
 2506SOL    HW2 8418   1.662   1.409   6.902
 2507SOL     OW 8419   6.797   5.635   0.923
 2507SOL    HW1 8420   6.776   5.665   1.016
 2507SOL    HW2 8421   6.813   5.536   0.923
 2508SOL     OW 8422   1.583   1.394   1.582
 2508SOL    HW1 8423   1.498   1.384   1.529
 2508SOL    HW2 8424   1.658   1.348   1.534
 2509SOL     OW 8425   6.335   6.803   3.502
 2509SOL    HW1 8426   6.416   6.747   3.513
 2509SOL    HW2 8427   6.263   6.771   3.564
 2510SOL     OW 8428   3.462   6.066   2.766
 2510SOL    HW1 8429   3.509   6.135   2.712
 2510SOL    HW2 8430   3.378   6.105   2.805
 2511SOL     OW 8431   0.886   5.238   4.253
 2511SOL    HW1 8432   0.851   5.166   4.193
 2511SOL    HW2 8433   0.914   5.317   4.198
 2512SOL     OW 8434   6.026   3.226   4.555
 2512SOL    HW1 8435   6.092   3.301   4.561
 2512SOL    HW2 8436   6.010   3.188   4.646
 2513SOL     OW 8437   0.900   4.400   1.609
 2513SOL    HW1 8438   0.883   4.417   1.512
 2513SOL    HW2 8439   0.822   4.352   1.649
 2514SOL     OW 8440   0.106   2.089   4.595
 2514SOL    HW1 8441   0.036   2.020   4.615
 2514SOL    HW2 8442   0.116   2.099   4.496
 2515SOL     OW 8443   0.379   4.803   6.199
 2515SOL    HW1 8444   0.457   4.858   6.171
 2515SOL    HW2 8445   0.412   4.721   6.246
 2516SOL     OW 8446   4.899   6.601   4.671
 2516SOL    HW1 8447   4.866   6.666   4.739
 2516SOL    HW2 8448   4.987   6.632   4.635
 2517SOL     OW 8449   2.664   6.100   6.398
 2517SOL    HW1 8450   2.586   6.141   6.350
 2517SOL    HW2 8451   2.715   6.041   6.336
 2518SOL     OW 8452   2.269   2.232   0.295
 2518SOL    HW1 8453   2.200   2.273   0.354
 2518SOL    HW2 8454   2.340   2.299   0.273
 2519SOL     OW 8455   5.902   4.298   4.372
 2519SOL    HW1 8456   5.977   4.262   4.317
 2519SOL    HW2 8457   5.850   4.365   4.318
 2520SOL     OW 8458   4.586   5.648   0.847
 2520SOL    HW1 8459   4.515   5.685   0.787
 2520SOL    HW2 8460   4.556   5.560   0.884
 2521SOL     OW 8461   5.659   6.441   5.915
 2521SOL    HW1 8462   5.698   6.475   6.001
 2521SOL    HW2 8463   5.575   6.392   5.935
 2522SOL     OW 8464   3.587   5.466   5.220
 2522SOL    HW1 8465   3.586   5.498   5.126
 2522SOL    HW2 8466   3.599   5.544   5.282
 2523SOL     OW 8467   1.041   2.100   6.653
 2523SOL    HW1 8468   1.040   2.185   6.601
 2523SOL    HW2 8469   0.984   2.032   6.606
 2524SOL     OW 8470   1.919   0.062   4.312
 2524SOL    HW1 8471   1.993   0.114   4.354
 2524SOL    HW2 8472   1.893   0.105   4.226
 2525SOL     OW 8473   3.036   4.963   2.347
 2525SOL    HW1 8474   3.044   4.924   2.255
 2525SOL    HW2 8475   2.969   5.037   2.346
 2526SOL     OW 8476   1.951   3.093   4.934
 2526SOL    HW1 8477   2.021   3.116   5.001
 2526SOL    HW2 8478   1.994   3.063   4.849
 2527SOL     OW 8479   6.562   0.096   3.761
 2527SOL    HW1 8480   6.628   0.045   3.705
 2527SOL    HW2 8481   6.602   0.117   3.850
 2528SOL     OW 8482   5.544   4.783   2.570
 2528SOL    HW1 8483   5.474   4.727   2.525
 2528SOL    HW2 8484   5.627   4.729   2.582
 2529SOL     OW 8485   5.085   5.160   4.911
 2529SOL    HW1 8486   5.089   5.259   4.925
 2529SOL    HW2 8487   5.104   5.113   4.997
 2530SOL     OW 8488   1.103   6.788   3.518
 2530SOL    HW1 8489   1.156   6.870   3.495
 2530SOL    HW2 8490   1.103   6.775   3.617
 2531SOL     OW 8491   5.204   2.818   6.000
 2531SOL    HW1 8492   5.141   2.813   5.922
 2531SOL    HW2 8493   5.152   2.840   6.083
 2532SOL     OW 8494   6.509   5.175   6.870
 2532SOL    HW1 8495   6.534   5.249   6.933
 2532SOL    HW2 8496   6.443   5.208   6.803
 2533SOL     OW 8497   4.912   0.364   3.680
 2533SOL    HW1 8498   4.889   0.461   3.692
 2533SOL    HW2 8499   4.992   0.356   3.621
 2534SOL     OW 8500   6.600   0.796   2.684
 2534SOL    HW1 8501   6.649   0.710   2.670
 2534SOL    HW2 8502   6.637   0.842   2.765
 2535SOL     OW 8503   2.962   1.299   1.185
 2535SOL    HW1 8504   2.985   1.352   1.267
 2535SOL    HW2 8505   2.906   1.221   1.212
 2536SOL     OW 8506   0.642   7.008   2.986
 2536SOL    HW1 8507   0.651   0.086   3.006
 2536SOL    HW2 8508   0.679   6.955   3.062
 2537SOL     OW 8509   2.224   6.395   1.710
 2537SOL    HW1 8510   2.277   6.312   1.726
 2537SOL    HW2 8511   2.217   6.447   1.796
 2538SOL     OW 8512   0.271   5.227   5.190
 2538SOL    HW1 8513   0.195   5.261   5.244
 2538SOL    HW2 8514   0.357   5.249   5.235
 2539SOL     OW 8515   1.014   6.969   5.231
 2539SOL    HW1 8516   0.924   6.934   5.255
 2539SOL    HW2 8517   1.084   6.924   5.287
 2540SOL     OW 8518   5.698   2.899   1.905
 2540SOL    HW1 8519   5.781   2.927   1.857
 2540SOL    HW2 8520   5.688   2.952   1.990
 2541SOL     OW 8521   1.996   0.591   0.171
 2541SOL    HW1 8522   1.924   0.646   0.128
 2541SOL    HW2 8523   2.079   0.594   0.115
 2542SOL     OW 8524   4.024   2.174   2.997
 2542SOL    HW1 8525   3.931   2.162   2.963
 2542SOL    HW2 8526   4.077   2.091   2.981
 2543SOL     OW 8527   5.905   6.463   5.513
 2543SOL    HW1 8528   5.878   6.367   5.506
 2543SOL    HW2 8529   5.867   6.501   5.597
 2544SOL     OW 8530   0.313   0.466   0.212
 2544SOL    HW1 8531   0.251   0.489   0.287
 2544SOL    HW2 8532   0.295   0.373   0.181
 2545SOL     OW 8533   0.950   1.451   0.319
 2545SOL    HW1 8534   0.970   1.447   0.221
 2545SOL    HW2 8535   0.962   1.544   0.352
 2546SOL     OW 8536   5.983   3.128   3.589
 2546SOL    HW1 8537   5.935   3.065   3.528
 2546SOL    HW2 8538   5.946   3.119   3.681
 2547SOL     OW 8539   5.937   3.337   0.631
 2547SOL    HW1 8540   5.872   3.413   0.638
 2547SOL    HW2 8541   6.029   3.370   0.651
 2548SOL     OW 8542   6.024   0.575   5.462
 2548SOL    HW1 8543   5.950   0.627   5.504
 2548SOL    HW2 8544   6.024   0.593   5.363
 2549SOL     OW 8545   2.680   4.124   6.547
 2549SOL    HW1 8546   2.666   4.071   6.464
 2549SOL    HW2 8547   2.762   4.181   6.537
 2550SOL     OW 8548   3.974   0.912   1.422
 2550SOL    HW1 8549   3.915   0.883   1.346
 2550SOL    HW2 8550   4.003   0.832   1.475
 2551SOL     OW 8551   2.787   4.515   1.019
 2551SOL    HW1 8552   2.714   4.529   0.952
 2551SOL    HW2 8553   2.806   4.417   1.027
 2552SOL     OW 8554   3.239   5.699   1.059
 2552SOL    HW1 8555   3.281   5.621   1.013
 2552SOL    HW2 8556   3.191   5.668   1.140
 2553SOL     OW 8557   4.406   2.209   1.454
 2553SOL    HW1 8558   4.339   2.177   1.521
 2553SOL    HW2 8559   4.433   2.303   1.477
 2554SOL     OW 8560   1.430   6.000   0.947
 2554SOL    HW1 8561   1.515   6.052   0.936
 2554SOL    HW2 8562   1.355   6.050   0.903
 2555SOL     OW 8563   0.301   5.815   4.542
 2555SOL    HW1 8564   0.313   5.913   4.528
 2555SOL    HW2 8565   0.205   5.791   4.527
 2556SOL     OW 8566   5.391   0.687   6.948
 2556SOL    HW1 8567   5.396   0.604   6.892
 2556SOL    HW2 8568   5.473   0.694   7.004
 2557SOL     OW 8569   2.742   1.420   0.566
 2557SOL    HW1 8570   2.654   1.438   0.520
 2557SOL    HW2 8571   2.735   1.445   0.662
 2558SOL     OW 8572   5.758   2.836   1.555
 2558SOL    HW1 8573   5.827   2.766   1.573
 2558SOL    HW2 8574   5.675   2.816   1.607
 2559SOL     OW 8575   0.175   5.908   3.131
 2559SOL    HW1 8576   0.222   5.832   3.085
 2559SOL    HW2 8577   0.107   5.871   3.194
 2560SOL     OW 8578   3.896   2.871   1.805
 2560SOL    HW1 8579   3.818   2.871   1.868
 2560SOL    HW2 8580   3.934   2.963   1.800
 2561SOL     OW 8581   3.672   1.106   4.807
 2561SOL    HW1 8582   3.666   1.071   4.900
 2561SOL    HW2 8583   3.753   1.068   4.762
 2562SOL     OW 8584   1.115   6.789   4.718
 2562SOL    HW1 8585   1.213   6.773   4.718
 2562SOL    HW2 8586   1.068   6.713   4.763
 2563SOL     OW 8587   4.560   1.890   0.120
 2563SOL    HW1 8588   4.583   1.976   0.075
 2563SOL    HW2 8589   4.499   1.836   0.060
 2564SOL     OW 8590   1.720   0.976   1.477
 2564SOL    HW1 8591   1.635   1.017   1.509
 2564SOL    HW2 8592   1.780   1.047   1.439
 2565SOL     OW 8593   6.119   0.374   0.577
 2565SOL    HW1 8594   6.097   0.471   0.585
 2565SOL    HW2 8595   6.085   0.338   0.491
 2566SOL     OW 8596   2.778   1.178   0.872
 2566SOL    HW1 8597   2.696   1.215   0.828
 2566SOL    HW2 8598   2.837   1.254   0.901
 2567SOL     OW 8599   1.865   0.780   6.137
 2567SOL    HW1 8600   1.863   0.697   6.192
 2567SOL    HW2 8601   1.875   0.756   6.040
 2568SOL     OW 8602   3.170   6.587   6.827
 2568SOL    HW1 8603   3.153   6.571   6.924
 2568SOL    HW2 8604   3.087   6.566   6.775
 2569SOL     OW 8605   2.969   6.451   6.679
 2569SOL    HW1 8606   2.940   6.440   6.774
 2569SOL    HW2 8607   2.920   6.528   6.638
 2570SOL     OW 8608   0.184   0.493   3.661
 2570SOL    HW1 8609   0.253   0.559   3.692
 2570SOL    HW2 8610   0.177   0.497   3.561
 2571SOL     OW 8611   3.481   3.324   2.219
 2571SOL    HW1 8612   3.555   3.264   2.187
 2571SOL    HW2 8613   3.395   3.274   2.218
 2572SOL     OW 8614   2.568   6.588   2.449
 2572SOL    HW1 8615   2.637   6.532   2.404
 2572SOL    HW2 8616   2.605   6.678   2.469
 2573SOL     OW 8617   6.207   0.268   2.607
 2573SOL    HW1 8618   6.173   0.282   2.701
 2573SOL    HW2 8619   6.250   0.179   2.600
 2574SOL     OW 8620   0.628   4.635   2.211
 2574SOL    HW1 8621   0.694   4.663   2.281
 2574SOL    HW2 8622   0.623   4.535   2.208
 2575SOL     OW 8623   4.255   3.373   5.437
 2575SOL    HW1 8624   4.272   3.438   5.511
 2575SOL    HW2 8625   4.342   3.345   5.397
 2576SOL     OW 8626   1.140   0.713   3.568
 2576SOL    HW1 8627   1.062   0.765   3.603
 2576SOL    HW2 8628   1.144   0.722   3.469
 2577SOL     OW 8629   1.474   4.632   0.332
 2577SOL    HW1 8630   1.567   4.667   0.327
 2577SOL    HW2 8631   1.409   4.709   0.325
 2578SOL     OW 8632   5.386   1.088   5.277
 2578SOL    HW1 8633   5.447   1.148   5.225
 2578SOL    HW2 8634   5.330   1.034   5.215
 2579SOL     OW 8635   6.921   2.126   6.392
 2579SOL    HW1 8636   6.971   2.062   6.450
 2579SOL    HW2 8637   6.966   2.133   6.303
 2580SOL     OW 8638   1.598   2.518   5.433
 2580SOL    HW1 8639   1.688   2.562   5.439
 2580SOL    HW2 8640   1.566   2.520   5.338
 2581SOL     OW 8641   4.871   6.771   4.327
 2581SOL    HW1 8642   4.788   6.746   4.376
 2581SOL    HW2 8643   4.942   6.703   4.343
 2582SOL     OW 8644   6.871   4.660   2.613
 2582SOL    HW1 8645   6.966   4.653   2.582
 2582SOL    HW2 8646   6.833   4.748   2.584
 2583SOL     OW 8647   2.899   0.565   0.032
 2583SOL    HW1 8648   2.889   0.624   0.112
 2583SOL    HW2 8649   2.944   0.616   6.977
 2584SOL     OW 8650   3.550   0.742   4.111
 2584SOL    HW1 8651   3.611   0.819   4.095
 2584SOL    HW2 8652   3.522   0.703   4.023
 2585SOL     OW 8653   3.813   0.544   3.090
 2585SOL    HW1 8654   3.881   0.495   3.036
 2585SOL    HW2 8655   3.726   0.547   3.041
 2586SOL     OW 8656   1.991   1.939   4.565
 2586SOL    HW1 8657   2.076   1.901   4.528
 2586SOL    HW2 8658   1.929   1.962   4.490
 2587SOL     OW 8659   6.671   4.632   3.661
 2587SOL    HW1 8660   6.653   4.702   3.592
 2587SOL    HW2 8661   6.768   4.608   3.658
 2588SOL     OW 8662   2.980   0.296   2.260
 2588SOL    HW1 8663   3.053   0.360   2.283
 2588SOL    HW2 8664   3.019   0.216   2.215
 2589SOL     OW 8665   4.961   6.828   2.395
 2589SOL    HW1 8666   4.896   6.878   2.338
 2589SOL    HW2 8667   4.925   6.737   2.414
 2590SOL     OW 8668   4.240   6.259   3.793
 2590SOL    HW1 8669   4.243   6.211   3.706
 2590SOL    HW2 8670   4.297   6.341   3.788
 2591SOL     OW 8671   5.377   0.589   0.882
 2591SOL    HW1 8672   5.322   0.541   0.951
 2591SOL    HW2 8673   5.325   0.665   0.844
 2592SOL     OW 8674   2.648   5.695   2.049
 2592SOL    HW1 8675   2.713   5.754   2.096
 2592SOL    HW2 8676   2.585   5.655   2.115
 2593SOL     OW 8677   2.580   6.980   4.379
 2593SOL    HW1 8678   2.660   7.018   4.332
 2593SOL    HW2 8679   2.526   6.926   4.314
 2594SOL     OW 8680   1.671   5.699   6.575
 2594SOL    HW1 8681   1.733   5.622   6.561
 2594SOL    HW2 8682   1.723   5.785   6.573
 2595SOL     OW 8683   0.236   3.173   5.182
 2595SOL    HW1 8684   0.318   3.173   5.125
 2595SOL    HW2 8685   0.156   3.189   5.124
 2596SOL     OW 8686   4.439   1.452   0.662
 2596SOL    HW1 8687   4.430   1.549   0.685
 2596SOL    HW2 8688   4.468   1.443   0.567
 2597SOL     OW 8689   2.643   2.168   6.273
 2597SOL    HW1 8690   2.688   2.083   6.244
 2597SOL    HW2 8691   2.656   2.238   6.203
 2598SOL     OW 8692   6.437   1.302   3.370
 2598SOL    HW1 8693   6.388   1.244   3.435
 2598SOL    HW2 8694   6.373   1.366   3.328
 2599SOL     OW 8695   5.002   5.929   5.759
 2599SOL    HW1 8696   4.936   5.994   5.723
 2599SOL    HW2 8697   5.095   5.965   5.745
 2600SOL     OW 8698   6.972   3.278   4.989
 2600SOL    HW1 8699   6.956   3.194   5.042
 2600SOL    HW2 8700   6.927   3.270   4.900
 2601SOL     OW 8701   4.063   4.301   5.304
 2601SOL    HW1 8702   4.091   4.369   5.236
 2601SOL    HW2 8703   4.002   4.235   5.261
 2602SOL     OW 8704   6.394   0.143   0.201
 2602SOL    HW1 8705   6.461   0.073   0.177
 2602SOL    HW2 8706   6.337   0.111   0.276
 2603SOL     OW 8707   2.086   1.561   6.909
 2603SOL    HW1 8708   2.036   1.645   6.892
 2603SOL    HW2 8709   2.072   1.498   6.833
 2604SOL     OW 8710   6.011   1.649   0.705
 2604SOL    HW1 8711   6.042   1.639   0.800
 2604SOL    HW2 8712   6.090   1.647   0.644
 2605SOL     OW 8713   5.386   2.155   5.368
 2605SOL    HW1 8714   5.344   2.136   5.456
 2605SOL    HW2 8715   5.471   2.102   5.359
 2606SOL     OW 8716   6.251   4.468   1.092
 2606SOL    HW1 8717   6.320   4.540   1.090
 2606SOL    HW2 8718   6.296   4.379   1.082
 2607SOL     OW 8719   0.581   0.772   3.371
 2607SOL    HW1 8720   0.610   0.795   3.464
 2607SOL    HW2 8721   0.522   0.690   3.374
 2608SOL     OW 8722   4.393   1.065   0.298
 2608SOL    HW1 8723   4.476   1.033   0.252
 2608SOL    HW2 8724   4.332   0.987   0.315
 2609SOL     OW 8725   1.091   4.513   3.414
 2609SOL    HW1 8726   1.180   4.479   3.444
 2609SOL    HW2 8727   1.093   4.612   3.409
 2610SOL     OW 8728   5.632   4.827   4.773
 2610SOL    HW1 8729   5.614   4.840   4.675
 2610SOL    HW2 8730   5.652   4.730   4.790
 2611SOL     OW 8731   3.075   6.266   1.908
 2611SOL    HW1 8732   3.044   6.173   1.925
 2611SOL    HW2 8733   3.027   6.303   1.828
 2612SOL     OW 8734   0.284   6.864   4.242
 2612SOL    HW1 8735   0.215   6.793   4.252
 2612SOL    HW2 8736   0.366   6.840   4.295
 2613SOL     OW 8737   4.171   1.592   0.014
 2613SOL    HW1 8738   4.144   1.562   0.105
 2613SOL    HW2 8739   4.124   1.537   6.964
 2614SOL     OW 8740   6.431   6.609   6.854
 2614SOL    HW1 8741   6.358   6.673   6.830
 2614SOL    HW2 8742   6.407   6.518   6.822
 2615SOL     OW 8743   0.427   4.501   1.579
 2615SOL    HW1 8744   0.375   4.425   1.540
 2615SOL    HW2 8745   0.502   4.525   1.517
 2616SOL     OW 8746   3.833   3.690   1.633
 2616SOL    HW1 8747   3.809   3.773   1.682
 2616SOL    HW2 8748   3.915   3.707   1.578
 2617SOL     OW 8749   2.910   6.578   0.896
 2617SOL    HW1 8750   2.965   6.595   0.814
 2617SOL    HW2 8751   2.962   6.603   0.977
 2618SOL     OW 8752   1.326   5.616   0.321
 2618SOL    HW1 8753   1.299   5.707   0.352
 2618SOL    HW2 8754   1.279   5.546   0.376
 2619SOL     OW 8755   6.275   0.922   2.623
 2619SOL    HW1 8756   6.180   0.915   2.591
 2619SOL    HW2 8757   6.308   0.832   2.650
 2620SOL     OW 8758   1.882   5.901   3.734
 2620SOL    HW1 8759   1.811   5.888   3.802
 2620SOL    HW2 8760   1.841   5.922   3.645
 2621SOL     OW 8761   1.513   6.000   4.282
 2621SOL    HW1 8762   1.414   6.013   4.282
 2621SOL    HW2 8763   1.558   6.082   4.247
 2622SOL     OW 8764   2.325   2.811   3.967
 2622SOL    HW1 8765   2.406   2.848   3.921
 2622SOL    HW2 8766   2.342   2.805   4.065
 2623SOL     OW 8767   3.016   0.113   5.573
 2623SOL    HW1 8768   2.978   0.054   5.501
 2623SOL    HW2 8769   2.948   0.181   5.600
 2624SOL     OW 8770   4.668   1.961   4.435
 2624SOL    HW1 8771   4.675   1.944   4.534
 2624SOL    HW2 8772   4.687   2.058   4.417
 2625SOL     OW 8773   1.843   7.004   5.654
 2625SOL    HW1 8774   1.749   7.005   5.687
 2625SOL    HW2 8775   1.906   7.016   5.731
 2626SOL     OW 8776   2.982   6.982   3.466
 2626SOL    HW1 8777   2.920   0.011   3.529
 2626SOL    HW2 8778   3.074   7.018   3.476
 2627SOL     OW 8779   1.125   0.277   4.208
 2627SOL    HW1 8780   1.083   0.350   4.153
 2627SOL    HW2 8781   1.054   0.224   4.254
 2628SOL     OW 8782   4.790   4.872   6.993
 2628SOL    HW1 8783   4.771   4.918   6.906
 2628SOL    HW2 8784   4.888   4.876   7.012
 2629SOL     OW 8785   3.026   4.057   1.984
 2629SOL    HW1 8786   3.007   4.096   2.074
 2629SOL    HW2 8787   3.022   4.129   1.914
 2630SOL     OW 8788   3.699   1.682   2.466
 2630SOL    HW1 8789   3.628   1.644   2.407
 2630SOL    HW2 8790   3.657   1.725   2.546
 2631SOL     OW 8791   3.058   6.545   4.025
 2631SOL    HW1 8792   3.127   6.606   4.063
 2631SOL    HW2 8793   3.092   6.451   4.024
 2632SOL     OW 8794   5.080   1.114   0.621
 2632SOL    HW1 8795   5.004   1.171   0.591
 2632SOL    HW2 8796   5.070   1.093   0.719
 2633SOL     OW 8797   0.274   2.278   0.259
 2633SOL    HW1 8798   0.332   2.200   0.233
 2633SOL    HW2 8799   0.183   2.245   0.282
 2634SOL     OW 8800   2.570   5.182   0.213
 2634SOL    HW1 8801   2.524   5.093   0.218
 2634SOL    HW2 8802   2.634   5.183   0.137
 2635SOL     OW 8803   6.408   4.431   3.367
 2635SOL    HW1 8804   6.434   4.449   3.462
 2635SOL    HW2 8805   6.345   4.353   3.364
 2636SOL     OW 8806   5.402   5.247   5.647
 2636SOL    HW1 8807   5.444   5.232   5.558
 2636SOL    HW2 8808   5.356   5.163   5.677
 2637SOL     OW 8809   5.201   5.394   2.026
 2637SOL    HW1 8810   5.209   5.377   1.928
 2637SOL    HW2 8811   5.153   5.317   2.069
 2638SOL     OW 8812   4.719   5.757   0.387
 2638SOL    HW1 8813   4.781   5.795   0.456
 2638SOL    HW2 8814   4.771   5.709   0.317
 2639SOL     OW 8815   6.318   0.913   0.429
 2639SOL    HW1 8816   6.242   0.973   0.405
 2639SOL    HW2 8817   6.283   0.820   0.445
 2640SOL     OW 8818   6.565   6.221   0.854
 2640SOL    HW1 8819   6.488   6.170   0.815
 2640SOL    HW2 8820   6.532   6.307   0.892
 2641SOL     OW 8821   6.546   5.918   1.326
 2641SOL    HW1 8822   6.556   5.955   1.234
 2641SOL    HW2 8823   6.621   5.952   1.384
 2642SOL     OW 8824   6.734   0.036   3.999
 2642SOL    HW1 8825   6.782   6.967   4.004
 2642SOL    HW2 8826   6.800   0.110   3.991
 2643SOL     OW 8827   1.611   0.678   2.118
 2643SOL    HW1 8828   1.695   0.690   2.171
 2643SOL    HW2 8829   1.634   0.652   2.024
 2644SOL     OW 8830   5.864   6.373   4.699
 2644SOL    HW1 8831   5.796   6.306   4.730
 2644SOL    HW2 8832   5.838   6.409   4.610
 2645SOL     OW 8833   5.535   6.079   6.540
 2645SOL    HW1 8834   5.464   6.012   6.519
 2645SOL    HW2 8835   5.604   6.078   6.467
 2646SOL     OW 8836   5.703   5.362   5.949
 2646SOL    HW1 8837   5.793   5.405   5.956
 2646SOL    HW2 8838   5.707   5.270   5.989
 2647SOL     OW 8839   3.168   4.362   0.500
 2647SOL    HW1 8840   3.215   4.434   0.551
 2647SOL    HW2 8841   3.118   4.402   0.424
 2648SOL     OW 8842   4.485   1.240   3.559
 2648SOL    HW1 8843   4.581   1.223   3.582
 2648SOL    HW2 8844   4.474   1.241   3.459
 2649SOL     OW 8845   2.838   3.882   5.054
 2649SOL    HW1 8846   2.838   3.812   4.983
 2649SOL    HW2 8847   2.764   3.863   5.119
 2650SOL     OW 8848   0.171   6.800   2.123
 2650SOL    HW1 8849   0.187   6.717   2.176
 2650SOL    HW2 8850   0.191   6.880   2.181
 2651SOL     OW 8851   1.672   0.312   2.539
 2651SOL    HW1 8852   1.656   0.410   2.547
 2651SOL    HW2 8853   1.720   0.293   2.453
 2652SOL     OW 8854   3.375   2.042   1.503
 2652SOL    HW1 8855   3.293   2.054   1.559
 2652SOL    HW2 8856   3.436   2.120   1.515
 2653SOL     OW 8857   5.586   0.151   1.317
 2653SOL    HW1 8858   5.560   0.226   1.378
 2653SOL    HW2 8859   5.679   0.121   1.340
 2654SOL     OW 8860   0.296   3.312   5.691
 2654SOL    HW1 8861   0.322   3.352   5.779
 2654SOL    HW2 8862   0.367   3.248   5.661
 2655SOL     OW 8863   5.688   4.643   3.887
 2655SOL    HW1 8864   5.668   4.545   3.886
 2655SOL    HW2 8865   5.663   4.683   3.799
 2656SOL     OW 8866   5.880   3.850   5.166
 2656SOL    HW1 8867   5.962   3.812   5.209
 2656SOL    HW2 8868   5.905   3.888   5.076
 2657SOL     OW 8869   3.986   1.919   5.255
 2657SOL    HW1 8870   3.946   1.913   5.164
 2657SOL    HW2 8871   4.013   2.014   5.273
 2658SOL     OW 8872   0.176   4.139   5.747
 2658SOL    HW1 8873   0.271   4.158   5.775
 2658SOL    HW2 8874   0.176   4.073   5.672
 2659SOL     OW 8875   6.332   0.710   3.295
 2659SOL    HW1 8876   6.407   0.719   3.230
 2659SOL    HW2 8877   6.361   0.651   3.370
 2660SOL     OW 8878   1.045   1.496   3.783
 2660SOL    HW1 8879   0.950   1.485   3.811
 2660SOL    HW2 8880   1.099   1.528   3.862
 2661SOL     OW 8881   3.531   6.584   3.180
 2661SOL    HW1 8882   3.573   6.525   3.249
 2661SOL    HW2 8883   3.599   6.649   3.147
 2662SOL     OW 8884   4.113   1.314   4.507
 2662SOL    HW1 8885   4.213   1.318   4.503
 2662SOL    HW2 8886   4.074   1.361   4.428
 2663SOL     OW 8887   1.026   4.565   3.125
 2663SOL    HW1 8888   1.099   4.499   3.146
 2663SOL    HW2 8889   0.970   4.579   3.206
 2664SOL     OW 8890   4.785   4.360   1.820
 2664SOL    HW1 8891   4.722   4.290   1.855
 2664SOL    HW2 8892   4.844   4.392   1.894
 2665SOL     OW 8893   3.938   0.770   5.291
 2665SOL    HW1 8894   3.860   0.807   5.340
 2665SOL    HW2 8895   3.996   0.845   5.258
 2666SOL     OW 8896   4.900   6.022   1.705
 2666SOL    HW1 8897   4.905   6.119   1.729
 2666SOL    HW2 8898   4.890   5.967   1.787
 2667SOL     OW 8899   2.347   4.723   2.764
 2667SOL    HW1 8900   2.350   4.822   2.776
 2667SOL    HW2 8901   2.255   4.696   2.734
 2668SOL     OW 8902   0.410   2.742   5.295
 2668SOL    HW1 8903   0.487   2.776   5.240
 2668SOL    HW2 8904   0.430   2.648   5.324
 2669SOL     OW 8905   4.273   5.423   4.673
 2669SOL    HW1 8906   4.266   5.330   4.710
 2669SOL    HW2 8907   4.271   5.489   4.747
 2670SOL     OW 8908   2.170   6.844   4.385
 2670SOL    HW1 8909   2.110   6.872   4.311
 2670SOL    HW2 8910   2.125   6.861   4.473
 2671SOL     OW 8911   2.854   3.475   6.731
 2671SOL    HW1 8912   2.933   3.536   6.730
 2671SOL    HW2 8913   2.885   3.381   6.749
 2672SOL     OW 8914   1.259   4.721   0.667
 2672SOL    HW1 8915   1.216   4.657   0.730
 2672SOL    HW2 8916   1.193   4.792   0.641
 2673SOL     OW 8917   4.254   2.361   3.071
 2673SOL    HW1 8918   4.170   2.307   3.079
 2673SOL    HW2 8919   4.291   2.378   3.163
 2674SOL     OW 8920   4.825   5.797   5.351
 2674SOL    HW1 8921   4.913   5.841   5.334
 2674SOL    HW2 8922   4.766   5.809   5.271
 2675SOL     OW 8923   6.876   5.263   5.996
 2675SOL    HW1 8924   6.937   5.342   6.004
 2675SOL    HW2 8925   6.929   5.179   6.008
 2676SOL     OW 8926   4.434   6.923   1.666
 2676SOL    HW1 8927   4.384   6.942   1.751
 2676SOL    HW2 8928   4.524   6.968   1.670
 2677SOL     OW 8929   2.417   4.609   2.039
 2677SOL    HW1 8930   2.423   4.524   2.090
 2677SOL    HW2 8931   2.482   4.607   1.963
 2678SOL     OW 8932   0.945   6.265   0.020
 2678SOL    HW1 8933   0.933   6.284   6.942
 2678SOL    HW2 8934   1.037   6.294   0.048
 2679SOL     OW 8935   2.299   5.053   1.143
 2679SOL    HW1 8936   2.291   5.044   1.242
 2679SOL    HW2 8937   2.390   5.022   1.114
 2680SOL     OW 8938   6.455   2.318   0.799
 2680SOL    HW1 8939   6.552   2.344   0.805
 2680SOL    HW2 8940   6.412   2.333   0.888
 2681SOL     OW 8941   1.549   1.887   1.430
 2681SOL    HW1 8942   1.508   1.801   1.399
 2681SOL    HW2 8943   1.621   1.868   1.497
 2682SOL     OW 8944   0.824   2.891   3.548
 2682SOL    HW1 8945   0.852   2.850   3.462
 2682SOL    HW2 8946   0.744   2.842   3.584
 2683SOL     OW 8947   2.005   0.057   0.958
 2683SOL    HW1 8948   2.028   0.147   0.995
 2683SOL    HW2 8949   1.995   0.064   0.858
 2684SOL     OW 8950   3.406   4.954   2.934
 2684SOL    HW1 8951   3.326   5.003   2.900
 2684SOL    HW2 8952   3.467   4.933   2.857
 2685SOL     OW 8953   5.274   4.656   5.723
 2685SOL    HW1 8954   5.359   4.689   5.764
 2685SOL    HW2 8955   5.226   4.598   5.789
 2686SOL     OW 8956   1.689   3.886   4.247
 2686SOL    HW1 8957   1.702   3.968   4.302
 2686SOL    HW2 8958   1.604   3.895   4.195
 2687SOL     OW 8959   4.426   5.302   3.084
 2687SOL    HW1 8960   4.396   5.371   3.151
 2687SOL    HW2 8961   4.524   5.313   3.067
 2688SOL     OW 8962   3.292   4.526   5.343
 2688SOL    HW1 8963   3.256   4.433   5.336
 2688SOL    HW2 8964   3.216   4.591   5.342
 2689SOL     OW 8965   5.911   1.510   4.163
 2689SOL    HW1 8966   6.009   1.497   4.174
 2689SOL    HW2 8967   5.879   1.580   4.227
 2690SOL     OW 8968   3.306   4.168   3.717
 2690SOL    HW1 8969   3.302   4.092   3.652
 2690SOL    HW2 8970   3.213   4.201   3.735
 2691SOL     OW 8971   0.886   6.260   1.216
 2691SOL    HW1 8972   0.848   6.209   1.139
 2691SOL    HW2 8973   0.880   6.204   1.299
 2692SOL     OW 8974   0.164   4.199   4.155
 2692SOL    HW1 8975   0.126   4.119   4.108
 2692SOL    HW2 8976   0.180   4.272   4.089
 2693SOL     OW 8977   2.132   3.631   2.415
 2693SOL    HW1 8978   2.135   3.643   2.316
 2693SOL    HW2 8979   2.165   3.713   2.460
 2694SOL     OW 8980   1.889   1.592   2.754
 2694SOL    HW1 8981   1.894   1.592   2.854
 2694SOL    HW2 8982   1.830   1.518   2.723
 2695SOL     OW 8983   3.846   2.137   1.779
 2695SOL    HW1 8984   3.764   2.168   1.828
 2695SOL    HW2 8985   3.924   2.137   1.842
 2696SOL     OW 8986   2.846   3.159   6.374
 2696SOL    HW1 8987   2.885   3.250   6.361
 2696SOL    HW2 8988   2.907   3.090   6.335
 2697SOL     OW 8989   2.158   0.732   5.328
 2697SOL    HW1 8990   2.257   0.745   5.342
 2697SOL    HW2 8991   2.132   0.767   5.239
 2698SOL     OW 8992   1.866   1.634   0.075
 2698SOL    HW1 8993   1.796   1.705   0.084
 2698SOL    HW2 8994   1.826   1.554   0.030
 2699SOL     OW 8995   1.820   4.377   3.531
 2699SOL    HW1 8996   1.877   4.327   3.596
 2699SOL    HW2 8997   1.752   4.431   3.582
 2700SOL     OW 8998   2.102   4.609   3.134
 2700SOL    HW1 8999   2.025   4.660   3.172
 2700SOL    HW2 9000   2.168   4.588   3.207
 2701SOL     OW 9001   1.349   0.805   5.225
 2701SOL    HW1 9002   1.411   0.727   5.242
 2701SOL    HW2 9003   1.384   0.859   5.148
 2702SOL     OW 9004   5.995   5.892   2.474
 2702SOL    HW1 9005   6.036   5.955   2.540
 2702SOL    HW2 9006   5.917   5.846   2.517
 2703SOL     OW 9007   1.990   2.657   2.310
 2703SOL    HW1 9008   2.067   2.689   2.365
 2703SOL    HW2 9009   1.956   2.571   2.347
 2704SOL     OW 9010   0.575   6.458   0.401
 2704SOL    HW1 9011   0.657   6.420   0.356
 2704SOL    HW2 9012   0.547   6.397   0.475
 2705SOL     OW 9013   7.008   2.960   3.051
 2705SOL    HW1 9014   0.047   2.991   3.127
 2705SOL    HW2 9015   0.044   2.950   2.969
 2706SOL     OW 9016   6.599   2.189   3.510
 2706SOL    HW1 9017   6.664   2.255   3.474
 2706SOL    HW2 9018   6.620   2.098   3.474
 2707SOL     OW 9019   3.464   0.450   0.476
 2707SOL    HW1 9020   3.442   0.547   0.483
 2707SOL    HW2 9021   3.468   0.423   0.380
 2708SOL     OW 9022   1.385   4.824   6.707
 2708SOL    HW1 9023   1.351   4.750   6.766
 2708SOL    HW2 9024   1.484   4.832   6.718
 2709SOL     OW 9025   3.757   0.436   2.093
 2709SOL    HW1 9026   3.768   0.455   1.995
 2709SOL    HW2 9027   3.687   0.365   2.105
 2710SOL     OW 9028   5.747   3.847   2.911
 2710SOL    HW1 9029   5.814   3.872   2.841
 2710SOL    HW2 9030   5.759   3.906   2.991
 2711SOL     OW 9031   0.280   6.617   1.880
 2711SOL    HW1 9032   0.233   6.702   1.857
 2711SOL    HW2 9033   0.313   6.574   1.796
 2712SOL     OW 9034   3.695   5.683   2.957
 2712SOL    HW1 9035   3.766   5.694   3.026
 2712SOL    HW2 9036   3.701   5.592   2.917
 2713SOL     OW 9037   2.631   2.507   5.480
 2713SOL    HW1 9038   2.617   2.425   5.535
 2713SOL    HW2 9039   2.651   2.585   5.541
 2714SOL     OW 9040   5.561   0.579   6.701
 2714SOL    HW1 9041   5.651   0.583   6.745
 2714SOL    HW2 9042   5.571   0.602   6.604
 2715SOL     OW 9043   5.708   7.000   6.527
 2715SOL    HW1 9044   5.648   0.050   6.485
 2715SOL    HW2 9045   5.685   6.910   6.491
 2716SOL     OW 9046   6.153   6.356   1.819
 2716SOL    HW1 9047   6.073   6.401   1.780
 2716SOL    HW2 9048   6.224   6.424   1.838
 2717SOL     OW 9049   0.368   6.671   3.142
 2717SOL    HW1 9050   0.450   6.721   3.169
 2717SOL    HW2 9051   0.323   6.719   3.066
 2718SOL     OW 9052   6.582   3.860   2.874
 2718SOL    HW1 9053   6.604   3.762   2.873
 2718SOL    HW2 9054   6.542   3.884   2.963
 2719SOL     OW 9055   4.952   4.274   3.323
 2719SOL    HW1 9056   4.933   4.368   3.293
 2719SOL    HW2 9057   4.867   4.226   3.341
 2720SOL     OW 9058   0.075   6.928   3.975
 2720SOL    HW1 9059   0.160   6.930   3.922
 2720SOL    HW2 9060   0.019   7.007   3.952
 2721SOL     OW 9061   4.869   5.710   2.510
 2721SOL    HW1 9062   4.925   5.632   2.482
 2721SOL    HW2 9063   4.917   5.795   2.485
 2722SOL     OW 9064   0.470   5.997   2.572
 2722SOL    HW1 9065   0.371   5.986   2.578
 2722SOL    HW2 9066   0.503   5.957   2.486
 2723SOL     OW 9067   2.864   1.926   4.784
 2723SOL    HW1 9068   2.916   2.004   4.818
 2723SOL    HW2 9069   2.790   1.904   4.848
 2724SOL     OW 9070   4.764   5.775   5.627
 2724SOL    HW1 9071   4.841   5.786   5.689
 2724SOL    HW2 9072   4.794   5.791   5.533
 2725SOL     OW 9073   1.790   5.604   2.488
 2725SOL    HW1 9074   1.757   5.698   2.476
 2725SOL    HW2 9075   1.857   5.582   2.418
 2726SOL     OW 9076   4.343   5.966   2.733
 2726SOL    HW1 9077   4.262   5.907   2.734
 2726SOL    HW2 9078   4.424   5.910   2.714
 2727SOL     OW 9079   2.506   5.360   3.883
 2727SOL    HW1 9080   2.429   5.306   3.850
 2727SOL    HW2 9081   2.566   5.303   3.940
 2728SOL     OW 9082   2.041   6.675   4.751
 2728SOL    HW1 9083   2.086   6.589   4.774
 2728SOL    HW2 9084   1.963   6.657   4.692
 2729SOL     OW 9085   6.899   3.792   2.311
 2729SOL    HW1 9086   6.914   3.697   2.340
 2729SOL    HW2 9087   6.972   3.820   2.249
 2730SOL     OW 9088   1.621   3.113   1.588
 2730SOL    HW1 9089   1.583   3.060   1.512
 2730SOL    HW2 9090   1.672   3.052   1.649
 2731SOL     OW 9091   1.838   3.319   6.543
 2731SOL    HW1 9092   1.930   3.317   6.505
 2731SOL    HW2 9093   1.808   3.225   6.563
 2732SOL     OW 9094   5.713   3.359   4.602
 2732SOL    HW1 9095   5.632   3.346   4.659
 2732SOL    HW2 9096   5.698   3.436   4.539
 2733SOL     OW 9097   1.994   0.440   6.754
 2733SOL    HW1 9098   1.990   0.524   6.700
 2733SOL    HW2 9099   1.932   0.372   6.714
 2734SOL     OW 9100   2.154   0.260   4.181
 2734SOL    HW1 9101   2.234   0.302   4.225
 2734SOL    HW2 9102   2.103   0.329   4.131
 2735SOL     OW 9103   1.399   6.066   1.210
 2735SOL    HW1 9104   1.470   6.028   1.151
 2735SOL    HW2 9105   1.410   6.031   1.303
 2736SOL     OW 9106   4.445   0.841   6.884
 2736SOL    HW1 9107   4.545   0.840   6.876
 2736SOL    HW2 9108   4.413   0.750   6.911
 2737SOL     OW 9109   4.202   3.817   5.412
 2737SOL    HW1 9110   4.104   3.801   5.397
 2737SOL    HW2 9111   4.215   3.907   5.454
 2738SOL     OW 9112   0.385   3.779   5.435
 2738SOL    HW1 9113   0.307   3.719   5.452
 2738SOL    HW2 9114   0.375   3.863   5.489
 2739SOL     OW 9115   3.800   3.991   6.590
 2739SOL    HW1 9116   3.863   4.043   6.533
 2739SOL    HW2 9117   3.797   4.031   6.682
 2740SOL     OW 9118   6.358   2.941   4.669
 2740SOL    HW1 9119   6.290   2.875   4.637
 2740SOL    HW2 9120   6.314   3.010   4.727
 2741SOL     OW 9121   2.119   3.211   5.990
 2741SOL    HW1 9122   2.196   3.186   5.931
 2741SOL    HW2 9123   2.048   3.255   5.934
 2742SOL     OW 9124   2.398   5.966   4.985
 2742SOL    HW1 9125   2.465   6.007   5.047
 2742SOL    HW2 9126   2.439   5.888   4.938
 2743SOL     OW 9127   5.326   3.723   6.422
 2743SOL    HW1 9128   5.401   3.658   6.407
 2743SOL    HW2 9129   5.347   3.780   6.501
 2744SOL     OW 9130   5.055   6.816   1.530
 2744SOL    HW1 9131   5.014   6.780   1.446
 2744SOL    HW2 9132   5.134   6.873   1.506
 2745SOL     OW 9133   3.368   5.468   3.147
 2745SOL    HW1 9134   3.439   5.522   3.192
 2745SOL    HW2 9135   3.293   5.453   3.211
 2746SOL     OW 9136   1.163   2.434   0.000
 2746SOL    HW1 9137   1.201   2.461   6.930
 2746SOL    HW2 9138   1.114   2.347   7.009
 2747SOL     OW 9139   4.561   6.449   3.523
 2747SOL    HW1 9140   4.617   6.429   3.603
 2747SOL    HW2 9141   4.602   6.409   3.442
 2748SOL     OW 9142   5.309   1.146   4.662
 2748SOL    HW1 9143   5.307   1.046   4.662
 2748SOL    HW2 9144   5.297   1.179   4.756
 2749SOL     OW 9145   6.017   5.276   2.736
 2749SOL    HW1 9146   6.082   5.334   2.785
 2749SOL    HW2 9147   6.067   5.218   2.671
 2750SOL     OW 9148   0.853   0.411   0.529
 2750SOL    HW1 9149   0.783   0.343   0.550
 2750SOL    HW2 9150   0.855   0.480   0.602
 2751SOL     OW 9151   1.251   6.910   0.128
 2751SOL    HW1 9152   1.306   6.982   0.087
 2751SOL    HW2 9153   1.228   6.842   0.058
 2752SOL     OW 9154   0.202   6.767   6.300
 2752SOL    HW1 9155   0.107   6.742   6.317
 2752SOL    HW2 9156   0.262   6.715   6.362
 2753SOL     OW 9157   3.285   5.570   4.251
 2753SOL    HW1 9158   3.325   5.486   4.288
 2753SOL    HW2 9159   3.357   5.630   4.218
 2754SOL     OW 9160   1.268   5.061   3.976
 2754SOL    HW1 9161   1.187   5.065   4.036
 2754SOL    HW2 9162   1.322   5.144   3.987
 2755SOL     OW 9163   4.378   6.827   2.775
 2755SOL    HW1 9164   4.453   6.876   2.730
 2755SOL    HW2 9165   4.400   6.729   2.778
 2756SOL     OW 9166   0.020   2.948   4.821
 2756SOL    HW1 9167   0.050   3.036   4.783
 2756SOL    HW2 9168   0.094   2.881   4.813
 2757SOL     OW 9169   5.186   3.955   5.614
 2757SOL    HW1 9170   5.088   3.959   5.593
 2757SOL    HW2 9171   5.237   4.013   5.551
 2758SOL     OW 9172   6.713   6.815   1.438
 2758SOL    HW1 9173   6.727   6.911   1.458
 2758SOL    HW2 9174   6.628   6.784   1.481
 2759SOL     OW 9175   4.100   3.701   4.400
 2759SOL    HW1 9176   4.028   3.631   4.395
 2759SOL    HW2 9177   4.151   3.701   4.314
 2760SOL     OW 9178   4.901   5.543   2.984
 2760SOL    HW1 9179   4.903   5.512   3.079
 2760SOL    HW2 9180   4.819   5.598   2.969
 2761SOL     OW 9181   2.132   3.373   3.857
 2761SOL    HW1 9182   2.173   3.282   3.856
 2761SOL    HW2 9183   2.044   3.371   3.810
 2762SOL     OW 9184   4.326   2.025   2.664
 2762SOL    HW1 9185   4.272   2.004   2.582
 2762SOL    HW2 9186   4.264   2.039   2.741
 2763SOL     OW 9187   5.486   0.708   3.379
 2763SOL    HW1 9188   5.513   0.655   3.299
 2763SOL    HW2 9189   5.539   0.678   3.458
 2764SOL     OW 9190   0.105   1.995   2.785
 2764SOL    HW1 9191   0.070   2.088   2.772
 2764SOL    HW2 9192   0.083   1.964   2.878
 2765SOL     OW 9193   6.749   6.705   6.430
 2765SOL    HW1 9194   6.842   6.670   6.432
 2765SOL    HW2 9195   6.685   6.631   6.450
 2766SOL     OW 9196   5.452   0.208   6.983
 2766SOL    HW1 9197   5.369   0.262   6.971
 2766SOL    HW2 9198   5.496   0.195   6.894
 2767SOL     OW 9199   0.140   6.155   6.553
 2767SOL    HW1 9200   0.147   6.228   6.620
 2767SOL    HW2 9201   0.229   6.141   6.510
 2768SOL     OW 9202   3.983   0.327   1.258
 2768SOL    HW1 9203   4.007   0.335   1.355
 2768SOL    HW2 9204   4.021   0.405   1.208
 2769SOL     OW 9205   0.851   5.389   5.959
 2769SOL    HW1 9206   0.933   5.403   5.904
 2769SOL    HW2 9207   0.874   5.398   6.056
 2770SOL     OW 9208   2.117   6.963   0.267
 2770SOL    HW1 9209   2.052   7.019   0.216
 2770SOL    HW2 9210   2.206   6.964   0.220
 2771SOL     OW 9211   4.079   6.364   5.150
 2771SOL    HW1 9212   3.994   6.341   5.197
 2771SOL    HW2 9213   4.157   6.336   5.207
 2772SOL     OW 9214   6.104   1.705   3.125
 2772SOL    HW1 9215   6.199   1.734   3.126
 2772SOL    HW2 9216   6.088   1.642   3.049
 2773SOL     OW 9217   4.578   1.186   5.981
 2773SOL    HW1 9218   4.565   1.160   6.077
 2773SOL    HW2 9219   4.490   1.214   5.942
 2774SOL     OW 9220   6.149   6.487   3.708
 2774SOL    HW1 9221   6.167   6.585   3.715
 2774SOL    HW2 9222   6.109   6.467   3.619
 2775SOL     OW 9223   6.891   2.709   4.663
 2775SOL    HW1 9224   6.905   2.804   4.691
 2775SOL    HW2 9225   6.804   2.701   4.614
 2776SOL     OW 9226   4.829   3.875   5.845
 2776SOL    HW1 9227   4.797   3.948   5.905
 2776SOL    HW2 9228   4.766   3.797   5.850
 2777SOL     OW 9229   1.540   1.585   0.697
 2777SOL    HW1 9230   1.628   1.631   0.684
 2777SOL    HW2 9231   1.470   1.631   0.643
 2778SOL     OW 9232   2.611   6.088   5.561
 2778SOL    HW1 9233   2.531   6.124   5.514
 2778SOL    HW2 9234   2.590   5.998   5.599
 2779SOL     OW 9235   5.182   1.589   3.824
 2779SOL    HW1 9236   5.257   1.608   3.888
 2779SOL    HW2 9237   5.134   1.506   3.852
 2780SOL     OW 9238   0.387   6.898   5.373
 2780SOL    HW1 9239   0.466   6.893   5.435
 2780SOL    HW2 9240   0.407   6.960   5.298
 2781SOL     OW 9241   6.937   6.790   2.413
 2781SOL    HW1 9242   6.951   6.888   2.427
 2781SOL    HW2 9243   6.915   6.773   2.317
 2782SOL     OW 9244   5.711   6.550   4.966
 2782SOL    HW1 9245   5.623   6.555   5.014
 2782SOL    HW2 9246   5.717   6.624   4.900
 2783SOL     OW 9247   0.218   2.133   1.930
 2783SOL    HW1 9248   0.225   2.147   2.029
 2783SOL    HW2 9249   0.122   2.124   1.904
 2784SOL     OW 9250   1.266   2.060   2.207
 2784SOL    HW1 9251   1.348   2.115   2.216
 2784SOL    HW2 9252   1.289   1.972   2.165
 2785SOL     OW 9253   5.663   3.081   3.874
 2785SOL    HW1 9254   5.651   3.142   3.796
 2785SOL    HW2 9255   5.618   3.120   3.954
 2786SOL     OW 9256   0.321   6.268   1.402
 2786SOL    HW1 9257   0.361   6.247   1.491
 2786SOL    HW2 9258   0.392   6.259   1.331
 2787SOL     OW 9259   0.054   6.568   6.147
 2787SOL    HW1 9260   0.068   6.519   6.061
 2787SOL    HW2 9261   7.018   6.650   6.131
 2788SOL     OW 9262   2.910   6.691   6.511
 2788SOL    HW1 9263   3.001   6.656   6.488
 2788SOL    HW2 9264   2.907   6.789   6.492
 2789SOL     OW 9265   2.407   2.185   4.086
 2789SOL    HW1 9266   2.327   2.153   4.036
 2789SOL    HW2 9267   2.408   2.285   4.087
 2790SOL     OW 9268   1.104   4.546   0.815
 2790SOL    HW1 9269   1.133   4.506   0.902
 2790SOL    HW2 9270   1.008   4.526   0.800
 2791SOL     OW 9271   0.829   3.747   5.564
 2791SOL    HW1 9272   0.764   3.729   5.638
 2791SOL    HW2 9273   0.836   3.845   5.549
 2792SOL     OW 9274   3.012   2.548   0.191
 2792SOL    HW1 9275   3.052   2.495   0.117
 2792SOL    HW2 9276   3.065   2.632   0.204
 2793SOL     OW 9277   4.097   3.841   6.103
 2793SOL    HW1 9278   4.056   3.763   6.151
 2793SOL    HW2 9279   4.138   3.903   6.169
 2794SOL     OW 9280   1.588   2.045   6.993
 2794SOL    HW1 9281   1.686   2.032   6.981
 2794SOL    HW2 9282   1.542   1.956   6.986
 2795SOL     OW 9283   1.130   0.154   0.438
 2795SOL    HW1 9284   1.078   0.210   0.374
 2795SOL    HW2 9285   1.148   0.206   0.521
 2796SOL     OW 9286   3.036   5.942   6.597
 2796SOL    HW1 9287   3.082   5.886   6.528
 2796SOL    HW2 9288   3.031   6.037   6.566
 2797SOL     OW 9289   4.678   3.964   5.196
 2797SOL    HW1 9290   4.672   3.872   5.234
 2797SOL    HW2 9291   4.615   4.024   5.244
 2798SOL     OW 9292   5.667   1.964   2.160
 2798SOL    HW1 9293   5.708   1.953   2.069
 2798SOL    HW2 9294   5.658   1.875   2.204
 2799SOL     OW 9295   3.518   0.311   4.122
 2799SOL    HW1 9296   3.577   0.331   4.200
 2799SOL    HW2 9297   3.448   0.246   4.150
 2800SOL     OW 9298   4.624   1.532   0.437
 2800SOL    HW1 9299   4.624   1.436   0.408
 2800SOL    HW2 9300   4.718   1.564   0.446
 2801SOL     OW 9301   0.673   4.600   3.155
 2801SOL    HW1 9302   0.583   4.586   3.198
 2801SOL    HW2 9303   0.707   4.513   3.120
 2802SOL     OW 9304   2.389   4.461   4.358
 2802SOL    HW1 9305   2.405   4.516   4.440
 2802SOL    HW2 9306   2.455   4.487   4.287
 2803SOL     OW 9307   3.155   2.776   0.143
 2803SOL    HW1 9308   3.103   2.778   0.057
 2803SOL    HW2 9309   3.245   2.736   0.126
 2804SOL     OW 9310   5.611   2.622   3.693
 2804SOL    HW1 9311   5.582   2.552   3.628
 2804SOL    HW2 9312   5.539   2.691   3.702
 2805SOL     OW 9313   3.595   5.295   0.412
 2805SOL    HW1 9314   3.622   5.261   0.322
 2805SOL    HW2 9315   3.496   5.310   0.414
 2806SOL     OW 9316   1.341   3.054   4.561
 2806SOL    HW1 9317   1.333   3.119   4.486
 2806SOL    HW2 9318   1.428   3.068   4.608
 2807SOL     OW 9319   5.216   1.414   4.185
 2807SOL    HW1 9320   5.140   1.475   4.207
 2807SOL    HW2 9321   5.218   1.338   4.250
 2808SOL     OW 9322   0.639   6.422   7.018
 2808SOL    HW1 9323   0.713   6.446   6.956
 2808SOL    HW2 9324   0.672   6.356   0.067
 2809SOL     OW 9325   0.712   6.236   0.939
 2809SOL    HW1 9326   0.628   6.192   0.971
 2809SOL    HW2 9327   0.690   6.316   0.883
 2810SOL     OW 9328   6.861   6.390   1.984
 2810SOL    HW1 9329   6.904   6.299   1.980
 2810SOL    HW2 9330   6.926   6.456   2.022
 2811SOL     OW 9331   0.564   6.984   0.399
 2811SOL    HW1 9332   0.564   6.884   0.396
 2811SOL    HW2 9333   0.558   7.015   0.493
 2812SOL     OW 9334   2.285   0.790   0.775
 2812SOL    HW1 9335   2.376   0.755   0.796
 2812SOL    HW2 9336   2.216   0.726   0.809
 2813SOL     OW 9337   5.578   2.207   2.066
 2813SOL    HW1 9338   5.594   2.117   2.106
 2813SOL    HW2 9339   5.505   2.201   1.998
 2814SOL     OW 9340   1.951   4.131   6.602
 2814SOL    HW1 9341   1.928   4.097   6.693
 2814SOL    HW2 9342   2.035   4.185   6.607
 2815SOL     OW 9343   6.161   6.536   4.863
 2815SOL    HW1 9344   6.228   6.599   4.824
 2815SOL    HW2 9345   6.194   6.442   4.854
 2816SOL     OW 9346   0.884   5.469   5.217
 2816SOL    HW1 9347   0.798   5.448   5.171
 2816SOL    HW2 9348   0.960   5.447   5.156
 2817SOL     OW 9349   3.029   0.896   1.331
 2817SOL    HW1 9350   3.022   0.930   1.237
 2817SOL    HW2 9351   3.091   0.818   1.334
 2818SOL     OW 9352   2.078   0.263   0.403
 2818SOL    HW1 9353   1.996   0.213   0.431
 2818SOL    HW2 9354   2.097   0.336   0.468
 2819SOL     OW 9355   6.016   0.729   6.851
 2819SOL    HW1 9356   5.933   0.684   6.818
 2819SOL    HW2 9357   6.004   0.753   6.948
 2820SOL     OW 9358   1.940   1.970   0.226
 2820SOL    HW1 9359   1.990   1.884   0.236
 2820SOL    HW2 9360   1.915   2.004   0.316
 2821SOL     OW 9361   3.782   2.874   6.178
 2821SOL    HW1 9362   3.877   2.863   6.152
 2821SOL    HW2 9363   3.769   2.837   6.271
 2822SOL     OW 9364   4.248   3.926   1.385
 2822SOL    HW1 9365   4.336   3.970   1.400
 2822SOL    HW2 9366   4.232   3.916   1.287
 2823SOL     OW 9367   5.154   4.160   3.846
 2823SOL    HW1 9368   5.247   4.160   3.811
 2823SOL    HW2 9369   5.108   4.245   3.822
 2824SOL     OW 9370   0.953   4.222   5.646
 2824SOL    HW1 9371   0.940   4.215   5.745
 2824SOL    HW2 9372   0.952   4.318   5.619
 2825SOL     OW 9373   4.910   2.425   5.638
 2825SOL    HW1 9374   4.952   2.513   5.657
 2825SOL    HW2 9375   4.851   2.433   5.557
 2826SOL     OW 9376   3.100   2.372   6.566
 2826SOL    HW1 9377   3.065   2.465   6.553
 2826SOL    HW2 9378   3.200   2.374   6.568
 2827SOL     OW 9379   0.128   2.002   0.434
 2827SOL    HW1 9380   0.164   2.087   0.473
 2827SOL    HW2 9381   0.202   1.954   0.387
 2828SOL     OW 9382   1.927   3.601   0.046
 2828SOL    HW1 9383   1.909   3.503   0.052
 2828SOL    HW2 9384   1.848   3.647   0.005
 2829SOL     OW 9385   3.372   4.300   1.081
 2829SOL    HW1 9386   3.450   4.326   1.024
 2829SOL    HW2 9387   3.289   4.300   1.025
 2830SOL     OW 9388   2.630   5.277   4.767
 2830SOL    HW1 9389   2.550   5.224   4.737
 2830SOL    HW2 9390   2.620   5.372   4.739
 2831SOL     OW 9391   5.367   1.632   1.868
 2831SOL    HW1 9392   5.338   1.727   1.879
 2831SOL    HW2 9393   5.303   1.572   1.917
 2832SOL     OW 9394   1.469   3.453   1.350
 2832SOL    HW1 9395   1.441   3.540   1.309
 2832SOL    HW2 9396   1.480   3.465   1.449
 2833SOL     OW 9397   6.482   2.048   3.109
 2833SOL    HW1 9398   6.577   2.076   3.118
 2833SOL    HW2 9399   6.445   2.027   3.200
 2834SOL     OW 9400   2.813   0.106   4.231
 2834SOL    HW1 9401   2.817   0.082   4.133
 2834SOL    HW2 9402   2.831   0.204   4.242
 2835SOL     OW 9403   6.127   1.829   0.507
 2835SOL    HW1 9404   6.189   1.907   0.499
 2835SOL    HW2 9405   6.059   1.848   0.577
 2836SOL     OW 9406   3.042   6.558   2.094
 2836SOL    HW1 9407   2.993   6.472   2.108
 2836SOL    HW2 9408   3.004   6.606   2.015
 2837SOL     OW 9409   5.176   4.255   3.466
 2837SOL    HW1 9410   5.104   4.249   3.396
 2837SOL    HW2 9411   5.162   4.337   3.520
 2838SOL     OW 9412   6.711   4.713   5.924
 2838SOL    HW1 9413   6.728   4.726   6.021
 2838SOL    HW2 9414   6.732   4.619   5.898
 2839SOL     OW 9415   5.604   2.662   6.526
 2839SOL    HW1 9416   5.615   2.564   6.514
 2839SOL    HW2 9417   5.596   2.683   6.624
 2840SOL     OW 9418   6.366   5.564   5.135
 2840SOL    HW1 9419   6.270   5.536   5.129
 2840SOL    HW2 9420   6.382   5.610   5.222
 2841SOL     OW 9421   5.488   3.384   2.858
 2841SOL    HW1 9422   5.568   3.443   2.843
 2841SOL    HW2 9423   5.443   3.409   2.944
 2842SOL     OW 9424   1.174   6.158   4.037
 2842SOL    HW1 9425   1.272   6.171   4.047
 2842SOL    HW2 9426   1.126   6.203   4.112
 2843SOL     OW 9427   1.126   2.659   3.888
 2843SOL    HW1 9428   1.210   2.707   3.913
 2843SOL    HW2 9429   1.149   2.582   3.828
 2844SOL     OW 9430   5.480   4.058   0.277
 2844SOL    HW1 9431   5.495   4.090   0.371
 2844SOL    HW2 9432   5.564   4.014   0.244
 2845SOL     OW 9433   3.304   1.760   0.908
 2845SOL    HW1 9434   3.313   1.856   0.934
 2845SOL    HW2 9435   3.216   1.724   0.938
 2846SOL     OW 9436   5.816   0.691   5.932
 2846SOL    HW1 9437   5.915   0.693   5.922
 2846SOL    HW2 9438   5.784   0.782   5.959
 2847SOL     OW 9439   6.087   4.800   3.043
 2847SOL    HW1 9440   6.027   4.839   2.973
 2847SOL    HW2 9441   6.160   4.747   2.998
 2848SOL     OW 9442   0.072   4.190   0.377
 2848SOL    HW1 9443   0.049   4.093   0.371
 2848SOL    HW2 9444   0.026   4.240   0.304
 2849SOL     OW 9445   5.218   0.810   0.856
 2849SOL    HW1 9446   5.191   0.813   0.760
 2849SOL    HW2 9447   5.148   0.853   0.912
 2850SOL     OW 9448   6.776   1.265   1.049
 2850SOL    HW1 9449   6.677   1.254   1.058
 2850SOL    HW2 9450   6.817   1.272   1.140
 2851SOL     OW 9451   3.264   3.117   2.209
 2851SOL    HW1 9452   3.193   3.109   2.279
 2851SOL    HW2 9453   3.331   3.044   2.221
 2852SOL     OW 9454   1.561   4.696   4.979
 2852SOL    HW1 9455   1.619   4.740   4.909
 2852SOL    HW2 9456   1.586   4.731   5.069
 2853SOL     OW 9457   6.611   5.250   5.425
 2853SOL    HW1 9458   6.533   5.228   5.367
 2853SOL    HW2 9459   6.632   5.172   5.484
 2854SOL     OW 9460   3.392   0.705   0.217
 2854SOL    HW1 9461   3.478   0.737   0.178
 2854SOL    HW2 9462   3.340   0.657   0.146
 2855SOL     OW 9463   2.828   2.248   4.347
 2855SOL    HW1 9464   2.847   2.211   4.256
 2855SOL    HW2 9465   2.730   2.262   4.358
 2856SOL     OW 9466   1.323   5.210   4.800
 2856SOL    HW1 9467   1.346   5.306   4.815
 2856SOL    HW2 9468   1.229   5.202   4.768
 2857SOL     OW 9469   0.854   4.528   0.023
 2857SOL    HW1 9470   0.762   4.547   7.006
 2857SOL    HW2 9471   0.851   4.446   0.079
 2858SOL     OW 9472   5.292   4.715   4.213
 2858SOL    HW1 9473   5.231   4.726   4.292
 2858SOL    HW2 9474   5.255   4.765   4.135
 2859SOL     OW 9475   0.330   5.058   1.852
 2859SOL    HW1 9476   0.297   5.036   1.943
 2859SOL    HW2 9477   0.420   5.017   1.838
 2860SOL     OW 9478   1.389   6.269   2.275
 2860SOL    HW1 9479   1.329   6.249   2.198
 2860SOL    HW2 9480   1.349   6.342   2.330
 2861SOL     OW 9481   6.030   3.106   5.180
 2861SOL    HW1 9482   5.949   3.073   5.133
 2861SOL    HW2 9483   6.009   3.192   5.227
 2862SOL     OW 9484   4.218   1.108   1.013
 2862SOL    HW1 9485   4.256   1.016   1.001
 2862SOL    HW2 9486   4.202   1.150   0.924
 2863SOL     OW 9487   5.406   1.648   6.081
 2863SOL    HW1 9488   5.439   1.736   6.115
 2863SOL    HW2 9489   5.396   1.652   5.981
 2864SOL     OW 9490   4.723   4.630   0.219
 2864SOL    HW1 9491   4.782   4.637   0.299
 2864SOL    HW2 9492   4.745   4.548   0.167
 2865SOL     OW 9493   5.361   4.286   6.598
 2865SOL    HW1 9494   5.317   4.347   6.532
 2865SOL    HW2 9495   5.305   4.281   6.681
 2866SOL     OW 9496   4.987   6.502   0.605
 2866SOL    HW1 9497   4.903   6.488   0.657
 2866SOL    HW2 9498   5.027   6.414   0.580
 2867SOL     OW 9499   0.360   6.129   3.188
 2867SOL    HW1 9500   0.298   6.063   3.144
 2867SOL    HW2 9501   0.454   6.103   3.169
 2868SOL     OW 9502   6.507   6.942   5.073
 2868SOL    HW1 9503   6.503   6.874   5.147
 2868SOL    HW2 9504   6.542   0.009   5.109
 2869SOL     OW 9505   6.228   4.652   4.927
 2869SOL    HW1 9506   6.191   4.580   4.985
 2869SOL    HW2 9507   6.177   4.656   4.841
 2870SOL     OW 9508   0.547   1.388   1.397
 2870SOL    HW1 9509   0.533   1.380   1.298
 2870SOL    HW2 9510   0.459   1.391   1.443
 2871SOL     OW 9511   4.672   1.721   3.391
 2871SOL    HW1 9512   4.689   1.734   3.293
 2871SOL    HW2 9513   4.730   1.647   3.425
 2872SOL     OW 9514   3.250   1.558   2.583
 2872SOL    HW1 9515   3.154   1.527   2.585
 2872SOL    HW2 9516   3.259   1.634   2.519
 2873SOL     OW 9517   0.021   0.498   2.451
 2873SOL    HW1 9518   0.115   0.465   2.439
 2873SOL    HW2 9519   0.016   0.594   2.423
 2874SOL     OW 9520   1.210   0.908   1.898
 2874SOL    HW1 9521   1.133   0.927   1.959
 2874SOL    HW2 9522   1.232   0.990   1.846
 2875SOL     OW 9523   3.344   1.313   2.509
 2875SOL    HW1 9524   3.313   1.400   2.547
 2875SOL    HW2 9525   3.273   1.274   2.450
 2876SOL     OW 9526   0.890   0.033   0.533
 2876SOL    HW1 9527   0.843   0.029   0.445
 2876SOL    HW2 9528   0.976   0.084   0.522
 2877SOL     OW 9529   1.215   3.123   6.303
 2877SOL    HW1 9530   1.209   3.040   6.248
 2877SOL    HW2 9531   1.298   3.173   6.279
 2878SOL     OW 9532   4.113   3.575   4.651
 2878SOL    HW1 9533   4.106   3.476   4.659
 2878SOL    HW2 9534   4.137   3.599   4.557
 2879SOL     OW 9535   6.336   6.520   0.476
 2879SOL    HW1 9536   6.425   6.498   0.438
 2879SOL    HW2 9537   6.275   6.554   0.404
 2880SOL     OW 9538   1.583   1.170   2.565
 2880SOL    HW1 9539   1.548   1.169   2.471
 2880SOL    HW2 9540   1.593   1.077   2.598
 2881SOL     OW 9541   5.006   5.508   6.656
 2881SOL    HW1 9542   5.036   5.449   6.731
 2881SOL    HW2 9543   4.908   5.525   6.665
 2882SOL     OW 9544   4.338   6.761   0.601
 2882SOL    HW1 9545   4.285   6.768   0.686
 2882SOL    HW2 9546   4.287   6.708   0.534
 2883SOL     OW 9547   5.291   6.018   2.893
 2883SOL    HW1 9548   5.296   6.107   2.848
 2883SOL    HW2 9549   5.378   5.999   2.938
 2884SOL     OW 9550   5.897   5.240   3.705
 2884SOL    HW1 9551   5.972   5.198   3.654
 2884SOL    HW2 9552   5.934   5.287   3.785
 2885SOL     OW 9553   0.524   4.427   3.502
 2885SOL    HW1 9554   0.618   4.417   3.469
 2885SOL    HW2 9555   0.518   4.507   3.562
 2886SOL     OW 9556   1.981   4.498   5.162
 2886SOL    HW1 9557   2.012   4.429   5.228
 2886SOL    HW2 9558   1.975   4.456   5.071
 2887SOL     OW 9559   0.311   4.930   2.367
 2887SOL    HW1 9560   0.316   4.834   2.342
 2887SOL    HW2 9561   0.223   4.949   2.412
 2888SOL     OW 9562   4.374   5.743   6.633
 2888SOL    HW1 9563   4.418   5.654   6.623
 2888SOL    HW2 9564   4.280   5.738   6.598
 2889SOL     OW 9565   4.115   5.165   4.106
 2889SOL    HW1 9566   4.036   5.183   4.047
 2889SOL    HW2 9567   4.195   5.145   4.049
 2890SOL     OW 9568   1.434   1.274   0.559
 2890SOL    HW1 9569   1.382   1.356   0.535
 2890SOL    HW2 9570   1.375   1.193   0.551
 2891SOL     OW 9571   1.199   1.811   5.363
 2891SOL    HW1 9572   1.292   1.813   5.399
 2891SOL    HW2 9573   1.200   1.844   5.268
 2892SOL     OW 9574   5.958   4.492   2.501
 2892SOL    HW1 9575   5.866   4.461   2.477
 2892SOL    HW2 9576   6.023   4.418   2.486
 2893SOL     OW 9577   6.619   6.187   4.833
 2893SOL    HW1 9578   6.540   6.126   4.835
 2893SOL    HW2 9579   6.676   6.170   4.914
 2894SOL     OW 9580   1.587   5.634   1.466
 2894SOL    HW1 9581   1.543   5.593   1.546
 2894SOL    HW2 9582   1.517   5.665   1.402
 2895SOL     OW 9583   5.010   6.253   6.270
 2895SOL    HW1 9584   4.915   6.242   6.299
 2895SOL    HW2 9585   5.022   6.342   6.225
 2896SOL     OW 9586   6.452   0.110   6.711
 2896SOL    HW1 9587   6.381   0.083   6.647
 2896SOL    HW2 9588   6.535   0.057   6.694
 2897SOL     OW 9589   2.905   5.871   3.767
 2897SOL    HW1 9590   2.818   5.828   3.744
 2897SOL    HW2 9591   2.895   5.925   3.851
 2898SOL     OW 9592   5.115   2.690   2.491
 2898SOL    HW1 9593   5.173   2.610   2.475
 2898SOL    HW2 9594   5.130   2.757   2.418
 2899SOL     OW 9595   6.276   2.982   1.242
 2899SOL    HW1 9596   6.273   2.899   1.297
 2899SOL    HW2 9597   6.206   3.045   1.273
 2900SOL     OW 9598   3.393   2.963   4.822
 2900SOL    HW1 9599   3.478   2.913   4.811
 2900SOL    HW2 9600   3.400   3.053   4.778
 2901SOL     OW 9601   1.459   2.557   1.736
 2901SOL    HW1 9602   1.546   2.511   1.755
 2901SOL    HW2 9603   1.470   2.619   1.657
 2902SOL     OW 9604   5.254   6.321   3.469
 2902SOL    HW1 9605   5.159   6.334   3.441
 2902SOL    HW2 9606   5.267   6.226   3.498
 2903SOL     OW 9607   0.766   5.074   2.115
 2903SOL    HW1 9608   0.863   5.093   2.131
 2903SOL    HW2 9609   0.710   5.139   2.166
 2904SOL     OW 9610   3.392   4.933   4.148
 2904SOL    HW1 9611   3.297   4.910   4.128
 2904SOL    HW2 9612   3.446   4.932   4.063
 2905SOL     OW 9613   2.203   4.245   1.552
 2905SOL    HW1 9614   2.189   4.330   1.604
 2905SOL    HW2 9615   2.115   4.198   1.541
 2906SOL     OW 9616   6.434   6.469   6.420
 2906SOL    HW1 9617   6.493   6.393   6.447
 2906SOL    HW2 9618   6.339   6.445   6.435
 2907SOL     OW 9619   0.318   1.268   6.471
 2907SOL    HW1 9620   0.343   1.294   6.378
 2907SOL    HW2 9621   0.363   1.328   6.536
 2908SOL     OW 9622   3.904   5.857   3.832
 2908SOL    HW1 9623   3.923   5.801   3.912
 2908SOL    HW2 9624   3.936   5.951   3.848
 2909SOL     OW 9625   6.762   6.367   0.724
 2909SOL    HW1 9626   6.825   6.291   0.735
 2909SOL    HW2 9627   6.669   6.337   0.746
 2910SOL     OW 9628   1.504   0.233   3.860
 2910SOL    HW1 9629   1.579   0.200   3.803
 2910SOL    HW2 9630   1.429   0.263   3.802
 2911SOL     OW 9631   6.517   3.535   3.489
 2911SOL    HW1 9632   6.548   3.454   3.439
 2911SOL    HW2 9633   6.464   3.593   3.427
 2912SOL     OW 9634   0.170   1.234   3.137
 2912SOL    HW1 9635   0.093   1.291   3.166
 2912SOL    HW2 9636   0.201   1.178   3.213
 2913SOL     OW 9637   0.616   6.971   4.136
 2913SOL    HW1 9638   0.690   6.903   4.139
 2913SOL    HW2 9639   0.549   6.945   4.067
 2914SOL     OW 9640   3.772   4.384   0.755
 2914SOL    HW1 9641   3.723   4.321   0.814
 2914SOL    HW2 9642   3.852   4.420   0.804
 2915SOL     OW 9643   1.834   6.764   3.332
 2915SOL    HW1 9644   1.822   6.863   3.326
 2915SOL    HW2 9645   1.930   6.744   3.350
 2916SOL     OW 9646   0.150   5.980   0.038
 2916SOL    HW1 9647   0.214   6.029   0.097
 2916SOL    HW2 9648   0.156   6.016   6.964
 2917SOL     OW 9649   2.142   1.812   3.869
 2917SOL    HW1 9650   2.229   1.842   3.830
 2917SOL    HW2 9651   2.157   1.776   3.961
 2918SOL     OW 9652   4.975   0.642   1.464
 2918SOL    HW1 9653   5.031   0.559   1.471
 2918SOL    HW2 9654   4.899   0.626   1.400
 2919SOL     OW 9655   1.029   5.239   5.350
 2919SOL    HW1 9656   1.087   5.177   5.299
 2919SOL    HW2 9657   0.953   5.269   5.293
 2920SOL     OW 9658   3.027   2.596   1.683
 2920SOL    HW1 9659   3.099   2.661   1.707
 2920SOL    HW2 9660   3.005   2.539   1.762
 2921SOL     OW 9661   0.172   4.811   3.331
 2921SOL    HW1 9662   0.210   4.861   3.254
 2921SOL    HW2 9663   0.101   4.748   3.299
 2922SOL     OW 9664   3.637   5.364   4.148
 2922SOL    HW1 9665   3.546   5.344   4.113
 2922SOL    HW2 9666   3.704   5.303   4.103
 2923SOL     OW 9667   1.549   4.300   3.784
 2923SOL    HW1 9668   1.597   4.365   3.725
 2923SOL    HW2 9669   1.516   4.223   3.729
 2924SOL     OW 9670   4.541   1.656   6.725
 2924SOL    HW1 9671   4.598   1.734   6.698
 2924SOL    HW2 9672   4.582   1.611   6.804
 2925SOL     OW 9673   5.467   6.562   4.118
 2925SOL    HW1 9674   5.413   6.627   4.066
 2925SOL    HW2 9675   5.505   6.607   4.199
 2926SOL     OW 9676   0.143   2.797   5.292
 2926SOL    HW1 9677   0.240   2.775   5.304
 2926SOL    HW2 9678   0.108   2.749   5.212
 2927SOL     OW 9679   1.186   1.974   3.075
 2927SOL    HW1 9680   1.255   1.920   3.028
 2927SOL    HW2 9681   1.096   1.954   3.035
 2928SOL     OW 9682   5.210   4.793   0.294
 2928SOL    HW1 9683   5.304   4.798   0.261
 2928SOL    HW2 9684   5.159   4.729   0.237
 2929SOL     OW 9685   1.887   1.214   2.558
 2929SOL    HW1 9686   1.933   1.175   2.638
 2929SOL    HW2 9687   1.814   1.276   2.589
 2930SOL     OW 9688   0.687   3.032   3.740
 2930SOL    HW1 9689   0.771   3.030   3.794
 2930SOL    HW2 9690   0.708   3.007   3.645
 2931SOL     OW 9691   5.587   4.558   5.682
 2931SOL    HW1 9692   5.655   4.548   5.755
 2931SOL    HW2 9693   5.568   4.655   5.668
 2932SOL     OW 9694   6.745   0.109   0.493
 2932SOL    HW1 9695   6.676   0.041   0.521
 2932SOL    HW2 9696   6.706   0.201   0.501
 2933SOL     OW 9697   0.539   0.853   6.726
 2933SOL    HW1 9698   0.618   0.814   6.679
 2933SOL    HW2 9699   0.455   0.821   6.682
 2934SOL     OW 9700   5.785   5.386   2.665
 2934SOL    HW1 9701   5.869   5.351   2.706
 2934SOL    HW2 9702   5.808   5.455   2.595
 2935SOL     OW 9703   0.480   4.503   6.249
 2935SOL    HW1 9704   0.538   4.477   6.172
 2935SOL    HW2 9705   0.387   4.469   6.233
 2936SOL     OW 9706   4.754   6.179   2.892
 2936SOL    HW1 9707   4.695   6.166   2.813
 2936SOL    HW2 9708   4.840   6.221   2.864
 2937SOL     OW 9709   6.333   3.264   3.335
 2937SOL    HW1 9710   6.262   3.270   3.405
 2937SOL    HW2 9711   6.383   3.178   3.345
 2938SOL     OW 9712   0.054   5.348   1.374
 2938SOL    HW1 9713   0.099   5.437   1.365
 2938SOL    HW2 9714   0.119   5.281   1.411
 2939SOL     OW 9715   6.390   5.724   1.947
 2939SOL    HW1 9716   6.400   5.758   1.854
 2939SOL    HW2 9717   6.469   5.667   1.970
 2940SOL     OW 9718   4.588   5.871   3.216
 2940SOL    HW1 9719   4.523   5.910   3.151
 2940SOL    HW2 9720   4.681   5.896   3.189
 2941SOL     OW 9721   2.808   5.024   1.810
 2941SOL    HW1 9722   2.874   5.059   1.876
 2941SOL    HW2 9723   2.755   4.949   1.850
 2942SOL     OW 9724   2.714   1.804   0.527
 2942SOL    HW1 9725   2.794   1.786   0.471
 2942SOL    HW2 9726   2.683   1.898   0.513
 2943SOL     OW 9727   0.240   4.572   3.470
 2943SOL    HW1 9728   0.308   4.609   3.534
 2943SOL    HW2 9729   0.182   4.646   3.437
 2944SOL     OW 9730   0.588   5.060   3.715
 2944SOL    HW1 9731   0.611   5.126   3.787
 2944SOL    HW2 9732   0.621   5.094   3.627
 2945SOL     OW 9733   5.738   3.265   0.361
 2945SOL    HW1 9734   5.710   3.213   0.280
 2945SOL    HW2 9735   5.746   3.204   0.439
 2946SOL     OW 9736   3.275   3.778   4.673
 2946SOL    HW1 9737   3.204   3.738   4.731
 2946SOL    HW2 9738   3.242   3.864   4.635
 2947SOL     OW 9739   6.361   6.820   0.447
 2947SOL    HW1 9740   6.312   6.817   0.535
 2947SOL    HW2 9741   6.459   6.816   0.464
 2948SOL     OW 9742   6.332   4.831   0.770
 2948SOL    HW1 9743   6.262   4.760   0.774
 2948SOL    HW2 9744   6.295   4.917   0.806
 2949SOL     OW 9745   1.591   6.198   0.833
 2949SOL    HW1 9746   1.614   6.288   0.868
 2949SOL    HW2 9747   1.551   6.207   0.741
 2950SOL     OW 9748   5.010   5.147   2.617
 2950SOL    HW1 9749   4.963   5.124   2.702
 2950SOL    HW2 9750   5.059   5.066   2.584
 2951SOL     OW 9751   0.848   2.802   0.781
 2951SOL    HW1 9752   0.756   2.839   0.777
 2951SOL    HW2 9753   0.898   2.845   0.856
 2952SOL     OW 9754   1.166   0.982   4.677
 2952SOL    HW1 9755   1.162   0.893   4.632
 2952SOL    HW2 9756   1.131   1.052   4.615
 2953SOL     OW 9757   1.143   5.729   3.211
 2953SOL    HW1 9758   1.142   5.720   3.311
 2953SOL    HW2 9759   1.211   5.797   3.184
 2954SOL     OW 9760   0.599   4.583   5.581
 2954SOL    HW1 9761   0.691   4.577   5.620
 2954SOL    HW2 9762   0.557   4.670   5.607
 2955SOL     OW 9763   0.995   5.000   6.156
 2955SOL    HW1 9764   0.961   5.012   6.249
 2955SOL    HW2 9765   0.929   5.038   6.091
 2956SOL     OW 9766   6.567   3.668   5.018
 2956SOL    HW1 9767   6.626   3.746   5.038
 2956SOL    HW2 9768   6.500   3.694   4.949
 2957SOL     OW 9769   1.318   4.744   1.819
 2957SOL    HW1 9770   1.350   4.750   1.725
 2957SOL    HW2 9771   1.396   4.749   1.881
 2958SOL     OW 9772   2.263   3.323   1.363
 2958SOL    HW1 9773   2.311   3.309   1.450
 2958SOL    HW2 9774   2.166   3.298   1.374
 2959SOL     OW 9775   1.152   3.961   4.210
 2959SOL    HW1 9776   1.077   3.916   4.161
 2959SOL    HW2 9777   1.180   3.904   4.287
 2960SOL     OW 9778   5.416   6.240   0.511
 2960SOL    HW1 9779   5.375   6.165   0.460
 2960SOL    HW2 9780   5.385   6.327   0.473
 2961SOL     OW 9781   5.804   1.884   0.658
 2961SOL    HW1 9782   5.834   1.849   0.747
 2961SOL    HW2 9783   5.843   1.829   0.585
 2962SOL     OW 9784   6.254   0.687   4.083
 2962SOL    HW1 9785   6.165   0.652   4.109
 2962SOL    HW2 9786   6.263   0.782   4.111
 2963SOL     OW 9787   1.892   1.181   6.327
 2963SOL    HW1 9788   1.959   1.247   6.361
 2963SOL    HW2 9789   1.806   1.194   6.377
 2964SOL     OW 9790   0.575   0.716   6.015
 2964SOL    HW1 9791   0.633   0.797   6.006
 2964SOL    HW2 9792   0.612   0.656   6.086
 2965SOL     OW 9793   6.251   0.458   5.968
 2965SOL    HW1 9794   6.272   0.549   6.005
 2965SOL    HW2 9795   6.259   0.390   6.040
 2966SOL     OW 9796   3.683   0.001   2.767
 2966SOL    HW1 9797   3.742   7.005   2.688
 2966SOL    HW2 9798   3.738   7.016   2.851
 2967SOL     OW 9799   5.274   6.883   5.446
 2967SOL    HW1 9800   5.327   6.841   5.372
 2967SOL    HW2 9801   5.324   6.873   5.533
 2968SOL     OW 9802   1.693   3.742   1.881
 2968SOL    HW1 9803   1.677   3.685   1.800
 2968SOL    HW2 9804   1.611   3.795   1.901
 2969SOL     OW 9805   4.014   1.727   4.746
 2969SOL    HW1 9806   4.108   1.708   4.774
 2969SOL    HW2 9807   4.005   1.824   4.722
 2970SOL     OW 9808   2.700   2.265   6.700
 2970SOL    HW1 9809   2.659   2.279   6.611
 2970SOL    HW2 9810   2.667   2.335   6.764
 2971SOL     OW 9811   3.764   3.930   5.522
 2971SOL    HW1 9812   3.730   3.996   5.455
 2971SOL    HW2 9813   3.700   3.924   5.599
 2972SOL     OW 9814   6.985   6.066   0.443
 2972SOL    HW1 9815   6.963   6.130   0.369
 2972SOL    HW2 9816   6.900   6.027   0.479
 2973SOL     OW 9817   4.865   0.638   4.832
 2973SOL    HW1 9818   4.845   0.667   4.926
 2973SOL    HW2 9819   4.910   0.549   4.834
 2974SOL     OW 9820   5.360   4.940   2.961
 2974SOL    HW1 9821   5.300   4.995   3.019
 2974SOL    HW2 9822   5.306   4.896   2.889
 2975SOL     OW 9823   1.064   3.560   4.800
 2975SOL    HW1 9824   1.155   3.600   4.791
 2975SOL    HW2 9825   0.997   3.632   4.820
 2976SOL     OW 9826   4.081   0.012   1.481
 2976SOL    HW1 9827   4.179   0.009   1.465
 2976SOL    HW2 9828   4.032   0.011   1.394
 2977SOL     OW 9829   1.328   1.515   2.401
 2977SOL    HW1 9830   1.261   1.521   2.327
 2977SOL    HW2 9831   1.412   1.473   2.366
 2978SOL     OW 9832   3.395   5.929   0.438
 2978SOL    HW1 9833   3.389   5.926   0.338
 2978SOL    HW2 9834   3.478   5.978   0.464
 2979SOL     OW 9835   1.673   1.413   5.437
 2979SOL    HW1 9836   1.748   1.347   5.446
 2979SOL    HW2 9837   1.624   1.420   5.524
 2980SOL     OW 9838   3.257   3.183   2.778
 2980SOL    HW1 9839   3.224   3.250   2.711
 2980SOL    HW2 9840   3.253   3.222   2.870
 2981SOL     OW 9841   2.354   1.733   1.787
 2981SOL    HW1 9842   2.377   1.831   1.781
 2981SOL    HW2 9843   2.402   1.693   1.865
 2982SOL     OW 9844   0.326   0.533   2.354
 2982SOL    HW1 9845   0.254   0.604   2.352
 2982SOL    HW2 9846   0.348   0.506   2.260
 2983SOL     OW 9847   6.637   2.747   6.031
 2983SOL    HW1 9848   6.604   2.738   5.937
 2983SOL    HW2 9849   6.686   2.834   6.041
 2984SOL     OW 9850   0.571   5.873   1.032
 2984SOL    HW1 9851   0.550   5.969   1.017
 2984SOL    HW2 9852   0.554   5.821   0.948
 2985SOL     OW 9853   0.111   0.031   5.520
 2985SOL    HW1 9854   0.082   0.021   5.425
 2985SOL    HW2 9855   0.099   6.962   5.568
 2986SOL     OW 9856   3.589   4.030   2.341
 2986SOL    HW1 9857   3.599   4.048   2.439
 2986SOL    HW2 9858   3.516   4.088   2.304
 2987SOL     OW 9859   2.613   6.893   6.057
 2987SOL    HW1 9860   2.520   6.873   6.026
 2987SOL    HW2 9861   2.663   6.807   6.068
 2988SOL     OW 9862   0.804   2.145   6.454
 2988SOL    HW1 9863   0.755   2.184   6.377
 2988SOL    HW2 9864   0.739   2.112   6.523
 2989SOL     OW 9865   5.700   3.515   5.810
 2989SOL    HW1 9866   5.709   3.603   5.857
 2989SOL    HW2 9867   5.756   3.446   5.857
 2990SOL     OW 9868   4.955   2.278   5.026
 2990SOL    HW1 9869   4.989   2.306   4.936
 2990SOL    HW2 9870   4.893   2.347   5.061
 2991SOL     OW 9871   6.230   2.527   0.341
 2991SOL    HW1 9872   6.130   2.537   0.335
 2991SOL    HW2 9873   6.274   2.603   0.294
 2992SOL     OW 9874   2.424   4.528   4.617
 2992SOL    HW1 9875   2.367   4.590   4.671
 2992SOL    HW2 9876   2.380   4.438   4.615
 2993SOL     OW 9877   4.158   5.293   6.804
 2993SOL    HW1 9878   4.159   5.204   6.849
 2993SOL    HW2 9879   4.210   5.358   6.859
 2994SOL     OW 9880   2.757   5.168   5.019
 2994SOL    HW1 9881   2.849   5.207   5.025
 2994SOL    HW2 9882   2.698   5.231   4.968
 2995SOL     OW 9883   5.896   0.453   2.498
 2995SOL    HW1 9884   5.843   0.486   2.420
 2995SOL    HW2 9885   5.844   0.467   2.582
 2996SOL     OW 9886   6.474   0.470   4.433
 2996SOL    HW1 9887   6.390   0.465   4.487
 2996SOL    HW2 9888   6.530   0.545   4.466
 2997SOL     OW 9889   4.863   6.444   4.197
 2997SOL    HW1 9890   4.797   6.506   4.155
 2997SOL    HW2 9891   4.881   6.368   4.134
 2998SOL     OW 9892   2.504   0.498   1.496
 2998SOL    HW1 9893   2.571   0.474   1.565
 2998SOL    HW2 9894   2.537   0.575   1.442
 2999SOL     OW 9895   2.628   5.426   0.364
 2999SOL    HW1 9896   2.696   5.452   0.295
 2999SOL    HW2 9897   2.594   5.334   0.344
 3000SOL     OW 9898   1.802   4.174   6.361
 3000SOL    HW1 9899   1.859   4.203   6.284
 3000SOL    HW2 9900   1.857   4.169   6.444
 3001SOL     OW 9901   2.973   0.385   5.813
 3001SOL    HW1 9902   2.995   0.326   5.891
 3001SOL    HW2 9903   2.914   0.336   5.749
 3002SOL     OW 9904   1.673   2.112   1.272
 3002SOL    HW1 9905   1.698   2.066   1.187
 3002SOL    HW2 9906   1.611   2.054   1.325
 3003SOL     OW 9907   1.170   5.882   0.393
 3003SOL    HW1 9908   1.084   5.871   0.443
 3003SOL    HW2 9909   1.158   5.948   0.319
 3004SOL     OW 9910   2.891   1.176   4.630
 3004SOL    HW1 9911   2.962   1.112   4.659
 3004SOL    HW2 9912   2.860   1.230   4.708
 3005SOL     OW 9913   2.975   1.402   6.831
 3005SOL    HW1 9914   2.913   1.391   6.753
 3005SOL    HW2 9915   3.043   1.472   6.810
 3006SOL     OW 9916   6.030   1.184   6.092
 3006SOL    HW1 9917   6.035   1.283   6.108
 3006SOL    HW2 9918   5.940   1.151   6.122
 3007SOL     OW 9919   6.372   5.472   6.181
 3007SOL    HW1 9920   6.373   5.390   6.239
 3007SOL    HW2 9921   6.436   5.459   6.105
 3008SOL     OW 9922   5.428   3.437   5.722
 3008SOL    HW1 9923   5.417   3.453   5.624
 3008SOL    HW2 9924   5.523   3.454   5.748
 3009SOL     OW 9925   5.805   4.341   1.349
 3009SOL    HW1 9926   5.775   4.435   1.335
 3009SOL    HW2 9927   5.817   4.296   1.261
 3010SOL     OW 9928   4.438   4.061   1.488
 3010SOL    HW1 9929   4.365   4.124   1.516
 3010SOL    HW2 9930   4.514   4.067   1.554
 3011SOL     OW 9931   5.221   0.529   1.115
 3011SOL    HW1 9932   5.137   0.523   1.060
 3011SOL    HW2 9933   5.197   0.531   1.212
 3012SOL     OW 9934   1.900   2.684   4.681
 3012SOL    HW1 9935   1.949   2.705   4.766
 3012SOL    HW2 9936   1.855   2.767   4.648
 3013SOL     OW 9937   0.590   5.541   5.636
 3013SOL    HW1 9938   0.682   5.541   5.595
 3013SOL    HW2 9939   0.522   5.543   5.563
 3014SOL     OW 9940   3.754   6.932   0.797
 3014SOL    HW1 9941   3.756   6.923   0.896
 3014SOL    HW2 9942   3.805   6.857   0.755
 3015SOL     OW 9943   2.195   6.671   5.870
 3015SOL    HW1 9944   2.154   6.601   5.811
 3015SOL    HW2 9945   2.293   6.657   5.875
 3016SOL     OW 9946   3.386   1.348   4.743
 3016SOL    HW1 9947   3.470   1.323   4.695
 3016SOL    HW2 9948   3.388   1.309   4.835
 3017SOL     OW 9949   1.828   6.075   6.781
 3017SOL    HW1 9950   1.872   6.118   6.860
 3017SOL    HW2 9951   1.855   5.979   6.775
 3018SOL     OW 9952   2.066   2.743   2.053
 3018SOL    HW1 9953   2.031   2.706   2.138
 3018SOL    HW2 9954   2.128   2.819   2.073
 3019SOL     OW 9955   0.922   1.498   5.443
 3019SOL    HW1 9956   0.830   1.523   5.473
 3019SOL    HW2 9957   0.924   1.402   5.415
 3020SOL     OW 9958   5.256   4.009   6.773
 3020SOL    HW1 9959   5.288   3.915   6.785
 3020SOL    HW2 9960   5.325   4.061   6.724
 3021SOL     OW 9961   3.864   6.593   4.424
 3021SOL    HW1 9962   3.838   6.665   4.489
 3021SOL    HW2 9963   3.955   6.560   4.446
 3022SOL     OW 9964   4.122   6.405   2.151
 3022SOL    HW1 9965   4.059   6.360   2.215
 3022SOL    HW2 9966   4.189   6.458   2.202
 3023SOL     OW 9967   5.690   4.783   5.447
 3023SOL    HW1 9968   5.735   4.816   5.530
 3023SOL    HW2 9969   5.724   4.693   5.423
 3024SOL     OW 9970   6.155   1.815   6.043
 3024SOL    HW1 9971   6.143   1.770   5.955
 3024SOL    HW2 9972   6.227   1.768   6.095
 3025SOL     OW 9973   3.826   5.282   1.104
 3025SOL    HW1 9974   3.744   5.290   1.047
 3025SOL    HW2 9975   3.884   5.362   1.090
 3026SOL     OW 9976   6.860   5.272   2.872
 3026SOL    HW1 9977   6.936   5.336   2.884
 3026SOL    HW2 9978   6.817   5.255   2.961
 3027SOL     OW 9979   3.961   0.173   0.954
 3027SOL    HW1 9980   3.914   0.139   0.873
 3027SOL    HW2 9981   3.961   0.273   0.953
 3028SOL     OW 9982   3.551   3.664   3.517
 3028SOL    HW1 9983   3.453   3.647   3.504
 3028SOL    HW2 9984   3.563   3.744   3.576
 3029SOL     OW 9985   0.160   2.525   5.117
 3029SOL    HW1 9986   0.244   2.483   5.083
 3029SOL    HW2 9987   0.136   2.604   5.061
 3030SOL     OW 9988   0.312   3.799   6.223
 3030SOL    HW1 9989   0.262   3.734   6.165
 3030SOL    HW2 9990   0.372   3.749   6.285
 3031SOL     OW 9991   0.364   4.276   0.177
 3031SOL    HW1 9992   0.401   4.255   0.268
 3031SOL    HW2 9993   0.439   4.301   0.116
 3032SOL     OW 9994   3.685   0.387   3.634
 3032SOL    HW1 9995   3.649   0.323   3.566
 3032SOL    HW2 9996   3.682   0.480   3.596
 3033SOL     OW 9997   1.973   0.351   6.204
 3033SOL    HW1 9998   1.890   0.403   6.218
 3033SOL    HW2 9999   2.036   0.366   6.280
 3034SOL     OW10000   5.085   3.149   3.294
 3034SOL    HW110001   4.994   3.108   3.282
 3034SOL    HW210002   5.086   3.240   3.253
 3035SOL     OW10003   5.787   4.308   6.828
 3035SOL    HW110004   5.713   4.375   6.818
 3035SOL    HW210005   5.755   4.233   6.887
 3036SOL     OW10006   2.714   2.434   6.930
 3036SOL    HW110007   2.704   2.500   7.005
 3036SOL    HW210008   2.756   2.351   6.964
 3037SOL     OW10009   0.453   5.507   6.098
 3037SOL    HW110010   0.357   5.477   6.101
 3037SOL    HW210011   0.494   5.479   6.012
 3038SOL     OW10012   6.223   5.083   5.863
 3038SOL    HW110013   6.296   5.106   5.798
 3038SOL    HW210014   6.238   5.133   5.948
 3039SOL     OW10015   6.094   3.198   6.228
 3039SOL    HW110016   6.101   3.294   6.202
 3039SOL    HW210017   6.142   3.142   6.161
 3040SOL     OW10018   3.405   6.685   6.446
 3040SOL    HW110019   3.474   6.730   6.388
 3040SOL    HW210020   3.444   6.602   6.485
 3041SOL     OW10021   1.931   5.825   5.869
 3041SOL    HW110022   1.984   5.742   5.884
 3041SOL    HW210023   1.857   5.829   5.936
 3042SOL     OW10024   0.050   5.811   4.782
 3042SOL    HW110025   0.038   5.771   4.691
 3042SOL    HW210026   7.011   5.892   4.791
 3043SOL     OW10027   2.336   3.648   1.676
 3043SOL    HW110028   2.329   3.577   1.746
 3043SOL    HW210029   2.422   3.699   1.689
 3044SOL     OW10030   3.865   3.893   3.825
 3044SOL    HW110031   3.913   3.885   3.912
 3044SOL    HW210032   3.858   3.803   3.782
 3045SOL     OW10033   5.522   6.761   3.163
 3045SOL    HW110034   5.445   6.702   3.189
 3045SOL    HW210035   5.489   6.854   3.150
 3046SOL     OW10036   6.057   6.013   1.665
 3046SOL    HW110037   6.059   6.055   1.756
 3046SOL    HW210038   6.149   5.984   1.640
 3047SOL     OW10039   4.543   1.730   3.687
 3047SOL    HW110040   4.614   1.769   3.629
 3047SOL    HW210041   4.461   1.712   3.632
 3048SOL     OW10042   4.271   4.981   0.887
 3048SOL    HW110043   4.342   4.957   0.954
 3048SOL    HW210044   4.313   5.002   0.799
 3049SOL     OW10045   6.896   0.644   1.407
 3049SOL    HW110046   6.988   0.665   1.438
 3049SOL    HW210047   6.899   0.570   1.341
 3050SOL     OW10048   3.842   3.049   5.602
 3050SOL    HW110049   3.898   3.039   5.685
 3050SOL    HW210050   3.869   2.979   5.535
 3051SOL     OW10051   2.442   4.618   5.936
 3051SOL    HW110052   2.475   4.622   6.030
 3051SOL    HW210053   2.402   4.706   5.910
 3052SOL     OW10054   6.233   6.840   4.372
 3052SOL    HW110055   6.329   6.828   4.345
 3052SOL    HW210056   6.227   6.911   4.443
 3053SOL     OW10057   0.490   5.208   5.632
 3053SOL    HW110058   0.403   5.161   5.645
 3053SOL    HW210059   0.563   5.157   5.678
 3054SOL     OW10060   6.000   6.018   3.482
 3054SOL    HW110061   6.032   5.969   3.401
 3054SOL    HW210062   6.077   6.034   3.544
 3055SOL     OW10063   5.427   6.070   0.714
 3055SOL    HW110064   5.353   6.009   0.684
 3055SOL    HW210065   5.412   6.161   0.675
 3056SOL     OW10066   4.551   2.764   1.294
 3056SOL    HW110067   4.468   2.712   1.317
 3056SOL    HW210068   4.587   2.806   1.377
 3057SOL     OW10069   7.009   2.229   2.709
 3057SOL    HW110070   6.911   2.250   2.703
 3057SOL    HW210071   0.041   2.290   2.649
 3058SOL     OW10072   5.185   4.247   6.367
 3058SOL    HW110073   5.276   4.282   6.346
 3058SOL    HW210074   5.182   4.149   6.351
 3059SOL     OW10075   1.634   2.629   3.034
 3059SOL    HW110076   1.649   2.628   3.133
 3059SOL    HW210077   1.569   2.701   3.011
 3060SOL     OW10078   6.494   2.854   3.971
 3060SOL    HW110079   6.485   2.766   4.019
 3060SOL    HW210080   6.435   2.922   4.014
 3061SOL     OW10081   5.238   5.647   2.184
 3061SOL    HW110082   5.283   5.607   2.264
 3061SOL    HW210083   5.206   5.573   2.124
 3062SOL     OW10084   4.452   5.135   6.833
 3062SOL    HW110085   4.523   5.160   6.767
 3062SOL    HW210086   4.409   5.049   6.806
 3063SOL     OW10087   5.877   5.834   1.190
 3063SOL    HW110088   5.848   5.929   1.195
 3063SOL    HW210089   5.824   5.779   1.255
 3064SOL     OW10090   4.524   0.796   5.899
 3064SOL    HW110091   4.565   0.838   5.980
 3064SOL    HW210092   4.473   0.864   5.848
 3065SOL     OW10093   4.697   1.735   6.151
 3065SOL    HW110094   4.760   1.792   6.203
 3065SOL    HW210095   4.618   1.711   6.209
 3066SOL     OW10096   4.893   0.259   6.486
 3066SOL    HW110097   4.798   0.251   6.517
 3066SOL    HW210098   4.917   0.180   6.430
 3067SOL     OW10099   1.177   2.142   4.846
 3067SOL    HW110100   1.125   2.215   4.889
 3067SOL    HW210101   1.147   2.131   4.751
 3068SOL     OW10102   6.460   0.532   0.582
 3068SOL    HW110103   6.509   0.479   0.651
 3068SOL    HW210104   6.441   0.474   0.503
 3069SOL     OW10105   5.106   6.000   4.047
 3069SOL    HW110106   5.174   5.931   4.024
 3069SOL    HW210107   5.137   6.089   4.015
 3070SOL     OW10108   2.481   1.645   0.286
 3070SOL    HW110109   2.579   1.663   0.280
 3070SOL    HW210110   2.464   1.582   0.362
 3071SOL     OW10111   6.300   4.340   4.429
 3071SOL    HW110112   6.348   4.415   4.383
 3071SOL    HW210113   6.243   4.291   4.363
 3072SOL     OW10114   1.812   6.844   4.370
 3072SOL    HW110115   1.866   6.928   4.360
 3072SOL    HW210116   1.845   6.791   4.447
 3073SOL     OW10117   0.935   5.169   3.343
 3073SOL    HW110118   1.001   5.144   3.414
 3073SOL    HW210119   0.970   5.143   3.254
 3074SOL     OW10120   2.846   3.722   1.585
 3074SOL    HW110121   2.888   3.800   1.630
 3074SOL    HW210122   2.867   3.724   1.487
 3075SOL     OW10123   3.899   4.759   0.758
 3075SOL    HW110124   3.881   4.662   0.777
 3075SOL    HW210125   3.943   4.800   0.838
 3076SOL     OW10126   2.398   1.373   4.426
 3076SOL    HW110127   2.446   1.415   4.503
 3076SOL    HW210128   2.325   1.315   4.460
 3077SOL     OW10129   0.094   3.752   2.794
 3077SOL    HW110130   0.040   3.836   2.792
 3077SOL    HW210131   0.067   3.696   2.872
 3078SOL     OW10132   6.184   4.603   1.488
 3078SOL    HW110133   6.273   4.637   1.457
 3078SOL    HW210134   6.137   4.674   1.539
 3079SOL     OW10135   0.061   4.281   2.377
 3079SOL    HW110136   0.158   4.259   2.370
 3079SOL    HW210137   0.035   4.341   2.301
 3080SOL     OW10138   3.612   5.087   1.727
 3080SOL    HW110139   3.617   5.086   1.827
 3080SOL    HW210140   3.603   4.993   1.693
 3081SOL     OW10141   2.149   1.956   5.891
 3081SOL    HW110142   2.072   2.011   5.857
 3081SOL    HW210143   2.230   2.014   5.899
 3082SOL     OW10144   6.264   3.710   4.471
 3082SOL    HW110145   6.217   3.732   4.556
 3082SOL    HW210146   6.346   3.656   4.490
 3083SOL     OW10147   4.633   5.407   1.977
 3083SOL    HW110148   4.662   5.422   2.071
 3083SOL    HW210149   4.651   5.490   1.923
 3084SOL     OW10150   0.226   5.448   4.530
 3084SOL    HW110151   0.186   5.384   4.597
 3084SOL    HW210152   0.246   5.535   4.576
 3085SOL     OW10153   6.620   5.530   5.739
 3085SOL    HW110154   6.603   5.548   5.642
 3085SOL    HW210155   6.675   5.605   5.777
 3086SOL     OW10156   6.279   6.120   6.017
 3086SOL    HW110157   6.363   6.082   5.979
 3086SOL    HW210158   6.240   6.187   5.954
 3087SOL     OW10159   2.382   7.017   1.555
 3087SOL    HW110160   2.424   0.058   1.623
 3087SOL    HW210161   2.372   0.047   1.469
 3088SOL     OW10162   2.161   2.732   5.172
 3088SOL    HW110163   2.240   2.704   5.226
 3088SOL    HW210164   2.186   2.731   5.075
 3089SOL     OW10165   4.356   0.246   0.282
 3089SOL    HW110166   4.262   0.250   0.247
 3089SOL    HW210167   4.360   0.183   0.360
 3090SOL     OW10168   0.438   1.975   2.989
 3090SOL    HW110169   0.344   2.006   2.973
 3090SOL    HW210170   0.441   1.917   3.070
 3091SOL     OW10171   1.564   1.825   5.767
 3091SOL    HW110172   1.526   1.834   5.859
 3091SOL    HW210173   1.606   1.912   5.739
 3092SOL     OW10174   4.743   2.087   3.908
 3092SOL    HW110175   4.788   2.012   3.859
 3092SOL    HW210176   4.806   2.125   3.975
 3093SOL     OW10177   6.333   6.260   0.141
 3093SOL    HW110178   6.424   6.229   0.111
 3093SOL    HW210179   6.272   6.266   0.062
 3094SOL     OW10180   1.111   0.513   6.481
 3094SOL    HW110181   1.154   0.597   6.511
 3094SOL    HW210182   1.110   0.509   6.381
 3095SOL     OW10183   2.318   3.477   6.086
 3095SOL    HW110184   2.269   3.535   6.022
 3095SOL    HW210185   2.387   3.423   6.037
 3096SOL     OW10186   2.113   3.584   3.499
 3096SOL    HW110187   2.096   3.604   3.595
 3096SOL    HW210188   2.132   3.669   3.450
 3097SOL     OW10189   5.261   2.135   6.554
 3097SOL    HW110190   5.358   2.160   6.553
 3097SOL    HW210191   5.224   2.141   6.462
 3098SOL     OW10192   1.963   4.185   2.853
 3098SOL    HW110193   1.877   4.166   2.806
 3098SOL    HW210194   1.970   4.282   2.873
 3099SOL     OW10195   0.190   1.286   5.536
 3099SOL    HW110196   0.102   1.263   5.580
 3099SOL    HW210197   0.185   1.378   5.498
 3100SOL     OW10198   6.024   4.216   2.911
 3100SOL    HW110199   5.974   4.224   2.998
 3100SOL    HW210200   6.034   4.307   2.870
 3101SOL     OW10201   4.614   0.354   4.699
 3101SOL    HW110202   4.559   0.434   4.724
 3101SOL    HW210203   4.608   0.340   4.600
 3102SOL     OW10204   5.549   2.944   2.998
 3102SOL    HW110205   5.457   2.963   3.033
 3102SOL    HW210206   5.574   3.014   2.931
 3103SOL     OW10207   1.315   1.027   2.505
 3103SOL    HW110208   1.267   1.006   2.420
 3103SOL    HW210209   1.302   1.123   2.528
 3104SOL     OW10210   5.903   1.882   6.072
 3104SOL    HW110211   5.881   1.978   6.090
 3104SOL    HW210212   6.002   1.869   6.076
 3105SOL     OW10213   5.556   4.540   0.775
 3105SOL    HW110214   5.589   4.626   0.814
 3105SOL    HW210215   5.616   4.513   0.700
 3106SOL     OW10216   5.476   1.712   5.258
 3106SOL    HW110217   5.481   1.696   5.357
 3106SOL    HW210218   5.420   1.792   5.239
 3107SOL     OW10219   4.750   1.333   4.591
 3107SOL    HW110220   4.804   1.249   4.598
 3107SOL    HW210221   4.810   1.409   4.566
 3108SOL     OW10222   2.532   5.138   4.510
 3108SOL    HW110223   2.530   5.054   4.565
 3108SOL    HW210224   2.624   5.151   4.473
 3109SOL     OW10225   6.804   5.082   4.194
 3109SOL    HW110226   6.793   4.994   4.241
 3109SOL    HW210227   6.826   5.153   4.260
 3110SOL     OW10228   1.992   4.961   3.927
 3110SOL    HW110229   1.929   4.969   3.850
 3110SOL    HW210230   2.056   4.886   3.910
 3111SOL     OW10231   0.212   3.835   4.229
 3111SOL    HW110232   0.172   3.875   4.311
 3111SOL    HW210233   0.312   3.836   4.237
 3112SOL     OW10234   4.584   0.472   0.887
 3112SOL    HW110235   4.518   0.398   0.872
 3112SOL    HW210236   4.603   0.518   0.800
 3113SOL     OW10237   1.345   6.448   3.691
 3113SOL    HW110238   1.365   6.479   3.598
 3113SOL    HW210239   1.302   6.357   3.687
 3114SOL     OW10240   5.107   4.891   5.162
 3114SOL    HW110241   5.193   4.941   5.144
 3114SOL    HW210242   5.051   4.943   5.226
 3115SOL     OW10243   5.529   5.329   4.431
 3115SOL    HW110244   5.429   5.335   4.426
 3115SOL    HW210245   5.569   5.377   4.353
 3116SOL     OW10246   0.556   2.489   6.012
 3116SOL    HW110247   0.477   2.429   6.000
 3116SOL    HW210248   0.544   2.545   6.093
 3117SOL     OW10249   4.031   0.198   2.011
 3117SOL    HW110250   4.002   0.105   2.037
 3117SOL    HW210251   3.955   0.261   2.027
 3118SOL     OW10252   0.804   1.793   3.444
 3118SOL    HW110253   0.817   1.766   3.349
 3118SOL    HW210254   0.738   1.868   3.449
 3119SOL     OW10255   4.141   6.620   3.091
 3119SOL    HW110256   4.163   6.702   3.039
 3119SOL    HW210257   4.097   6.553   3.030
 3120SOL     OW10258   3.725   6.434   6.434
 3120SOL    HW110259   3.693   6.504   6.498
 3120SOL    HW210260   3.674   6.441   6.349
 3121SOL     OW10261   3.899   1.213   2.996
 3121SOL    HW110262   3.957   1.215   2.915
 3121SOL    HW210263   3.805   1.234   2.970
 3122SOL     OW10264   5.239   3.319   6.745
 3122SOL    HW110265   5.317   3.324   6.683
 3122SOL    HW210266   5.156   3.296   6.693
 3123SOL     OW10267   2.162   3.274   2.824
 3123SOL    HW110268   2.207   3.192   2.787
 3123SOL    HW210269   2.225   3.351   2.820
 3124SOL     OW10270   5.008   6.457   5.603
 3124SOL    HW110271   5.040   6.550   5.587
 3124SOL    HW210272   5.046   6.396   5.534
 3125SOL     OW10273   2.132   1.737   4.988
 3125SOL    HW110274   2.100   1.817   4.939
 3125SOL    HW210275   2.175   1.673   4.924
 3126SOL     OW10276   5.165   4.288   5.015
 3126SOL    HW110277   5.100   4.363   4.996
 3126SOL    HW210278   5.146   4.212   4.953
 3127SOL     OW10279   6.519   2.357   6.312
 3127SOL    HW110280   6.583   2.315   6.248
 3127SOL    HW210281   6.557   2.353   6.405
 3128SOL     OW10282   4.480   2.466   1.514
 3128SOL    HW110283   4.421   2.484   1.436
 3128SOL    HW210284   4.569   2.509   1.499
 3129SOL     OW10285   4.090   4.454   0.256
 3129SOL    HW110286   4.149   4.380   0.288
 3129SOL    HW210287   4.105   4.535   0.313
 3130SOL     OW10288   6.495   5.538   3.445
 3130SOL    HW110289   6.448   5.606   3.501
 3130SOL    HW210290   6.594   5.547   3.456
 3131SOL     OW10291   0.395   2.050   3.289
 3131SOL    HW110292   0.331   1.999   3.346
 3131SOL    HW210293   0.345   2.112   3.229
 3132SOL     OW10294   4.593   3.954   6.084
 3132SOL    HW110295   4.568   3.949   5.987
 3132SOL    HW210296   4.546   3.880   6.133
 3133SOL     OW10297   5.488   6.557   4.671
 3133SOL    HW110298   5.504   6.465   4.637
 3133SOL    HW210299   5.576   6.604   4.682
 3134SOL     OW10300   4.053   5.292   3.457
 3134SOL    HW110301   4.065   5.388   3.483
 3134SOL    HW210302   3.956   5.269   3.462
 3135SOL     OW10303   4.206   0.943   6.551
 3135SOL    HW110304   4.302   0.916   6.552
 3135SOL    HW210305   4.150   0.865   6.525
 3136SOL     OW10306   6.113   5.506   1.953
 3136SOL    HW110307   6.116   5.521   1.854
 3136SOL    HW210308   6.034   5.449   1.976
 3137SOL     OW10309   4.956   3.663   6.838
 3137SOL    HW110310   5.038   3.630   6.883
 3137SOL    HW210311   4.979   3.741   6.780
 3138SOL     OW10312   6.559   6.547   5.370
 3138SOL    HW110313   6.523   6.491   5.295
 3138SOL    HW210314   6.511   6.634   5.372
 3139SOL     OW10315   1.281   4.983   2.185
 3139SOL    HW110316   1.196   4.975   2.133
 3139SOL    HW210317   1.359   4.977   2.123
 3140SOL     OW10318   4.723   5.561   6.653
 3140SOL    HW110319   4.690   5.485   6.709
 3140SOL    HW210320   4.697   5.547   6.558
 3141SOL     OW10321   6.010   2.237   0.222
 3141SOL    HW110322   6.109   2.242   0.227
 3141SOL    HW210323   5.973   2.325   0.190
 3142SOL     OW10324   3.908   0.698   3.660
 3142SOL    HW110325   3.947   0.618   3.704
 3142SOL    HW210326   3.932   0.780   3.711
 3143SOL     OW10327   5.840   1.632   6.941
 3143SOL    HW110328   5.745   1.640   6.970
 3143SOL    HW210329   5.880   1.549   6.979
 3144SOL     OW10330   3.869   5.139   6.364
 3144SOL    HW110331   3.864   5.218   6.425
 3144SOL    HW210332   3.849   5.056   6.416
 3145SOL     OW10333   0.990   5.995   5.358
 3145SOL    HW110334   0.961   5.959   5.269
 3145SOL    HW210335   0.947   5.943   5.431
 3146SOL     OW10336   6.413   1.306   4.486
 3146SOL    HW110337   6.421   1.372   4.411
 3146SOL    HW210338   6.415   1.213   4.449
 3147SOL     OW10339   5.017   0.444   0.940
 3147SOL    HW110340   5.016   0.345   0.945
 3147SOL    HW210341   4.982   0.473   0.851
 3148SOL     OW10342   5.679   4.920   0.442
 3148SOL    HW110343   5.662   4.954   0.535
 3148SOL    HW210344   5.777   4.902   0.431
 3149SOL     OW10345   4.419   3.106   6.898
 3149SOL    HW110346   4.459   3.197   6.906
 3149SOL    HW210347   4.325   3.107   6.931
 3150SOL     OW10348   6.656   0.654   5.208
 3150SOL    HW110349   6.563   0.687   5.227
 3150SOL    HW210350   6.723   0.722   5.239
 3151SOL     OW10351   0.679   1.458   0.044
 3151SOL    HW110352   0.630   1.538   0.080
 3151SOL    HW210353   0.652   1.377   0.095
 3152SOL     OW10354   2.756   1.341   5.795
 3152SOL    HW110355   2.839   1.330   5.740
 3152SOL    HW210356   2.709   1.253   5.802
 3153SOL     OW10357   5.297   5.667   1.389
 3153SOL    HW110358   5.337   5.732   1.325
 3153SOL    HW210359   5.354   5.586   1.396
 3154SOL     OW10360   3.883   2.280   0.371
 3154SOL    HW110361   3.897   2.183   0.352
 3154SOL    HW210362   3.942   2.307   0.448
 3155SOL     OW10363   6.803   6.423   6.511
 3155SOL    HW110364   6.833   6.339   6.466
 3155SOL    HW210365   6.777   6.404   6.605
 3156SOL     OW10366   2.977   4.830   0.884
 3156SOL    HW110367   2.986   4.771   0.965
 3156SOL    HW210368   2.935   4.778   0.810
 3157SOL     OW10369   1.389   0.961   3.230
 3157SOL    HW110370   1.370   0.873   3.275
 3157SOL    HW210371   1.352   1.035   3.285
 3158SOL     OW10372   1.795   0.554   6.309
 3158SOL    HW110373   1.854   0.572   6.388
 3158SOL    HW210374   1.700   0.572   6.334
 3159SOL     OW10375   5.001   5.633   0.948
 3159SOL    HW110376   4.995   5.550   0.894
 3159SOL    HW210377   4.992   5.611   1.045
 3160SOL     OW10378   2.091   1.157   5.618
 3160SOL    HW110379   2.005   1.153   5.567
 3160SOL    HW210380   2.071   1.152   5.716
 3161SOL     OW10381   2.157   2.260   2.175
 3161SOL    HW110382   2.062   2.228   2.181
 3161SOL    HW210383   2.166   2.321   2.096
 3162SOL     OW10384   1.396   5.668   2.264
 3162SOL    HW110385   1.309   5.669   2.213
 3162SOL    HW210386   1.416   5.760   2.296
 3163SOL     OW10387   5.585   4.910   1.482
 3163SOL    HW110388   5.591   4.863   1.394
 3163SOL    HW210389   5.491   4.903   1.516
 3164SOL     OW10390   2.228   6.787   2.844
 3164SOL    HW110391   2.142   6.757   2.884
 3164SOL    HW210392   2.225   6.885   2.826
 3165SOL     OW10393   6.695   5.448   0.002
 3165SOL    HW110394   6.751   5.479   6.945
 3165SOL    HW210395   6.630   5.520   0.027
 3166SOL     OW10396   3.650   2.113   4.563
 3166SOL    HW110397   3.565   2.073   4.595
 3166SOL    HW210398   3.687   2.174   4.633
 3167SOL     OW10399   6.520   2.690   2.761
 3167SOL    HW110400   6.565   2.777   2.778
 3167SOL    HW210401   6.549   2.653   2.673
 3168SOL     OW10402   5.906   1.398   0.842
 3168SOL    HW110403   5.950   1.319   0.799
 3168SOL    HW210404   5.936   1.481   0.795
 3169SOL     OW10405   1.088   2.160   2.458
 3169SOL    HW110406   1.140   2.132   2.377
 3169SOL    HW210407   1.001   2.199   2.429
 3170SOL     OW10408   2.664   5.144   3.970
 3170SOL    HW110409   2.680   5.057   3.922
 3170SOL    HW210410   2.678   5.131   4.068
 3171SOL     OW10411   6.719   2.350   4.489
 3171SOL    HW110412   6.641   2.404   4.524
 3171SOL    HW210413   6.790   2.346   4.559
 3172SOL     OW10414   6.226   4.043   0.915
 3172SOL    HW110415   6.217   3.967   0.981
 3172SOL    HW210416   6.139   4.093   0.911
 3173SOL     OW10417   5.459   4.342   0.226
 3173SOL    HW110418   5.485   4.249   0.252
 3173SOL    HW210419   5.501   4.407   0.289
 3174SOL     OW10420   2.870   3.057   0.068
 3174SOL    HW110421   2.952   3.086   0.019
 3174SOL    HW210422   2.860   2.958   0.060
 3175SOL     OW10423   5.893   5.981   5.218
 3175SOL    HW110424   5.950   6.054   5.180
 3175SOL    HW210425   5.951   5.902   5.240
 3176SOL     OW10426   6.789   4.986   3.824
 3176SOL    HW110427   6.715   4.936   3.869
 3176SOL    HW210428   6.862   4.923   3.799
 3177SOL     OW10429   5.669   2.322   1.646
 3177SOL    HW110430   5.766   2.330   1.620
 3177SOL    HW210431   5.642   2.226   1.643
 3178SOL     OW10432   1.851   0.675   2.248
 3178SOL    HW110433   1.920   0.658   2.177
 3178SOL    HW210434   1.857   0.770   2.278
 3179SOL     OW10435   0.485   4.676   2.804
 3179SOL    HW110436   0.447   4.639   2.889
 3179SOL    HW210437   0.567   4.729   2.825
 3180SOL     OW10438   6.216   0.319   6.230
 3180SOL    HW110439   6.129   0.281   6.198
 3180SOL    HW210440   6.199   0.378   6.309
 3181SOL     OW10441   6.714   6.570   4.617
 3181SOL    HW110442   6.695   6.665   4.644
 3181SOL    HW210443   6.746   6.519   4.696
 3182SOL     OW10444   1.301   6.572   1.551
 3182SOL    HW110445   1.260   6.654   1.509
 3182SOL    HW210446   1.340   6.514   1.480
 3183SOL     OW10447   4.193   4.217   0.320
 3183SOL    HW110448   4.241   4.209   0.407
 3183SOL    HW210449   4.117   4.152   0.318
 3184SOL     OW10450   6.221   0.572   4.590
 3184SOL    HW110451   6.169   0.586   4.505
 3184SOL    HW210452   6.198   0.643   4.656
 3185SOL     OW10453   1.303   6.867   6.110
 3185SOL    HW110454   1.295   6.873   6.011
 3185SOL    HW210455   1.257   6.946   6.152
 3186SOL     OW10456   0.722   2.137   6.084
 3186SOL    HW110457   0.799   2.199   6.064
 3186SOL    HW210458   0.732   2.054   6.030
 3187SOL     OW10459   5.234   0.538   2.997
 3187SOL    HW110460   5.171   0.605   2.956
 3187SOL    HW210461   5.209   0.446   2.967
 3188SOL     OW10462   0.789   6.451   1.510
 3188SOL    HW110463   0.863   6.466   1.445
 3188SOL    HW210464   0.720   6.524   1.500
 3189SOL     OW10465   2.909   1.771   5.377
 3189SOL    HW110466   2.861   1.706   5.437
 3189SOL    HW210467   2.915   1.859   5.423
 3190SOL     OW10468   6.566   5.781   4.685
 3190SOL    HW110469   6.522   5.871   4.681
 3190SOL    HW210470   6.649   5.782   4.629
 3191SOL     OW10471   4.322   5.340   0.641
 3191SOL    HW110472   4.245   5.373   0.588
 3191SOL    HW210473   4.407   5.357   0.591
 3192SOL     OW10474   5.298   0.911   3.414
 3192SOL    HW110475   5.348   0.996   3.398
 3192SOL    HW210476   5.361   0.834   3.408
 3193SOL     OW10477   4.011   5.982   4.730
 3193SOL    HW110478   4.064   6.066   4.741
 3193SOL    HW210479   3.917   5.999   4.760
 3194SOL     OW10480   2.486   6.687   5.873
 3194SOL    HW110481   2.514   6.671   5.778
 3194SOL    HW210482   2.522   6.614   5.931
 3195SOL     OW10483   6.814   6.005   1.453
 3195SOL    HW110484   6.786   6.098   1.477
 3195SOL    HW210485   6.883   6.008   1.381
 3196SOL     OW10486   5.956   0.893   3.182
 3196SOL    HW110487   5.933   0.805   3.142
 3196SOL    HW210488   5.883   0.923   3.243
 3197SOL     OW10489   3.132   0.849   0.238
 3197SOL    HW110490   3.102   0.870   0.145
 3197SOL    HW210491   3.230   0.829   0.237
 3198SOL     OW10492   6.057   4.176   3.858
 3198SOL    HW110493   6.081   4.268   3.889
 3198SOL    HW210494   5.971   4.147   3.900
 3199SOL     OW10495   5.109   3.579   4.215
 3199SOL    HW110496   5.039   3.528   4.165
 3199SOL    HW210497   5.066   3.649   4.271
 3200SOL     OW10498   6.438   3.755   4.795
 3200SOL    HW110499   6.339   3.760   4.783
 3200SOL    HW210500   6.482   3.819   4.732
 3201SOL     OW10501   6.268   3.485   2.422
 3201SOL    HW110502   6.271   3.405   2.363
 3201SOL    HW210503   6.206   3.469   2.498
 3202SOL     OW10504   3.413   2.923   5.928
 3202SOL    HW110505   3.396   2.896   5.834
 3202SOL    HW210506   3.404   2.843   5.988
 3203SOL     OW10507   3.407   6.474   1.767
 3203SOL    HW110508   3.474   6.531   1.719
 3203SOL    HW210509   3.347   6.533   1.822
 3204SOL     OW10510   5.877   0.612   3.389
 3204SOL    HW110511   5.957   0.609   3.330
 3204SOL    HW210512   5.838   0.704   3.388
 3205SOL     OW10513   5.404   2.811   0.735
 3205SOL    HW110514   5.491   2.858   0.747
 3205SOL    HW210515   5.340   2.841   0.806
 3206SOL     OW10516   3.711   5.213   0.156
 3206SOL    HW110517   3.789   5.201   0.218
 3206SOL    HW210518   3.685   5.124   0.118
 3207SOL     OW10519   1.796   5.647   2.756
 3207SOL    HW110520   1.732   5.724   2.757
 3207SOL    HW210521   1.812   5.618   2.661
 3208SOL     OW10522   0.218   3.986   6.859
 3208SOL    HW110523   0.196   4.049   6.934
 3208SOL    HW210524   0.137   3.930   6.839
 3209SOL     OW10525   5.261   0.167   5.083
 3209SOL    HW110526   5.183   0.217   5.045
 3209SOL    HW210527   5.227   0.099   5.149
 3210SOL     OW10528   4.704   4.999   2.261
 3210SOL    HW110529   4.745   5.078   2.305
 3210SOL    HW210530   4.724   5.001   2.163
 3211SOL     OW10531   2.455   0.188   6.554
 3211SOL    HW110532   2.356   0.176   6.550
 3211SOL    HW210533   2.477   0.285   6.549
 3212SOL     OW10534   3.884   0.150   4.085
 3212SOL    HW110535   3.860   0.246   4.070
 3212SOL    HW210536   3.949   0.143   4.161
 3213SOL     OW10537   1.451   0.136   5.988
 3213SOL    HW110538   1.449   0.166   6.084
 3213SOL    HW210539   1.362   0.155   5.946
 3214SOL     OW10540   2.144   0.038   2.837
 3214SOL    HW110541   2.055   0.082   2.823
 3214SOL    HW210542   2.199   0.045   2.754
 3215SOL     OW10543   2.415   3.333   1.630
 3215SOL    HW110544   2.382   3.239   1.640
 3215SOL    HW210545   2.404   3.381   1.717
 3216SOL     OW10546   0.379   3.925   1.494
 3216SOL    HW110547   0.461   3.982   1.490
 3216SOL    HW210548   0.305   3.976   1.540
 3217SOL     OW10549   6.001   5.812   4.136
 3217SOL    HW110550   5.975   5.880   4.068
 3217SOL    HW210551   6.069   5.852   4.198
 3218SOL     OW10552   5.846   1.489   3.533
 3218SOL    HW110553   5.901   1.550   3.475
 3218SOL    HW210554   5.906   1.440   3.596
 3219SOL     OW10555   4.455   1.853   4.285
 3219SOL    HW110556   4.551   1.859   4.311
 3219SOL    HW210557   4.447   1.858   4.185
 3220SOL     OW10558   0.482   3.823   5.834
 3220SOL    HW110559   0.382   3.815   5.835
 3220SOL    HW210560   0.521   3.738   5.799
 3221SOL     OW10561   3.892   1.844   2.335
 3221SOL    HW110562   3.814   1.822   2.392
 3221SOL    HW210563   3.861   1.866   2.242
 3222SOL     OW10564   2.856   0.874   3.082
 3222SOL    HW110565   2.877   0.969   3.105
 3222SOL    HW210566   2.807   0.871   2.995
 3223SOL     OW10567   1.827   5.227   0.684
 3223SOL    HW110568   1.803   5.176   0.767
 3223SOL    HW210569   1.804   5.172   0.603
 3224SOL     OW10570   4.631   2.618   3.641
 3224SOL    HW110571   4.602   2.538   3.587
 3224SOL    HW210572   4.621   2.598   3.738
 3225SOL     OW10573   3.083   1.016   4.770
 3225SOL    HW110574   3.152   1.054   4.833
 3225SOL    HW210575   3.126   0.996   4.683
 3226SOL     OW10576   5.501   1.183   0.059
 3226SOL    HW110577   5.459   1.116   7.017
 3226SOL    HW210578   5.516   1.142   0.149
 3227SOL     OW10579   6.196   3.927   5.893
 3227SOL    HW110580   6.194   3.900   5.989
 3227SOL    HW210581   6.111   3.974   5.870
 3228SOL     OW10582   2.164   4.397   1.024
 3228SOL    HW110583   2.086   4.459   1.035
 3228SOL    HW210584   2.152   4.318   1.085
 3229SOL     OW10585   0.886   1.050   0.372
 3229SOL    HW110586   0.803   1.027   0.320
 3229SOL    HW210587   0.919   0.968   0.419
 3230SOL     OW10588   3.263   6.615   5.133
 3230SOL    HW110589   3.280   6.659   5.221
 3230SOL    HW210590   3.335   6.548   5.116
 3231SOL     OW10591   2.841   2.284   2.725
 3231SOL    HW110592   2.830   2.319   2.631
 3231SOL    HW210593   2.839   2.184   2.724
 3232SOL     OW10594   3.526   5.103   3.448
 3232SOL    HW110595   3.499   5.049   3.368
 3232SOL    HW210596   3.446   5.121   3.505
 3233SOL     OW10597   1.935   6.852   4.941
 3233SOL    HW110598   2.004   6.909   4.985
 3233SOL    HW210599   1.972   6.761   4.924
 3234SOL     OW10600   3.556   3.839   0.643
 3234SOL    HW110601   3.573   3.918   0.584
 3234SOL    HW210602   3.636   3.821   0.699
 3235SOL     OW10603   0.202   1.680   2.872
 3235SOL    HW110604   0.163   1.752   2.930
 3235SOL    HW210605   0.129   1.638   2.817
 3236SOL     OW10606   5.712   6.391   0.980
 3236SOL    HW110607   5.726   6.367   0.884
 3236SOL    HW210608   5.693   6.309   1.033
 3237SOL     OW10609   6.235   2.449   5.601
 3237SOL    HW110610   6.213   2.351   5.606
 3237SOL    HW210611   6.162   2.497   5.553
 3238SOL     OW10612   0.832   4.514   0.822
 3238SOL    HW110613   0.803   4.437   0.880
 3238SOL    HW210614   0.751   4.568   0.796
 3239SOL     OW10615   6.419   1.649   4.908
 3239SOL    HW110616   6.452   1.596   4.831
 3239SOL    HW210617   6.319   1.647   4.910
 3240SOL     OW10618   0.904   1.664   1.541
 3240SOL    HW110619   0.978   1.605   1.572
 3240SOL    HW210620   0.884   1.733   1.611
 3241SOL     OW10621   6.862   3.019   5.539
 3241SOL    HW110622   6.877   2.957   5.616
 3241SOL    HW210623   6.935   3.006   5.471
 3242SOL     OW10624   0.236   4.638   5.560
 3242SOL    HW110625   0.302   4.706   5.592
 3242SOL    HW210626   0.190   4.597   5.639
 3243SOL     OW10627   6.101   4.891   4.956
 3243SOL    HW110628   6.132   4.795   4.955
 3243SOL    HW210629   6.107   4.926   5.049
 3244SOL     OW10630   4.912   7.001   6.869
 3244SOL    HW110631   4.920   0.017   6.962
 3244SOL    HW210632   4.816   6.993   6.844
 3245SOL     OW10633   1.854   6.222   4.533
 3245SOL    HW110634   1.941   6.264   4.505
 3245SOL    HW210635   1.851   6.127   4.500
 3246SOL     OW10636   6.341   5.338   1.932
 3246SOL    HW110637   6.315   5.265   1.868
 3246SOL    HW210638   6.260   5.392   1.956
 3247SOL     OW10639   2.322   4.257   4.663
 3247SOL    HW110640   2.278   4.176   4.623
 3247SOL    HW210641   2.374   4.230   4.744
 3248SOL     OW10642   6.059   2.583   3.890
 3248SOL    HW110643   6.066   2.483   3.890
 3248SOL    HW210644   6.050   2.615   3.984
 3249SOL     OW10645   3.952   3.860   4.076
 3249SOL    HW110646   3.898   3.812   4.145
 3249SOL    HW210647   4.045   3.872   4.110
 3250SOL     OW10648   4.343   5.499   3.250
 3250SOL    HW110649   4.336   5.571   3.181
 3250SOL    HW210650   4.308   5.533   3.337
 3251SOL     OW10651   2.170   2.438   1.952
 3251SOL    HW110652   2.082   2.484   1.938
 3251SOL    HW210653   2.244   2.504   1.944
 3252SOL     OW10654   1.699   1.412   2.634
 3252SOL    HW110655   1.641   1.330   2.629
 3252SOL    HW210656   1.642   1.494   2.626
 3253SOL     OW10657   6.576   3.059   1.158
 3253SOL    HW110658   6.619   3.139   1.201
 3253SOL    HW210659   6.476   3.070   1.160
 3254SOL     OW10660   5.911   0.053   0.609
 3254SOL    HW110661   5.997   0.082   0.652
 3254SOL    HW210662   5.834   0.097   0.656
 3255SOL     OW10663   3.608   4.859   2.283
 3255SOL    HW110664   3.627   4.828   2.190
 3255SOL    HW210665   3.567   4.950   2.280
 3256SOL     OW10666   5.484   2.501   2.044
 3256SOL    HW110667   5.577   2.468   2.062
 3256SOL    HW210668   5.418   2.434   2.078
 3257SOL     OW10669   2.788   1.492   2.493
 3257SOL    HW110670   2.832   1.580   2.511
 3257SOL    HW210671   2.809   1.463   2.399
 3258SOL     OW10672   6.916   5.465   4.466
 3258SOL    HW110673   6.847   5.440   4.534
 3258SOL    HW210674   6.987   5.520   4.509
 3259SOL     OW10675   6.156   5.321   2.480
 3259SOL    HW110676   6.171   5.401   2.422
 3259SOL    HW210677   6.067   5.281   2.460
 3260SOL     OW10678   3.233   4.880   3.412
 3260SOL    HW110679   3.260   4.865   3.317
 3260SOL    HW210680   3.135   4.865   3.422
 3261SOL     OW10681   6.022   0.530   4.113
 3261SOL    HW110682   5.971   0.505   4.030
 3261SOL    HW210683   5.975   0.494   4.193
 3262SOL     OW10684   3.199   1.982   2.528
 3262SOL    HW110685   3.174   2.060   2.471
 3262SOL    HW210686   3.212   1.901   2.471
 3263SOL     OW10687   5.710   0.456   1.092
 3263SOL    HW110688   5.728   0.542   1.045
 3263SOL    HW210689   5.611   0.441   1.097
 3264SOL     OW10690   1.318   5.084   6.901
 3264SOL    HW110691   1.380   5.030   6.957
 3264SOL    HW210692   1.370   5.152   6.849
 3265SOL     OW10693   6.730   5.578   5.235
 3265SOL    HW110694   6.654   5.546   5.292
 3265SOL    HW210695   6.717   5.544   5.142
 3266SOL     OW10696   3.264   4.860   6.651
 3266SOL    HW110697   3.172   4.822   6.657
 3266SOL    HW210698   3.304   4.864   6.743
 3267SOL     OW10699   2.974   0.289   0.138
 3267SOL    HW110700   3.017   0.335   0.215
 3267SOL    HW210701   2.888   0.336   0.115
 3268SOL     OW10702   5.503   4.063   2.715
 3268SOL    HW110703   5.570   4.097   2.650
 3268SOL    HW210704   5.432   4.132   2.729
 3269SOL     OW10705   2.117   5.496   0.304
 3269SOL    HW110706   2.059   5.423   0.268
 3269SOL    HW210707   2.173   5.461   0.378
 3270SOL     OW10708   1.724   3.041   6.533
 3270SOL    HW110709   1.663   3.085   6.599
 3270SOL    HW210710   1.812   3.020   6.577
 3271SOL     OW10711   1.142   4.250   1.927
 3271SOL    HW110712   1.152   4.150   1.934
 3271SOL    HW210713   1.098   4.272   1.840
 3272SOL     OW10714   3.894   0.247   0.379
 3272SOL    HW110715   3.907   0.305   0.460
 3272SOL    HW210716   3.803   0.204   0.383
 3273SOL     OW10717   4.122   3.911   6.550
 3273SOL    HW110718   4.158   3.818   6.549
 3273SOL    HW210719   4.189   3.973   6.591
 3274SOL     OW10720   4.817   6.957   2.227
 3274SOL    HW110721   4.871   7.018   2.169
 3274SOL    HW210722   4.748   6.911   2.172
 3275SOL     OW10723   4.589   0.185   1.934
 3275SOL    HW110724   4.534   0.104   1.954
 3275SOL    HW210725   4.637   0.172   1.847
 3276SOL     OW10726   6.209   6.253   0.400
 3276SOL    HW110727   6.225   6.340   0.446
 3276SOL    HW210728   6.274   6.243   0.324
 3277SOL     OW10729   4.951   1.173   2.185
 3277SOL    HW110730   4.920   1.213   2.271
 3277SOL    HW210731   4.990   1.083   2.201
 3278SOL     OW10732   4.936   1.210   6.355
 3278SOL    HW110733   4.950   1.210   6.256
 3278SOL    HW210734   5.003   1.270   6.399
 3279SOL     OW10735   4.036   0.155   2.376
 3279SOL    HW110736   3.998   0.143   2.285
 3279SOL    HW210737   4.013   0.246   2.410
 3280SOL     OW10738   0.455   2.342   4.148
 3280SOL    HW110739   0.554   2.328   4.154
 3280SOL    HW210740   0.436   2.428   4.101
 3281SOL     OW10741   5.778   2.489   2.074
 3281SOL    HW110742   5.828   2.572   2.102
 3281SOL    HW210743   5.757   2.495   1.976
 3282SOL     OW10744   6.634   4.801   5.626
 3282SOL    HW110745   6.539   4.774   5.636
 3282SOL    HW210746   6.687   4.765   5.702
 3283SOL     OW10747   3.461   1.404   0.473
 3283SOL    HW110748   3.406   1.330   0.512
 3283SOL    HW210749   3.456   1.485   0.533
 3284SOL     OW10750   2.194   0.899   5.969
 3284SOL    HW110751   2.215   0.868   6.061
 3284SOL    HW210752   2.203   0.823   5.905
 3285SOL     OW10753   4.393   1.569   4.680
 3285SOL    HW110754   4.322   1.592   4.613
 3285SOL    HW210755   4.480   1.555   4.633
 3286SOL     OW10756   1.640   3.964   3.042
 3286SOL    HW110757   1.595   3.938   2.956
 3286SOL    HW210758   1.704   3.893   3.069
 3287SOL     OW10759   3.344   1.549   0.714
 3287SOL    HW110760   3.331   1.635   0.763
 3287SOL    HW210761   3.375   1.478   0.778
 3288SOL     OW10762   2.898   5.428   1.165
 3288SOL    HW110763   2.995   5.445   1.178
 3288SOL    HW210764   2.883   5.330   1.147
 3289SOL     OW10765   5.175   6.971   0.097
 3289SOL    HW110766   5.218   0.010   0.166
 3289SOL    HW210767   5.245   6.928   0.040
 3290SOL     OW10768   0.824   3.920   0.121
 3290SOL    HW110769   0.780   3.867   0.194
 3290SOL    HW210770   0.758   3.984   0.082
 3291SOL     OW10771   5.362   6.656   5.637
 3291SOL    HW110772   5.275   6.705   5.630
 3291SOL    HW210773   5.390   6.651   5.732
 3292SOL     OW10774   0.585   2.891   0.735
 3292SOL    HW110775   0.555   2.917   0.643
 3292SOL    HW210776   0.509   2.845   0.782
 3293SOL     OW10777   6.778   4.833   1.806
 3293SOL    HW110778   6.774   4.783   1.893
 3293SOL    HW210779   6.872   4.858   1.787
 3294SOL     OW10780   3.933   2.921   5.386
 3294SOL    HW110781   3.912   2.982   5.309
 3294SOL    HW210782   3.944   2.827   5.352
 3295SOL     OW10783   1.795   3.769   3.128
 3295SOL    HW110784   1.823   3.735   3.038
 3295SOL    HW210785   1.846   3.722   3.199
 3296SOL     OW10786   2.349   0.892   0.172
 3296SOL    HW110787   2.411   0.860   0.244
 3296SOL    HW210788   2.346   0.823   0.098
 3297SOL     OW10789   2.990   0.647   5.901
 3297SOL    HW110790   2.937   0.705   5.840
 3297SOL    HW210791   2.993   0.554   5.865
 3298SOL     OW10792   3.742   3.982   6.126
 3298SOL    HW110793   3.725   3.899   6.073
 3298SOL    HW210794   3.838   4.008   6.117
 3299SOL     OW10795   2.500   6.819   4.176
 3299SOL    HW110796   2.532   6.733   4.215
 3299SOL    HW210797   2.519   6.821   4.078
 3300SOL     OW10798   1.733   0.973   2.949
 3300SOL    HW110799   1.693   1.062   2.925
 3300SOL    HW210800   1.670   0.900   2.924
 3301SOL     OW10801   1.484   0.828   1.815
 3301SOL    HW110802   1.408   0.884   1.847
 3301SOL    HW210803   1.455   0.774   1.736
 3302SOL     OW10804   1.677   5.006   5.106
 3302SOL    HW110805   1.752   4.977   5.047
 3302SOL    HW210806   1.616   5.066   5.055
 3303SOL     OW10807   4.340   4.192   0.535
 3303SOL    HW110808   4.309   4.149   0.620
 3303SOL    HW210809   4.432   4.158   0.513
 3304SOL     OW10810   2.640   3.956   0.759
 3304SOL    HW110811   2.655   3.911   0.847
 3304SOL    HW210812   2.712   3.929   0.695
 3305SOL     OW10813   3.411   2.603   6.774
 3305SOL    HW110814   3.412   2.700   6.751
 3305SOL    HW210815   3.495   2.580   6.824
 3306SOL     OW10816   2.756   0.327   0.686
 3306SOL    HW110817   2.785   0.231   0.686
 3306SOL    HW210818   2.826   0.384   0.727
 3307SOL     OW10819   1.965   5.582   5.253
 3307SOL    HW110820   2.056   5.544   5.242
 3307SOL    HW210821   1.897   5.517   5.220
 3308SOL     OW10822   5.340   5.031   2.003
 3308SOL    HW110823   5.387   5.043   2.091
 3308SOL    HW210824   5.408   5.032   1.929
 3309SOL     OW10825   5.844   3.297   4.115
 3309SOL    HW110826   5.754   3.255   4.104
 3309SOL    HW210827   5.899   3.242   4.177
 3310SOL     OW10828   6.241   4.328   0.006
 3310SOL    HW110829   6.292   4.391   6.967
 3310SOL    HW210830   6.152   4.366   0.028
 3311SOL     OW10831   1.266   2.817   0.937
 3311SOL    HW110832   1.334   2.752   0.971
 3311SOL    HW210833   1.309   2.906   0.921
 3312SOL     OW10834   5.100   3.701   0.261
 3312SOL    HW110835   5.167   3.638   0.224
 3312SOL    HW210836   5.119   3.794   0.227
 3313SOL     OW10837   0.770   6.455   4.095
 3313SOL    HW110838   0.863   6.417   4.096
 3313SOL    HW210839   0.731   6.447   4.187
 3314SOL     OW10840   3.070   6.186   3.612
 3314SOL    HW110841   3.021   6.262   3.655
 3314SOL    HW210842   3.004   6.123   3.571
 3315SOL     OW10843   0.775   6.764   4.057
 3315SOL    HW110844   0.780   6.664   4.058
 3315SOL    HW210845   0.866   6.803   4.074
 3316SOL     OW10846   4.169   1.568   0.869
 3316SOL    HW110847   4.220   1.594   0.788
 3316SOL    HW210848   4.126   1.479   0.855
 3317SOL     OW10849   5.892   2.352   1.151
 3317SOL    HW110850   5.913   2.256   1.170
 3317SOL    HW210851   5.947   2.384   1.074
 3318SOL     OW10852   4.102   2.689   0.754
 3318SOL    HW110853   4.005   2.699   0.732
 3318SOL    HW210854   4.139   2.777   0.782
 3319SOL     OW10855   6.247   6.377   4.278
 3319SOL    HW110856   6.211   6.399   4.369
 3319SOL    HW210857   6.312   6.448   4.250
 3320SOL     OW10858   6.493   0.669   3.060
 3320SOL    HW110859   6.523   0.574   3.056
 3320SOL    HW210860   6.568   0.728   3.031
 3321SOL     OW10861   4.856   1.541   6.566
 3321SOL    HW110862   4.799   1.471   6.524
 3321SOL    HW210863   4.942   1.549   6.515
 3322SOL     OW10864   5.892   3.583   1.911
 3322SOL    HW110865   5.914   3.674   1.946
 3322SOL    HW210866   5.945   3.565   1.829
 3323SOL     OW10867   0.137   0.594   1.985
 3323SOL    HW110868   0.122   0.648   1.902
 3323SOL    HW210869   0.235   0.585   2.002
 3324SOL     OW10870   6.459   5.629   6.413
 3324SOL    HW110871   6.475   5.561   6.484
 3324SOL    HW210872   6.409   5.587   6.337
 3325SOL     OW10873   2.310   5.608   6.321
 3325SOL    HW110874   2.390   5.639   6.270
 3325SOL    HW210875   2.300   5.509   6.312
 3326SOL     OW10876   3.977   1.307   1.623
 3326SOL    HW110877   4.028   1.391   1.606
 3326SOL    HW210878   3.889   1.311   1.576
 3327SOL     OW10879   1.685   6.152   6.012
 3327SOL    HW110880   1.760   6.205   6.053
 3327SOL    HW210881   1.598   6.189   6.043
 3328SOL     OW10882   4.070   2.711   5.594
 3328SOL    HW110883   4.078   2.807   5.618
 3328SOL    HW210884   4.088   2.699   5.496
 3329SOL     OW10885   6.862   6.354   5.890
 3329SOL    HW110886   6.961   6.360   5.905
 3329SOL    HW210887   6.815   6.352   5.978
 3330SOL     OW10888   6.701   3.181   3.587
 3330SOL    HW110889   6.775   3.247   3.600
 3330SOL    HW210890   6.705   3.111   3.658
 3331SOL     OW10891   2.117   3.336   0.727
 3331SOL    HW110892   2.115   3.314   0.630
 3331SOL    HW210893   2.198   3.390   0.748
 3332SOL     OW10894   6.911   4.243   1.953
 3332SOL    HW110895   6.939   4.339   1.955
 3332SOL    HW210896   6.842   4.230   1.882
 3333SOL     OW10897   3.229   6.061   5.304
 3333SOL    HW110898   3.211   6.154   5.336
 3333SOL    HW210899   3.216   6.057   5.204
 3334SOL     OW10900   1.479   2.655   0.996
 3334SOL    HW110901   1.489   2.651   0.897
 3334SOL    HW210902   1.525   2.576   1.038
 3335SOL     OW10903   5.732   4.338   5.173
 3335SOL    HW110904   5.747   4.287   5.088
 3335SOL    HW210905   5.634   4.354   5.185
 3336SOL     OW10906   3.537   6.165   5.591
 3336SOL    HW110907   3.485   6.199   5.513
 3336SOL    HW210908   3.491   6.085   5.629
 3337SOL     OW10909   3.824   0.883   1.176
 3337SOL    HW110910   3.897   0.853   1.114
 3337SOL    HW210911   3.772   0.957   1.132
 3338SOL     OW10912   6.448   5.363   0.509
 3338SOL    HW110913   6.475   5.454   0.479
 3338SOL    HW210914   6.471   5.297   0.437
 3339SOL     OW10915   0.421   4.915   6.726
 3339SOL    HW110916   0.500   4.975   6.739
 3339SOL    HW210917   0.388   4.923   6.632
 3340SOL     OW10918   4.075   0.958   1.926
 3340SOL    HW110919   4.022   0.921   2.002
 3340SOL    HW210920   4.100   0.884   1.864
 3341SOL     OW10921   1.242   0.174   6.770
 3341SOL    HW110922   1.236   0.191   6.672
 3341SOL    HW210923   1.337   0.187   6.800
 3342SOL     OW10924   1.273   6.661   5.188
 3342SOL    HW110925   1.370   6.670   5.165
 3342SOL    HW210926   1.261   6.667   5.287
 3343SOL     OW10927   0.377   2.450   0.749
 3343SOL    HW110928   0.389   2.456   0.649
 3343SOL    HW210929   0.280   2.444   0.770
 3344SOL     OW10930   1.306   2.102   6.750
 3344SOL    HW110931   1.235   2.113   6.681
 3344SOL    HW210932   1.330   2.005   6.758
 3345SOL     OW10933   2.925   2.786   6.254
 3345SOL    HW110934   2.989   2.726   6.302
 3345SOL    HW210935   2.974   2.866   6.218
 3346SOL     OW10936   2.823   5.637   2.651
 3346SOL    HW110937   2.754   5.577   2.692
 3346SOL    HW210938   2.789   5.731   2.650
 3347SOL     OW10939   5.820   4.145   3.593
 3347SOL    HW110940   5.903   4.201   3.594
 3347SOL    HW210941   5.801   4.112   3.686
 3348SOL     OW10942   4.128   3.677   3.491
 3348SOL    HW110943   4.073   3.757   3.517
 3348SOL    HW210944   4.106   3.650   3.398
 3349SOL     OW10945   5.243   2.525   0.813
 3349SOL    HW110946   5.289   2.504   0.899
 3349SOL    HW210947   5.176   2.598   0.827
 3350SOL     OW10948   2.646   3.004   1.723
 3350SOL    HW110949   2.713   3.056   1.775
 3350SOL    HW210950   2.688   2.921   1.685
 3351SOL     OW10951   6.238   2.873   0.997
 3351SOL    HW110952   6.310   2.919   0.945
 3351SOL    HW210953   6.228   2.917   1.086
 3352SOL     OW10954   0.370   4.203   0.951
 3352SOL    HW110955   0.379   4.208   1.051
 3352SOL    HW210956   0.284   4.157   0.928
 3353SOL     OW10957   1.092   6.224   6.114
 3353SOL    HW110958   1.098   6.193   6.019
 3353SOL    HW210959   1.027   6.300   6.121
 3354SOL     OW10960   0.380   6.512   2.108
 3354SOL    HW110961   0.347   6.516   2.014
 3354SOL    HW210962   0.316   6.560   2.168
 3355SOL     OW10963   5.773   1.139   2.621
 3355SOL    HW110964   5.701   1.115   2.686
 3355SOL    HW210965   5.856   1.163   2.671
 3356SOL     OW10966   1.510   3.859   6.862
 3356SOL    HW110967   1.514   3.784   6.796
 3356SOL    HW210968   1.425   3.854   6.914
 3357SOL     OW10969   2.816   5.905   2.694
 3357SOL    HW110970   2.914   5.899   2.676
 3357SOL    HW210971   2.799   5.977   2.761
 3358SOL     OW10972   0.404   3.726   3.417
 3358SOL    HW110973   0.497   3.760   3.427
 3358SOL    HW210974   0.393   3.686   3.326
 3359SOL     OW10975   2.646   1.957   1.584
 3359SOL    HW110976   2.598   2.011   1.653
 3359SOL    HW210977   2.721   2.012   1.546
 3360SOL     OW10978   2.407   1.198   6.358
 3360SOL    HW110979   2.364   1.115   6.394
 3360SOL    HW210980   2.421   1.189   6.260
 3361SOL     OW10981   2.327   0.984   2.975
 3361SOL    HW110982   2.409   1.005   3.027
 3361SOL    HW210983   2.261   1.059   2.983
 3362SOL     OW10984   3.029   2.012   4.492
 3362SOL    HW110985   3.047   2.053   4.403
 3362SOL    HW210986   2.984   2.078   4.551
 3363SOL     OW10987   6.774   0.780   0.425
 3363SOL    HW110988   6.702   0.808   0.490
 3363SOL    HW210989   6.740   0.788   0.332
 3364SOL     OW10990   1.447   5.441   5.163
 3364SOL    HW110991   1.406   5.464   5.251
 3364SOL    HW210992   1.510   5.514   5.136
 3365SOL     OW10993   6.347   2.277   5.183
 3365SOL    HW110994   6.436   2.322   5.170
 3365SOL    HW210995   6.361   2.185   5.219
 3366SOL     OW10996   4.853   1.230   0.196
 3366SOL    HW110997   4.918   1.305   0.184
 3366SOL    HW210998   4.774   1.262   0.249
 3367SOL     OW10999   1.704   0.129   2.067
 3367SOL    HW111000   1.639   0.202   2.047
 3367SOL    HW211001   1.676   0.081   2.151
 3368SOL     OW11002   6.177   1.359   4.644
 3368SOL    HW111003   6.104   1.298   4.612
 3368SOL    HW211004   6.260   1.343   4.591
 3369SOL     OW11005   3.973   5.284   6.586
 3369SOL    HW111006   4.042   5.267   6.657
 3369SOL    HW211007   3.896   5.332   6.626
 3370SOL     OW11008   5.918   0.960   5.647
 3370SOL    HW111009   5.998   0.993   5.697
 3370SOL    HW211010   5.894   1.025   5.575
 3371SOL     OW11011   6.607   5.043   1.275
 3371SOL    HW111012   6.526   4.998   1.313
 3371SOL    HW211013   6.681   5.039   1.342
 3372SOL     OW11014   1.556   2.973   2.610
 3372SOL    HW111015   1.619   2.949   2.685
 3372SOL    HW211016   1.493   2.897   2.595
 3373SOL     OW11017   1.177   2.850   6.225
 3373SOL    HW111018   1.158   2.787   6.150
 3373SOL    HW211019   1.095   2.860   6.281
 3374SOL     OW11020   3.535   6.232   5.182
 3374SOL    HW111021   3.553   6.311   5.241
 3374SOL    HW211022   3.443   6.239   5.144
 3375SOL     OW11023   3.083   4.037   5.065
 3375SOL    HW111024   2.986   4.014   5.051
 3375SOL    HW211025   3.126   4.054   4.976
 3376SOL     OW11026   3.641   2.893   1.294
 3376SOL    HW111027   3.551   2.918   1.258
 3376SOL    HW211028   3.630   2.823   1.365
 3377SOL     OW11029   2.550   5.034   6.182
 3377SOL    HW111030   2.561   4.938   6.155
 3377SOL    HW211031   2.640   5.073   6.203
 3378SOL     OW11032   6.731   1.398   0.805
 3378SOL    HW111033   6.746   1.373   0.901
 3378SOL    HW211034   6.791   1.474   0.781
 3379SOL     OW11035   6.023   5.203   5.627
 3379SOL    HW111036   6.108   5.155   5.648
 3379SOL    HW211037   6.001   5.190   5.531
 3380SOL     OW11038   1.119   3.798   5.200
 3380SOL    HW111039   1.096   3.895   5.205
 3380SOL    HW211040   1.039   3.743   5.227
 3381SOL     OW11041   3.034   2.234   1.217
 3381SOL    HW111042   3.131   2.218   1.234
 3381SOL    HW211043   3.010   2.199   1.126
 3382SOL     OW11044   6.805   6.479   0.156
 3382SOL    HW111045   6.814   6.572   0.120
 3382SOL    HW211046   6.722   6.472   0.210
 3383SOL     OW11047   0.721   3.850   1.748
 3383SOL    HW111048   0.786   3.883   1.817
 3383SOL    HW211049   0.671   3.771   1.784
 3384SOL     OW11050   3.309   3.653   3.195
 3384SOL    HW111051   3.405   3.626   3.204
 3384SOL    HW211052   3.265   3.599   3.124
 3385SOL     OW11053   0.138   4.279   3.645
 3385SOL    HW111054   0.161   4.287   3.548
 3385SOL    HW211055   0.039   4.285   3.657
 3386SOL     OW11056   5.511   4.274   4.063
 3386SOL    HW111057   5.528   4.264   3.965
 3386SOL    HW211058   5.545   4.193   4.112
 3387SOL     OW11059   3.512   1.503   2.360
 3387SOL    HW111060   3.422   1.529   2.327
 3387SOL    HW211061   3.561   1.452   2.290
 3388SOL     OW11062   5.841   1.441   1.127
 3388SOL    HW111063   5.886   1.446   1.038
 3388SOL    HW211064   5.742   1.455   1.115
 3389SOL     OW11065   4.086   5.156   2.205
 3389SOL    HW111066   4.160   5.210   2.164
 3389SOL    HW211067   4.026   5.216   2.258
 3390SOL     OW11068   4.055   1.817   5.836
 3390SOL    HW111069   4.064   1.746   5.906
 3390SOL    HW211070   4.027   1.776   5.750
 3391SOL     OW11071   3.175   1.401   4.219
 3391SOL    HW111072   3.081   1.435   4.207
 3391SOL    HW211073   3.179   1.343   4.300
 3392SOL     OW11074   5.415   6.293   4.106
 3392SOL    HW111075   5.473   6.369   4.135
 3392SOL    HW211076   5.447   6.257   4.019
 3393SOL     OW11077   6.802   0.249   6.124
 3393SOL    HW111078   6.777   0.296   6.208
 3393SOL    HW211079   6.722   0.200   6.089
 3394SOL     OW11080   5.155   1.567   2.022
 3394SOL    HW111081   5.230   1.543   2.084
 3394SOL    HW211082   5.071   1.580   2.073
 3395SOL     OW11083   1.888   3.850   5.316
 3395SOL    HW111084   1.791   3.869   5.299
 3395SOL    HW211085   1.925   3.921   5.377
 3396SOL     OW11086   6.128   3.759   3.990
 3396SOL    HW111087   6.191   3.708   4.048
 3396SOL    HW211088   6.087   3.697   3.923
 3397SOL     OW11089   3.206   5.496   6.321
 3397SOL    HW111090   3.305   5.509   6.319
 3397SOL    HW211091   3.162   5.567   6.267
 3398SOL     OW11092   0.704   1.799   4.360
 3398SOL    HW111093   0.679   1.713   4.405
 3398SOL    HW211094   0.722   1.782   4.263
 3399SOL     OW11095   3.627   5.769   4.624
 3399SOL    HW111096   3.670   5.746   4.536
 3399SOL    HW211097   3.529   5.749   4.619
 3400SOL     OW11098   5.069   1.982   0.488
 3400SOL    HW111099   5.037   2.058   0.544
 3400SOL    HW211100   5.131   1.925   0.542
 3401SOL     OW11101   6.637   4.695   6.975
 3401SOL    HW111102   6.547   4.722   7.011
 3401SOL    HW211103   6.636   4.703   6.876
 3402SOL     OW11104   4.099   4.778   1.941
 3402SOL    HW111105   4.021   4.774   1.879
 3402SOL    HW211106   4.067   4.792   2.034
 3403SOL     OW11107   3.719   1.702   6.386
 3403SOL    HW111108   3.636   1.662   6.425
 3403SOL    HW211109   3.792   1.633   6.385
 3404SOL     OW11110   4.344   5.627   2.023
 3404SOL    HW111111   4.301   5.712   1.995
 3404SOL    HW211112   4.440   5.644   2.044
 3405SOL     OW11113   6.055   4.094   0.288
 3405SOL    HW111114   6.013   4.034   0.219
 3405SOL    HW211115   6.064   4.186   0.250
 3406SOL     OW11116   0.764   3.115   1.694
 3406SOL    HW111117   0.800   3.089   1.604
 3406SOL    HW211118   0.823   3.076   1.765
 3407SOL     OW11119   0.922   5.762   2.533
 3407SOL    HW111120   0.968   5.816   2.463
 3407SOL    HW211121   0.884   5.823   2.602
 3408SOL     OW11122   5.402   3.590   2.198
 3408SOL    HW111123   5.335   3.530   2.241
 3408SOL    HW211124   5.486   3.539   2.181
 3409SOL     OW11125   2.871   1.545   0.337
 3409SOL    HW111126   2.918   1.480   0.277
 3409SOL    HW211127   2.804   1.496   0.393
 3410SOL     OW11128   0.563   1.667   0.261
 3410SOL    HW111129   0.656   1.695   0.282
 3410SOL    HW211130   0.546   1.680   0.163
 3411SOL     OW11131   4.969   1.739   2.521
 3411SOL    HW111132   4.870   1.737   2.509
 3411SOL    HW211133   5.014   1.705   2.438
 3412SOL     OW11134   4.343   4.877   6.829
 3412SOL    HW111135   4.433   4.870   6.786
 3412SOL    HW211136   4.308   4.785   6.848
 3413SOL     OW11137   4.984   1.155   2.696
 3413SOL    HW111138   4.989   1.055   2.686
 3413SOL    HW211139   4.902   1.179   2.747
 3414SOL     OW11140   4.151   0.479   5.374
 3414SOL    HW111141   4.145   0.548   5.446
 3414SOL    HW211142   4.135   0.522   5.285
 3415SOL     OW11143   1.597   6.215   5.707
 3415SOL    HW111144   1.592   6.191   5.804
 3415SOL    HW211145   1.513   6.188   5.661
 3416SOL     OW11146   1.470   4.686   5.402
 3416SOL    HW111147   1.476   4.771   5.453
 3416SOL    HW211148   1.380   4.645   5.417
 3417SOL     OW11149   5.210   0.918   1.322
 3417SOL    HW111150   5.275   0.847   1.297
 3417SOL    HW211151   5.189   0.911   1.420
 3418SOL     OW11152   2.946   2.107   5.719
 3418SOL    HW111153   2.851   2.128   5.698
 3418SOL    HW211154   2.962   2.009   5.704
 3419SOL     OW11155   4.441   3.367   6.096
 3419SOL    HW111156   4.478   3.327   6.180
 3419SOL    HW211157   4.433   3.466   6.108
 3420SOL     OW11158   2.869   0.588   5.082
 3420SOL    HW111159   2.818   0.670   5.107
 3420SOL    HW211160   2.940   0.571   5.150
 3421SOL     OW11161   1.013   6.543   2.798
 3421SOL    HW111162   1.060   6.472   2.747
 3421SOL    HW211163   0.948   6.502   2.862
 3422SOL     OW11164   3.284   2.106   3.005
 3422SOL    HW111165   3.271   2.010   3.027
 3422SOL    HW211166   3.198   2.145   2.971
 3423SOL     OW11167   3.502   0.903   1.616
 3423SOL    HW111168   3.486   0.885   1.713
 3423SOL    HW211169   3.584   0.960   1.606
 3424SOL     OW11170   4.583   1.717   0.915
 3424SOL    HW111171   4.557   1.789   0.850
 3424SOL    HW211172   4.507   1.698   0.976
 3425SOL     OW11173   4.089   3.765   1.543
 3425SOL    HW111174   4.141   3.722   1.617
 3425SOL    HW211175   4.152   3.817   1.484
 3426SOL     OW11176   5.094   3.823   0.827
 3426SOL    HW111177   5.082   3.808   0.729
 3426SOL    HW211178   5.176   3.878   0.842
 3427SOL     OW11179   0.872   1.755   0.598
 3427SOL    HW111180   0.930   1.743   0.517
 3427SOL    HW211181   0.780   1.720   0.578
 3428SOL     OW11182   4.835   4.560   3.290
 3428SOL    HW111183   4.744   4.524   3.267
 3428SOL    HW211184   4.845   4.563   3.389
 3429SOL     OW11185   0.490   2.951   0.441
 3429SOL    HW111186   0.516   2.942   0.345
 3429SOL    HW211187   0.456   3.043   0.459
 3430SOL     OW11188   0.601   5.540   6.975
 3430SOL    HW111189   0.628   5.563   0.049
 3430SOL    HW211190   0.561   5.448   6.974
 3431SOL     OW11191   1.166   5.919   6.482
 3431SOL    HW111192   1.101   5.979   6.435
 3431SOL    HW211193   1.167   5.941   6.579
 3432SOL     OW11194   3.623   1.893   6.192
 3432SOL    HW111195   3.655   1.832   6.265
 3432SOL    HW211196   3.695   1.904   6.124
 3433SOL     OW11197   3.912   1.347   4.968
 3433SOL    HW111198   3.828   1.397   4.947
 3433SOL    HW211199   3.969   1.341   4.887
 3434SOL     OW11200   4.193   1.368   3.324
 3434SOL    HW111201   4.186   1.428   3.403
 3434SOL    HW211202   4.256   1.293   3.346
 3435SOL     OW11203   0.583   1.201   6.668
 3435SOL    HW111204   0.513   1.157   6.725
 3435SOL    HW211205   0.553   1.200   6.573
 3436SOL     OW11206   4.102   6.548   1.911
 3436SOL    HW111207   4.118   6.503   1.998
 3436SOL    HW211208   4.039   6.493   1.855
 3437SOL     OW11209   4.199   0.240   0.017
 3437SOL    HW111210   4.128   0.169   0.027
 3437SOL    HW211211   4.173   0.320   0.071
 3438SOL     OW11212   0.515   5.323   6.708
 3438SOL    HW111213   0.563   5.402   6.746
 3438SOL    HW211214   0.418   5.326   6.736
 3439SOL     OW11215   2.586   0.483   3.909
 3439SOL    HW111216   2.602   0.581   3.896
 3439SOL    HW211217   2.512   0.471   3.975
 3440SOL     OW11218   3.737   2.104   0.625
 3440SOL    HW111219   3.702   2.196   0.607
 3440SOL    HW211220   3.837   2.107   0.626
 3441SOL     OW11221   4.585   0.063   4.193
 3441SOL    HW111222   4.501   0.085   4.145
 3441SOL    HW211223   4.565   0.043   4.289
 3442SOL     OW11224   0.870   5.550   3.275
 3442SOL    HW111225   0.967   5.534   3.257
 3442SOL    HW211226   0.860   5.628   3.337
 3443SOL     OW11227   5.926   6.606   4.120
 3443SOL    HW111228   5.890   6.512   4.123
 3443SOL    HW211229   5.973   6.625   4.206
 3444SOL     OW11230   3.600   5.329   6.942
 3444SOL    HW111231   3.671   5.319   7.011
 3444SOL    HW211232   3.553   5.417   6.954
 3445SOL     OW11233   6.209   4.880   5.435
 3445SOL    HW111234   6.262   4.965   5.434
 3445SOL    HW211235   6.270   4.802   5.448
 3446SOL     OW11236   2.486   5.917   1.742
 3446SOL    HW111237   2.456   5.942   1.649
 3446SOL    HW211238   2.564   5.975   1.767
 3447SOL     OW11239   5.945   4.545   5.469
 3447SOL    HW111240   5.872   4.478   5.485
 3447SOL    HW211241   6.033   4.506   5.495
 3448SOL     OW11242   4.034   3.279   0.501
 3448SOL    HW111243   4.046   3.215   0.425
 3448SOL    HW211244   3.990   3.231   0.577
 3449SOL     OW11245   5.871   5.980   3.218
 3449SOL    HW111246   5.824   6.067   3.205
 3449SOL    HW211247   5.969   5.994   3.211
 3450SOL     OW11248   0.715   1.563   0.902
 3450SOL    HW111249   0.681   1.528   0.815
 3450SOL    HW211250   0.735   1.661   0.893
 3451SOL     OW11251   2.075   5.297   4.566
 3451SOL    HW111252   1.985   5.256   4.554
 3451SOL    HW211253   2.146   5.230   4.544
 3452SOL     OW11254   6.744   1.943   0.397
 3452SOL    HW111255   6.722   2.011   0.467
 3452SOL    HW211256   6.822   1.888   0.426
 3453SOL     OW11257   6.210   5.147   5.122
 3453SOL    HW111258   6.306   5.171   5.111
 3453SOL    HW211259   6.155   5.197   5.055
 3454SOL     OW11260   6.725   1.148   0.664
 3454SOL    HW111261   6.745   1.220   0.730
 3454SOL    HW211262   6.733   1.059   0.707
 3455SOL     OW11263   1.463   2.853   3.089
 3455SOL    HW111264   1.452   2.937   3.142
 3455SOL    HW211265   1.419   2.863   3.000
 3456SOL     OW11266   6.346   0.410   0.357
 3456SOL    HW111267   6.316   0.314   0.356
 3456SOL    HW211268   6.331   0.450   0.267
 3457SOL     OW11269   1.808   6.475   3.317
 3457SOL    HW111270   1.803   6.574   3.302
 3457SOL    HW211271   1.718   6.435   3.303
 3458SOL     OW11272   4.681   5.025   0.211
 3458SOL    HW111273   4.584   5.007   0.227
 3458SOL    HW211274   4.717   4.961   0.143
 3459SOL     OW11275   6.515   6.948   3.014
 3459SOL    HW111276   6.577   7.008   2.963
 3459SOL    HW211277   6.485   6.995   3.097
 3460SOL     OW11278   4.768   3.052   0.699
 3460SOL    HW111279   4.730   3.002   0.621
 3460SOL    HW211280   4.720   3.139   0.710
 3461SOL     OW11281   2.294   6.031   3.124
 3461SOL    HW111282   2.378   6.068   3.164
 3461SOL    HW211283   2.223   6.026   3.194
 3462SOL     OW11284   4.990   2.397   2.810
 3462SOL    HW111285   5.011   2.486   2.768
 3462SOL    HW211286   5.060   2.375   2.878
 3463SOL     OW11287   1.144   2.994   1.276
 3463SOL    HW111288   1.130   2.899   1.248
 3463SOL    HW211289   1.156   3.051   1.196
 3464SOL     OW11290   5.226   1.384   6.148
 3464SOL    HW111291   5.289   1.307   6.132
 3464SOL    HW211292   5.273   1.453   6.203
 3465SOL     OW11293   2.167   4.488   1.374
 3465SOL    HW111294   2.160   4.396   1.415
 3465SOL    HW211295   2.076   4.527   1.363
 3466SOL     OW11296   6.521   3.686   4.180
 3466SOL    HW111297   6.503   3.784   4.189
 3466SOL    HW211298   6.526   3.644   4.271
 3467SOL     OW11299   3.315   3.519   0.297
 3467SOL    HW111300   3.251   3.446   0.318
 3467SOL    HW211301   3.320   3.583   0.374
 3468SOL     OW11302   4.513   1.455   1.607
 3468SOL    HW111303   4.443   1.430   1.540
 3468SOL    HW211304   4.501   1.401   1.690
 3469SOL     OW11305   3.756   5.446   5.537
 3469SOL    HW111306   3.751   5.371   5.472
 3469SOL    HW211307   3.762   5.533   5.488
 3470SOL     OW11308   1.106   2.670   0.763
 3470SOL    HW111309   1.007   2.686   0.773
 3470SOL    HW211310   1.156   2.737   0.818
 3471SOL     OW11311   5.157   3.041   5.038
 3471SOL    HW111312   5.191   2.964   4.983
 3471SOL    HW211313   5.235   3.096   5.068
 3472SOL     OW11314   4.515   1.726   1.999
 3472SOL    HW111315   4.598   1.777   2.022
 3472SOL    HW211316   4.470   1.696   2.084
 3473SOL     OW11317   6.355   4.455   1.847
 3473SOL    HW111318   6.425   4.512   1.804
 3473SOL    HW211319   6.278   4.444   1.785
 3474SOL     OW11320   4.901   3.736   3.600
 3474SOL    HW111321   4.865   3.745   3.692
 3474SOL    HW211322   4.953   3.818   3.576
 3475SOL     OW11323   6.845   3.919   4.070
 3475SOL    HW111324   6.820   3.929   4.166
 3475SOL    HW211325   6.803   3.836   4.033
 3476SOL     OW11326   1.947   3.005   2.984
 3476SOL    HW111327   1.897   3.048   2.909
 3476SOL    HW211328   2.043   3.032   2.979
 3477SOL     OW11329   1.502   4.153   1.975
 3477SOL    HW111330   1.470   4.177   1.884
 3477SOL    HW211331   1.509   4.236   2.031
 3478SOL     OW11332   2.525   0.715   1.260
 3478SOL    HW111333   2.567   0.724   1.170
 3478SOL    HW211334   2.532   0.802   1.309
 3479SOL     OW11335   1.514   3.917   5.742
 3479SOL    HW111336   1.469   3.845   5.795
 3479SOL    HW211337   1.558   3.877   5.662
 3480SOL     OW11338   1.032   5.213   6.899
 3480SOL    HW111339   0.997   5.299   6.935
 3480SOL    HW211340   1.118   5.190   6.944
 3481SOL     OW11341   5.941   1.212   4.884
 3481SOL    HW111342   5.844   1.197   4.863
 3481SOL    HW211343   5.997   1.163   4.818
 3482SOL     OW11344   5.996   2.877   6.122
 3482SOL    HW111345   6.054   2.908   6.197
 3482SOL    HW211346   6.004   2.777   6.114
 3483SOL     OW11347   5.094   2.388   4.836
 3483SOL    HW111348   5.177   2.358   4.883
 3483SOL    HW211349   5.101   2.367   4.739
 3484SOL     OW11350   0.980   2.810   4.560
 3484SOL    HW111351   0.974   2.889   4.498
 3484SOL    HW211352   1.066   2.815   4.611
 3485SOL     OW11353   6.641   4.081   6.815
 3485SOL    HW111354   6.548   4.054   6.840
 3485SOL    HW211355   6.644   4.104   6.718
 3486SOL     OW11356   1.487   6.542   4.875
 3486SOL    HW111357   1.564   6.605   4.875
 3486SOL    HW211358   1.519   6.449   4.897
 3487SOL     OW11359   4.223   1.643   6.696
 3487SOL    HW111360   4.313   1.647   6.738
 3487SOL    HW211361   4.153   1.663   6.766
 3488SOL     OW11362   4.987   6.197   5.363
 3488SOL    HW111363   5.029   6.106   5.370
 3488SOL    HW211364   4.899   6.189   5.317
 3489SOL     OW11365   3.558   6.102   0.722
 3489SOL    HW111366   3.587   6.187   0.766
 3489SOL    HW211367   3.635   6.060   0.675
 3490SOL     OW11368   4.462   6.988   0.825
 3490SOL    HW111369   4.515   6.904   0.817
 3490SOL    HW211370   4.431   6.999   0.920
 3491SOL     OW11371   4.768   4.237   5.559
 3491SOL    HW111372   4.849   4.286   5.592
 3491SOL    HW211373   4.686   4.288   5.583
 3492SOL     OW11374   5.716   3.654   3.496
 3492SOL    HW111375   5.698   3.741   3.543
 3492SOL    HW211376   5.669   3.580   3.545
 3493SOL     OW11377   0.678   3.852   6.043
 3493SOL    HW111378   0.611   3.841   5.969
 3493SOL    HW211379   0.769   3.865   6.003
 3494SOL     OW11380   4.507   1.234   2.895
 3494SOL    HW111381   4.418   1.220   2.939
 3494SOL    HW211382   4.505   1.319   2.842
 3495SOL     OW11383   2.022   3.675   3.734
 3495SOL    HW111384   2.030   3.771   3.762
 3495SOL    HW211385   1.926   3.655   3.713
 3496SOL     OW11386   6.256   5.701   0.851
 3496SOL    HW111387   6.201   5.624   0.882
 3496SOL    HW211388   6.351   5.688   0.878
 3497SOL     OW11389   3.359   0.258   1.485
 3497SOL    HW111390   3.339   0.354   1.505
 3497SOL    HW211391   3.284   0.200   1.520
 3498SOL     OW11392   2.584   2.628   1.528
 3498SOL    HW111393   2.583   2.529   1.513
 3498SOL    HW211394   2.545   2.674   1.449
 3499SOL     OW11395   5.992   6.857   4.947
 3499SOL    HW111396   5.992   6.922   5.023
 3499SOL    HW211397   6.073   6.799   4.953
 3500SOL     OW11398   3.001   2.180   3.779
 3500SOL    HW111399   3.056   2.151   3.701
 3500SOL    HW211400   2.920   2.229   3.746
 3501SOL     OW11401   1.524   6.849   6.267
 3501SOL    HW111402   1.484   6.823   6.355
 3501SOL    HW211403   1.452   6.848   6.197
 3502SOL     OW11404   5.369   2.283   2.249
 3502SOL    HW111405   5.301   2.209   2.255
 3502SOL    HW211406   5.445   2.254   2.190
 3503SOL     OW11407   0.735   6.066   6.430
 3503SOL    HW111408   0.834   6.076   6.438
 3503SOL    HW211409   0.704   6.109   6.345
 3504SOL     OW11410   2.128   0.813   6.784
 3504SOL    HW111411   2.135   0.909   6.813
 3504SOL    HW211412   2.037   0.778   6.806
 3505SOL     OW11413   5.221   2.463   5.124
 3505SOL    HW111414   5.160   2.439   5.200
 3505SOL    HW211415   5.171   2.519   5.058
 3506SOL     OW11416   3.969   4.908   4.836
 3506SOL    HW111417   3.914   4.969   4.893
 3506SOL    HW211418   3.915   4.827   4.813
 3507SOL     OW11419   2.890   1.703   1.328
 3507SOL    HW111420   2.806   1.757   1.341
 3507SOL    HW211421   2.960   1.761   1.288
 3508SOL     OW11422   3.713   1.066   6.779
 3508SOL    HW111423   3.777   0.988   6.782
 3508SOL    HW211424   3.622   1.032   6.757
 3509SOL     OW11425   4.397   5.693   6.973
 3509SOL    HW111426   4.333   5.642   0.012
 3509SOL    HW211427   4.415   5.641   6.889
 3510SOL     OW11428   2.614   1.198   1.548
 3510SOL    HW111429   2.693   1.193   1.609
 3510SOL    HW211430   2.539   1.244   1.595
 3511SOL     OW11431   2.692   4.794   1.930
 3511SOL    HW111432   2.620   4.736   1.892
 3511SOL    HW211433   2.774   4.739   1.946
 3512SOL     OW11434   6.648   5.313   6.189
 3512SOL    HW111435   6.575   5.257   6.149
 3512SOL    HW211436   6.727   5.314   6.127
 3513SOL     OW11437   5.014   1.785   0.264
 3513SOL    HW111438   5.062   1.844   0.328
 3513SOL    HW211439   5.081   1.735   0.208
 3514SOL     OW11440   3.515   1.786   2.237
 3514SOL    HW111441   3.521   1.871   2.289
 3514SOL    HW211442   3.528   1.805   2.140
 3515SOL     OW11443   0.415   4.340   3.964
 3515SOL    HW111444   0.401   4.263   3.902
 3515SOL    HW211445   0.495   4.323   4.021
 3516SOL     OW11446   4.315   0.592   1.405
 3516SOL    HW111447   4.340   0.539   1.487
 3516SOL    HW211448   4.398   0.628   1.364
 3517SOL     OW11449   4.899   1.580   2.140
 3517SOL    HW111450   4.915   1.674   2.169
 3517SOL    HW211451   4.805   1.554   2.163
 3518SOL     OW11452   6.310   1.508   5.519
 3518SOL    HW111453   6.276   1.494   5.426
 3518SOL    HW211454   6.234   1.529   5.580
 3519SOL     OW11455   3.240   1.531   1.538
 3519SOL    HW111456   3.292   1.609   1.506
 3519SOL    HW211457   3.283   1.446   1.508
 3520SOL     OW11458   2.515   6.182   4.094
 3520SOL    HW111459   2.507   6.105   4.157
 3520SOL    HW211460   2.448   6.173   4.020
 3521SOL     OW11461   2.263   2.538   5.897
 3521SOL    HW111462   2.225   2.454   5.935
 3521SOL    HW211463   2.223   2.556   5.807
 3522SOL     OW11464   0.844   6.001   6.853
 3522SOL    HW111465   0.879   5.915   6.815
 3522SOL    HW211466   0.859   6.075   6.787
 3523SOL     OW11467   3.667   5.626   6.940
 3523SOL    HW111468   3.636   5.603   0.014
 3523SOL    HW211469   3.687   5.724   6.935
 3524SOL     OW11470   4.425   1.479   4.303
 3524SOL    HW111471   4.357   1.536   4.350
 3524SOL    HW211472   4.401   1.383   4.314
 3525SOL     OW11473   0.470   3.034   3.424
 3525SOL    HW111474   0.425   3.089   3.495
 3525SOL    HW211475   0.534   2.970   3.468
 3526SOL     OW11476   0.026   6.830   1.608
 3526SOL    HW111477   0.058   6.830   1.703
 3526SOL    HW211478   0.069   6.755   1.559
 3527SOL     OW11479   6.442   2.819   0.414
 3527SOL    HW111480   6.461   2.800   0.318
 3527SOL    HW211481   6.522   2.796   0.469
 3528SOL     OW11482   2.216   5.483   5.250
 3528SOL    HW111483   2.279   5.487   5.172
 3528SOL    HW211484   2.186   5.389   5.265
 3529SOL     OW11485   4.612   4.164   0.468
 3529SOL    HW111486   4.602   4.095   0.397
 3529SOL    HW211487   4.674   4.236   0.436
 3530SOL     OW11488   6.579   0.346   0.743
 3530SOL    HW111489   6.664   0.294   0.734
 3530SOL    HW211490   6.584   0.404   0.824
 3531SOL     OW11491   4.363   2.199   0.684
 3531SOL    HW111492   4.267   2.209   0.710
 3531SOL    HW211493   4.399   2.287   0.652
 3532SOL     OW11494   2.292   0.993   1.301
 3532SOL    HW111495   2.260   0.955   1.214
 3532SOL    HW211496   2.222   1.055   1.337
 3533SOL     OW11497   1.910   2.750   2.931
 3533SOL    HW111498   1.934   2.844   2.956
 3533SOL    HW211499   1.827   2.723   2.981
 3534SOL     OW11500   0.388   1.451   0.844
 3534SOL    HW111501   0.386   1.374   0.780
 3534SOL    HW211502   0.354   1.421   0.934
 3535SOL     OW11503   4.310   6.928   3.684
 3535SOL    HW111504   4.315   6.850   3.622
 3535SOL    HW211505   4.402   6.964   3.699
 3536SOL     OW11506   4.155   1.642   4.130
 3536SOL    HW111507   4.121   1.712   4.067
 3536SOL    HW211508   4.170   1.682   4.220
 3537SOL     OW11509   1.808   6.120   2.453
 3537SOL    HW111510   1.814   6.140   2.551
 3537SOL    HW211511   1.755   6.191   2.408
 3538SOL     OW11512   3.329   5.659   1.409
 3538SOL    HW111513   3.367   5.726   1.473
 3538SOL    HW211514   3.235   5.638   1.436
 3539SOL     OW11515   3.409   3.825   4.342
 3539SOL    HW111516   3.426   3.921   4.361
 3539SOL    HW211517   3.318   3.800   4.376
 3540SOL     OW11518   2.086   2.199   3.198
 3540SOL    HW111519   2.027   2.124   3.227
 3540SOL    HW211520   2.181   2.170   3.200
 3541SOL     OW11521   3.992   3.938   4.532
 3541SOL    HW111522   4.045   3.884   4.467
 3541SOL    HW211523   3.899   3.950   4.498
 3542SOL     OW11524   6.759   5.760   1.192
 3542SOL    HW111525   6.796   5.850   1.169
 3542SOL    HW211526   6.673   5.772   1.243
 3543SOL     OW11527   5.111   2.270   4.600
 3543SOL    HW111528   5.028   2.268   4.545
 3543SOL    HW211529   5.165   2.188   4.582
 3544SOL     OW11530   3.419   6.986   6.480
 3544SOL    HW111531   3.418   6.895   6.520
 3544SOL    HW211532   3.508   0.010   6.498
 3545SOL     OW11533   2.947   5.201   0.269
 3545SOL    HW111534   2.994   5.284   0.239
 3545SOL    HW211535   3.013   5.136   0.305
 3546SOL     OW11536   1.233   4.684   2.638
 3546SOL    HW111537   1.267   4.687   2.544
 3546SOL    HW211538   1.134   4.691   2.638
 3547SOL     OW11539   5.111   4.771   3.988
 3547SOL    HW111540   5.022   4.806   3.959
 3547SOL    HW211541   5.100   4.679   4.025
 3548SOL     OW11542   5.919   3.313   5.530
 3548SOL    HW111543   5.891   3.225   5.569
 3548SOL    HW211544   5.838   3.369   5.513
 3549SOL     OW11545   5.148   3.604   2.016
 3549SOL    HW111546   5.052   3.632   2.016
 3549SOL    HW211547   5.155   3.508   1.992
 3550SOL     OW11548   5.097   1.853   3.967
 3550SOL    HW111549   5.006   1.868   4.006
 3550SOL    HW211550   5.094   1.774   3.905
 3551SOL     OW11551   1.858   0.317   2.323
 3551SOL    HW111552   1.940   0.373   2.331
 3551SOL    HW211553   1.876   0.239   2.264
 3552SOL     OW11554   6.634   4.405   3.187
 3552SOL    HW111555   6.625   4.369   3.094
 3552SOL    HW211556   6.546   4.402   3.233
 3553SOL     OW11557   5.806   1.856   3.562
 3553SOL    HW111558   5.802   1.947   3.520
 3553SOL    HW211559   5.886   1.807   3.527
 3554SOL     OW11560   3.783   5.394   6.753
 3554SOL    HW111561   3.733   5.432   6.675
 3554SOL    HW211562   3.719   5.354   6.819
 3555SOL     OW11563   0.956   2.340   3.997
 3555SOL    HW111564   0.999   2.431   4.000
 3555SOL    HW211565   0.987   2.286   4.076
 3556SOL     OW11566   4.273   1.363   6.177
 3556SOL    HW111567   4.257   1.333   6.271
 3556SOL    HW211568   4.281   1.463   6.175
 3557SOL     OW11569   1.310   0.822   3.921
 3557SOL    HW111570   1.368   0.903   3.917
 3557SOL    HW211571   1.249   0.820   3.841
 3558SOL     OW11572   0.296   6.967   1.231
 3558SOL    HW111573   0.309   6.957   1.132
 3558SOL    HW211574   0.207   7.008   1.249
 3559SOL     OW11575   0.775   0.490   5.778
 3559SOL    HW111576   0.753   0.582   5.810
 3559SOL    HW211577   0.722   0.423   5.830
 3560SOL     OW11578   6.561   0.135   1.557
 3560SOL    HW111579   6.661   0.138   1.561
 3560SOL    HW211580   6.525   0.225   1.534
 3561SOL     OW11581   5.743   4.977   3.819
 3561SOL    HW111582   5.791   5.045   3.764
 3561SOL    HW211583   5.729   4.895   3.764
 3562SOL     OW11584   4.198   2.177   2.379
 3562SOL    HW111585   4.131   2.204   2.448
 3562SOL    HW211586   4.276   2.239   2.383
 3563SOL     OW11587   3.959   6.332   1.833
 3563SOL    HW111588   3.912   6.330   1.745
 3563SOL    HW211589   3.968   6.239   1.869
 3564SOL     OW11590   6.438   4.228   2.010
 3564SOL    HW111591   6.411   4.308   1.956
 3564SOL    HW211592   6.419   4.245   2.106
 3565SOL     OW11593   0.655   0.730   5.387
 3565SOL    HW111594   0.714   0.729   5.306
 3565SOL    HW211595   0.711   0.735   5.469
 3566SOL     OW11596   0.845   4.621   5.685
 3566SOL    HW111597   0.846   4.717   5.714
 3566SOL    HW211598   0.937   4.592   5.660
 3567SOL     OW11599   6.630   2.103   1.222
 3567SOL    HW111600   6.727   2.079   1.231
 3567SOL    HW211601   6.605   2.169   1.292
 3568SOL     OW11602   4.900   4.087   3.963
 3568SOL    HW111603   4.922   3.992   3.984
 3568SOL    HW211604   4.980   4.131   3.922
 3569SOL     OW11605   4.078   3.613   3.233
 3569SOL    HW111606   4.088   3.529   3.180
 3569SOL    HW211607   4.059   3.689   3.171
 3570SOL     OW11608   0.477   2.654   5.608
 3570SOL    HW111609   0.447   2.608   5.524
 3570SOL    HW211610   0.543   2.596   5.656
 3571SOL     OW11611   3.139   0.159   4.347
 3571SOL    HW111612   3.163   0.237   4.406
 3571SOL    HW211613   3.054   0.180   4.299
 3572SOL     OW11614   4.574   4.288   2.904
 3572SOL    HW111615   4.545   4.380   2.929
 3572SOL    HW211616   4.495   4.236   2.871
 3573SOL     OW11617   0.453   4.684   3.631
 3573SOL    HW111618   0.547   4.720   3.629
 3573SOL    HW211619   0.392   4.754   3.667
 3574SOL     OW11620   2.037   1.821   6.127
 3574SOL    HW111621   2.108   1.829   6.197
 3574SOL    HW211622   2.066   1.870   6.045
 3575SOL     OW11623   4.827   0.258   6.136
 3575SOL    HW111624   4.847   0.169   6.093
 3575SOL    HW211625   4.905   0.319   6.123
 3576SOL     OW11626   1.001   2.883   0.476
 3576SOL    HW111627   1.056   2.966   0.485
 3576SOL    HW211628   0.952   2.867   0.562
 3577SOL     OW11629   2.140   3.720   4.566
 3577SOL    HW111630   2.175   3.782   4.637
 3577SOL    HW211631   2.116   3.773   4.485
 3578SOL     OW11632   4.709   2.195   0.786
 3578SOL    HW111633   4.693   2.223   0.691
 3578SOL    HW211634   4.632   2.223   0.843
 3579SOL     OW11635   0.590   3.547   2.373
 3579SOL    HW111636   0.629   3.534   2.282
 3579SOL    HW211637   0.603   3.642   2.402
 3580SOL     OW11638   6.733   3.888   1.962
 3580SOL    HW111639   6.795   3.918   2.035
 3580SOL    HW211640   6.717   3.964   1.898
 3581SOL     OW11641   1.687   0.530   2.941
 3581SOL    HW111642   1.711   0.627   2.931
 3581SOL    HW211643   1.771   0.476   2.939
 3582SOL     OW11644   4.462   6.282   6.860
 3582SOL    HW111645   4.515   6.200   6.837
 3582SOL    HW211646   4.460   6.293   6.960
 3583SOL     OW11647   2.158   6.087   0.362
 3583SOL    HW111648   2.168   6.030   0.444
 3583SOL    HW211649   2.134   6.029   0.284
 3584SOL     OW11650   5.398   5.264   4.917
 3584SOL    HW111651   5.390   5.354   4.960
 3584SOL    HW211652   5.368   5.270   4.822
 3585SOL     OW11653   4.344   1.949   3.574
 3585SOL    HW111654   4.439   1.966   3.601
 3585SOL    HW211655   4.313   2.023   3.514
 3586SOL     OW11656   6.887   3.016   5.076
 3586SOL    HW111657   6.838   3.035   5.162
 3586SOL    HW211658   6.898   2.918   5.064
 3587SOL     OW11659   2.218   0.643   5.847
 3587SOL    HW111660   2.168   0.565   5.885
 3587SOL    HW211661   2.294   0.610   5.791
 3588SOL     OW11662   5.954   3.955   4.007
 3588SOL    HW111663   6.033   3.909   3.967
 3588SOL    HW211664   5.934   3.914   4.096
 3589SOL     OW11665   0.120   1.437   6.105
 3589SOL    HW111666   0.117   1.497   6.185
 3589SOL    HW211667   0.046   1.460   6.042
 3590SOL     OW11668   6.178   4.819   5.911
 3590SOL    HW111669   6.197   4.912   5.881
 3590SOL    HW211670   6.110   4.778   5.850
 3591SOL     OW11671   5.019   1.104   0.883
 3591SOL    HW111672   4.950   1.177   0.892
 3591SOL    HW211673   5.027   1.056   0.970
 3592SOL     OW11674   0.576   6.217   1.305
 3592SOL    HW111675   0.619   6.215   1.395
 3592SOL    HW211676   0.610   6.295   1.253
 3593SOL     OW11677   4.094   3.220   5.575
 3593SOL    HW111678   4.160   3.276   5.524
 3593SOL    HW211679   4.110   3.231   5.673
 3594SOL     OW11680   4.375   4.351   5.364
 3594SOL    HW111681   4.405   4.256   5.352
 3594SOL    HW211682   4.314   4.377   5.290
 3595SOL     OW11683   4.732   6.963   5.156
 3595SOL    HW111684   4.831   6.954   5.144
 3595SOL    HW211685   4.691   6.872   5.165
 3596SOL     OW11686   3.330   1.602   1.940
 3596SOL    HW111687   3.384   1.525   1.906
 3596SOL    HW211688   3.275   1.639   1.866
 3597SOL     OW11689   4.063   4.608   5.260
 3597SOL    HW111690   4.134   4.554   5.217
 3597SOL    HW211691   3.999   4.547   5.308
 3598SOL     OW11692   6.312   5.428   4.422
 3598SOL    HW111693   6.362   5.499   4.372
 3598SOL    HW211694   6.360   5.340   4.413
 3599SOL     OW11695   1.866   1.180   5.454
 3599SOL    HW111696   1.808   1.106   5.489
 3599SOL    HW211697   1.874   1.172   5.354
 3600SOL     OW11698   2.080   4.153   1.168
 3600SOL    HW111699   2.106   4.092   1.244
 3600SOL    HW211700   1.981   4.166   1.168
 3601SOL     OW11701   3.068   0.283   5.169
 3601SOL    HW111702   3.078   0.352   5.241
 3601SOL    HW211703   2.971   0.270   5.148
 3602SOL     OW11704   1.442   2.335   0.667
 3602SOL    HW111705   1.437   2.384   0.581
 3602SOL    HW211706   1.381   2.378   0.734
 3603SOL     OW11707   1.272   6.886   5.837
 3603SOL    HW111708   1.302   6.792   5.822
 3603SOL    HW211709   1.178   6.897   5.803
 3604SOL     OW11710   6.711   1.321   4.513
 3604SOL    HW111711   6.620   1.336   4.474
 3604SOL    HW211712   6.753   1.410   4.534
 3605SOL     OW11713   0.877   0.024   4.988
 3605SOL    HW111714   0.810   6.982   4.946
 3605SOL    HW211715   0.915   7.000   5.069
 3606SOL     OW11716   1.868   0.148   2.839
 3606SOL    HW111717   1.850   0.223   2.903
 3606SOL    HW211718   1.782   0.105   2.812
 3607SOL     OW11719   5.885   1.718   4.324
 3607SOL    HW111720   5.946   1.787   4.363
 3607SOL    HW211721   5.833   1.758   4.249
 3608SOL     OW11722   4.075   1.775   5.501
 3608SOL    HW111723   4.034   1.814   5.419
 3608SOL    HW211724   4.139   1.841   5.541
 3609SOL     OW11725   3.021   6.646   4.705
 3609SOL    HW111726   2.955   6.708   4.746
 3609SOL    HW211727   3.040   6.675   4.611
 3610SOL     OW11728   1.110   0.200   5.911
 3610SOL    HW111729   1.094   0.281   5.856
 3610SOL    HW211730   1.101   0.118   5.854
 3611SOL     OW11731   5.664   3.096   2.797
 3611SOL    HW111732   5.742   3.155   2.780
 3611SOL    HW211733   5.580   3.144   2.771
 3612SOL     OW11734   5.168   1.538   0.879
 3612SOL    HW111735   5.188   1.450   0.921
 3612SOL    HW211736   5.239   1.604   0.904
 3613SOL     OW11737   4.235   0.929   2.726
 3613SOL    HW111738   4.335   0.927   2.725
 3613SOL    HW211739   4.200   0.908   2.635
 3614SOL     OW11740   3.300   5.916   0.168
 3614SOL    HW111741   3.312   5.819   0.148
 3614SOL    HW211742   3.381   5.967   0.139
 3615SOL     OW11743   5.526   2.671   5.091
 3615SOL    HW111744   5.556   2.762   5.118
 3615SOL    HW211745   5.431   2.658   5.121
 3616SOL     OW11746   2.153   0.904   1.077
 3616SOL    HW111747   2.150   0.945   0.986
 3616SOL    HW211748   2.067   0.921   1.125
 3617SOL     OW11749   3.881   5.475   4.925
 3617SOL    HW111750   3.934   5.414   4.984
 3617SOL    HW211751   3.930   5.562   4.915
 3618SOL     OW11752   1.073   5.569   4.291
 3618SOL    HW111753   1.071   5.563   4.391
 3618SOL    HW211754   0.982   5.547   4.255
 3619SOL     OW11755   0.008   1.772   2.019
 3619SOL    HW111756   0.090   1.786   2.074
 3619SOL    HW211757   6.949   1.757   2.080
 3620SOL     OW11758   4.608   6.517   5.557
 3620SOL    HW111759   4.643   6.460   5.631
 3620SOL    HW211760   4.513   6.491   5.537
 3621SOL     OW11761   3.252   3.262   3.023
 3621SOL    HW111762   3.164   3.248   3.068
 3621SOL    HW211763   3.323   3.278   3.092
 3622SOL     OW11764   2.038   5.982   6.093
 3622SOL    HW111765   2.011   5.902   6.147
 3622SOL    HW211766   2.021   5.964   5.996
 3623SOL     OW11767   1.854   6.077   5.720
 3623SOL    HW111768   1.762   6.115   5.719
 3623SOL    HW211769   1.855   5.993   5.774
 3624SOL     OW11770   2.769   1.754   2.829
 3624SOL    HW111771   2.822   1.737   2.912
 3624SOL    HW211772   2.721   1.671   2.802
 3625SOL     OW11773   6.147   1.610   1.669
 3625SOL    HW111774   6.180   1.640   1.758
 3625SOL    HW211775   6.052   1.578   1.676
 3626SOL     OW11776   0.842   3.235   5.507
 3626SOL    HW111777   0.919   3.277   5.460
 3626SOL    HW211778   0.852   3.246   5.606
 3627SOL     OW11779   2.981   1.622   2.737
 3627SOL    HW111780   3.022   1.587   2.822
 3627SOL    HW211781   2.925   1.702   2.758
 3628SOL     OW11782   6.718   1.405   1.415
 3628SOL    HW111783   6.798   1.348   1.399
 3628SOL    HW211784   6.673   1.426   1.327
 3629SOL     OW11785   1.681   0.752   4.466
 3629SOL    HW111786   1.698   0.666   4.514
 3629SOL    HW211787   1.762   0.810   4.473
 3630SOL     OW11788   6.822   1.638   2.635
 3630SOL    HW111789   6.809   1.673   2.728
 3630SOL    HW211790   6.917   1.610   2.623
 3631SOL     OW11791   2.412   5.293   2.391
 3631SOL    HW111792   2.444   5.219   2.331
 3631SOL    HW211793   2.316   5.311   2.373
 3632SOL     OW11794   5.023   3.272   2.790
 3632SOL    HW111795   5.104   3.237   2.837
 3632SOL    HW211796   5.019   3.235   2.698
 3633SOL     OW11797   4.580   4.906   5.669
 3633SOL    HW111798   4.668   4.866   5.695
 3633SOL    HW211799   4.508   4.872   5.730
 3634SOL     OW11800   2.614   5.150   6.648
 3634SOL    HW111801   2.550   5.106   6.585
 3634SOL    HW211802   2.628   5.246   6.621
 3635SOL     OW11803   1.358   6.535   2.643
 3635SOL    HW111804   1.327   6.529   2.738
 3635SOL    HW211805   1.440   6.478   2.632
 3636SOL     OW11806   6.705   6.243   4.171
 3636SOL    HW111807   6.741   6.166   4.118
 3636SOL    HW211808   6.655   6.305   4.110
 3637SOL     OW11809   4.829   2.059   0.221
 3637SOL    HW111810   4.859   1.998   0.295
 3637SOL    HW211811   4.874   2.148   0.232
 3638SOL     OW11812   0.528   2.692   4.010
 3638SOL    HW111813   0.510   2.776   3.959
 3638SOL    HW211814   0.523   2.614   3.948
 3639SOL     OW11815   3.399   3.258   3.852
 3639SOL    HW111816   3.338   3.337   3.844
 3639SOL    HW211817   3.413   3.236   3.949
 3640SOL     OW11818   4.394   1.735   2.262
 3640SOL    HW111819   4.433   1.826   2.251
 3640SOL    HW211820   4.422   1.698   2.351
 3641SOL     OW11821   0.176   3.243   1.472
 3641SOL    HW111822   0.136   3.158   1.438
 3641SOL    HW211823   0.245   3.276   1.407
 3642SOL     OW11824   3.973   4.668   6.639
 3642SOL    HW111825   3.890   4.705   6.597
 3642SOL    HW211826   4.053   4.709   6.596
 3643SOL     OW11827   4.388   4.973   4.971
 3643SOL    HW111828   4.477   4.983   5.016
 3643SOL    HW211829   4.389   4.890   4.914
 3644SOL     OW11830   3.182   1.757   1.737
 3644SOL    HW111831   3.124   1.767   1.657
 3644SOL    HW211832   3.277   1.777   1.713
 3645SOL     OW11833   1.554   3.633   3.853
 3645SOL    HW111834   1.624   3.668   3.915
 3645SOL    HW211835   1.539   3.536   3.871
 3646SOL     OW11836   2.492   5.234   5.465
 3646SOL    HW111837   2.425   5.161   5.477
 3646SOL    HW211838   2.565   5.203   5.403
 3647SOL     OW11839   3.422   0.889   0.835
 3647SOL    HW111840   3.471   0.824   0.893
 3647SOL    HW211841   3.324   0.871   0.839
 3648SOL     OW11842   5.797   5.503   3.903
 3648SOL    HW111843   5.818   5.567   3.829
 3648SOL    HW211844   5.712   5.454   3.881
 3649SOL     OW11845   5.299   3.103   0.144
 3649SOL    HW111846   5.248   3.109   0.058
 3649SOL    HW211847   5.237   3.117   0.221
 3650SOL     OW11848   5.264   6.068   0.085
 3650SOL    HW111849   5.250   6.161   0.053
 3650SOL    HW211850   5.181   6.015   0.070
 3651SOL     OW11851   0.451   1.860   5.625
 3651SOL    HW111852   0.374   1.802   5.652
 3651SOL    HW211853   0.508   1.878   5.705
 3652SOL     OW11854   5.844   2.004   2.587
 3652SOL    HW111855   5.926   1.948   2.583
 3652SOL    HW211856   5.846   2.071   2.513
 3653SOL     OW11857   2.234   1.688   0.850
 3653SOL    HW111858   2.278   1.777   0.858
 3653SOL    HW211859   2.144   1.690   0.893
 3654SOL     OW11860   4.211   6.079   0.929
 3654SOL    HW111861   4.251   6.121   0.848
 3654SOL    HW211862   4.190   5.983   0.910
 3655SOL     OW11863   1.319   0.032   3.898
 3655SOL    HW111864   1.398   0.090   3.881
 3655SOL    HW211865   1.247   0.085   3.943
 3656SOL     OW11866   0.577   0.668   0.897
 3656SOL    HW111867   0.553   0.696   0.990
 3656SOL    HW211868   0.513   0.709   0.832
 3657SOL     OW11869   0.075   4.546   6.485
 3657SOL    HW111870   0.152   4.493   6.450
 3657SOL    HW211871   0.030   4.495   6.558
 3658SOL     OW11872   2.456   4.518   5.666
 3658SOL    HW111873   2.396   4.443   5.696
 3658SOL    HW211874   2.487   4.569   5.746
 3659SOL     OW11875   0.908   2.440   0.185
 3659SOL    HW111876   0.897   2.494   0.268
 3659SOL    HW211877   1.006   2.433   0.162
 3660SOL     OW11878   4.444   4.665   4.222
 3660SOL    HW111879   4.345   4.671   4.231
 3660SOL    HW211880   4.475   4.574   4.252
 3661SOL     OW11881   0.429   0.860   5.270
 3661SOL    HW111882   0.378   0.776   5.251
 3661SOL    HW211883   0.504   0.840   5.333
 3662SOL     OW11884   3.631   2.697   5.521
 3662SOL    HW111885   3.728   2.675   5.508
 3662SOL    HW211886   3.591   2.722   5.433
 3663SOL     OW11887   1.525   2.564   5.747
 3663SOL    HW111888   1.508   2.470   5.717
 3663SOL    HW211889   1.624   2.579   5.752
 3664SOL     OW11890   1.952   2.593   0.628
 3664SOL    HW111891   1.864   2.575   0.671
 3664SOL    HW211892   2.012   2.638   0.695
 3665SOL     OW11893   6.791   6.139   5.040
 3665SOL    HW111894   6.812   6.052   5.085
 3665SOL    HW211895   6.824   6.214   5.098
 3666SOL     OW11896   2.139   3.937   4.786
 3666SOL    HW111897   2.121   3.857   4.843
 3666SOL    HW211898   2.201   3.999   4.834
 3667SOL     OW11899   2.575   6.324   1.168
 3667SOL    HW111900   2.638   6.339   1.091
 3667SOL    HW211901   2.482   6.343   1.139
 3668SOL     OW11902   4.594   0.613   0.658
 3668SOL    HW111903   4.633   0.684   0.598
 3668SOL    HW211904   4.501   0.591   0.626
 3669SOL     OW11905   6.760   1.350   2.577
 3669SOL    HW111906   6.809   1.292   2.642
 3669SOL    HW211907   6.764   1.445   2.607
 3670SOL     OW11908   2.102   6.046   1.946
 3670SOL    HW111909   2.114   6.097   2.032
 3670SOL    HW211910   2.071   5.953   1.966
 3671SOL     OW11911   0.436   0.560   5.366
 3671SOL    HW111912   0.465   0.476   5.412
 3671SOL    HW211913   0.512   0.625   5.364
 3672SOL     OW11914   2.764   0.421   2.639
 3672SOL    HW111915   2.807   0.340   2.681
 3672SOL    HW211916   2.709   0.392   2.561
 3673SOL     OW11917   3.885   1.626   1.859
 3673SOL    HW111918   3.972   1.626   1.907
 3673SOL    HW211919   3.896   1.668   1.769
 3674SOL     OW11920   6.903   5.781   6.150
 3674SOL    HW111921   6.950   5.844   6.211
 3674SOL    HW211922   6.836   5.728   6.203
 3675SOL     OW11923   5.885   0.684   5.654
 3675SOL    HW111924   5.911   0.778   5.633
 3675SOL    HW211925   5.816   0.684   5.726
 3676SOL     OW11926   2.192   0.627   6.286
 3676SOL    HW111927   2.272   0.570   6.266
 3676SOL    HW211928   2.155   0.604   6.376
 3677SOL     OW11929   1.212   0.167   5.184
 3677SOL    HW111930   1.272   0.121   5.118
 3677SOL    HW211931   1.141   0.103   5.214
 3678SOL     OW11932   2.780   0.807   3.642
 3678SOL    HW111933   2.871   0.821   3.681
 3678SOL    HW211934   2.786   0.754   3.558
 3679SOL     OW11935   3.269   1.031   1.568
 3679SOL    HW111936   3.350   0.990   1.609
 3679SOL    HW211937   3.192   0.968   1.576
 3680SOL     OW11938   4.653   1.091   4.019
 3680SOL    HW111939   4.560   1.116   3.992
 3680SOL    HW211940   4.659   1.088   4.118
 3681SOL     OW11941   1.040   5.322   3.670
 3681SOL    HW111942   1.086   5.400   3.712
 3681SOL    HW211943   1.092   5.291   3.590
 3682SOL     OW11944   5.291   0.881   2.030
 3682SOL    HW111945   5.369   0.944   2.021
 3682SOL    HW211946   5.248   0.894   2.119
 3683SOL     OW11947   6.076   2.455   1.598
 3683SOL    HW111948   6.028   2.477   1.514
 3683SOL    HW211949   6.147   2.387   1.580
 3684SOL     OW11950   2.085   6.200   5.308
 3684SOL    HW111951   2.163   6.140   5.291
 3684SOL    HW211952   2.017   6.151   5.361
 3685SOL     OW11953   1.336   6.502   2.921
 3685SOL    HW111954   1.413   6.448   2.955
 3685SOL    HW211955   1.254   6.480   2.973
 3686SOL     OW11956   1.188   4.984   0.895
 3686SOL    HW111957   1.176   4.958   0.799
 3686SOL    HW211958   1.113   4.946   0.950
 3687SOL     OW11959   6.771   4.818   4.292
 3687SOL    HW111960   6.862   4.815   4.332
 3687SOL    HW211961   6.765   4.753   4.216
 3688SOL     OW11962   0.381   2.676   1.599
 3688SOL    HW111963   0.399   2.578   1.597
 3688SOL    HW211964   0.428   2.717   1.678
 3689SOL     OW11965   3.068   2.354   5.653
 3689SOL    HW111966   3.035   2.385   5.564
 3689SOL    HW211967   3.038   2.260   5.669
 3690SOL     OW11968   6.968   5.412   2.198
 3690SOL    HW111969   6.985   5.362   2.283
 3690SOL    HW211970   6.870   5.414   2.180
 3691SOL     OW11971   2.783   1.713   6.768
 3691SOL    HW111972   2.847   1.769   6.819
 3691SOL    HW211973   2.801   1.722   6.670
 3692SOL     OW11974   0.995   2.840   5.772
 3692SOL    HW111975   0.952   2.753   5.748
 3692SOL    HW211976   0.991   2.903   5.694
 3693SOL     OW11977   1.012   1.042   3.263
 3693SOL    HW111978   0.930   1.066   3.315
 3693SOL    HW211979   1.091   1.091   3.302
 3694SOL     OW11980   6.782   6.035   2.041
 3694SOL    HW111981   6.866   6.062   1.993
 3694SOL    HW211982   6.795   6.046   2.140
 3695SOL     OW11983   5.859   3.818   4.498
 3695SOL    HW111984   5.852   3.736   4.554
 3695SOL    HW211985   5.896   3.893   4.552
 3696SOL     OW11986   4.075   6.898   4.334
 3696SOL    HW111987   4.159   6.895   4.388
 3696SOL    HW211988   4.086   6.843   4.251
 3697SOL     OW11989   6.866   4.979   2.918
 3697SOL    HW111990   6.865   5.024   3.007
 3697SOL    HW211991   6.878   5.048   2.846
 3698SOL     OW11992   1.659   0.265   3.445
 3698SOL    HW111993   1.582   0.222   3.399
 3698SOL    HW211994   1.673   0.357   3.408
 3699SOL     OW11995   3.089   1.595   3.289
 3699SOL    HW111996   3.127   1.534   3.359
 3699SOL    HW211997   2.996   1.622   3.315
 3700SOL     OW11998   1.039   4.983   4.639
 3700SOL    HW111999   0.960   4.993   4.700
 3700SOL    HW212000   1.043   5.061   4.577
 3701SOL     OW12001   6.501   0.329   2.684
 3701SOL    HW112002   6.419   0.292   2.641
 3701SOL    HW212003   6.571   0.258   2.689
 3702SOL     OW12004   6.945   4.614   3.594
 3702SOL    HW112005   6.971   4.694   3.648
 3702SOL    HW212006   6.972   4.628   3.499
 3703SOL     OW12007   1.087   1.709   3.459
 3703SOL    HW112008   0.987   1.705   3.464
 3703SOL    HW212009   1.115   1.795   3.416
 3704SOL     OW12010   6.195   6.684   0.844
 3704SOL    HW112011   6.177   6.600   0.896
 3704SOL    HW212012   6.161   6.763   0.895
 3705SOL     OW12013   6.871   4.172   3.852
 3705SOL    HW112014   6.960   4.143   3.887
 3705SOL    HW212015   6.884   4.245   3.784
 3706SOL     OW12016   0.007   6.592   6.740
 3706SOL    HW112017   6.998   6.511   6.792
 3706SOL    HW212018   6.972   6.671   6.771
 3707SOL     OW12019   6.528   4.274   3.656
 3707SOL    HW112020   6.518   4.365   3.616
 3707SOL    HW212021   6.470   4.209   3.606
 3708SOL     OW12022   0.534   5.833   0.178
 3708SOL    HW112023   0.525   5.832   0.079
 3708SOL    HW212024   0.630   5.822   0.204
 3709SOL     OW12025   0.676   1.688   1.392
 3709SOL    HW112026   0.627   1.603   1.373
 3709SOL    HW212027   0.748   1.669   1.460
 3710SOL     OW12028   1.592   3.642   5.052
 3710SOL    HW112029   1.690   3.656   5.064
 3710SOL    HW212030   1.574   3.547   5.026
 3711SOL     OW12031   1.141   4.795   6.045
 3711SOL    HW112032   1.073   4.866   6.060
 3711SOL    HW212033   1.101   4.705   6.062
 3712SOL     OW12034   3.800   4.864   3.236
 3712SOL    HW112035   3.770   4.883   3.143
 3712SOL    HW212036   3.884   4.809   3.233
 3713SOL     OW12037   6.014   0.972   6.419
 3713SOL    HW112038   6.096   0.975   6.361
 3713SOL    HW212039   5.936   0.943   6.364
 3714SOL     OW12040   0.081   5.351   0.778
 3714SOL    HW112041   0.150   5.344   0.705
 3714SOL    HW212042   0.015   5.277   0.768
 3715SOL     OW12043   5.656   4.439   2.092
 3715SOL    HW112044   5.608   4.527   2.088
 3715SOL    HW212045   5.702   4.423   2.005
 3716SOL     OW12046   5.229   5.028   5.478
 3716SOL    HW112047   5.188   4.967   5.546
 3716SOL    HW212048   5.302   4.980   5.430
 3717SOL     OW12049   4.231   6.779   1.191
 3717SOL    HW112050   4.279   6.861   1.159
 3717SOL    HW212051   4.224   6.782   1.291
 3718SOL     OW12052   5.152   6.046   6.377
 3718SOL    HW112053   5.113   6.132   6.345
 3718SOL    HW212054   5.169   6.051   6.476
 3719SOL     OW12055   2.912   3.758   0.356
 3719SOL    HW112056   2.951   3.667   0.349
 3719SOL    HW212057   2.875   3.772   0.448
 3720SOL     OW12058   0.901   2.132   0.302
 3720SOL    HW112059   0.995   2.162   0.285
 3720SOL    HW212060   0.854   2.118   0.215
 3721SOL     OW12061   6.465   0.478   5.457
 3721SOL    HW112062   6.406   0.438   5.386
 3721SOL    HW212063   6.420   0.471   5.546
 3722SOL     OW12064   4.898   6.300   1.787
 3722SOL    HW112065   4.840   6.357   1.729
 3722SOL    HW212066   4.911   6.344   1.876
 3723SOL     OW12067   4.019   4.201   6.506
 3723SOL    HW112068   4.041   4.294   6.476
 3723SOL    HW212069   4.008   4.199   6.606
 3724SOL     OW12070   5.922   4.044   4.807
 3724SOL    HW112071   5.928   4.100   4.724
 3724SOL    HW212072   6.014   4.022   4.840
 3725SOL     OW12073   6.735   6.334   1.294
 3725SOL    HW112074   6.775   6.272   1.226
 3725SOL    HW212075   6.771   6.426   1.280
 3726SOL     OW12076   6.136   3.762   5.021
 3726SOL    HW112077   6.178   3.772   5.112
 3726SOL    HW212078   6.080   3.679   5.020
 3727SOL     OW12079   6.187   1.714   3.917
 3727SOL    HW112080   6.097   1.676   3.893
 3727SOL    HW212081   6.179   1.768   4.000
 3728SOL     OW12082   2.079   4.288   0.512
 3728SOL    HW112083   1.986   4.260   0.536
 3728SOL    HW212084   2.144   4.250   0.578
 3729SOL     OW12085   6.925   0.043   6.298
 3729SOL    HW112086   6.880   0.120   6.253
 3729SOL    HW212087   6.950   6.993   6.229
 3730SOL     OW12088   6.037   4.284   5.103
 3730SOL    HW112089   5.947   4.275   5.058
 3730SOL    HW212090   6.040   4.224   5.183
 3731SOL     OW12091   6.050   1.209   2.062
 3731SOL    HW112092   6.149   1.196   2.059
 3731SOL    HW212093   6.008   1.163   1.983
 3732SOL     OW12094   4.267   2.225   6.809
 3732SOL    HW112095   4.199   2.295   6.787
 3732SOL    HW212096   4.298   2.238   6.904
 3733SOL     OW12097   2.163   1.091   3.223
 3733SOL    HW112098   2.232   1.036   3.270
 3733SOL    HW212099   2.077   1.087   3.273
 3734SOL     OW12100   4.647   0.885   2.006
 3734SOL    HW112101   4.574   0.880   1.939
 3734SOL    HW212102   4.665   0.980   2.030
 3735SOL     OW12103   3.890   1.061   2.563
 3735SOL    HW112104   3.890   0.986   2.629
 3735SOL    HW212105   3.827   1.041   2.489
 3736SOL     OW12106   0.838   0.989   6.530
 3736SOL    HW112107   0.748   1.016   6.495
 3736SOL    HW212108   0.869   1.056   6.597
 3737SOL     OW12109   5.042   1.796   4.631
 3737SOL    HW112110   5.106   1.844   4.571
 3737SOL    HW212111   4.965   1.856   4.652
 3738SOL     OW12112   0.537   1.110   0.452
 3738SOL    HW112113   0.472   1.057   0.400
 3738SOL    HW212114   0.561   1.194   0.402
 3739SOL     OW12115   3.190   5.715   6.818
 3739SOL    HW112116   3.148   5.778   6.884
 3739SOL    HW212117   3.191   5.758   6.727
 3740SOL     OW12118   6.852   0.364   6.822
 3740SOL    HW112119   6.936   0.330   6.781
 3740SOL    HW212120   6.872   0.441   6.882
 3741SOL     OW12121   5.853   4.560   0.383
 3741SOL    HW112122   5.801   4.536   0.301
 3741SOL    HW212123   5.865   4.659   0.386
 3742SOL     OW12124   4.450   5.036   1.274
 3742SOL    HW112125   4.397   5.075   1.349
 3742SOL    HW212126   4.516   4.971   1.310
 3743SOL     OW12127   2.756   4.012   1.655
 3743SOL    HW112128   2.690   4.086   1.658
 3743SOL    HW212129   2.793   4.003   1.562
 3744SOL     OW12130   6.402   5.651   2.565
 3744SOL    HW112131   6.456   5.725   2.606
 3744SOL    HW212132   6.345   5.688   2.491
 3745SOL     OW12133   6.167   1.047   3.244
 3745SOL    HW112134   6.086   0.990   3.254
 3745SOL    HW212135   6.233   1.001   3.184
 3746SOL     OW12136   5.431   0.219   5.566
 3746SOL    HW112137   5.506   0.280   5.592
 3746SOL    HW212138   5.468   0.136   5.524
 3747SOL     OW12139   2.190   4.726   5.642
 3747SOL    HW112140   2.153   4.646   5.596
 3747SOL    HW212141   2.116   4.789   5.665
 3748SOL     OW12142   4.849   1.439   3.130
 3748SOL    HW112143   4.788   1.510   3.094
 3748SOL    HW212144   4.944   1.467   3.117
 3749SOL     OW12145   5.709   5.283   0.773
 3749SOL    HW112146   5.641   5.297   0.846
 3749SOL    HW212147   5.701   5.358   0.707
 3750SOL     OW12148   0.105   4.538   1.630
 3750SOL    HW112149   0.091   4.527   1.532
 3750SOL    HW212150   0.174   4.609   1.646
 3751SOL     OW12151   2.071   4.785   1.108
 3751SOL    HW112152   2.140   4.795   1.036
 3751SOL    HW212153   2.011   4.708   1.086
 3752SOL     OW12154   1.264   6.599   6.255
 3752SOL    HW112155   1.272   6.698   6.262
 3752SOL    HW212156   1.241   6.561   6.344
 3753SOL     OW12157   0.640   1.401   5.304
 3753SOL    HW112158   0.722   1.344   5.305
 3753SOL    HW212159   0.665   1.496   5.291
 3754SOL     OW12160   6.702   6.683   1.066
 3754SOL    HW112161   6.702   6.682   1.166
 3754SOL    HW212162   6.791   6.652   1.032
 3755SOL     OW12163   4.710   2.431   2.877
 3755SOL    HW112164   4.802   2.397   2.857
 3755SOL    HW212165   4.688   2.505   2.814
 3756SOL     OW12166   3.299   6.920   0.541
 3756SOL    HW112167   3.206   6.911   0.576
 3756SOL    HW212168   3.298   6.972   0.455
 3757SOL     OW12169   2.950   3.524   5.913
 3757SOL    HW112170   2.868   3.467   5.910
 3757SOL    HW212171   2.933   3.602   5.973
 3758SOL     OW12172   0.777   1.054   1.495
 3758SOL    HW112173   0.785   1.062   1.396
 3758SOL    HW212174   0.703   1.111   1.528
 3759SOL     OW12175   5.610   3.995   0.896
 3759SOL    HW112176   5.688   3.972   0.837
 3759SOL    HW212177   5.608   4.093   0.912
 3760SOL     OW12178   2.100   1.511   6.187
 3760SOL    HW112179   2.110   1.451   6.266
 3760SOL    HW212180   2.022   1.481   6.132
 3761SOL     OW12181   6.817   6.524   4.274
 3761SOL    HW112182   6.815   6.426   4.253
 3761SOL    HW212183   6.765   6.541   4.357
 3762SOL     OW12184   0.344   3.839   1.229
 3762SOL    HW112185   0.427   3.865   1.180
 3762SOL    HW212186   0.343   3.883   1.319
 3763SOL     OW12187   0.414   2.434   4.728
 3763SOL    HW112188   0.471   2.497   4.780
 3763SOL    HW212189   0.397   2.472   4.637
 3764SOL     OW12190   2.565   0.481   3.198
 3764SOL    HW112191   2.556   0.480   3.298
 3764SOL    HW212192   2.626   0.556   3.172
 3765SOL     OW12193   6.376   1.487   3.650
 3765SOL    HW112194   6.381   1.497   3.749
 3765SOL    HW212195   6.460   1.443   3.617
 3766SOL     OW12196   2.053   1.276   4.802
 3766SOL    HW112197   2.027   1.186   4.835
 3766SOL    HW212198   2.106   1.324   4.873
 3767SOL     OW12199   6.441   4.375   1.532
 3767SOL    HW112200   6.467   4.384   1.436
 3767SOL    HW212201   6.478   4.451   1.585
 3768SOL     OW12202   4.619   6.624   1.334
 3768SOL    HW112203   4.646   6.531   1.312
 3768SOL    HW212204   4.593   6.629   1.431
 3769SOL     OW12205   3.941   6.830   4.587
 3769SOL    HW112206   3.993   6.890   4.649
 3769SOL    HW212207   3.992   6.819   4.502
 3770SOL     OW12208   1.384   3.070   0.831
 3770SOL    HW112209   1.477   3.036   0.846
 3770SOL    HW212210   1.385   3.170   0.836
 3771SOL     OW12211   5.144   1.560   5.226
 3771SOL    HW112212   5.226   1.544   5.279
 3771SOL    HW212213   5.109   1.652   5.243
 3772SOL     OW12214   5.120   0.857   3.128
 3772SOL    HW112215   5.161   0.824   3.213
 3772SOL    HW212216   5.042   0.800   3.103
 3773SOL     OW12217   6.232   2.665   1.293
 3773SOL    HW112218   6.142   2.707   1.302
 3773SOL    HW212219   6.222   2.566   1.282
 3774SOL     OW12220   2.158   1.060   1.857
 3774SOL    HW112221   2.074   1.007   1.846
 3774SOL    HW212222   2.185   1.060   1.954
 3775SOL     OW12223   5.289   2.841   3.601
 3775SOL    HW112224   5.262   2.745   3.608
 3775SOL    HW212225   5.381   2.852   3.638
 3776SOL     OW12226   3.270   1.926   6.991
 3776SOL    HW112227   3.224   2.002   6.944
 3776SOL    HW212228   3.369   1.935   6.980
 3777SOL     OW12229   1.594   4.200   3.419
 3777SOL    HW112230   1.550   4.161   3.500
 3777SOL    HW212231   1.687   4.227   3.442
 3778SOL     OW12232   2.061   0.420   1.754
 3778SOL    HW112233   2.029   0.337   1.708
 3778SOL    HW212234   2.072   0.494   1.687
 3779SOL     OW12235   2.082   3.564   0.289
 3779SOL    HW112236   2.001   3.602   0.333
 3779SOL    HW212237   2.098   3.610   0.202
 3780SOL     OW12238   2.747   0.459   4.205
 3780SOL    HW112239   2.845   0.442   4.197
 3780SOL    HW212240   2.726   0.492   4.297
 3781SOL     OW12241   3.284   5.000   4.781
 3781SOL    HW112242   3.348   4.964   4.849
 3781SOL    HW212243   3.326   4.998   4.690
 3782SOL     OW12244   3.044   0.850   2.224
 3782SOL    HW112245   3.061   0.853   2.323
 3782SOL    HW212246   2.977   0.920   2.200
 3783SOL     OW12247   5.398   4.293   5.638
 3783SOL    HW112248   5.317   4.344   5.612
 3783SOL    HW212249   5.471   4.356   5.664
 3784SOL     OW12250   4.919   2.909   5.056
 3784SOL    HW112251   4.884   2.841   4.991
 3784SOL    HW212252   5.013   2.932   5.033
 3785SOL     OW12253   0.020   0.383   1.754
 3785SOL    HW112254   6.990   0.459   1.711
 3785SOL    HW212255   0.090   0.419   1.816
 3786SOL     OW12256   2.632   5.961   1.462
 3786SOL    HW112257   2.560   5.951   1.393
 3786SOL    HW212258   2.655   5.870   1.498
 3787SOL     OW12259   3.742   1.352   3.373
 3787SOL    HW112260   3.728   1.421   3.302
 3787SOL    HW212261   3.785   1.271   3.333
 3788SOL     OW12262   0.445   3.074   2.869
 3788SOL    HW112263   0.506   3.021   2.928
 3788SOL    HW212264   0.365   3.103   2.921
 3789SOL     OW12265   1.780   5.095   2.011
 3789SOL    HW112266   1.873   5.065   2.029
 3789SOL    HW212267   1.781   5.157   1.932
 3790SOL     OW12268   2.138   3.579   2.826
 3790SOL    HW112269   2.163   3.597   2.921
 3790SOL    HW212270   2.163   3.658   2.770
 3791SOL     OW12271   6.826   0.324   2.523
 3791SOL    HW112272   6.917   0.367   2.521
 3791SOL    HW212273   6.765   0.372   2.460
 3792SOL     OW12274   1.386   5.088   5.863
 3792SOL    HW112275   1.414   5.117   5.955
 3792SOL    HW212276   1.297   5.128   5.842
 3793SOL     OW12277   6.392   6.018   2.559
 3793SOL    HW112278   6.371   6.027   2.462
 3793SOL    HW212279   6.488   5.990   2.570
 3794SOL     OW12280   4.251   0.093   5.013
 3794SOL    HW112281   4.236   0.185   5.049
 3794SOL    HW212282   4.330   0.094   4.951
 3795SOL     OW12283   5.659   0.589   0.495
 3795SOL    HW112284   5.577   0.591   0.438
 3795SOL    HW212285   5.632   0.578   0.591
 3796SOL     OW12286   0.329   2.280   1.444
 3796SOL    HW112287   0.410   2.322   1.484
 3796SOL    HW212288   0.330   2.181   1.461
 3797SOL     OW12289   6.385   6.116   2.290
 3797SOL    HW112290   6.416   6.030   2.250
 3797SOL    HW212291   6.332   6.167   2.222
 3798SOL     OW12292   1.281   4.639   6.858
 3798SOL    HW112293   1.296   4.540   6.861
 3798SOL    HW212294   1.183   4.658   6.855
 3799SOL     OW12295   0.247   0.697   5.144
 3799SOL    HW112296   0.196   0.654   5.219
 3799SOL    HW212297   0.201   0.782   5.117
 3800SOL     OW12298   4.514   2.420   5.248
 3800SOL    HW112299   4.533   2.388   5.155
 3800SOL    HW212300   4.495   2.518   5.246
 3801SOL     OW12301   6.761   0.644   5.654
 3801SOL    HW112302   6.687   0.689   5.604
 3801SOL    HW212303   6.792   0.565   5.602
 3802SOL     OW12304   1.752   2.284   5.088
 3802SOL    HW112305   1.703   2.364   5.122
 3802SOL    HW212306   1.698   2.241   5.015
 3803SOL     OW12307   4.492   0.975   1.347
 3803SOL    HW112308   4.558   1.011   1.413
 3803SOL    HW212309   4.428   1.047   1.322
 3804SOL     OW12310   5.153   4.047   4.813
 3804SOL    HW112311   5.170   3.975   4.881
 3804SOL    HW212312   5.145   4.006   4.722
 3805SOL     OW12313   2.095   3.023   1.442
 3805SOL    HW112314   2.072   3.120   1.435
 3805SOL    HW212315   2.030   2.977   1.502
 3806SOL     OW12316   4.194   0.193   1.091
 3806SOL    HW112317   4.169   0.231   1.180
 3806SOL    HW212318   4.114   0.190   1.032
 3807SOL     OW12319   1.532   6.855   2.681
 3807SOL    HW112320   1.525   6.787   2.753
 3807SOL    HW212321   1.440   6.886   2.655
 3808SOL     OW12322   3.809   0.998   0.908
 3808SOL    HW112323   3.900   1.015   0.870
 3808SOL    HW212324   3.772   0.913   0.869
 3809SOL     OW12325   3.854   0.989   0.571
 3809SOL    HW112326   3.760   0.957   0.580
 3809SOL    HW212327   3.916   0.912   0.584
 3810SOL     OW12328   1.148   3.263   6.780
 3810SOL    HW112329   1.127   3.211   6.863
 3810SOL    HW212330   1.151   3.361   6.802
 3811SOL     OW12331   6.543   0.758   5.536
 3811SOL    HW112332   6.535   0.661   5.513
 3811SOL    HW212333   6.459   0.806   5.509
 3812SOL     OW12334   4.079   0.012   5.806
 3812SOL    HW112335   4.027   0.097   5.816
 3812SOL    HW212336   4.096   7.013   5.710
 3813SOL     OW12337   3.623   5.037   2.002
 3813SOL    HW112338   3.608   4.938   2.006
 3813SOL    HW212339   3.721   5.055   2.012
 3814SOL     OW12340   1.570   6.911   1.593
 3814SOL    HW112341   1.578   6.983   1.662
 3814SOL    HW212342   1.505   6.842   1.624
 3815SOL     OW12343   4.868   1.853   2.185
 3815SOL    HW112344   4.841   1.871   2.280
 3815SOL    HW212345   4.813   1.909   2.124
 3816SOL     OW12346   0.144   5.328   1.044
 3816SOL    HW112347   0.079   5.259   1.075
 3816SOL    HW212348   0.148   5.329   0.944
 3817SOL     OW12349   5.590   1.911   4.994
 3817SOL    HW112350   5.536   1.829   5.007
 3817SOL    HW212351   5.568   1.952   4.905
 3818SOL     OW12352   3.754   0.081   3.052
 3818SOL    HW112353   3.752   0.021   3.131
 3818SOL    HW212354   3.661   0.109   3.028
 3819SOL     OW12355   5.742   3.583   6.353
 3819SOL    HW112356   5.649   3.550   6.333
 3819SOL    HW212357   5.750   3.598   6.452
 3820SOL     OW12358   3.933   6.520   3.477
 3820SOL    HW112359   3.930   6.455   3.553
 3820SOL    HW212360   4.028   6.532   3.448
 3821SOL     OW12361   1.405   4.293   1.735
 3821SOL    HW112362   1.366   4.370   1.785
 3821SOL    HW212363   1.350   4.276   1.653
 3822SOL     OW12364   0.818   3.388   1.935
 3822SOL    HW112365   0.780   3.329   1.864
 3822SOL    HW212366   0.915   3.367   1.948
 3823SOL     OW12367   2.144   3.638   5.253
 3823SOL    HW112368   2.177   3.731   5.265
 3823SOL    HW212369   2.069   3.620   5.317
 3824SOL     OW12370   0.239   3.242   6.174
 3824SOL    HW112371   0.193   3.154   6.164
 3824SOL    HW212372   0.309   3.235   6.244
 3825SOL     OW12373   0.532   5.857   6.479
 3825SOL    HW112374   0.503   5.884   6.571
 3825SOL    HW212375   0.616   5.906   6.455
 3826SOL     OW12376   0.294   1.424   1.500
 3826SOL    HW112377   0.251   1.508   1.534
 3826SOL    HW212378   0.287   1.352   1.569
 3827SOL     OW12379   4.357   1.869   1.796
 3827SOL    HW112380   4.403   1.830   1.876
 3827SOL    HW212381   4.426   1.903   1.732
 3828SOL     OW12382   3.733   1.457   0.736
 3828SOL    HW112383   3.676   1.538   0.724
 3828SOL    HW212384   3.677   1.375   0.724
 3829SOL     OW12385   0.899   5.209   3.867
 3829SOL    HW112386   0.943   5.124   3.897
 3829SOL    HW212387   0.938   5.238   3.780
 3830SOL     OW12388   1.887   6.955   6.016
 3830SOL    HW112389   1.790   6.934   6.004
 3830SOL    HW212390   1.899   7.009   6.099
 3831SOL     OW12391   4.740   2.346   2.284
 3831SOL    HW112392   4.821   2.350   2.225
 3831SOL    HW212393   4.768   2.346   2.380
 3832SOL     OW12394   6.348   0.013   2.620
 3832SOL    HW112395   6.262   7.016   2.669
 3832SOL    HW212396   6.399   6.946   2.613
 3833SOL     OW12397   1.119   6.209   1.826
 3833SOL    HW112398   1.204   6.221   1.774
 3833SOL    HW212399   1.072   6.127   1.794
 3834SOL     OW12400   3.011   2.395   0.513
 3834SOL    HW112401   3.057   2.307   0.525
 3834SOL    HW212402   2.985   2.406   0.417
 3835SOL     OW12403   3.738   4.916   2.957
 3835SOL    HW112404   3.695   4.901   2.867
 3835SOL    HW212405   3.836   4.931   2.945
 3836SOL     OW12406   1.428   2.295   6.191
 3836SOL    HW112407   1.425   2.342   6.103
 3836SOL    HW212408   1.335   2.265   6.215
 3837SOL     OW12409   3.769   4.291   6.863
 3837SOL    HW112410   3.683   4.241   6.863
 3837SOL    HW212411   3.753   4.385   6.890
 3838SOL     OW12412   0.208   3.630   5.121
 3838SOL    HW112413   0.246   3.613   5.212
 3838SOL    HW212414   0.121   3.583   5.111
 3839SOL     OW12415   0.381   6.540   6.985
 3839SOL    HW112416   0.479   6.535   6.969
 3839SOL    HW212417   0.364   6.559   0.063
 3840SOL     OW12418   3.702   1.740   3.388
 3840SOL    HW112419   3.638   1.792   3.331
 3840SOL    HW212420   3.783   1.717   3.335
 3841SOL     OW12421   1.682   2.997   3.947
 3841SOL    HW112422   1.650   3.006   4.041
 3841SOL    HW212423   1.758   3.060   3.931
 3842SOL     OW12424   1.267   4.868   0.274
 3842SOL    HW112425   1.206   4.896   0.200
 3842SOL    HW212426   1.221   4.799   0.330
 3843SOL     OW12427   0.025   5.276   0.146
 3843SOL    HW112428   0.015   5.363   0.098
 3843SOL    HW212429   6.954   5.235   0.160
 3844SOL     OW12430   2.927   4.215   5.785
 3844SOL    HW112431   2.878   4.225   5.698
 3844SOL    HW212432   2.861   4.205   5.859
 3845SOL     OW12433   3.267   4.092   4.847
 3845SOL    HW112434   3.221   4.131   4.768
 3845SOL    HW212435   3.364   4.118   4.845
 3846SOL     OW12436   0.099   4.359   4.375
 3846SOL    HW112437   0.089   4.304   4.292
 3846SOL    HW212438   0.071   4.305   4.454
 3847SOL     OW12439   1.104   6.573   1.089
 3847SOL    HW112440   1.124   6.671   1.081
 3847SOL    HW212441   1.148   6.523   1.015
 3848SOL     OW12442   2.359   6.129   2.423
 3848SOL    HW112443   2.339   6.223   2.395
 3848SOL    HW212444   2.369   6.072   2.342
 3849SOL     OW12445   2.541   1.232   4.778
 3849SOL    HW112446   2.633   1.265   4.796
 3849SOL    HW212447   2.533   1.137   4.806
 3850SOL     OW12448   1.733   2.929   1.768
 3850SOL    HW112449   1.785   2.950   1.851
 3850SOL    HW212450   1.677   2.847   1.784
 3851SOL     OW12451   2.533   2.897   0.093
 3851SOL    HW112452   2.517   2.994   0.074
 3851SOL    HW212453   2.445   2.850   0.102
 3852SOL     OW12454   4.523   0.798   5.543
 3852SOL    HW112455   4.438   0.851   5.552
 3852SOL    HW212456   4.512   0.728   5.473
 3853SOL     OW12457   0.234   3.374   1.938
 3853SOL    HW112458   0.191   3.360   1.849
 3853SOL    HW212459   0.330   3.346   1.933
 3854SOL     OW12460   1.483   4.030   4.042
 3854SOL    HW112461   1.402   4.076   4.078
 3854SOL    HW212462   1.465   3.932   4.032
 3855SOL     OW12463   6.582   2.392   5.170
 3855SOL    HW112464   6.660   2.329   5.179
 3855SOL    HW212465   6.614   2.486   5.180
 3856SOL     OW12466   0.850   6.440   6.010
 3856SOL    HW112467   0.815   6.534   6.011
 3856SOL    HW212468   0.863   6.408   6.104
 3857SOL     OW12469   0.363   0.658   6.339
 3857SOL    HW112470   0.341   0.631   6.246
 3857SOL    HW212471   0.331   0.588   6.403
 3858SOL     OW12472   3.792   5.091   6.760
 3858SOL    HW112473   3.778   5.058   6.854
 3858SOL    HW212474   3.867   5.157   6.759
 3859SOL     OW12475   0.201   2.397   2.834
 3859SOL    HW112476   0.136   2.323   2.816
 3859SOL    HW212477   0.294   2.361   2.830
 3860SOL     OW12478   2.271   6.144   4.631
 3860SOL    HW112479   2.309   6.163   4.722
 3860SOL    HW212480   2.186   6.195   4.619
 3861SOL     OW12481   3.499   3.716   0.190
 3861SOL    HW112482   3.440   3.796   0.202
 3861SOL    HW212483   3.443   3.633   0.197
 3862SOL     OW12484   0.156   6.365   5.492
 3862SOL    HW112485   0.251   6.338   5.473
 3862SOL    HW212486   0.102   6.284   5.514
 3863SOL     OW12487   2.146   3.012   0.508
 3863SOL    HW112488   2.100   3.047   0.590
 3863SOL    HW212489   2.161   3.087   0.444
 3864SOL     OW12490   3.529   1.848   1.973
 3864SOL    HW112491   3.486   1.772   1.924
 3864SOL    HW212492   3.544   1.924   1.909
 3865SOL     OW12493   4.518   0.832   2.238
 3865SOL    HW112494   4.478   0.917   2.272
 3865SOL    HW212495   4.555   0.848   2.146
 3866SOL     OW12496   4.590   6.367   5.985
 3866SOL    HW112497   4.563   6.324   5.899
 3866SOL    HW212498   4.577   6.466   5.978
 3867SOL     OW12499   2.527   5.189   2.829
 3867SOL    HW112500   2.493   5.284   2.831
 3867SOL    HW212501   2.506   5.148   2.741
 3868SOL     OW12502   2.817   5.095   2.675
 3868SOL    HW112503   2.771   5.055   2.596
 3868SOL    HW212504   2.777   5.058   2.759
 3869SOL     OW12505   1.523   1.398   3.347
 3869SOL    HW112506   1.543   1.368   3.254
 3869SOL    HW212507   1.425   1.391   3.364
 3870SOL     OW12508   3.779   3.639   0.630
 3870SOL    HW112509   3.775   3.631   0.530
 3870SOL    HW212510   3.870   3.671   0.657
 3871SOL     OW12511   2.135   0.497   5.203
 3871SOL    HW112512   2.110   0.425   5.268
 3871SOL    HW212513   2.143   0.584   5.252
 3872SOL     OW12514   4.837   4.058   0.055
 3872SOL    HW112515   4.826   3.964   0.022
 3872SOL    HW212516   4.886   4.111   7.006
 3873SOL     OW12517   6.253   5.116   1.784
 3873SOL    HW112518   6.258   5.051   1.860
 3873SOL    HW212519   6.326   5.097   1.718
 3874SOL     OW12520   5.623   6.380   5.354
 3874SOL    HW112521   5.603   6.346   5.446
 3874SOL    HW212522   5.623   6.480   5.355
 3875SOL     OW12523   3.241   3.268   0.689
 3875SOL    HW112524   3.328   3.218   0.696
 3875SOL    HW212525   3.166   3.206   0.710
 3876SOL     OW12526   5.654   4.223   3.140
 3876SOL    HW112527   5.591   4.176   3.077
 3876SOL    HW212528   5.626   4.204   3.234
 3877SOL     OW12529   5.033   2.350   2.144
 3877SOL    HW112530   5.095   2.296   2.201
 3877SOL    HW212531   5.016   2.302   2.058
 3878SOL     OW12532   6.365   5.114   5.375
 3878SOL    HW112533   6.301   5.131   5.300
 3878SOL    HW212534   6.442   5.059   5.342
 3879SOL     OW12535   2.045   6.697   0.740
 3879SOL    HW112536   1.951   6.727   0.756
 3879SOL    HW212537   2.083   6.744   0.660
 3880SOL     OW12538   5.683   1.951   4.405
 3880SOL    HW112539   5.667   1.904   4.318
 3880SOL    HW212540   5.723   1.887   4.470
 3881SOL     OW12541   0.127   6.398   5.924
 3881SOL    HW112542   0.182   6.426   5.845
 3881SOL    HW212543   0.147   6.302   5.946
 3882SOL     OW12544   6.831   5.602   0.259
 3882SOL    HW112545   6.810   5.526   0.321
 3882SOL    HW212546   6.908   5.654   0.297
 3883SOL     OW12547   3.993   2.108   0.690
 3883SOL    HW112548   3.956   2.017   0.707
 3883SOL    HW212549   4.014   2.153   0.777
 3884SOL     OW12550   2.931   6.137   6.134
 3884SOL    HW112551   2.861   6.206   6.148
 3884SOL    HW212552   2.900   6.049   6.171
 3885SOL     OW12553   1.140   1.521   4.273
 3885SOL    HW112554   1.077   1.526   4.351
 3885SOL    HW212555   1.197   1.440   4.283
 3886SOL     OW12556   0.026   5.721   4.530
 3886SOL    HW112557   6.962   5.777   4.524
 3886SOL    HW212558   0.060   5.701   4.437
 3887SOL     OW12559   0.429   2.888   4.646
 3887SOL    HW112560   0.519   2.856   4.616
 3887SOL    HW212561   0.381   2.930   4.569
 3888SOL     OW12562   4.383   2.079   3.103
 3888SOL    HW112563   4.426   2.167   3.081
 3888SOL    HW212564   4.437   2.033   3.173
 3889SOL     OW12565   6.238   5.443   0.269
 3889SOL    HW112566   6.305   5.500   0.317
 3889SOL    HW212567   6.154   5.495   0.253
 3890SOL     OW12568   5.892   2.950   3.833
 3890SOL    HW112569   5.874   2.868   3.779
 3890SOL    HW212570   5.809   3.004   3.841
 3891SOL     OW12571   3.591   4.565   6.596
 3891SOL    HW112572   3.678   4.519   6.583
 3891SOL    HW212573   3.526   4.535   6.527
 3892SOL     OW12574   5.230   5.851   4.457
 3892SOL    HW112575   5.140   5.878   4.422
 3892SOL    HW212576   5.226   5.845   4.557
 3893SOL     OW12577   2.953   6.015   4.899
 3893SOL    HW112578   2.867   5.980   4.934
 3893SOL    HW212579   2.946   6.031   4.801
 3894SOL     OW12580   5.585   5.188   6.257
 3894SOL    HW112581   5.518   5.261   6.239
 3894SOL    HW212582   5.608   5.144   6.170
 3895SOL     OW12583   1.597   1.830   5.042
 3895SOL    HW112584   1.555   1.748   5.081
 3895SOL    HW212585   1.527   1.900   5.029
 3896SOL     OW12586   6.128   3.355   1.545
 3896SOL    HW112587   6.137   3.297   1.465
 3896SOL    HW212588   6.168   3.309   1.624
 3897SOL     OW12589   2.449   0.728   2.918
 3897SOL    HW112590   2.535   0.767   2.887
 3897SOL    HW212591   2.398   0.795   2.972
 3898SOL     OW12592   3.412   3.881   2.534
 3898SOL    HW112593   3.313   3.890   2.538
 3898SOL    HW212594   3.453   3.970   2.514
 3899SOL     OW12595   4.244   1.045   6.260
 3899SOL    HW112596   4.210   1.050   6.354
 3899SOL    HW212597   4.342   1.065   6.259
 3900SOL     OW12598   1.326   2.225   4.221
 3900SOL    HW112599   1.361   2.248   4.131
 3900SOL    HW212600   1.226   2.222   4.218
 3901SOL     OW12601   4.275   6.777   4.497
 3901SOL    HW112602   4.282   6.836   4.578
 3901SOL    HW212603   4.216   6.699   4.518
 3902SOL     OW12604   3.235   4.926   3.139
 3902SOL    HW112605   3.139   4.918   3.112
 3902SOL    HW212606   3.293   4.927   3.057
 3903SOL     OW12607   2.484   4.135   5.916
 3903SOL    HW112608   2.480   4.037   5.894
 3903SOL    HW212609   2.416   4.184   5.861
 3904SOL     OW12610   2.248   5.940   0.773
 3904SOL    HW112611   2.266   5.884   0.692
 3904SOL    HW212612   2.175   6.005   0.753
 3905SOL     OW12613   4.663   6.489   4.794
 3905SOL    HW112614   4.709   6.540   4.722
 3905SOL    HW212615   4.696   6.520   4.883
 3906SOL     OW12616   6.979   5.841   3.799
 3906SOL    HW112617   6.904   5.839   3.866
 3906SOL    HW212618   0.040   5.795   3.837
 3907SOL     OW12619   1.433   0.575   4.613
 3907SOL    HW112620   1.395   0.612   4.528
 3907SOL    HW212621   1.359   0.533   4.666
 3908SOL     OW12622   2.484   1.717   4.719
 3908SOL    HW112623   2.561   1.768   4.683
 3908SOL    HW212624   2.497   1.619   4.702
 3909SOL     OW12625   6.536   3.024   2.423
 3909SOL    HW112626   6.546   2.939   2.371
 3909SOL    HW212627   6.599   3.024   2.501
 3910SOL     OW12628   1.510   2.314   6.957
 3910SOL    HW112629   1.490   2.356   6.868
 3910SOL    HW212630   1.527   2.216   6.945
 3911SOL     OW12631   6.394   0.626   1.978
 3911SOL    HW112632   6.357   0.554   2.037
 3911SOL    HW212633   6.362   0.715   2.009
 3912SOL     OW12634   4.596   4.232   0.842
 3912SOL    HW112635   4.595   4.154   0.779
 3912SOL    HW212636   4.690   4.250   0.871
 3913SOL     OW12637   4.070   4.282   0.773
 3913SOL    HW112638   4.065   4.381   0.781
 3913SOL    HW212639   4.072   4.256   0.676
 3914SOL     OW12640   0.611   0.690   0.508
 3914SOL    HW112641   0.701   0.730   0.493
 3914SOL    HW212642   0.569   0.667   0.420
 3915SOL     OW12643   5.178   0.039   4.281
 3915SOL    HW112644   5.264   0.087   4.263
 3915SOL    HW212645   5.104   0.082   4.230
 3916SOL     OW12646   1.720   2.651   2.145
 3916SOL    HW112647   1.757   2.655   2.238
 3916SOL    HW212648   1.789   2.616   2.083
 3917SOL     OW12649   2.955   5.471   1.936
 3917SOL    HW112650   2.980   5.550   1.879
 3917SOL    HW212651   2.899   5.503   2.012
 3918SOL     OW12652   3.911   6.462   6.897
 3918SOL    HW112653   3.820   6.503   6.902
 3918SOL    HW212654   3.917   6.404   6.816
 3919SOL     OW12655   5.109   4.508   3.567
 3919SOL    HW112656   5.135   4.500   3.663
 3919SOL    HW212657   5.010   4.518   3.560
 3920SOL     OW12658   4.366   0.384   5.520
 3920SOL    HW112659   4.285   0.430   5.483
 3920SOL    HW212660   4.355   0.370   5.618
 3921SOL     OW12661   1.476   4.152   5.376
 3921SOL    HW112662   1.558   4.148   5.319
 3921SOL    HW212663   1.422   4.069   5.365
 3922SOL     OW12664   5.401   1.521   3.997
 3922SOL    HW112665   5.486   1.489   3.956
 3922SOL    HW212666   5.356   1.445   4.045
 3923SOL     OW12667   5.879   1.057   1.349
 3923SOL    HW112668   5.842   0.966   1.329
 3923SOL    HW212669   5.807   1.113   1.390
 3924SOL     OW12670   5.696   4.780   4.112
 3924SOL    HW112671   5.685   4.744   4.020
 3924SOL    HW212672   5.684   4.879   4.111
 3925SOL     OW12673   3.511   4.799   1.622
 3925SOL    HW112674   3.515   4.746   1.707
 3925SOL    HW212675   3.428   4.775   1.572
 3926SOL     OW12676   0.762   6.091   5.002
 3926SOL    HW112677   0.831   6.117   4.934
 3926SOL    HW212678   0.681   6.056   4.956
 3927SOL     OW12679   6.359   6.408   5.117
 3927SOL    HW112680   6.365   6.339   5.189
 3927SOL    HW212681   6.274   6.460   5.129
 3928SOL     OW12682   4.422   5.254   1.891
 3928SOL    HW112683   4.512   5.293   1.911
 3928SOL    HW212684   4.353   5.297   1.949
 3929SOL     OW12685   2.042   0.298   5.383
 3929SOL    HW112686   2.107   0.306   5.458
 3929SOL    HW212687   1.952   0.274   5.418
 3930SOL     OW12688   1.822   5.665   4.466
 3930SOL    HW112689   1.739   5.715   4.442
 3930SOL    HW212690   1.835   5.589   4.402
 3931SOL     OW12691   0.182   2.241   0.559
 3931SOL    HW112692   0.111   2.311   0.570
 3931SOL    HW212693   0.272   2.284   0.563
 3932SOL     OW12694   1.654   4.636   2.866
 3932SOL    HW112695   1.747   4.669   2.847
 3932SOL    HW212696   1.656   4.536   2.873
 3933SOL     OW12697   0.680   6.932   1.339
 3933SOL    HW112698   0.658   0.007   1.311
 3933SOL    HW212699   0.698   6.877   1.258
 3934SOL     OW12700   0.866   6.711   1.591
 3934SOL    HW112701   0.868   6.658   1.675
 3934SOL    HW212702   0.901   6.656   1.515
 3935SOL     OW12703   6.794   1.358   4.845
 3935SOL    HW112704   6.811   1.267   4.808
 3935SOL    HW212705   6.827   1.362   4.940
 3936SOL     OW12706   6.391   4.768   4.540
 3936SOL    HW112707   6.296   4.775   4.511
 3936SOL    HW212708   6.401   4.692   4.605
 3937SOL     OW12709   1.472   6.073   6.872
 3937SOL    HW112710   1.522   5.990   6.849
 3937SOL    HW212711   1.532   6.137   6.918
 3938SOL     OW12712   1.387   4.533   6.490
 3938SOL    HW112713   1.350   4.623   6.464
 3938SOL    HW212714   1.336   4.461   6.443
 3939SOL     OW12715   1.346   5.561   4.493
 3939SOL    HW112716   1.354   5.464   4.467
 3939SOL    HW212717   1.250   5.589   4.487
 3940SOL     OW12718   2.291   6.023   6.862
 3940SOL    HW112719   2.314   5.947   6.801
 3940SOL    HW212720   2.271   6.105   6.808
 3941SOL     OW12721   5.880   4.880   3.412
 3941SOL    HW112722   5.941   4.940   3.464
 3941SOL    HW212723   5.925   4.851   3.328
 3942SOL     OW12724   0.793   0.008   0.264
 3942SOL    HW112725   0.713   7.014   0.322
 3942SOL    HW212726   0.789   6.965   0.186
 3943SOL     OW12727   0.903   4.667   0.547
 3943SOL    HW112728   0.938   4.726   0.620
 3943SOL    HW212729   0.803   4.672   0.545
 3944SOL     OW12730   5.815   2.718   0.739
 3944SOL    HW112731   5.840   2.801   0.789
 3944SOL    HW212732   5.736   2.675   0.783
 3945SOL     OW12733   0.723   0.704   3.149
 3945SOL    HW112734   0.643   0.677   3.094
 3945SOL    HW212735   0.692   0.747   3.234
 3946SOL     OW12736   4.800   0.819   1.135
 3946SOL    HW112737   4.803   0.722   1.113
 3946SOL    HW212738   4.722   0.861   1.088
 3947SOL     OW12739   5.449   0.401   1.183
 3947SOL    HW112740   5.380   0.467   1.152
 3947SOL    HW212741   5.429   0.311   1.145
 3948SOL     OW12742   1.760   1.409   3.802
 3948SOL    HW112743   1.683   1.373   3.750
 3948SOL    HW212744   1.794   1.492   3.758
 3949SOL     OW12745   6.133   6.695   2.408
 3949SOL    HW112746   6.140   6.693   2.508
 3949SOL    HW212747   6.174   6.780   2.375
 3950SOL     OW12748   2.222   4.695   1.678
 3950SOL    HW112749   2.185   4.640   1.752
 3950SOL    HW212750   2.147   4.727   1.620
 3951SOL     OW12751   0.038   3.313   3.026
 3951SOL    HW112752   0.123   3.260   3.032
 3951SOL    HW212753   7.004   3.281   2.946
 3952SOL     OW12754   5.707   5.435   6.790
 3952SOL    HW112755   5.609   5.442   6.809
 3952SOL    HW212756   5.729   5.492   6.710
 3953SOL     OW12757   3.425   3.212   4.691
 3953SOL    HW112758   3.404   3.211   4.593
 3953SOL    HW212759   3.439   3.306   4.721
 3954SOL     OW12760   0.602   5.395   6.333
 3954SOL    HW112761   0.547   5.421   6.253
 3954SOL    HW212762   0.545   5.342   6.396
 3955SOL     OW12763   5.957   3.042   0.272
 3955SOL    HW112764   5.894   2.988   0.216
 3955SOL    HW212765   6.009   2.981   0.332
 3956SOL     OW12766   0.021   3.637   4.386
 3956SOL    HW112767   6.985   3.711   4.346
 3956SOL    HW212768   0.097   3.676   4.437
 3957SOL     OW12769   1.699   2.425   1.830
 3957SOL    HW112770   1.783   2.449   1.879
 3957SOL    HW212771   1.681   2.328   1.840
 3958SOL     OW12772   4.946   5.063   0.619
 3958SOL    HW112773   4.872   5.115   0.662
 3958SOL    HW212774   4.908   5.009   0.544
 3959SOL     OW12775   2.132   4.886   0.268
 3959SOL    HW112776   2.195   4.945   0.217
 3959SOL    HW212777   2.130   4.915   0.364
 3960SOL     OW12778   5.829   3.616   1.361
 3960SOL    HW112779   5.802   3.519   1.359
 3960SOL    HW212780   5.763   3.667   1.417
 3961SOL     OW12781   0.249   1.808   2.187
 3961SOL    HW112782   0.278   1.894   2.228
 3961SOL    HW212783   0.299   1.794   2.101
 3962SOL     OW12784   0.194   6.902   0.205
 3962SOL    HW112785   0.220   6.913   0.301
 3962SOL    HW212786   0.133   6.977   0.178
 3963SOL     OW12787   6.263   3.143   4.819
 3963SOL    HW112788   6.256   3.091   4.904
 3963SOL    HW212789   6.286   3.238   4.839
 3964SOL     OW12790   5.986   4.779   6.600
 3964SOL    HW112791   5.957   4.872   6.624
 3964SOL    HW212792   6.085   4.770   6.616
 3965SOL     OW12793   2.324   5.082   1.906
 3965SOL    HW112794   2.361   4.998   1.866
 3965SOL    HW212795   2.366   5.098   1.995
 3966SOL     OW12796   6.879   4.406   5.875
 3966SOL    HW112797   6.902   4.310   5.862
 3966SOL    HW212798   6.823   4.438   5.798
 3967SOL     OW12799   2.910   0.515   0.825
 3967SOL    HW112800   2.902   0.506   0.925
 3967SOL    HW212801   3.006   0.505   0.799
 3968SOL     OW12802   4.694   2.535   0.544
 3968SOL    HW112803   4.764   2.578   0.602
 3968SOL    HW212804   4.717   2.439   0.528
 3969SOL     OW12805   6.439   7.000   1.354
 3969SOL    HW112806   6.375   6.938   1.400
 3969SOL    HW212807   6.489   0.034   1.422
 3970SOL     OW12808   5.700   3.756   3.226
 3970SOL    HW112809   5.759   3.836   3.212
 3970SOL    HW212810   5.730   3.708   3.309
 3971SOL     OW12811   0.048   5.469   3.986
 3971SOL    HW112812   0.047   5.449   4.084
 3971SOL    HW212813   6.973   5.486   3.955
 3972SOL     OW12814   0.594   1.109   6.363
 3972SOL    HW112815   0.668   1.134   6.300
 3972SOL    HW212816   0.537   1.038   6.322
 3973SOL     OW12817   3.902   2.933   1.245
 3973SOL    HW112818   3.906   3.033   1.250
 3973SOL    HW212819   3.808   2.903   1.255
 3974SOL     OW12820   5.558   0.648   6.446
 3974SOL    HW112821   5.507   0.720   6.398
 3974SOL    HW212822   5.590   0.581   6.379
 3975SOL     OW12823   0.088   6.278   3.545
 3975SOL    HW112824   0.107   6.182   3.564
 3975SOL    HW212825   0.097   6.295   3.447
 3976SOL     OW12826   0.830   2.915   4.898
 3976SOL    HW112827   0.844   2.924   4.997
 3976SOL    HW212828   0.759   2.979   4.869
 3977SOL     OW12829   2.142   4.925   6.058
 3977SOL    HW112830   2.047   4.901   6.078
 3977SOL    HW212831   2.151   4.946   5.960
 3978SOL     OW12832   4.139   3.419   6.100
 3978SOL    HW112833   4.113   3.500   6.152
 3978SOL    HW212834   4.236   3.425   6.075
 3979SOL     OW12835   0.359   5.661   2.879
 3979SOL    HW112836   0.263   5.672   2.853
 3979SOL    HW212837   0.367   5.589   2.948
 3980SOL     OW12838   5.538   3.926   3.936
 3980SOL    HW112839   5.605   3.927   4.011
 3980SOL    HW212840   5.502   3.833   3.925
 3981SOL     OW12841   6.647   1.192   7.007
 3981SOL    HW112842   6.571   1.209   6.945
 3981SOL    HW212843   6.700   1.114   6.975
 3982SOL     OW12844   1.958   2.748   3.627
 3982SOL    HW112845   2.037   2.690   3.645
 3982SOL    HW212846   1.978   2.842   3.654
 3983SOL     OW12847   2.035   1.551   3.449
 3983SOL    HW112848   2.020   1.457   3.480
 3983SOL    HW212849   2.024   1.614   3.526
 3984SOL     OW12850   1.378   6.152   2.682
 3984SOL    HW112851   1.342   6.177   2.772
 3984SOL    HW212852   1.411   6.235   2.636
 3985SOL     OW12853   0.939   2.073   1.453
 3985SOL    HW112854   0.982   2.162   1.433
 3985SOL    HW212855   1.000   2.018   1.509
 3986SOL     OW12856   1.011   0.600   3.146
 3986SOL    HW112857   0.919   0.638   3.134
 3986SOL    HW212858   1.008   0.527   3.215
 3987SOL     OW12859   1.558   4.535   5.642
 3987SOL    HW112860   1.637   4.475   5.653
 3987SOL    HW212861   1.574   4.595   5.564
 3988SOL     OW12862   4.891   5.338   2.257
 3988SOL    HW112863   4.846   5.300   2.337
 3988SOL    HW212864   4.935   5.265   2.204
 3989SOL     OW12865   4.551   0.857   6.393
 3989SOL    HW112866   4.575   0.865   6.490
 3989SOL    HW212867   4.483   0.786   6.381
 3990SOL     OW12868   6.037   6.286   3.880
 3990SOL    HW112869   6.065   6.350   3.809
 3990SOL    HW212870   5.937   6.280   3.882
 3991SOL     OW12871   0.560   2.199   4.566
 3991SOL    HW112872   0.496   2.263   4.523
 3991SOL    HW212873   0.512   2.145   4.635
 3992SOL     OW12874   6.154   3.396   5.684
 3992SOL    HW112875   6.125   3.411   5.778
 3992SOL    HW212876   6.074   3.379   5.626
 3993SOL     OW12877   1.424   0.744   4.344
 3993SOL    HW112878   1.498   0.739   4.410
 3993SOL    HW212879   1.445   0.686   4.265
 3994SOL     OW12880   2.912   1.871   3.510
 3994SOL    HW112881   2.873   1.844   3.422
 3994SOL    HW212882   2.913   1.792   3.571
 3995SOL     OW12883   2.189   4.083   1.819
 3995SOL    HW112884   2.202   4.091   1.720
 3995SOL    HW212885   2.203   3.987   1.846
 3996SOL     OW12886   0.416   5.819   5.342
 3996SOL    HW112887   0.408   5.901   5.284
 3996SOL    HW212888   0.507   5.778   5.329
 3997SOL     OW12889   6.026   3.532   5.081
 3997SOL    HW112890   6.028   3.460   5.151
 3997SOL    HW212891   5.972   3.500   5.003
 3998SOL     OW12892   4.594   2.138   2.829
 3998SOL    HW112893   4.552   2.171   2.913
 3998SOL    HW212894   4.541   2.171   2.751
 3999SOL     OW12895   4.645   3.697   1.178
 3999SOL    HW112896   4.738   3.672   1.203
 3999SOL    HW212897   4.646   3.752   1.095
 4000SOL     OW12898   3.018   4.847   2.610
 4000SOL    HW112899   3.007   4.908   2.531
 4000SOL    HW212900   2.976   4.758   2.590
 4001SOL     OW12901   0.751   5.734   4.166
 4001SOL    HW112902   0.765   5.732   4.067
 4001SOL    HW212903   0.700   5.816   4.191
 4002SOL     OW12904   3.550   3.891   4.608
 4002SOL    HW112905   3.616   3.833   4.656
 4002SOL    HW212906   3.459   3.851   4.615
 4003SOL     OW12907   3.222   1.599   4.408
 4003SOL    HW112908   3.211   1.564   4.315
 4003SOL    HW212909   3.309   1.646   4.416
 4004SOL     OW12910   2.151   3.691   4.931
 4004SOL    HW112911   2.146   3.602   4.884
 4004SOL    HW212912   2.181   3.677   5.025
 4005SOL     OW12913   5.779   1.949   1.914
 4005SOL    HW112914   5.772   2.023   1.847
 4005SOL    HW212915   5.746   1.864   1.873
 4006SOL     OW12916   6.708   5.718   2.011
 4006SOL    HW112917   6.698   5.799   1.953
 4006SOL    HW212918   6.674   5.638   1.964
 4007SOL     OW12919   0.611   1.248   1.619
 4007SOL    HW112920   0.598   1.321   1.552
 4007SOL    HW212921   0.679   1.277   1.687
 4008SOL     OW12922   4.152   0.377   1.539
 4008SOL    HW112923   4.164   0.335   1.629
 4008SOL    HW212924   4.101   0.462   1.549
 4009SOL     OW12925   3.500   2.441   1.377
 4009SOL    HW112926   3.551   2.395   1.304
 4009SOL    HW212927   3.514   2.393   1.463
 4010SOL     OW12928   0.919   5.748   0.831
 4010SOL    HW112929   0.913   5.806   0.912
 4010SOL    HW212930   1.005   5.696   0.834
 4011SOL     OW12931   5.771   6.648   6.654
 4011SOL    HW112932   5.862   6.650   6.614
 4011SOL    HW212933   5.772   6.591   6.736
 4012SOL     OW12934   5.821   4.403   1.902
 4012SOL    HW112935   5.789   4.446   1.818
 4012SOL    HW212936   5.920   4.391   1.897
 4013SOL     OW12937   0.281   1.929   6.823
 4013SOL    HW112938   0.306   1.905   6.730
 4013SOL    HW212939   0.185   1.908   6.839
 4014SOL     OW12940   4.238   6.340   2.915
 4014SOL    HW112941   4.158   6.295   2.954
 4014SOL    HW212942   4.229   6.344   2.815
 4015SOL     OW12943   3.474   6.491   5.002
 4015SOL    HW112944   3.528   6.478   4.919
 4015SOL    HW212945   3.416   6.412   5.017
 4016SOL     OW12946   4.503   5.004   4.046
 4016SOL    HW112947   4.461   5.041   4.129
 4016SOL    HW212948   4.441   4.937   4.005
 4017SOL     OW12949   1.417   5.944   6.291
 4017SOL    HW112950   1.409   5.932   6.192
 4017SOL    HW212951   1.413   5.855   6.336
 4018SOL     OW12952   5.573   5.680   6.992
 4018SOL    HW112953   5.578   5.650   0.069
 4018SOL    HW212954   5.538   5.774   6.988
 4019SOL     OW12955   0.998   2.195   3.220
 4019SOL    HW112956   1.056   2.260   3.172
 4019SOL    HW212957   1.031   2.102   3.203
 4020SOL     OW12958   6.541   5.763   5.068
 4020SOL    HW112959   6.487   5.681   5.087
 4020SOL    HW212960   6.638   5.740   5.064
 4021SOL     OW12961   4.872   5.629   5.971
 4021SOL    HW112962   4.803   5.701   5.962
 4021SOL    HW212963   4.925   5.622   5.887
 4022SOL     OW12964   3.710   0.348   1.207
 4022SOL    HW112965   3.809   0.342   1.195
 4022SOL    HW212966   3.687   0.322   1.301
 4023SOL     OW12967   1.072   1.946   3.811
 4023SOL    HW112968   1.089   1.946   3.909
 4023SOL    HW212969   1.008   1.872   3.788
 4024SOL     OW12970   1.154   6.764   6.542
 4024SOL    HW112971   1.253   6.772   6.549
 4024SOL    HW212972   1.121   6.694   6.605
 4025SOL     OW12973   1.150   4.754   4.516
 4025SOL    HW112974   1.081   4.820   4.546
 4025SOL    HW212975   1.181   4.778   4.424
 4026SOL     OW12976   0.346   6.435   4.165
 4026SOL    HW112977   0.397   6.499   4.223
 4026SOL    HW212978   0.353   6.465   4.070
 4027SOL     OW12979   3.138   5.496   4.843
 4027SOL    HW112980   3.125   5.588   4.807
 4027SOL    HW212981   3.136   5.499   4.943
 4028SOL     OW12982   4.808   1.919   4.730
 4028SOL    HW112983   4.714   1.887   4.738
 4028SOL    HW212984   4.813   2.016   4.754
 4029SOL     OW12985   2.127   6.829   1.005
 4029SOL    HW112986   2.121   6.764   0.929
 4029SOL    HW212987   2.074   6.911   0.983
 4030SOL     OW12988   0.417   1.422   1.964
 4030SOL    HW112989   0.424   1.324   1.945
 4030SOL    HW212990   0.330   1.457   1.928
 4031SOL     OW12991   5.819   5.876   0.698
 4031SOL    HW112992   5.869   5.829   0.626
 4031SOL    HW212993   5.875   5.949   0.736
 4032SOL     OW12994   4.654   1.955   2.049
 4032SOL    HW112995   4.592   1.949   2.127
 4032SOL    HW212996   4.611   2.008   1.976
 4033SOL     OW12997   1.254   4.387   3.149
 4033SOL    HW112998   1.300   4.420   3.231
 4033SOL    HW212999   1.251   4.287   3.151
 4034SOL     OW13000   2.946   1.724   4.461
 4034SOL    HW113001   2.960   1.823   4.473
 4034SOL    HW213002   3.034   1.678   4.463
 4035SOL     OW13003   3.535   2.254   1.112
 4035SOL    HW113004   3.624   2.225   1.146
 4035SOL    HW213005   3.464   2.196   1.152
 4036SOL     OW13006   4.395   0.390   3.058
 4036SOL    HW113007   4.320   0.347   3.108
 4036SOL    HW213008   4.458   0.432   3.123
 4037SOL     OW13009   1.520   0.666   5.804
 4037SOL    HW113010   1.603   0.611   5.793
 4037SOL    HW213011   1.449   0.612   5.849
 4038SOL     OW13012   4.134   5.250   5.788
 4038SOL    HW113013   4.161   5.254   5.884
 4038SOL    HW213014   4.041   5.284   5.777
 4039SOL     OW13015   6.072   4.350   2.065
 4039SOL    HW113016   6.162   4.319   2.095
 4039SOL    HW213017   6.017   4.272   2.037
 4040SOL     OW13018   2.051   6.464   5.375
 4040SOL    HW113019   2.066   6.366   5.360
 4040SOL    HW213020   2.100   6.516   5.305
 4041SOL     OW13021   1.193   6.270   1.443
 4041SOL    HW113022   1.232   6.322   1.519
 4041SOL    HW213023   1.252   6.280   1.363
 4042SOL     OW13024   1.623   1.757   4.780
 4042SOL    HW113025   1.675   1.674   4.760
 4042SOL    HW213026   1.622   1.773   4.878
 4043SOL     OW13027   3.742   2.769   5.778
 4043SOL    HW113028   3.692   2.746   5.862
 4043SOL    HW213029   3.677   2.784   5.704
 4044SOL     OW13030   4.727   4.125   3.757
 4044SOL    HW113031   4.640   4.160   3.791
 4044SOL    HW213032   4.779   4.085   3.833
 4045SOL     OW13033   4.562   1.836   4.743
 4045SOL    HW113034   4.495   1.910   4.739
 4045SOL    HW213035   4.526   1.754   4.699
 4046SOL     OW13036   5.255   0.860   4.115
 4046SOL    HW113037   5.239   0.762   4.128
 4046SOL    HW213038   5.224   0.910   4.195
 4047SOL     OW13039   2.506   2.511   6.716
 4047SOL    HW113040   2.479   2.534   6.809
 4047SOL    HW213041   2.470   2.421   6.692
 4048SOL     OW13042   4.997   2.222   3.170
 4048SOL    HW113043   5.062   2.276   3.116
 4048SOL    HW213044   5.047   2.164   3.234
 4049SOL     OW13045   3.866   4.041   2.731
 4049SOL    HW113046   3.866   3.970   2.661
 4049SOL    HW213047   3.949   4.096   2.724
 4050SOL     OW13048   0.136   4.829   2.890
 4050SOL    HW113049   0.076   4.906   2.871
 4050SOL    HW213050   0.195   4.812   2.811
 4051SOL     OW13051   5.809   0.403   3.570
 4051SOL    HW113052   5.709   0.409   3.566
 4051SOL    HW213053   5.848   0.469   3.506
 4052SOL     OW13054   4.358   1.076   5.007
 4052SOL    HW113055   4.272   1.123   5.029
 4052SOL    HW213056   4.433   1.143   5.007
 4053SOL     OW13057   0.910   4.741   2.769
 4053SOL    HW113058   0.920   4.828   2.721
 4053SOL    HW213059   0.825   4.742   2.823
 4054SOL     OW13060   5.550   4.227   1.738
 4054SOL    HW113061   5.594   4.166   1.672
 4054SOL    HW213062   5.576   4.201   1.831
 4055SOL     OW13063   0.187   4.241   7.015
 4055SOL    HW113064   0.098   4.270   0.032
 4055SOL    HW213065   0.256   4.247   0.069
 4056SOL     OW13066   4.806   4.397   0.087
 4056SOL    HW113067   4.882   4.371   0.027
 4056SOL    HW213068   4.775   4.317   0.138
 4057SOL     OW13069   7.015   4.532   5.363
 4057SOL    HW113070   0.075   4.593   5.366
 4057SOL    HW213071   6.999   4.503   5.268
 4058SOL     OW13072   2.870   0.658   3.986
 4058SOL    HW113073   2.878   0.561   3.966
 4058SOL    HW213074   2.775   0.687   3.972
 4059SOL     OW13075   1.981   1.201   3.832
 4059SOL    HW113076   1.891   1.202   3.788
 4059SOL    HW213077   2.011   1.106   3.845
 4060SOL     OW13078   6.789   6.451   3.818
 4060SOL    HW113079   6.816   6.481   3.726
 4060SOL    HW213080   6.868   6.412   3.865
 4061SOL     OW13081   1.494   4.158   2.569
 4061SOL    HW113082   1.395   4.164   2.572
 4061SOL    HW213083   1.529   4.215   2.495
 4062SOL     OW13084   2.500   3.796   0.397
 4062SOL    HW113085   2.439   3.804   0.318
 4062SOL    HW213086   2.573   3.863   0.390
 4063SOL     OW13087   3.553   0.854   1.222
 4063SOL    HW113088   3.652   0.860   1.227
 4063SOL    HW213089   3.513   0.922   1.283
 4064SOL     OW13090   2.544   6.679   4.879
 4064SOL    HW113091   2.447   6.656   4.887
 4064SOL    HW213092   2.593   6.602   4.839
 4065SOL     OW13093   2.370   1.260   1.761
 4065SOL    HW113094   2.290   1.211   1.797
 4065SOL    HW213095   2.410   1.316   1.833
 4066SOL     OW13096   0.525   4.076   5.099
 4066SOL    HW113097   0.436   4.083   5.144
 4066SOL    HW213098   0.528   4.140   5.022
 4067SOL     OW13099   5.814   4.192   1.124
 4067SOL    HW113100   5.897   4.202   1.069
 4067SOL    HW213101   5.734   4.209   1.067
 4068SOL     OW13102   2.669   2.203   5.901
 4068SOL    HW113103   2.634   2.296   5.908
 4068SOL    HW213104   2.690   2.183   5.805
 4069SOL     OW13105   4.024   0.535   5.891
 4069SOL    HW113106   3.939   0.586   5.891
 4069SOL    HW213107   4.090   0.578   5.953
 4070SOL     OW13108   1.989   4.121   4.271
 4070SOL    HW113109   1.932   4.184   4.324
 4070SOL    HW213110   2.085   4.146   4.282
 4071SOL     OW13111   0.997   0.484   5.151
 4071SOL    HW113112   1.057   0.443   5.220
 4071SOL    HW213113   0.939   0.414   5.110
 4072SOL     OW13114   2.641   6.147   2.246
 4072SOL    HW113115   2.548   6.180   2.260
 4072SOL    HW213116   2.692   6.155   2.332
 4073SOL     OW13117   5.080   4.935   6.662
 4073SOL    HW113118   5.053   4.933   6.565
 4073SOL    HW213119   5.166   4.887   6.674
 4074SOL     OW13120   1.273   5.615   1.873
 4074SOL    HW113121   1.242   5.648   1.963
 4074SOL    HW213122   1.210   5.647   1.802
 4075SOL     OW13123   5.513   0.154   6.466
 4075SOL    HW113124   5.500   0.235   6.523
 4075SOL    HW213125   5.438   0.089   6.483
 4076SOL     OW13126   2.380   5.391   3.521
 4076SOL    HW113127   2.330   5.474   3.545
 4076SOL    HW213128   2.391   5.386   3.422
 4077SOL     OW13129   2.628   1.741   1.114
 4077SOL    HW113130   2.538   1.705   1.089
 4077SOL    HW213131   2.628   1.771   1.209
 4078SOL     OW13132   4.513   4.728   1.831
 4078SOL    HW113133   4.574   4.721   1.752
 4078SOL    HW213134   4.541   4.663   1.901
 4079SOL     OW13135   0.548   2.947   3.948
 4079SOL    HW113136   0.621   2.982   4.006
 4079SOL    HW213137   0.560   2.981   3.855
 4080SOL     OW13138   6.169   2.219   4.774
 4080SOL    HW113139   6.080   2.196   4.814
 4080SOL    HW213140   6.204   2.303   4.816
 4081SOL     OW13141   6.198   3.714   2.350
 4081SOL    HW113142   6.100   3.713   2.329
 4081SOL    HW213143   6.227   3.621   2.375
 4082SOL     OW13144   0.803   3.585   1.214
 4082SOL    HW113145   0.838   3.517   1.149
 4082SOL    HW213146   0.708   3.564   1.236
 4083SOL     OW13147   0.191   3.653   5.633
 4083SOL    HW113148   0.142   3.578   5.588
 4083SOL    HW213149   0.189   3.640   5.732
 4084SOL     OW13150   4.561   0.577   3.847
 4084SOL    HW113151   4.501   0.657   3.843
 4084SOL    HW213152   4.616   0.581   3.931
 4085SOL     OW13153   2.394   5.081   6.426
 4085SOL    HW113154   2.456   5.053   6.352
 4085SOL    HW213155   2.304   5.102   6.388
 4086SOL     OW13156   6.965   2.051   2.012
 4086SOL    HW113157   6.886   2.052   1.951
 4086SOL    HW213158   6.997   1.957   2.024
 4087SOL     OW13159   1.111   0.803   3.324
 4087SOL    HW113160   1.109   0.754   3.236
 4087SOL    HW213161   1.062   0.889   3.315
 4088SOL     OW13162   0.393   3.184   6.394
 4088SOL    HW113163   0.317   3.159   6.454
 4088SOL    HW213164   0.479   3.155   6.437
 4089SOL     OW13165   0.730   2.224   5.472
 4089SOL    HW113166   0.782   2.214   5.556
 4089SOL    HW213167   0.639   2.184   5.483
 4090SOL     OW13168   3.175   5.291   6.557
 4090SOL    HW113169   3.214   5.304   6.466
 4090SOL    HW213170   3.248   5.281   6.624
 4091SOL     OW13171   4.192   6.199   1.175
 4091SOL    HW113172   4.194   6.145   1.091
 4091SOL    HW213173   4.104   6.187   1.221
 4092SOL     OW13174   1.003   1.151   3.755
 4092SOL    HW113175   0.927   1.190   3.702
 4092SOL    HW213176   1.019   1.207   3.836
 4093SOL     OW13177   4.412   6.728   3.509
 4093SOL    HW113178   4.490   6.788   3.523
 4093SOL    HW213179   4.442   6.633   3.513
 4094SOL     OW13180   3.235   2.805   6.359
 4094SOL    HW113181   3.191   2.719   6.335
 4094SOL    HW213182   3.316   2.819   6.302
 4095SOL     OW13183   2.158   3.903   6.003
 4095SOL    HW113184   2.212   3.905   5.919
 4095SOL    HW213185   2.165   3.991   6.050
 4096SOL     OW13186   4.587   4.365   1.443
 4096SOL    HW113187   4.595   4.289   1.508
 4096SOL    HW213188   4.662   4.361   1.377
 4097SOL     OW13189   3.619   3.874   2.918
 4097SOL    HW113190   3.697   3.928   2.950
 4097SOL    HW213191   3.553   3.934   2.874
 4098SOL     OW13192   1.577   3.137   2.215
 4098SOL    HW113193   1.600   3.232   2.197
 4098SOL    HW213194   1.654   3.093   2.263
 4099SOL     OW13195   2.328   6.006   1.508
 4099SOL    HW113196   2.311   6.043   1.417
 4099SOL    HW213197   2.335   6.082   1.573
 4100SOL     OW13198   3.633   0.259   2.705
 4100SOL    HW113199   3.625   0.160   2.717
 4100SOL    HW213200   3.728   0.286   2.718
 4101SOL     OW13201   4.912   1.425   6.799
 4101SOL    HW113202   4.889   1.452   6.705
 4101SOL    HW213203   4.923   1.326   6.803
 4102SOL     OW13204   5.068   1.938   6.095
 4102SOL    HW113205   5.002   2.003   6.056
 4102SOL    HW213206   5.158   1.980   6.097
 4103SOL     OW13207   6.836   0.219   1.576
 4103SOL    HW113208   6.851   0.121   1.587
 4103SOL    HW213209   6.913   0.269   1.617
 4104SOL     OW13210   2.379   4.396   2.220
 4104SOL    HW113211   2.356   4.300   2.207
 4104SOL    HW213212   2.307   4.442   2.271
 4105SOL     OW13213   6.434   4.882   0.529
 4105SOL    HW113214   6.386   4.855   0.612
 4105SOL    HW213215   6.456   4.980   0.533
 4106SOL     OW13216   0.182   3.127   3.791
 4106SOL    HW113217   0.161   3.029   3.798
 4106SOL    HW213218   0.182   3.168   3.882
 4107SOL     OW13219   6.991   0.698   0.850
 4107SOL    HW113220   7.007   0.755   0.768
 4107SOL    HW213221   6.944   0.752   0.919
 4108SOL     OW13222   6.429   2.487   4.853
 4108SOL    HW113223   6.358   2.449   4.912
 4108SOL    HW213224   6.507   2.517   4.908
 4109SOL     OW13225   2.031   6.390   3.758
 4109SOL    HW113226   1.970   6.346   3.825
 4109SOL    HW213227   1.995   6.376   3.666
 4110SOL     OW13228   4.851   3.321   5.168
 4110SOL    HW113229   4.905   3.327   5.084
 4110SOL    HW213230   4.806   3.409   5.185
 4111SOL     OW13231   3.820   3.531   6.758
 4111SOL    HW113232   3.879   3.461   6.797
 4111SOL    HW213233   3.864   3.620   6.765
 4112SOL     OW13234   3.751   0.656   5.855
 4112SOL    HW113235   3.791   0.716   5.786
 4112SOL    HW213236   3.671   0.609   5.817
 4113SOL     OW13237   3.540   5.767   4.183
 4113SOL    HW113238   3.546   5.867   4.189
 4113SOL    HW213239   3.626   5.731   4.147
 4114SOL     OW13240   3.659   1.085   3.544
 4114SOL    HW113241   3.729   1.045   3.485
 4114SOL    HW213242   3.570   1.078   3.499
 4115SOL     OW13243   4.880   3.515   3.450
 4115SOL    HW113244   4.890   3.430   3.503
 4115SOL    HW213245   4.861   3.591   3.512
 4116SOL     OW13246   2.752   1.449   1.812
 4116SOL    HW113247   2.820   1.515   1.845
 4116SOL    HW213248   2.766   1.434   1.714
 4117SOL     OW13249   1.262   5.984   2.014
 4117SOL    HW113250   1.301   5.973   1.923
 4117SOL    HW213251   1.190   6.054   2.011
 4118SOL     OW13252   1.505   0.473   6.148
 4118SOL    HW113253   1.510   0.538   6.224
 4118SOL    HW213254   1.572   0.399   6.163
 4119SOL     OW13255   5.510   1.390   3.286
 4119SOL    HW113256   5.480   1.469   3.233
 4119SOL    HW213257   5.543   1.318   3.224
 4120SOL     OW13258   5.747   0.661   1.802
 4120SOL    HW113259   5.816   0.593   1.778
 4120SOL    HW213260   5.672   0.657   1.735
 4121SOL     OW13261   5.273   2.540   3.819
 4121SOL    HW113262   5.307   2.487   3.741
 4121SOL    HW213263   5.194   2.594   3.790
 4122SOL     OW13264   2.190   5.108   0.121
 4122SOL    HW113265   2.206   5.149   0.211
 4122SOL    HW213266   2.101   5.137   0.086
 4123SOL     OW13267   3.825   3.754   5.098
 4123SOL    HW113268   3.797   3.690   5.170
 4123SOL    HW213269   3.917   3.789   5.119
 4124SOL     OW13270   4.561   5.836   2.769
 4124SOL    HW113271   4.620   5.854   2.847
 4124SOL    HW213272   4.562   5.738   2.748
 4125SOL     OW13273   4.528   2.013   1.608
 4125SOL    HW113274   4.525   2.088   1.542
 4125SOL    HW213275   4.576   1.935   1.566
 4126SOL     OW13276   1.868   3.729   4.687
 4126SOL    HW113277   1.962   3.762   4.680
 4126SOL    HW213278   1.850   3.665   4.612
 4127SOL     OW13279   5.235   4.830   3.736
 4127SOL    HW113280   5.329   4.856   3.757
 4127SOL    HW213281   5.191   4.792   3.818
 4128SOL     OW13282   0.040   1.817   1.733
 4128SOL    HW113283   0.059   1.912   1.711
 4128SOL    HW213284   0.029   1.807   1.832
 4129SOL     OW13285   0.090   3.216   0.343
 4129SOL    HW113286   0.051   3.137   0.389
 4129SOL    HW213287   0.153   3.264   0.405
 4130SOL     OW13288   6.285   2.232   1.452
 4130SOL    HW113289   6.383   2.227   1.433
 4130SOL    HW213290   6.252   2.144   1.485
 4131SOL     OW13291   6.888   3.895   3.606
 4131SOL    HW113292   6.870   3.959   3.531
 4131SOL    HW213293   6.807   3.838   3.621
 4132SOL     OW13294   4.779   1.392   4.311
 4132SOL    HW113295   4.851   1.450   4.272
 4132SOL    HW213296   4.698   1.396   4.252
 4133SOL     OW13297   2.659   2.880   0.565
 4133SOL    HW113298   2.698   2.868   0.474
 4133SOL    HW213299   2.585   2.814   0.579
 4134SOL     OW13300   2.426   1.308   6.950
 4134SOL    HW113301   2.407   1.402   6.921
 4134SOL    HW213302   2.523   1.289   6.939
 4135SOL     OW13303   1.547   0.341   0.843
 4135SOL    HW113304   1.640   0.361   0.871
 4135SOL    HW213305   1.520   0.251   0.879
 4136SOL     OW13306   1.474   1.988   3.346
 4136SOL    HW113307   1.535   2.003   3.268
 4136SOL    HW213308   1.529   1.977   3.429
 4137SOL     OW13309   3.898   3.090   5.172
 4137SOL    HW113310   3.833   3.161   5.199
 4137SOL    HW213311   3.988   3.131   5.157
 4138SOL     OW13312   5.035   5.445   1.184
 4138SOL    HW113313   5.055   5.357   1.142
 4138SOL    HW213314   4.945   5.442   1.228
 4139SOL     OW13315   3.203   1.553   6.757
 4139SOL    HW113316   3.258   1.483   6.802
 4139SOL    HW213317   3.255   1.638   6.750
 4140SOL     OW13318   4.691   2.360   4.800
 4140SOL    HW113319   4.602   2.363   4.755
 4140SOL    HW213320   4.690   2.421   4.879
 4141SOL     OW13321   5.210   6.092   0.998
 4141SOL    HW113322   5.173   6.125   0.911
 4141SOL    HW213323   5.237   5.996   0.990
 4142SOL     OW13324   5.972   3.001   2.024
 4142SOL    HW113325   6.031   3.074   2.059
 4142SOL    HW213326   5.935   2.948   2.101
 4143SOL     OW13327   1.962   2.579   1.864
 4143SOL    HW113328   1.960   2.580   1.764
 4143SOL    HW213329   1.993   2.667   1.899
 4144SOL     OW13330   4.401   0.710   2.449
 4144SOL    HW113331   4.433   0.616   2.457
 4144SOL    HW213332   4.437   0.750   2.365
 4145SOL     OW13333   3.111   0.396   3.592
 4145SOL    HW113334   3.124   0.317   3.652
 4145SOL    HW213335   3.030   0.382   3.536
 4146SOL     OW13336   4.841   4.752   0.779
 4146SOL    HW113337   4.935   4.781   0.760
 4146SOL    HW213338   4.786   4.831   0.804
 4147SOL     OW13339   2.784   1.570   5.973
 4147SOL    HW113340   2.734   1.509   5.911
 4147SOL    HW213341   2.741   1.660   5.971
 4148SOL     OW13342   6.941   6.447   2.287
 4148SOL    HW113343   6.869   6.405   2.342
 4148SOL    HW213344   6.906   6.531   2.245
 4149SOL     OW13345   4.637   4.325   2.298
 4149SOL    HW113346   4.568   4.252   2.297
 4149SOL    HW213347   4.599   4.408   2.257
 4150SOL     OW13348   3.198   0.358   4.533
 4150SOL    HW113349   3.160   0.413   4.608
 4150SOL    HW213350   3.224   0.419   4.458
 4151SOL     OW13351   0.087   5.584   0.359
 4151SOL    HW113352   0.097   5.485   0.349
 4151SOL    HW213353   0.166   5.630   0.317
 4152SOL     OW13354   3.643   4.235   0.948
 4152SOL    HW113355   3.624   4.331   0.967
 4152SOL    HW213356   3.668   4.189   1.033
 4153SOL     OW13357   6.067   5.768   6.417
 4153SOL    HW113358   6.124   5.818   6.352
 4153SOL    HW213359   6.086   5.801   6.509
 4154SOL     OW13360   4.446   2.365   4.658
 4154SOL    HW113361   4.392   2.447   4.673
 4154SOL    HW213362   4.415   2.319   4.575
 4155SOL     OW13363   1.554   3.388   0.993
 4155SOL    HW113364   1.550   3.307   1.051
 4155SOL    HW213365   1.649   3.413   0.978
 4156SOL     OW13366   5.958   1.472   5.398
 4156SOL    HW113367   6.047   1.471   5.353
 4156SOL    HW213368   5.939   1.563   5.434
 4157SOL     OW13369   3.676   1.313   3.718
 4157SOL    HW113370   3.765   1.341   3.681
 4157SOL    HW213371   3.641   1.235   3.666
 4158SOL     OW13372   0.693   0.256   3.049
 4158SOL    HW113373   0.645   0.308   3.120
 4158SOL    HW213374   0.792   0.262   3.063
 4159SOL     OW13375   1.206   4.677   5.293
 4159SOL    HW113376   1.173   4.731   5.370
 4159SOL    HW213377   1.265   4.734   5.235
 4160SOL     OW13378   6.267   0.759   1.448
 4160SOL    HW113379   6.194   0.742   1.513
 4160SOL    HW213380   6.234   0.817   1.374
 4161SOL     OW13381   6.330   1.217   1.853
 4161SOL    HW113382   6.347   1.136   1.909
 4161SOL    HW213383   6.290   1.189   1.765
 4162SOL     OW13384   0.361   6.935   4.906
 4162SOL    HW113385   0.291   6.877   4.947
 4162SOL    HW213386   0.376   6.908   4.811
 4163SOL     OW13387   0.797   2.000   5.315
 4163SOL    HW113388   0.729   2.049   5.370
 4163SOL    HW213389   0.782   2.020   5.219
 4164SOL     OW13390   2.200   6.805   5.587
 4164SOL    HW113391   2.164   6.735   5.649
 4164SOL    HW213392   2.276   6.767   5.534
 4165SOL     OW13393   0.840   6.005   1.349
 4165SOL    HW113394   0.912   5.980   1.414
 4165SOL    HW213395   0.769   6.058   1.395
 4166SOL     OW13396   6.477   1.815   2.828
 4166SOL    HW113397   6.424   1.771   2.756
 4166SOL    HW213398   6.488   1.912   2.807
 4167SOL     OW13399   1.502   2.818   1.229
 4167SOL    HW113400   1.474   2.759   1.153
 4167SOL    HW213401   1.594   2.792   1.260
 4168SOL     OW13402   2.225   5.579   0.619
 4168SOL    HW113403   2.137   5.532   0.628
 4168SOL    HW213404   2.293   5.535   0.677
 4169SOL     OW13405   6.104   3.169   6.684
 4169SOL    HW113406   6.079   3.210   6.772
 4169SOL    HW213407   6.022   3.162   6.627
 4170SOL     OW13408   3.406   0.846   5.471
 4170SOL    HW113409   3.408   0.946   5.464
 4170SOL    HW213410   3.325   0.818   5.523
 4171SOL     OW13411   6.520   2.934   1.786
 4171SOL    HW113412   6.618   2.955   1.783
 4171SOL    HW213413   6.488   2.911   1.695
 4172SOL     OW13414   2.781   0.123   1.174
 4172SOL    HW113415   2.739   0.063   1.105
 4172SOL    HW213416   2.714   0.144   1.245
 4173SOL     OW13417   4.186   4.109   5.486
 4173SOL    HW113418   4.127   4.110   5.566
 4173SOL    HW213419   4.185   4.200   5.443
 4174SOL     OW13420   4.269   1.033   3.637
 4174SOL    HW113421   4.337   1.077   3.696
 4174SOL    HW213422   4.299   1.037   3.542
 4175SOL     OW13423   2.542   1.215   2.109
 4175SOL    HW113424   2.542   1.244   2.205
 4175SOL    HW213425   2.522   1.294   2.051
 4176SOL     OW13426   5.647   4.736   2.831
 4176SOL    HW113427   5.554   4.752   2.797
 4176SOL    HW213428   5.655   4.642   2.864
 4177SOL     OW13429   0.567   5.978   3.072
 4177SOL    HW113430   0.579   5.958   2.974
 4177SOL    HW213431   0.535   5.896   3.119
 4178SOL     OW13432   3.966   2.647   5.329
 4178SOL    HW113433   3.874   2.617   5.303
 4178SOL    HW213434   4.033   2.609   5.264
 4179SOL     OW13435   0.164   1.774   0.087
 4179SOL    HW113436   0.234   1.782   0.159
 4179SOL    HW213437   0.089   1.836   0.107
 4180SOL     OW13438   5.942   4.107   1.719
 4180SOL    HW113439   5.878   4.178   1.689
 4180SOL    HW213440   6.014   4.097   1.651
 4181SOL     OW13441   5.713   0.852   0.258
 4181SOL    HW113442   5.753   0.814   0.341
 4181SOL    HW213443   5.650   0.926   0.282
 4182SOL     OW13444   6.008   0.867   3.878
 4182SOL    HW113445   6.088   0.904   3.924
 4182SOL    HW213446   5.941   0.941   3.863
 4183SOL     OW13447   0.615   0.814   1.797
 4183SOL    HW113448   0.704   0.860   1.796
 4183SOL    HW213449   0.556   0.854   1.727
 4184SOL     OW13450   4.361   4.984   6.223
 4184SOL    HW113451   4.325   4.907   6.170
 4184SOL    HW213452   4.285   5.040   6.256
 4185SOL     OW13453   0.019   1.074   4.520
 4185SOL    HW113454   0.102   1.070   4.575
 4185SOL    HW213455   6.958   1.072   4.581
 4186SOL     OW13456   3.296   3.663   1.795
 4186SOL    HW113457   3.363   3.680   1.868
 4186SOL    HW213458   3.289   3.744   1.737
 4187SOL     OW13459   4.805   5.159   5.550
 4187SOL    HW113460   4.868   5.121   5.482
 4187SOL    HW213461   4.834   5.251   5.575
 4188SOL     OW13462   5.488   5.872   2.727
 4188SOL    HW113463   5.446   5.957   2.758
 4188SOL    HW213464   5.419   5.800   2.721
 4189SOL     OW13465   1.488   3.438   3.152
 4189SOL    HW113466   1.587   3.426   3.144
 4189SOL    HW213467   1.442   3.355   3.122
 4190SOL     OW13468   2.327   6.145   1.767
 4190SOL    HW113469   2.337   6.049   1.741
 4190SOL    HW213470   2.308   6.151   1.865
 4191SOL     OW13471   0.200   1.943   3.799
 4191SOL    HW113472   0.290   1.919   3.762
 4191SOL    HW213473   0.167   2.027   3.755
 4192SOL     OW13474   5.771   6.242   3.894
 4192SOL    HW113475   5.734   6.247   3.801
 4192SOL    HW213476   5.741   6.321   3.947
 4193SOL     OW13477   1.434   6.661   3.919
 4193SOL    HW113478   1.501   6.664   3.845
 4193SOL    HW213479   1.343   6.642   3.880
 4194SOL     OW13480   4.802   6.949   3.127
 4194SOL    HW113481   4.703   6.936   3.120
 4194SOL    HW213482   4.829   0.010   3.073
 4195SOL     OW13483   4.551   0.451   3.269
 4195SOL    HW113484   4.576   0.473   3.363
 4195SOL    HW213485   4.589   0.362   3.244
 4196SOL     OW13486   4.949   2.650   2.952
 4196SOL    HW113487   4.910   2.570   2.996
 4196SOL    HW213488   5.046   2.635   2.933
 4197SOL     OW13489   5.700   4.573   4.839
 4197SOL    HW113490   5.618   4.515   4.838
 4197SOL    HW213491   5.759   4.544   4.914
 4198SOL     OW13492   6.373   3.629   6.017
 4198SOL    HW113493   6.393   3.560   5.948
 4198SOL    HW213494   6.436   3.706   6.006
 4199SOL     OW13495   3.101   4.385   5.915
 4199SOL    HW113496   3.069   4.440   5.992
 4199SOL    HW213497   3.024   4.362   5.856
 4200SOL     OW13498   2.523   0.211   5.046
 4200SOL    HW113499   2.507   0.187   5.142
 4200SOL    HW213500   2.439   0.202   4.994
 4201SOL     OW13501   6.268   0.124   4.854
 4201SOL    HW113502   6.169   0.137   4.843
 4201SOL    HW213503   6.294   0.146   4.948
 4202SOL     OW13504   5.763   3.545   4.949
 4202SOL    HW113505   5.731   3.520   5.040
 4202SOL    HW213506   5.751   3.643   4.935
 4203SOL     OW13507   3.368   5.656   4.598
 4203SOL    HW113508   3.285   5.676   4.547
 4203SOL    HW213509   3.359   5.567   4.644
 4204SOL     OW13510   1.670   4.015   0.007
 4204SOL    HW113511   1.610   3.950   6.978
 4204SOL    HW213512   1.617   4.096   0.032
 4205SOL     OW13513   2.453   6.912   3.576
 4205SOL    HW113514   2.548   6.911   3.607
 4205SOL    HW213515   2.396   6.866   3.644
 4206SOL     OW13516   4.674   6.340   3.290
 4206SOL    HW113517   4.585   6.305   3.260
 4206SOL    HW213518   4.733   6.355   3.211
 4207SOL     OW13519   1.981   6.161   7.009
 4207SOL    HW113520   2.056   6.108   0.029
 4207SOL    HW213521   2.003   6.258   7.012
 4208SOL     OW13522   1.138   1.558   2.210
 4208SOL    HW113523   1.061   1.616   2.236
 4208SOL    HW213524   1.112   1.500   2.133
 4209SOL     OW13525   2.017   0.502   5.671
 4209SOL    HW113526   2.050   0.408   5.668
 4209SOL    HW213527   2.093   0.563   5.695
 4210SOL     OW13528   3.536   3.187   0.679
 4210SOL    HW113529   3.548   3.285   0.662
 4210SOL    HW213530   3.612   3.136   0.640
 4211SOL     OW13531   6.632   3.280   4.058
 4211SOL    HW113532   6.644   3.351   4.127
 4211SOL    HW213533   6.691   3.202   4.079
 4212SOL     OW13534   5.589   6.651   1.793
 4212SOL    HW113535   5.674   6.689   1.757
 4212SOL    HW213536   5.520   6.723   1.800
 4213SOL     OW13537   1.115   0.484   1.070
 4213SOL    HW113538   1.190   0.470   1.135
 4213SOL    HW213539   1.149   0.531   0.989
 4214SOL     OW13540   3.335   5.210   3.632
 4214SOL    HW113541   3.321   5.299   3.588
 4214SOL    HW213542   3.256   5.188   3.688
 4215SOL     OW13543   1.615   5.876   0.115
 4215SOL    HW113544   1.617   5.975   0.101
 4215SOL    HW213545   1.669   5.852   0.196
 4216SOL     OW13546   2.527   2.880   5.325
 4216SOL    HW113547   2.494   2.950   5.261
 4216SOL    HW213548   2.499   2.790   5.293
 4217SOL     OW13549   5.894   0.525   4.701
 4217SOL    HW113550   5.961   0.465   4.657
 4217SOL    HW213551   5.812   0.472   4.723
 4218SOL     OW13552   3.432   5.763   2.349
 4218SOL    HW113553   3.395   5.839   2.295
 4218SOL    HW213554   3.512   5.725   2.302
 4219SOL     OW13555   5.371   0.747   2.672
 4219SOL    HW113556   5.320   0.662   2.660
 4219SOL    HW213557   5.314   0.812   2.724
 4220SOL     OW13558   1.364   4.906   2.857
 4220SOL    HW113559   1.390   4.974   2.788
 4220SOL    HW213560   1.271   4.924   2.888
 4221SOL     OW13561   5.212   6.087   5.685
 4221SOL    HW113562   5.258   6.034   5.614
 4221SOL    HW213563   5.233   6.184   5.673
 4222SOL     OW13564   2.197   3.246   0.151
 4222SOL    HW113565   2.296   3.237   0.152
 4222SOL    HW213566   2.155   3.155   0.163
 4223SOL     OW13567   3.447   4.097   2.882
 4223SOL    HW113568   3.347   4.099   2.881
 4223SOL    HW213569   3.480   4.142   2.965
 4224SOL     OW13570   3.391   2.185   5.200
 4224SOL    HW113571   3.314   2.235   5.162
 4224SOL    HW213572   3.373   2.087   5.195
 4225SOL     OW13573   5.232   6.168   4.793
 4225SOL    HW113574   5.174   6.130   4.865
 4225SOL    HW213575   5.296   6.097   4.760
 4226SOL     OW13576   2.310   2.239   1.801
 4226SOL    HW113577   2.292   2.328   1.844
 4226SOL    HW213578   2.388   2.196   1.847
 4227SOL     OW13579   5.733   3.566   0.307
 4227SOL    HW113580   5.830   3.589   0.311
 4227SOL    HW213581   5.722   3.467   0.302
 4228SOL     OW13582   4.301   5.635   2.803
 4228SOL    HW113583   4.359   5.620   2.723
 4228SOL    HW213584   4.229   5.700   2.779
 4229SOL     OW13585   4.251   4.674   4.585
 4229SOL    HW113586   4.260   4.715   4.676
 4229SOL    HW213587   4.229   4.577   4.595
 4230SOL     OW13588   1.530   1.236   5.304
 4230SOL    HW113589   1.578   1.165   5.254
 4230SOL    HW213590   1.597   1.295   5.351
 4231SOL     OW13591   3.738   6.696   6.592
 4231SOL    HW113592   3.827   6.742   6.594
 4231SOL    HW213593   3.667   6.760   6.622
 4232SOL     OW13594   1.972   4.087   1.566
 4232SOL    HW113595   1.904   4.064   1.636
 4232SOL    HW213596   1.932   4.076   1.475
 4233SOL     OW13597   4.818   5.182   0.937
 4233SOL    HW113598   4.839   5.098   0.986
 4233SOL    HW213599   4.720   5.185   0.915
 4234SOL     OW13600   3.706   3.775   5.928
 4234SOL    HW113601   3.677   3.834   5.853
 4234SOL    HW213602   3.625   3.747   5.981
 4235SOL     OW13603   0.290   4.003   4.783
 4235SOL    HW113604   0.349   4.083   4.794
 4235SOL    HW213605   0.319   3.952   4.702
 4236SOL     OW13606   1.059   3.207   4.146
 4236SOL    HW113607   1.120   3.215   4.067
 4236SOL    HW213608   1.096   3.141   4.211
 4237SOL     OW13609   5.228   3.484   5.182
 4237SOL    HW113610   5.141   3.530   5.165
 4237SOL    HW213611   5.292   3.548   5.223
 4238SOL     OW13612   5.146   4.685   5.007
 4238SOL    HW113613   5.128   4.770   5.055
 4238SOL    HW213614   5.245   4.674   4.994
 4239SOL     OW13615   5.430   4.915   5.344
 4239SOL    HW113616   5.465   4.991   5.290
 4239SOL    HW213617   5.507   4.861   5.379
 4240SOL     OW13618   2.302   4.309   5.763
 4240SOL    HW113619   2.272   4.375   5.833
 4240SOL    HW213620   2.222   4.259   5.729
 4241SOL     OW13621   3.682   2.368   0.506
 4241SOL    HW113622   3.747   2.337   0.437
 4241SOL    HW213623   3.597   2.398   0.462
 4242SOL     OW13624   2.659   0.422   1.857
 4242SOL    HW113625   2.661   0.519   1.830
 4242SOL    HW213626   2.746   0.399   1.901
 4243SOL     OW13627   2.109   1.822   2.105
 4243SOL    HW113628   2.122   1.736   2.055
 4243SOL    HW213629   2.098   1.897   2.040
 4244SOL     OW13630   2.593   7.006   0.700
 4244SOL    HW113631   2.513   0.002   0.758
 4244SOL    HW213632   2.563   6.980   0.608
 4245SOL     OW13633   0.256   1.209   1.661
 4245SOL    HW113634   0.202   1.205   1.745
 4245SOL    HW213635   0.331   1.143   1.667
 4246SOL     OW13636   3.531   2.116   3.194
 4246SOL    HW113637   3.626   2.145   3.206
 4246SOL    HW213638   3.503   2.129   3.099
 4247SOL     OW13639   2.287   4.770   6.571
 4247SOL    HW113640   2.343   4.709   6.627
 4247SOL    HW213641   2.253   4.720   6.491
 4248SOL     OW13642   2.865   6.333   1.724
 4248SOL    HW113643   2.829   6.262   1.663
 4248SOL    HW213644   2.792   6.398   1.745
 4249SOL     OW13645   6.205   1.430   5.290
 4249SOL    HW113646   6.282   1.475   5.245
 4249SOL    HW213647   6.208   1.332   5.272
 4250SOL     OW13648   0.939   5.370   4.722
 4250SOL    HW113649   0.897   5.314   4.651
 4250SOL    HW213650   0.982   5.312   4.790
 4251SOL     OW13651   4.518   1.721   5.679
 4251SOL    HW113652   4.512   1.669   5.594
 4251SOL    HW213653   4.506   1.660   5.756
 4252SOL     OW13654   0.693   6.724   6.811
 4252SOL    HW113655   0.782   6.753   6.778
 4252SOL    HW213656   0.651   6.662   6.745
 4253SOL     OW13657   3.283   0.181   2.600
 4253SOL    HW113658   3.284   0.279   2.621
 4253SOL    HW213659   3.293   0.129   2.684
 4254SOL     OW13660   0.805   0.982   4.659
 4254SOL    HW113661   0.716   0.972   4.616
 4254SOL    HW213662   0.808   0.930   4.744
 4255SOL     OW13663   1.783   2.925   4.566
 4255SOL    HW113664   1.880   2.940   4.546
 4255SOL    HW213665   1.738   2.889   4.484
 4256SOL     OW13666   5.879   6.121   1.292
 4256SOL    HW113667   5.964   6.149   1.247
 4256SOL    HW213668   5.802   6.174   1.254
 4257SOL     OW13669   0.441   1.632   2.531
 4257SOL    HW113670   0.417   1.605   2.624
 4257SOL    HW213671   0.365   1.611   2.470
 4258SOL     OW13672   2.378   6.443   0.901
 4258SOL    HW113673   2.327   6.416   0.983
 4258SOL    HW213674   2.440   6.517   0.923
 4259SOL     OW13675   1.299   0.524   0.482
 4259SOL    HW113676   1.310   0.509   0.580
 4259SOL    HW213677   1.387   0.511   0.437
 4260SOL     OW13678   6.856   0.409   5.546
 4260SOL    HW113679   6.953   0.403   5.524
 4260SOL    HW213680   6.822   0.319   5.574
 4261SOL     OW13681   1.711   6.554   2.756
 4261SOL    HW113682   1.700   6.476   2.695
 4261SOL    HW213683   1.768   6.624   2.710
 4262SOL     OW13684   1.299   3.707   4.798
 4262SOL    HW113685   1.372   3.699   4.730
 4262SOL    HW213686   1.320   3.783   4.860
 4263SOL     OW13687   3.152   0.938   2.491
 4263SOL    HW113688   3.086   1.008   2.462
 4263SOL    HW213689   3.243   0.964   2.460
 4264SOL     OW13690   4.440   2.398   6.386
 4264SOL    HW113691   4.415   2.494   6.399
 4264SOL    HW213692   4.362   2.340   6.409
 4265SOL     OW13693   3.715   5.952   6.214
 4265SOL    HW113694   3.696   6.038   6.263
 4265SOL    HW213695   3.709   5.969   6.115
 4266SOL     OW13696   1.219   3.710   2.586
 4266SOL    HW113697   1.164   3.674   2.662
 4266SOL    HW213698   1.271   3.789   2.617
 4267SOL     OW13699   1.721   3.603   3.638
 4267SOL    HW113700   1.670   3.640   3.715
 4267SOL    HW213701   1.659   3.547   3.582
 4268SOL     OW13702   1.244   4.454   4.830
 4268SOL    HW113703   1.210   4.402   4.753
 4268SOL    HW213704   1.302   4.396   4.888
 4269SOL     OW13705   2.565   1.792   4.394
 4269SOL    HW113706   2.617   1.856   4.450
 4269SOL    HW213707   2.614   1.706   4.388
 4270SOL     OW13708   3.998   4.256   1.037
 4270SOL    HW113709   3.926   4.207   1.087
 4270SOL    HW213710   4.000   4.224   0.942
 4271SOL     OW13711   6.096   6.585   6.973
 4271SOL    HW113712   6.121   6.672   6.932
 4271SOL    HW213713   6.002   6.588   7.006
 4272SOL     OW13714   6.756   2.177   5.418
 4272SOL    HW113715   6.657   2.189   5.432
 4272SOL    HW213716   6.805   2.252   5.461
 4273SOL     OW13717   3.271   6.282   3.439
 4273SOL    HW113718   3.183   6.298   3.486
 4273SOL    HW213719   3.259   6.294   3.341
 4274SOL     OW13720   6.033   0.671   2.252
 4274SOL    HW113721   5.986   0.759   2.241
 4274SOL    HW213722   6.047   0.653   2.350
 4275SOL     OW13723   5.738   1.824   4.144
 4275SOL    HW113724   5.742   1.901   4.081
 4275SOL    HW213725   5.661   1.765   4.120
 4276SOL     OW13726   2.284   0.757   3.183
 4276SOL    HW113727   2.340   0.838   3.198
 4276SOL    HW213728   2.208   0.780   3.122
 4277SOL     OW13729   6.303   4.596   3.022
 4277SOL    HW113730   6.309   4.614   3.120
 4277SOL    HW213731   6.393   4.610   2.980
 4278SOL     OW13732   0.369   6.929   1.556
 4278SOL    HW113733   0.366   6.926   1.456
 4278SOL    HW213734   0.288   6.884   1.593
 4279SOL     OW13735   1.466   3.890   2.552
 4279SOL    HW113736   1.511   3.845   2.629
 4279SOL    HW213737   1.479   3.989   2.560
 4280SOL     OW13738   2.411   0.192   5.814
 4280SOL    HW113739   2.488   0.137   5.780
 4280SOL    HW213740   2.376   0.151   5.898
 4281SOL     OW13741   6.769   6.697   2.618
 4281SOL    HW113742   6.808   6.726   2.530
 4281SOL    HW213743   6.682   6.743   2.633
 4282SOL     OW13744   4.870   4.530   2.418
 4282SOL    HW113745   4.812   4.601   2.379
 4282SOL    HW213746   4.821   4.482   2.490
 4283SOL     OW13747   0.265   2.206   5.515
 4283SOL    HW113748   0.220   2.287   5.552
 4283SOL    HW213749   0.239   2.196   5.418
 4284SOL     OW13750   4.458   6.300   0.154
 4284SOL    HW113751   4.508   6.361   0.217
 4284SOL    HW213752   4.500   6.210   0.155
 4285SOL     OW13753   3.057   1.221   6.061
 4285SOL    HW113754   3.061   1.309   6.108
 4285SOL    HW213755   3.102   1.229   5.971
 4286SOL     OW13756   5.384   6.673   6.491
 4286SOL    HW113757   5.371   6.766   6.456
 4286SOL    HW213758   5.403   6.677   6.589
 4287SOL     OW13759   4.666   0.196   1.055
 4287SOL    HW113760   4.732   0.132   1.017
 4287SOL    HW213761   4.620   0.245   0.981
 4288SOL     OW13762   6.202   6.352   2.767
 4288SOL    HW113763   6.111   6.321   2.742
 4288SOL    HW213764   6.266   6.276   2.764
 4289SOL     OW13765   0.266   5.065   5.671
 4289SOL    HW113766   0.182   5.111   5.642
 4289SOL    HW213767   0.246   4.971   5.698
 4290SOL     OW13768   6.987   1.106   2.965
 4290SOL    HW113769   0.020   1.146   3.041
 4290SOL    HW213770   0.001   1.013   2.948
 4291SOL     OW13771   4.705   4.878   5.384
 4291SOL    HW113772   4.669   4.793   5.423
 4291SOL    HW213773   4.796   4.860   5.345
 4292SOL     OW13774   6.332   0.640   0.131
 4292SOL    HW113775   6.320   0.711   0.200
 4292SOL    HW213776   6.320   0.680   0.040
 4293SOL     OW13777   4.160   2.036   5.999
 4293SOL    HW113778   4.117   1.955   5.959
 4293SOL    HW213779   4.242   2.009   6.049
 4294SOL     OW13780   2.928   1.896   0.292
 4294SOL    HW113781   3.020   1.860   0.303
 4294SOL    HW213782   2.878   1.840   0.226
 4295SOL     OW13783   4.161   6.854   2.559
 4295SOL    HW113784   4.201   6.850   2.651
 4295SOL    HW213785   4.217   6.914   2.501
 4296SOL     OW13786   1.665   5.244   1.803
 4296SOL    HW113787   1.574   5.273   1.833
 4296SOL    HW213788   1.657   5.167   1.739
 4297SOL     OW13789   4.909   4.124   0.311
 4297SOL    HW113790   4.894   4.117   0.212
 4297SOL    HW213791   4.873   4.042   0.355
 4298SOL     OW13792   1.827   6.358   0.847
 4298SOL    HW113793   1.802   6.283   0.786
 4298SOL    HW213794   1.891   6.419   0.801
 4299SOL     OW13795   0.333   3.656   0.169
 4299SOL    HW113796   0.322   3.756   0.174
 4299SOL    HW213797   0.384   3.633   0.086
 4300SOL     OW13798   3.654   0.764   2.394
 4300SOL    HW113799   3.703   0.790   2.310
 4300SOL    HW213800   3.711   0.785   2.473
 4301SOL     OW13801   2.154   5.557   4.122
 4301SOL    HW113802   2.139   5.648   4.082
 4301SOL    HW213803   2.096   5.547   4.204
 4302SOL     OW13804   3.522   4.569   6.871
 4302SOL    HW113805   3.617   4.591   6.895
 4302SOL    HW213806   3.512   4.572   6.771
 4303SOL     OW13807   4.738   5.308   3.444
 4303SOL    HW113808   4.659   5.278   3.496
 4303SOL    HW213809   4.806   5.235   3.439
 4304SOL     OW13810   2.676   4.258   1.283
 4304SOL    HW113811   2.708   4.325   1.350
 4304SOL    HW213812   2.605   4.201   1.324
 4305SOL     OW13813   0.748   6.926   6.072
 4305SOL    HW113814   0.798   6.991   6.130
 4305SOL    HW213815   0.655   6.917   6.107
 4306SOL     OW13816   6.705   4.389   5.063
 4306SOL    HW113817   6.748   4.435   4.985
 4306SOL    HW213818   6.618   4.433   5.084
 4307SOL     OW13819   6.972   1.872   4.262
 4307SOL    HW113820   6.956   1.826   4.175
 4307SOL    HW213821   6.885   1.878   4.312
 4308SOL     OW13822   4.814   5.802   6.507
 4308SOL    HW113823   4.847   5.716   6.469
 4308SOL    HW213824   4.728   5.786   6.555
 4309SOL     OW13825   2.364   2.027   0.524
 4309SOL    HW113826   2.320   1.969   0.455
 4309SOL    HW213827   2.301   2.041   0.600
 4310SOL     OW13828   6.307   1.283   4.913
 4310SOL    HW113829   6.247   1.288   4.993
 4310SOL    HW213830   6.266   1.333   4.837
 4311SOL     OW13831   1.067   6.624   0.713
 4311SOL    HW113832   1.020   6.545   0.750
 4311SOL    HW213833   1.033   6.707   0.758
 4312SOL     OW13834   0.612   3.292   2.864
 4312SOL    HW113835   0.548   3.215   2.863
 4312SOL    HW213836   0.562   3.377   2.848
 4313SOL     OW13837   0.754   3.538   0.785
 4313SOL    HW113838   0.664   3.581   0.787
 4313SOL    HW213839   0.764   3.478   0.864
 4314SOL     OW13840   2.670   1.863   5.582
 4314SOL    HW113841   2.584   1.893   5.540
 4314SOL    HW213842   2.655   1.777   5.631
 4315SOL     OW13843   2.692   2.122   5.641
 4315SOL    HW113844   2.624   2.170   5.586
 4315SOL    HW213845   2.699   2.027   5.610
 4316SOL     OW13846   5.143   4.258   1.247
 4316SOL    HW113847   5.237   4.237   1.275
 4316SOL    HW213848   5.089   4.174   1.249
 4317SOL     OW13849   4.906   0.243   3.313
 4317SOL    HW113850   4.911   0.183   3.393
 4317SOL    HW213851   4.949   0.330   3.334
 4318SOL     OW13852   2.304   5.644   3.603
 4318SOL    HW113853   2.264   5.731   3.633
 4318SOL    HW213854   2.338   5.594   3.682
 4319SOL     OW13855   2.592   4.518   0.805
 4319SOL    HW113856   2.506   4.559   0.835
 4319SOL    HW213857   2.590   4.420   0.822
 4320SOL     OW13858   4.512   1.398   1.893
 4320SOL    HW113859   4.517   1.496   1.911
 4320SOL    HW213860   4.587   1.351   1.940
 4321SOL     OW13861   6.861   5.846   3.523
 4321SOL    HW113862   6.933   5.839   3.592
 4321SOL    HW213863   6.819   5.756   3.509
 4322SOL     OW13864   2.985   1.894   3.884
 4322SOL    HW113865   2.984   1.992   3.905
 4322SOL    HW213866   3.066   1.852   3.925
 4323SOL     OW13867   5.815   3.878   1.795
 4323SOL    HW113868   5.859   3.855   1.883
 4323SOL    HW213869   5.862   3.956   1.754
 4324SOL     OW13870   6.428   4.042   5.245
 4324SOL    HW113871   6.365   4.090   5.306
 4324SOL    HW213872   6.442   3.949   5.277
 4325SOL     OW13873   1.541   0.221   0.587
 4325SOL    HW113874   1.553   0.265   0.676
 4325SOL    HW213875   1.549   0.290   0.515
 4326SOL     OW13876   5.348   2.885   2.501
 4326SOL    HW113877   5.356   2.891   2.401
 4326SOL    HW213878   5.425   2.832   2.538
 4327SOL     OW13879   3.287   6.562   4.252
 4327SOL    HW113880   3.296   6.471   4.292
 4327SOL    HW213881   3.342   6.567   4.168
 4328SOL     OW13882   5.684   0.251   1.645
 4328SOL    HW113883   5.618   0.319   1.612
 4328SOL    HW213884   5.756   0.296   1.697
 4329SOL     OW13885   6.515   3.699   0.553
 4329SOL    HW113886   6.488   3.758   0.477
 4329SOL    HW213887   6.576   3.627   0.519
 4330SOL     OW13888   2.767   6.304   5.190
 4330SOL    HW113889   2.720   6.372   5.133
 4330SOL    HW213890   2.705   6.227   5.206
 4331SOL     OW13891   6.043   1.500   2.937
 4331SOL    HW113892   6.063   1.408   2.970
 4331SOL    HW213893   6.070   1.508   2.842
 4332SOL     OW13894   6.515   6.482   1.445
 4332SOL    HW113895   6.444   6.413   1.459
 4332SOL    HW213896   6.560   6.467   1.357
 4333SOL     OW13897   3.547   3.099   6.080
 4333SOL    HW113898   3.634   3.134   6.045
 4333SOL    HW213899   3.510   3.031   6.016
 4334SOL     OW13900   0.626   1.979   3.871
 4334SOL    HW113901   0.711   1.952   3.827
 4334SOL    HW213902   0.646   2.034   3.952
 4335SOL     OW13903   2.110   2.407   1.411
 4335SOL    HW113904   2.189   2.406   1.472
 4335SOL    HW213905   2.090   2.314   1.380
 4336SOL     OW13906   2.268   5.679   5.459
 4336SOL    HW113907   2.229   5.612   5.395
 4336SOL    HW213908   2.196   5.741   5.490
 4337SOL     OW13909   0.024   4.531   4.180
 4337SOL    HW113910   0.050   4.470   4.254
 4337SOL    HW213911   0.037   4.484   4.092
 4338SOL     OW13912   3.143   3.250   5.141
 4338SOL    HW113913   3.071   3.222   5.077
 4338SOL    HW213914   3.209   3.176   5.151
 4339SOL     OW13915   3.804   3.963   4.892
 4339SOL    HW113916   3.887   3.934   4.844
 4339SOL    HW213917   3.787   3.902   4.969
 4340SOL     OW13918   6.995   4.189   0.628
 4340SOL    HW113919   6.992   4.271   0.685
 4340SOL    HW213920   7.007   4.214   0.533
 4341SOL     OW13921   5.830   6.781   1.706
 4341SOL    HW113922   5.790   6.855   1.761
 4341SOL    HW213923   5.884   6.820   1.632
 4342SOL     OW13924   5.185   3.788   2.240
 4342SOL    HW113925   5.180   3.701   2.191
 4342SOL    HW213926   5.137   3.781   2.327
 4343SOL     OW13927   4.997   0.052   6.345
 4343SOL    HW113928   4.943   0.022   6.266
 4343SOL    HW213929   5.092   0.068   6.317
 4344SOL     OW13930   1.583   4.290   2.362
 4344SOL    HW113931   1.585   4.388   2.343
 4344SOL    HW213932   1.604   4.239   2.279
 4345SOL     OW13933   3.794   3.679   2.355
 4345SOL    HW113934   3.802   3.752   2.287
 4345SOL    HW213935   3.816   3.591   2.313
 4346SOL     OW13936   1.272   3.201   1.541
 4346SOL    HW113937   1.272   3.141   1.620
 4346SOL    HW213938   1.347   3.175   1.479
 4347SOL     OW13939   5.644   6.029   0.850
 4347SOL    HW113940   5.554   6.048   0.809
 4347SOL    HW213941   5.685   5.951   0.803
 4348SOL     OW13942   6.833   4.410   6.145
 4348SOL    HW113943   6.741   4.383   6.173
 4348SOL    HW213944   6.837   4.414   6.045
 4349SOL     OW13945   1.014   3.690   3.702
 4349SOL    HW113946   1.031   3.609   3.758
 4349SOL    HW213947   1.031   3.772   3.756
 4350SOL     OW13948   4.802   6.901   4.098
 4350SOL    HW113949   4.822   6.852   4.183
 4350SOL    HW213950   4.736   6.973   4.115
 4351SOL     OW13951   0.197   6.664   1.457
 4351SOL    HW113952   0.208   6.620   1.368
 4351SOL    HW213953   0.260   6.622   1.523
 4352SOL     OW13954   4.424   4.365   1.221
 4352SOL    HW113955   4.477   4.364   1.306
 4352SOL    HW213956   4.327   4.378   1.242
 4353SOL     OW13957   2.274   3.466   0.012
 4353SOL    HW113958   2.352   3.498   0.065
 4353SOL    HW213959   2.232   3.387   0.058
 4354SOL     OW13960   6.607   4.235   2.954
 4354SOL    HW113961   6.609   4.243   2.855
 4354SOL    HW213962   6.512   4.226   2.985
 4355SOL     OW13963   2.205   5.200   4.228
 4355SOL    HW113964   2.304   5.184   4.221
 4355SOL    HW213965   2.167   5.217   4.137
 4356SOL     OW13966   5.714   1.667   5.670
 4356SOL    HW113967   5.746   1.625   5.755
 4356SOL    HW213968   5.786   1.663   5.601
 4357SOL     OW13969   5.277   5.694   2.709
 4357SOL    HW113970   5.266   5.596   2.695
 4357SOL    HW213971   5.237   5.720   2.796
 4358SOL     OW13972   3.785   0.662   1.421
 4358SOL    HW113973   3.689   0.675   1.398
 4358SOL    HW213974   3.836   0.637   1.339
 4359SOL     OW13975   3.067   4.246   1.686
 4359SOL    HW113976   3.000   4.249   1.611
 4359SOL    HW213977   3.136   4.317   1.673
 4360SOL     OW13978   2.938   6.402   3.720
 4360SOL    HW113979   2.898   6.417   3.629
 4360SOL    HW213980   3.009   6.470   3.737
 4361SOL     OW13981   1.833   6.997   6.704
 4361SOL    HW113982   1.872   6.939   6.633
 4361SOL    HW213983   1.831   0.073   6.673
 4362SOL     OW13984   5.875   5.377   2.082
 4362SOL    HW113985   5.797   5.415   2.131
 4362SOL    HW213986   5.903   5.291   2.125
 4363SOL     OW13987   4.491   0.447   2.451
 4363SOL    HW113988   4.588   0.470   2.451
 4363SOL    HW213989   4.469   0.395   2.534
 4364SOL     OW13990   3.695   3.254   3.033
 4364SOL    HW113991   3.719   3.157   3.032
 4364SOL    HW213992   3.600   3.264   3.062
 4365SOL     OW13993   2.154   1.260   0.929
 4365SOL    HW113994   2.142   1.172   0.883
 4365SOL    HW213995   2.251   1.286   0.924
 4366SOL     OW13996   4.476   5.434   4.933
 4366SOL    HW113997   4.565   5.462   4.968
 4366SOL    HW213998   4.488   5.363   4.863
 4367SOL     OW13999   1.488   0.265   1.755
 4367SOL    HW114000   1.429   0.336   1.716
 4367SOL    HW214001   1.582   0.300   1.762
 4368SOL     OW14002   5.259   5.313   4.343
 4368SOL    HW114003   5.220   5.313   4.435
 4368SOL    HW214004   5.237   5.400   4.298
 4369SOL     OW14005   6.885   4.339   3.637
 4369SOL    HW114006   6.884   4.438   3.624
 4369SOL    HW214007   6.861   4.293   3.552
 4370SOL     OW14008   5.533   4.675   1.299
 4370SOL    HW114009   5.438   4.655   1.326
 4370SOL    HW214010   5.595   4.634   1.366
 4371SOL     OW14011   3.183   0.802   3.634
 4371SOL    HW114012   3.191   0.753   3.721
 4371SOL    HW214013   3.145   0.893   3.650
 4372SOL     OW14014   2.004   4.372   5.532
 4372SOL    HW114015   1.906   4.383   5.549
 4372SOL    HW214016   2.048   4.337   5.614
 4373SOL     OW14017   4.115   0.534   0.634
 4373SOL    HW114018   4.032   0.478   0.624
 4373SOL    HW214019   4.171   0.497   0.707
 4374SOL     OW14020   1.866   6.118   0.359
 4374SOL    HW114021   1.961   6.145   0.344
 4374SOL    HW214022   1.843   6.129   0.456
 4375SOL     OW14023   4.620   0.669   5.168
 4375SOL    HW114024   4.577   0.626   5.247
 4375SOL    HW214025   4.556   0.732   5.124
 4376SOL     OW14026   2.042   4.493   6.837
 4376SOL    HW114027   2.103   4.422   6.869
 4376SOL    HW214028   2.059   4.577   6.888
 4377SOL     OW14029   5.579   6.092   6.816
 4377SOL    HW114030   5.507   6.154   6.847
 4377SOL    HW214031   5.566   6.072   6.719
 4378SOL     OW14032   2.906   5.179   1.137
 4378SOL    HW114033   2.985   5.118   1.145
 4378SOL    HW214034   2.824   5.124   1.125
 4379SOL     OW14035   5.776   6.606   1.120
 4379SOL    HW114036   5.755   6.514   1.085
 4379SOL    HW214037   5.812   6.662   1.046
 4380SOL     OW14038   1.661   5.981   4.932
 4380SOL    HW114039   1.640   6.078   4.922
 4380SOL    HW214040   1.760   5.968   4.938
 4381SOL     OW14041   3.400   5.841   4.823
 4381SOL    HW114042   3.350   5.850   4.909
 4381SOL    HW214043   3.358   5.768   4.768
 4382SOL     OW14044   5.930   3.469   3.327
 4382SOL    HW114045   5.863   3.410   3.374
 4382SOL    HW214046   5.905   3.478   3.231
 4383SOL     OW14047   1.037   6.835   6.933
 4383SOL    HW114048   1.053   6.925   6.972
 4383SOL    HW214049   0.994   6.845   6.843
 4384SOL     OW14050   3.803   0.018   1.558
 4384SOL    HW114051   3.901   0.033   1.543
 4384SOL    HW214052   3.788   6.943   1.588
 4385SOL     OW14053   5.838   2.709   4.526
 4385SOL    HW114054   5.863   2.615   4.505
 4385SOL    HW214055   5.799   2.752   4.445
 4386SOL     OW14056   1.595   5.323   0.277
 4386SOL    HW114057   1.570   5.284   0.188
 4386SOL    HW214058   1.586   5.422   0.274
 4387SOL     OW14059   6.679   2.777   0.929
 4387SOL    HW114060   6.694   2.798   1.026
 4387SOL    HW214061   6.600   2.828   0.896
 4388SOL     OW14062   4.121   0.661   5.566
 4388SOL    HW114063   4.201   0.655   5.626
 4388SOL    HW214064   4.044   0.698   5.617
 4389SOL     OW14065   0.937   2.934   2.744
 4389SOL    HW114066   0.910   2.908   2.651
 4389SOL    HW214067   0.918   3.031   2.758
 4390SOL     OW14068   5.285   4.035   1.098
 4390SOL    HW114069   5.258   4.007   1.006
 4390SOL    HW214070   5.276   3.957   1.160
 4391SOL     OW14071   0.421   5.617   1.409
 4391SOL    HW114072   0.445   5.623   1.312
 4391SOL    HW214073   0.322   5.614   1.419
 4392SOL     OW14074   5.303   5.326   4.685
 4392SOL    HW114075   5.376   5.395   4.686
 4392SOL    HW214076   5.218   5.368   4.717
 4393SOL     OW14077   5.392   0.063   2.639
 4393SOL    HW114078   5.456   0.134   2.671
 4393SOL    HW214079   5.357   0.012   2.718
 4394SOL     OW14080   4.846   1.193   3.233
 4394SOL    HW114081   4.924   1.163   3.289
 4394SOL    HW214082   4.860   1.288   3.206
 4395SOL     OW14083   5.362   2.710   1.197
 4395SOL    HW114084   5.278   2.679   1.241
 4395SOL    HW214085   5.437   2.708   1.263
 4396SOL     OW14086   2.272   0.806   2.278
 4396SOL    HW114087   2.366   0.773   2.285
 4396SOL    HW214088   2.216   0.763   2.349
 4397SOL     OW14089   4.207   1.911   0.520
 4397SOL    HW114090   4.280   1.925   0.453
 4397SOL    HW214091   4.166   2.000   0.544
 4398SOL     OW14092   0.764   5.230   4.992
 4398SOL    HW114093   0.732   5.215   5.085
 4398SOL    HW214094   0.693   5.278   4.940
 4399SOL     OW14095   3.035   0.378   1.516
 4399SOL    HW114096   3.081   0.298   1.478
 4399SOL    HW214097   2.976   0.419   1.446
 4400SOL     OW14098   4.017   5.157   2.567
 4400SOL    HW114099   3.950   5.152   2.641
 4400SOL    HW214100   4.056   5.066   2.551
 4401SOL     OW14101   4.670   6.641   4.481
 4401SOL    HW114102   4.737   6.622   4.552
 4401SOL    HW214103   4.622   6.557   4.456
 4402SOL     OW14104   6.986   6.517   0.797
 4402SOL    HW114105   6.998   6.583   0.723
 4402SOL    HW214106   6.899   6.470   0.787
 4403SOL     OW14107   6.359   1.776   3.095
 4403SOL    HW114108   6.415   1.810   3.170
 4403SOL    HW214109   6.402   1.798   3.007
 4404SOL     OW14110   1.626   3.709   2.695
 4404SOL    HW114111   1.658   3.684   2.604
 4404SOL    HW214112   1.697   3.686   2.763
 4405SOL     OW14113   3.177   3.927   6.780
 4405SOL    HW114114   3.253   3.937   6.845
 4405SOL    HW214115   3.110   3.862   6.816
 4406SOL     OW14116   6.205   2.460   3.031
 4406SOL    HW114117   6.197   2.401   3.111
 4406SOL    HW214118   6.117   2.502   3.010
 4407SOL     OW14119   1.028   0.911   0.600
 4407SOL    HW114120   0.996   0.893   0.693
 4407SOL    HW214121   1.053   0.824   0.556
 4408SOL     OW14122   4.964   6.099   1.119
 4408SOL    HW114123   5.020   6.063   1.045
 4408SOL    HW214124   5.011   6.178   1.160
 4409SOL     OW14125   3.703   1.527   3.141
 4409SOL    HW114126   3.719   1.593   3.068
 4409SOL    HW214127   3.606   1.503   3.144
 4410SOL     OW14128   2.032   5.759   0.392
 4410SOL    HW114129   2.027   5.665   0.358
 4410SOL    HW214130   2.118   5.772   0.441
 4411SOL     OW14131   3.616   3.121   1.835
 4411SOL    HW114132   3.524   3.083   1.840
 4411SOL    HW214133   3.654   3.103   1.744
 4412SOL     OW14134   3.466   1.003   6.608
 4412SOL    HW114135   3.532   1.043   6.545
 4412SOL    HW214136   3.435   0.915   6.574
 4413SOL     OW14137   4.036   5.966   4.178
 4413SOL    HW114138   3.982   6.049   4.161
 4413SOL    HW214139   4.132   5.983   4.155
 4414SOL     OW14140   3.539   4.377   1.416
 4414SOL    HW114141   3.560   4.453   1.478
 4414SOL    HW214142   3.589   4.389   1.331
 4415SOL     OW14143   4.733   1.163   2.004
 4415SOL    HW114144   4.804   1.160   2.074
 4415SOL    HW214145   4.772   1.132   1.917
 4416SOL     OW14146   2.724   2.458   5.017
 4416SOL    HW114147   2.774   2.543   5.001
 4416SOL    HW214148   2.738   2.395   4.940
 4417SOL     OW14149   4.874   0.877   1.387
 4417SOL    HW114150   4.912   0.801   1.438
 4417SOL    HW214151   4.853   0.848   1.293
 4418SOL     OW14152   4.237   0.538   2.886
 4418SOL    HW114153   4.303   0.606   2.855
 4418SOL    HW214154   4.276   0.488   2.964
 4419SOL     OW14155   6.320   5.250   6.381
 4419SOL    HW114156   6.271   5.167   6.408
 4419SOL    HW214157   6.321   5.314   6.457
 4420SOL     OW14158   5.475   1.285   0.683
 4420SOL    HW114159   5.399   1.305   0.622
 4420SOL    HW214160   5.505   1.191   0.670
 4421SOL     OW14161   1.167   1.396   3.279
 4421SOL    HW114162   1.129   1.397   3.371
 4421SOL    HW214163   1.208   1.485   3.259
 4422SOL     OW14164   1.927   4.033   5.517
 4422SOL    HW114165   2.011   4.070   5.555
 4422SOL    HW214166   1.852   4.098   5.529
 4423SOL     OW14167   6.738   2.205   6.205
 4423SOL    HW114168   6.807   2.250   6.148
 4423SOL    HW214169   6.779   2.182   6.294
 4424SOL     OW14170   2.377   5.298   3.215
 4424SOL    HW114171   2.375   5.383   3.163
 4424SOL    HW214172   2.292   5.289   3.267
 4425SOL     OW14173   5.498   4.053   2.997
 4425SOL    HW114174   5.502   4.069   2.898
 4425SOL    HW214175   5.497   3.955   3.014
 4426SOL     OW14176   0.301   6.597   6.725
 4426SOL    HW114177   0.201   6.599   6.727
 4426SOL    HW214178   0.336   6.574   6.816
 4427SOL     OW14179   0.505   4.840   4.033
 4427SOL    HW114180   0.496   4.743   4.014
 4427SOL    HW214181   0.451   4.892   3.967
 4428SOL     OW14182   1.724   6.974   2.287
 4428SOL    HW114183   1.797   0.006   2.334
 4428SOL    HW214184   1.686   6.906   2.349
 4429SOL     OW14185   2.125   6.969   1.259
 4429SOL    HW114186   2.124   6.931   1.166
 4429SOL    HW214187   2.137   6.895   1.325
 4430SOL     OW14188   1.836   0.389   2.006
 4430SOL    HW114189   1.861   0.324   2.078
 4430SOL    HW214190   1.882   0.476   2.022
 4431SOL     OW14191   2.340   1.702   2.467
 4431SOL    HW114192   2.365   1.799   2.459
 4431SOL    HW214193   2.241   1.694   2.471
 4432SOL     OW14194   3.752   3.990   4.442
 4432SOL    HW114195   3.678   3.970   4.507
 4432SOL    HW214196   3.718   4.053   4.372
 4433SOL     OW14197   5.826   6.975   1.306
 4433SOL    HW114198   5.899   6.983   1.238
 4433SOL    HW214199   5.764   6.901   1.280
 4434SOL     OW14200   5.591   2.009   5.774
 4434SOL    HW114201   5.587   2.052   5.684
 4434SOL    HW214202   5.501   1.973   5.799
 4435SOL     OW14203   3.588   2.479   1.688
 4435SOL    HW114204   3.488   2.470   1.685
 4435SOL    HW214205   3.625   2.419   1.759
 4436SOL     OW14206   5.811   0.036   0.058
 4436SOL    HW114207   5.724   0.019   0.012
 4436SOL    HW214208   5.886   0.018   7.013
 4437SOL     OW14209   3.019   6.917   5.766
 4437SOL    HW114210   3.020   6.982   5.690
 4437SOL    HW214211   3.057   6.960   5.848
 4438SOL     OW14212   3.791   2.571   6.669
 4438SOL    HW114213   3.744   2.499   6.619
 4438SOL    HW214214   3.726   2.621   6.725
 4439SOL     OW14215   0.942   5.370   2.873
 4439SOL    HW114216   1.013   5.428   2.833
 4439SOL    HW214217   0.985   5.291   2.918
 4440SOL     OW14218   6.392   1.562   0.259
 4440SOL    HW114219   6.396   1.582   0.357
 4440SOL    HW214220   6.306   1.598   0.221
 4441SOL     OW14221   5.968   1.054   4.123
 4441SOL    HW114222   5.913   0.971   4.125
 4441SOL    HW214223   5.908   1.134   4.116
 4442SOL     OW14224   1.955   6.206   1.765
 4442SOL    HW114225   1.972   6.172   1.673
 4442SOL    HW214226   2.004   6.149   1.831
 4443SOL     OW14227   1.883   1.094   1.186
 4443SOL    HW114228   1.960   1.157   1.185
 4443SOL    HW214229   1.827   1.109   1.105
 4444SOL     OW14230   5.102   2.086   2.783
 4444SOL    HW114231   5.054   2.062   2.867
 4444SOL    HW214232   5.131   2.003   2.736
 4445SOL     OW14233   0.963   2.240   6.009
 4445SOL    HW114234   1.039   2.292   5.971
 4445SOL    HW214235   0.994   2.147   6.031
 4446SOL     OW14236   6.466   5.682   4.334
 4446SOL    HW114237   6.565   5.668   4.334
 4446SOL    HW214238   6.440   5.737   4.413
 4447SOL     OW14239   4.977   3.763   4.913
 4447SOL    HW114240   4.922   3.684   4.944
 4447SOL    HW214241   4.927   3.847   4.933
 4448SOL     OW14242   2.575   3.378   6.687
 4448SOL    HW114243   2.494   3.348   6.637
 4448SOL    HW214244   2.621   3.299   6.728
 4449SOL     OW14245   0.204   2.008   5.692
 4449SOL    HW114246   0.198   1.910   5.677
 4449SOL    HW214247   0.192   2.055   5.604
 4450SOL     OW14248   4.106   3.352   3.125
 4450SOL    HW114249   4.103   3.299   3.210
 4450SOL    HW214250   4.126   3.291   3.048
 4451SOL     OW14251   0.448   5.573   1.116
 4451SOL    HW114252   0.357   5.574   1.156
 4451SOL    HW214253   0.458   5.651   1.054
 4452SOL     OW14254   0.981   3.890   6.598
 4452SOL    HW114255   1.013   3.903   6.504
 4452SOL    HW214256   0.920   3.811   6.602
 4453SOL     OW14257   5.521   0.829   0.699
 4453SOL    HW114258   5.424   0.849   0.709
 4453SOL    HW214259   5.541   0.739   0.738
 4454SOL     OW14260   6.170   3.252   2.084
 4454SOL    HW114261   6.193   3.167   2.037
 4454SOL    HW214262   6.234   3.324   2.056
 4455SOL     OW14263   4.823   2.592   2.498
 4455SOL    HW114264   4.807   2.564   2.404
 4455SOL    HW214265   4.910   2.641   2.504
 4456SOL     OW14266   6.839   5.569   2.708
 4456SOL    HW114267   6.754   5.518   2.717
 4456SOL    HW214268   6.829   5.639   2.638
 4457SOL     OW14269   4.925   2.652   6.398
 4457SOL    HW114270   4.994   2.718   6.369
 4457SOL    HW214271   4.965   2.560   6.396
 4458SOL     OW14272   4.442   2.080   1.201
 4458SOL    HW114273   4.443   2.137   1.283
 4458SOL    HW214274   4.480   1.990   1.223
 4459SOL     OW14275   6.456   5.076   6.180
 4459SOL    HW114276   6.427   5.141   6.251
 4459SOL    HW214277   6.417   4.986   6.201
 4460SOL     OW14278   1.765   0.004   0.154
 4460SOL    HW114279   1.852   6.996   0.113
 4460SOL    HW214280   1.767   7.003   0.252
 4461SOL     OW14281   2.177   0.040   3.330
 4461SOL    HW114282   2.200   0.076   3.239
 4461SOL    HW214283   2.225   6.972   3.344
 4462SOL     OW14284   0.582   2.994   1.415
 4462SOL    HW114285   0.607   3.071   1.356
 4462SOL    HW214286   0.515   2.936   1.367
 4463SOL     OW14287   0.402   3.558   6.406
 4463SOL    HW114288   0.442   3.531   6.494
 4463SOL    HW214289   0.474   3.562   6.337
 4464SOL     OW14290   7.002   3.541   0.956
 4464SOL    HW114291   0.033   3.495   0.882
 4464SOL    HW214292   0.006   3.638   0.956
 4465SOL     OW14293   5.904   4.659   1.411
 4465SOL    HW114294   5.984   4.613   1.448
 4465SOL    HW214295   5.864   4.718   1.481
 4466SOL     OW14296   6.928   3.064   3.904
 4466SOL    HW114297   6.887   2.988   3.854
 4466SOL    HW214298   6.934   3.144   3.845
 4467SOL     OW14299   1.340   0.452   4.291
 4467SOL    HW114300   1.295   0.526   4.341
 4467SOL    HW214301   1.277   0.374   4.284
 4468SOL     OW14302   0.763   1.301   0.438
 4468SOL    HW114303   0.813   1.363   0.378
 4468SOL    HW214304   0.795   1.207   0.423
 4469SOL     OW14305   4.883   6.751   0.472
 4469SOL    HW114306   4.784   6.739   0.472
 4469SOL    HW214307   4.925   6.675   0.421
 4470SOL     OW14308   4.737   4.363   1.214
 4470SOL    HW114309   4.804   4.308   1.264
 4470SOL    HW214310   4.762   4.364   1.117
 4471SOL     OW14311   6.503   2.406   1.651
 4471SOL    HW114312   6.468   2.482   1.706
 4471SOL    HW214313   6.450   2.324   1.670
 4472SOL     OW14314   2.194   5.241   1.587
 4472SOL    HW114315   2.120   5.299   1.623
 4472SOL    HW214316   2.278   5.262   1.636
 4473SOL     OW14317   5.546   1.078   0.295
 4473SOL    HW114318   5.599   1.141   0.351
 4473SOL    HW214319   5.454   1.067   0.334
 4474SOL     OW14320   6.860   1.603   5.088
 4474SOL    HW114321   6.812   1.656   5.018
 4474SOL    HW214322   6.959   1.612   5.074
 4475SOL     OW14323   1.311   3.344   0.840
 4475SOL    HW114324   1.385   3.369   0.902
 4475SOL    HW214325   1.320   3.393   0.754
 4476SOL     OW14326   3.320   6.427   2.715
 4476SOL    HW114327   3.264   6.402   2.794
 4476SOL    HW214328   3.337   6.346   2.659
 4477SOL     OW14329   1.359   2.087   1.011
 4477SOL    HW114330   1.444   2.040   0.987
 4477SOL    HW214331   1.317   2.043   1.090
 4478SOL     OW14332   1.421   4.336   0.709
 4478SOL    HW114333   1.420   4.240   0.737
 4478SOL    HW214334   1.372   4.391   0.777
 4479SOL     OW14335   0.952   5.786   6.090
 4479SOL    HW114336   0.866   5.752   6.130
 4479SOL    HW214337   1.026   5.772   6.155
 4480SOL     OW14338   6.753   3.031   3.013
 4480SOL    HW114339   6.853   3.020   3.018
 4480SOL    HW214340   6.731   3.126   2.996
 4481SOL     OW14341   0.677   0.967   3.876
 4481SOL    HW114342   0.729   0.997   3.956
 4481SOL    HW214343   0.685   0.868   3.865
 4482SOL     OW14344   0.804   4.125   3.557
 4482SOL    HW114345   0.827   4.044   3.504
 4482SOL    HW214346   0.705   4.128   3.573
 4483SOL     OW14347   6.680   4.455   1.062
 4483SOL    HW114348   6.609   4.393   1.096
 4483SOL    HW214349   6.669   4.467   0.963
 4484SOL     OW14350   3.680   3.781   6.473
 4484SOL    HW114351   3.748   3.849   6.504
 4484SOL    HW214352   3.624   3.821   6.401
 4485SOL     OW14353   4.332   6.813   5.245
 4485SOL    HW114354   4.403   6.802   5.175
 4485SOL    HW214355   4.243   6.789   5.205
 4486SOL     OW14356   6.120   3.560   4.277
 4486SOL    HW114357   6.157   3.592   4.364
 4486SOL    HW214358   6.021   3.573   4.277
 4487SOL     OW14359   3.651   2.705   6.031
 4487SOL    HW114360   3.553   2.712   6.045
 4487SOL    HW214361   3.697   2.781   6.077
 4488SOL     OW14362   6.846   2.478   6.639
 4488SOL    HW114363   6.759   2.454   6.596
 4488SOL    HW214364   6.903   2.529   6.574
 4489SOL     OW14365   0.714   2.125   4.090
 4489SOL    HW114366   0.748   2.213   4.056
 4489SOL    HW214367   0.706   2.129   4.189
 4490SOL     OW14368   6.889   1.972   3.612
 4490SOL    HW114369   6.909   1.879   3.644
 4490SOL    HW214370   6.830   1.967   3.531
 4491SOL     OW14371   2.051   5.084   2.226
 4491SOL    HW114372   2.087   5.148   2.157
 4491SOL    HW214373   2.124   5.022   2.255
 4492SOL     OW14374   5.604   3.767   5.153
 4492SOL    HW114375   5.695   3.807   5.146
 4492SOL    HW214376   5.543   3.814   5.089
 4493SOL     OW14377   6.173   4.897   3.773
 4493SOL    HW114378   6.080   4.879   3.806
 4493SOL    HW214379   6.228   4.933   3.849
 4494SOL     OW14380   5.120   3.308   2.079
 4494SOL    HW114381   5.173   3.349   2.154
 4494SOL    HW214382   5.041   3.259   2.117
 4495SOL     OW14383   5.700   4.501   2.354
 4495SOL    HW114384   5.694   4.490   2.255
 4495SOL    HW214385   5.622   4.456   2.398
 4496SOL     OW14386   6.158   3.449   6.157
 4496SOL    HW114387   6.242   3.491   6.192
 4496SOL    HW214388   6.081   3.511   6.174
 4497SOL     OW14389   6.161   0.148   0.710
 4497SOL    HW114390   6.228   0.142   0.784
 4497SOL    HW214391   6.146   0.244   0.685
 4498SOL     OW14392   1.379   4.695   6.078
 4498SOL    HW114393   1.297   4.752   6.069
 4498SOL    HW214394   1.422   4.713   6.166
 4499SOL     OW14395   5.707   3.915   0.212
 4499SOL    HW114396   5.777   3.874   0.154
 4499SOL    HW214397   5.634   3.848   0.229
 4500SOL     OW14398   3.255   3.885   1.609
 4500SOL    HW114399   3.157   3.876   1.624
 4500SOL    HW214400   3.290   3.963   1.661
 4501SOL     OW14401   1.384   5.474   4.892
 4501SOL    HW114402   1.403   5.460   4.989
 4501SOL    HW214403   1.393   5.572   4.871
 4502SOL     OW14404   5.608   2.775   0.324
 4502SOL    HW114405   5.561   2.688   0.335
 4502SOL    HW214406   5.558   2.847   0.372
 4503SOL     OW14407   1.044   4.008   2.604
 4503SOL    HW114408   1.008   3.926   2.558
 4503SOL    HW214409   1.099   3.981   2.683
 4504SOL     OW14410   4.503   2.011   4.020
 4504SOL    HW114411   4.471   2.078   4.087
 4504SOL    HW214412   4.578   2.051   3.967
 4505SOL     OW14413   2.529   5.690   7.000
 4505SOL    HW114414   2.502   5.742   0.063
 4505SOL    HW214415   2.623   5.712   6.976
 4506SOL     OW14416   3.449   6.110   6.023
 4506SOL    HW114417   3.497   6.034   5.978
 4506SOL    HW214418   3.481   6.119   6.117
 4507SOL     OW14419   6.387   3.898   2.682
 4507SOL    HW114420   6.429   3.892   2.591
 4507SOL    HW214421   6.459   3.902   2.751
 4508SOL     OW14422   1.748   4.840   1.325
 4508SOL    HW114423   1.677   4.770   1.330
 4508SOL    HW214424   1.831   4.807   1.371
 4509SOL     OW14425   1.190   2.424   3.712
 4509SOL    HW114426   1.143   2.360   3.651
 4509SOL    HW214427   1.276   2.453   3.670
 4510SOL     OW14428   2.688   0.420   6.933
 4510SOL    HW114429   2.639   0.374   7.006
 4510SOL    HW214430   2.758   0.479   6.972
 4511SOL     OW14431   0.155   2.612   0.385
 4511SOL    HW114432   0.218   2.676   0.429
 4511SOL    HW214433   0.202   2.565   0.311
 4512SOL     OW14434   2.147   3.824   0.519
 4512SOL    HW114435   2.110   3.839   0.428
 4512SOL    HW214436   2.089   3.760   0.569
 4513SOL     OW14437   6.352   1.842   2.532
 4513SOL    HW114438   6.351   1.750   2.493
 4513SOL    HW214439   6.259   1.867   2.560
 4514SOL     OW14440   1.608   0.268   4.448
 4514SOL    HW114441   1.653   0.200   4.389
 4514SOL    HW214442   1.575   0.343   4.392
 4515SOL     OW14443   0.586   4.074   0.564
 4515SOL    HW114444   0.670   4.067   0.511
 4515SOL    HW214445   0.514   4.114   0.508
 4516SOL     OW14446   0.172   0.295   3.844
 4516SOL    HW114447   0.199   0.346   3.926
 4516SOL    HW214448   0.189   0.350   3.763
 4517SOL     OW14449   2.616   0.735   0.197
 4517SOL    HW114450   2.604   0.680   0.114
 4517SOL    HW214451   2.713   0.742   0.219
 4518SOL     OW14452   0.829   1.255   3.593
 4518SOL    HW114453   0.759   1.288   3.656
 4518SOL    HW214454   0.787   1.193   3.526
 4519SOL     OW14455   0.160   2.510   4.322
 4519SOL    HW114456   0.186   2.535   4.228
 4519SOL    HW214457   0.071   2.464   4.320
 4520SOL     OW14458   0.069   3.781   3.421
 4520SOL    HW114459   0.020   3.831   3.492
 4520SOL    HW214460   0.100   3.693   3.457
 4521SOL     OW14461   5.064   1.588   6.385
 4521SOL    HW114462   5.003   1.584   6.306
 4521SOL    HW214463   5.159   1.596   6.354
 4522SOL     OW14464   5.258   6.777   3.387
 4522SOL    HW114465   5.170   6.792   3.342
 4522SOL    HW214466   5.257   6.818   3.478
 4523SOL     OW14467   4.835   1.741   5.693
 4523SOL    HW114468   4.764   1.798   5.654
 4523SOL    HW214469   4.841   1.758   5.792
 4524SOL     OW14470   5.841   1.884   5.089
 4524SOL    HW114471   5.766   1.911   5.028
 4524SOL    HW214472   5.876   1.795   5.062
 4525SOL     OW14473   0.330   1.477   4.220
 4525SOL    HW114474   0.278   1.423   4.286
 4525SOL    HW214475   0.267   1.532   4.165
 4526SOL     OW14476   2.338   2.196   1.021
 4526SOL    HW114477   2.420   2.192   1.078
 4526SOL    HW214478   2.336   2.284   0.974
 4527SOL     OW14479   4.831   0.120   2.953
 4527SOL    HW114480   4.878   0.072   2.878
 4527SOL    HW214481   4.744   0.156   2.919
 4528SOL     OW14482   4.394   0.306   6.419
 4528SOL    HW114483   4.326   0.361   6.466
 4528SOL    HW214484   4.415   0.347   6.330
 4529SOL     OW14485   2.869   6.921   4.050
 4529SOL    HW114486   2.842   6.854   3.981
 4529SOL    HW214487   2.884   6.876   4.137
 4530SOL     OW14488   6.633   2.231   4.235
 4530SOL    HW114489   6.653   2.307   4.173
 4530SOL    HW214490   6.615   2.266   4.326
 4531SOL     OW14491   0.349   4.179   3.232
 4531SOL    HW114492   0.333   4.204   3.137
 4531SOL    HW214493   0.299   4.096   3.254
 4532SOL     OW14494   0.446   2.054   0.484
 4532SOL    HW114495   0.495   2.118   0.543
 4532SOL    HW214496   0.429   1.969   0.534
 4533SOL     OW14497   3.639   6.099   1.750
 4533SOL    HW114498   3.703   6.146   1.690
 4533SOL    HW214499   3.552   6.148   1.751
 4534SOL     OW14500   6.366   4.013   6.457
 4534SOL    HW114501   6.372   3.950   6.535
 4534SOL    HW214502   6.417   4.096   6.479
 4535SOL     OW14503   4.711   1.786   2.413
 4535SOL    HW114504   4.643   1.822   2.476
 4535SOL    HW214505   4.667   1.723   2.348
 4536SOL     OW14506   6.723   6.994   3.553
 4536SOL    HW114507   6.757   6.969   3.462
 4536SOL    HW214508   6.683   6.913   3.596
 4537SOL     OW14509   5.164   3.076   5.455
 4537SOL    HW114510   5.173   3.063   5.356
 4537SOL    HW214511   5.083   3.131   5.474
 4538SOL     OW14512   3.338   1.849   1.277
 4538SOL    HW114513   3.369   1.755   1.269
 4538SOL    HW214514   3.388   1.896   1.350
 4539SOL     OW14515   2.356   3.959   0.870
 4539SOL    HW114516   2.443   3.914   0.853
 4539SOL    HW214517   2.360   4.010   0.956
 4540SOL     OW14518   3.677   3.217   4.107
 4540SOL    HW114519   3.699   3.296   4.049
 4540SOL    HW214520   3.580   3.220   4.132
 4541SOL     OW14521   5.972   0.993   1.587
 4541SOL    HW114522   5.968   0.893   1.588
 4541SOL    HW214523   5.944   1.026   1.497
 4542SOL     OW14524   5.496   6.441   3.541
 4542SOL    HW114525   5.413   6.386   3.545
 4542SOL    HW214526   5.490   6.505   3.464
 4543SOL     OW14527   5.137   2.945   2.649
 4543SOL    HW114528   5.103   3.037   2.629
 4543SOL    HW214529   5.187   2.910   2.569
 4544SOL     OW14530   5.503   4.743   0.289
 4544SOL    HW114531   5.493   4.668   0.355
 4544SOL    HW214532   5.545   4.821   0.335
 4545SOL     OW14533   4.762   3.567   0.621
 4545SOL    HW114534   4.808   3.571   0.532
 4545SOL    HW214535   4.795   3.642   0.678
 4546SOL     OW14536   0.826   6.050   0.475
 4546SOL    HW114537   0.870   5.960   0.470
 4546SOL    HW214538   0.888   6.115   0.518
 4547SOL     OW14539   4.416   1.656   2.522
 4547SOL    HW114540   4.426   1.561   2.549
 4547SOL    HW214541   4.319   1.676   2.506
 4548SOL     OW14542   1.173   3.030   4.305
 4548SOL    HW114543   1.185   2.932   4.324
 4548SOL    HW214544   1.262   3.074   4.299
 4549SOL     OW14545   5.794   1.537   3.078
 4549SOL    HW114546   5.890   1.525   3.052
 4549SOL    HW214547   5.783   1.624   3.127
 4550SOL     OW14548   1.714   5.202   5.839
 4550SOL    HW114549   1.659   5.124   5.809
 4550SOL    HW214550   1.807   5.193   5.801
 4551SOL     OW14551   6.131   3.151   0.890
 4551SOL    HW114552   6.066   3.100   0.946
 4551SOL    HW214553   6.136   3.110   0.799
 4552SOL     OW14554   0.183   3.906   5.196
 4552SOL    HW114555   0.196   3.813   5.161
 4552SOL    HW214556   0.266   3.935   5.244
 4553SOL     OW14557   5.244   5.298   0.012
 4553SOL    HW114558   5.221   5.283   6.935
 4553SOL    HW214559   5.172   5.261   0.071
 4554SOL     OW14560   6.525   5.985   4.113
 4554SOL    HW114561   6.459   6.018   4.180
 4554SOL    HW214562   6.480   5.918   4.054
 4555SOL     OW14563   4.054   2.530   0.035
 4555SOL    HW114564   4.109   2.570   0.108
 4555SOL    HW214565   3.974   2.587   0.018
 4556SOL     OW14566   3.647   0.682   4.974
 4556SOL    HW114567   3.582   0.607   4.986
 4556SOL    HW214568   3.652   0.706   4.877
 4557SOL     OW14569   5.050   0.963   3.776
 4557SOL    HW114570   4.951   0.977   3.783
 4557SOL    HW214571   5.097   1.050   3.794
 4558SOL     OW14572   0.458   3.936   0.101
 4558SOL    HW114573   0.524   4.005   0.071
 4558SOL    HW214574   0.401   3.908   0.023
 4559SOL     OW14575   1.685   6.882   1.339
 4559SOL    HW114576   1.631   6.886   1.422
 4559SOL    HW214577   1.755   6.953   1.341
 4560SOL     OW14578   5.742   2.361   4.066
 4560SOL    HW114579   5.730   2.403   3.976
 4560SOL    HW214580   5.837   2.330   4.076
 4561SOL     OW14581   2.476   6.273   6.665
 4561SOL    HW114582   2.515   6.359   6.697
 4561SOL    HW214583   2.549   6.205   6.654
 4562SOL     OW14584   3.222   4.271   5.668
 4562SOL    HW114585   3.150   4.243   5.603
 4562SOL    HW214586   3.181   4.284   5.758
 4563SOL     OW14587   5.516   2.743   6.763
 4563SOL    HW114588   5.436   2.797   6.739
 4563SOL    HW214589   5.494   2.683   6.841
 4564SOL     OW14590   6.580   5.211   0.335
 4564SOL    HW114591   6.663   5.238   0.288
 4564SOL    HW214592   6.570   5.111   0.331
 4565SOL     OW14593   4.479   0.782   4.230
 4565SOL    HW114594   4.486   0.796   4.131
 4565SOL    HW214595   4.430   0.697   4.248
 4566SOL     OW14596   1.979   0.400   1.421
 4566SOL    HW114597   2.035   0.321   1.444
 4566SOL    HW214598   1.999   0.429   1.327
 4567SOL     OW14599   5.946   2.521   0.307
 4567SOL    HW114600   5.904   2.516   0.398
 4567SOL    HW214601   5.920   2.607   0.263
 4568SOL     OW14602   4.360   4.763   3.939
 4568SOL    HW114603   4.414   4.705   3.878
 4568SOL    HW214604   4.371   4.732   4.034
 4569SOL     OW14605   1.955   1.310   3.526
 4569SOL    HW114606   2.034   1.252   3.543
 4569SOL    HW214607   1.893   1.306   3.604
 4570SOL     OW14608   5.405   6.028   5.049
 4570SOL    HW114609   5.494   5.983   5.054
 4570SOL    HW214610   5.395   6.090   5.127
 4571SOL     OW14611   3.886   3.020   3.849
 4571SOL    HW114612   3.891   2.978   3.939
 4571SOL    HW214613   3.921   3.114   3.854
 4572SOL     OW14614   2.563   5.046   1.081
 4572SOL    HW114615   2.633   5.030   1.011
 4572SOL    HW214616   2.600   5.024   1.171
 4573SOL     OW14617   5.127   6.802   1.978
 4573SOL    HW114618   5.064   6.746   1.925
 4573SOL    HW214619   5.179   6.744   2.041
 4574SOL     OW14620   0.035   4.926   2.055
 4574SOL    HW114621   0.022   4.867   2.135
 4574SOL    HW214622   0.003   4.878   1.974
 4575SOL     OW14623   5.977   5.651   1.421
 4575SOL    HW114624   5.928   5.733   1.452
 4575SOL    HW214625   5.974   5.647   1.321
 4576SOL     OW14626   3.729   6.056   4.633
 4576SOL    HW114627   3.668   5.976   4.637
 4576SOL    HW214628   3.695   6.126   4.695
 4577SOL     OW14629   2.359   4.780   3.560
 4577SOL    HW114630   2.391   4.796   3.466
 4577SOL    HW214631   2.432   4.737   3.613
 4578SOL     OW14632   5.881   6.256   3.449
 4578SOL    HW114633   5.926   6.167   3.457
 4578SOL    HW214634   5.800   6.258   3.507
 4579SOL     OW14635   4.539   1.541   2.895
 4579SOL    HW114636   4.486   1.483   2.957
 4579SOL    HW214637   4.479   1.612   2.857
 4580SOL     OW14638   0.632   4.984   0.516
 4580SOL    HW114639   0.709   5.046   0.503
 4580SOL    HW214640   0.663   4.902   0.565
 4581SOL     OW14641   2.905   5.497   4.540
 4581SOL    HW114642   2.924   5.422   4.604
 4581SOL    HW214643   2.841   5.467   4.470
 4582SOL     OW14644   5.221   5.917   2.544
 4582SOL    HW114645   5.230   5.850   2.617
 4582SOL    HW214646   5.133   5.903   2.497
 4583SOL     OW14647   3.898   6.902   5.399
 4583SOL    HW114648   3.820   6.938   5.450
 4583SOL    HW214649   3.914   6.959   5.318
 4584SOL     OW14650   0.030   5.280   5.386
 4584SOL    HW114651   6.972   5.234   5.341
 4584SOL    HW214652   7.016   5.364   5.430
 4585SOL     OW14653   3.581   6.889   2.324
 4585SOL    HW114654   3.494   6.906   2.370
 4585SOL    HW214655   3.620   6.975   2.292
 4586SOL     OW14656   1.360   6.278   1.719
 4586SOL    HW114657   1.404   6.291   1.631
 4586SOL    HW214658   1.428   6.255   1.788
 4587SOL     OW14659   3.278   4.582   1.142
 4587SOL    HW114660   3.314   4.489   1.138
 4587SOL    HW214661   3.353   4.647   1.129
 4588SOL     OW14662   3.503   4.161   4.667
 4588SOL    HW114663   3.585   4.210   4.698
 4588SOL    HW214664   3.529   4.068   4.641
 4589SOL     OW14665   1.934   2.008   3.869
 4589SOL    HW114666   1.987   1.923   3.873
 4589SOL    HW214667   1.943   2.048   3.777
 4590SOL     OW14668   4.076   6.586   2.480
 4590SOL    HW114669   3.976   6.586   2.470
 4590SOL    HW214670   4.106   6.678   2.507
 4591SOL     OW14671   4.693   5.541   4.784
 4591SOL    HW114672   4.700   5.526   4.686
 4591SOL    HW214673   4.631   5.618   4.802
 4592SOL     OW14674   3.435   2.187   6.132
 4592SOL    HW114675   3.416   2.125   6.056
 4592SOL    HW214676   3.492   2.263   6.099
 4593SOL     OW14677   5.043   5.169   1.584
 4593SOL    HW114678   5.063   5.266   1.599
 4593SOL    HW214679   4.947   5.158   1.557
 4594SOL     OW14680   4.580   2.060   2.526
 4594SOL    HW114681   4.634   2.123   2.583
 4594SOL    HW214682   4.514   2.012   2.584
 4595SOL     OW14683   4.141   3.180   5.217
 4595SOL    HW114684   4.156   3.277   5.235
 4595SOL    HW214685   4.198   3.126   5.279
 4596SOL     OW14686   4.656   1.056   2.464
 4596SOL    HW114687   4.604   1.072   2.380
 4596SOL    HW214688   4.744   1.103   2.459
 4597SOL     OW14689   6.716   3.592   6.488
 4597SOL    HW114690   6.803   3.542   6.493
 4597SOL    HW214691   6.651   3.539   6.433
 4598SOL     OW14692   2.375   3.798   0.152
 4598SOL    HW114693   2.285   3.768   0.121
 4598SOL    HW214694   2.416   3.860   0.084
 4599SOL     OW14695   3.273   4.504   0.747
 4599SOL    HW114696   3.344   4.570   0.722
 4599SOL    HW214697   3.311   4.437   0.811
 4600SOL     OW14698   2.320   3.490   0.810
 4600SOL    HW114699   2.373   3.556   0.757
 4600SOL    HW214700   2.382   3.433   0.864
 4601SOL     OW14701   1.930   5.696   3.445
 4601SOL    HW114702   1.881   5.717   3.529
 4601SOL    HW214703   1.867   5.697   3.368
 4602SOL     OW14704   1.053   0.375   1.478
 4602SOL    HW114705   1.041   0.421   1.390
 4602SOL    HW214706   1.052   0.276   1.465
 4603SOL     OW14707   2.579   1.519   1.371
 4603SOL    HW114708   2.560   1.497   1.275
 4603SOL    HW214709   2.671   1.489   1.395
 4604SOL     OW14710   1.079   6.582   3.118
 4604SOL    HW114711   1.016   6.610   3.045
 4604SOL    HW214712   1.033   6.587   3.206
 4605SOL     OW14713   5.590   6.670   5.435
 4605SOL    HW114714   5.659   6.739   5.413
 4605SOL    HW214715   5.560   6.683   5.530
 4606SOL     OW14716   6.105   6.264   4.532
 4606SOL    HW114717   6.098   6.217   4.444
 4606SOL    HW214718   6.023   6.246   4.586
 4607SOL     OW14719   2.474   3.214   0.459
 4607SOL    HW114720   2.561   3.239   0.417
 4607SOL    HW214721   2.424   3.297   0.483
 4608SOL     OW14722   1.823   3.602   5.992
 4608SOL    HW114723   1.772   3.686   6.007
 4608SOL    HW214724   1.810   3.540   6.069
 4609SOL     OW14725   3.372   0.101   0.161
 4609SOL    HW114726   3.291   0.099   0.103
 4609SOL    HW214727   3.383   0.012   0.206
 4610SOL     OW14728   6.662   3.399   0.785
 4610SOL    HW114729   6.682   3.356   0.873
 4610SOL    HW214730   6.728   3.368   0.717
 4611SOL     OW14731   1.553   4.862   5.627
 4611SOL    HW114732   1.650   4.868   5.606
 4611SOL    HW214733   1.540   4.810   5.711
 4612SOL     OW14734   1.074   0.505   6.825
 4612SOL    HW114735   1.150   0.440   6.834
 4612SOL    HW214736   0.988   0.454   6.823
 4613SOL     OW14737   4.072   4.706   1.379
 4613SOL    HW114738   4.019   4.791   1.379
 4613SOL    HW214739   4.166   4.726   1.404
 4614SOL     OW14740   1.885   3.947   0.628
 4614SOL    HW114741   1.945   3.876   0.591
 4614SOL    HW214742   1.815   3.971   0.561
 4615SOL     OW14743   5.911   2.934   6.550
 4615SOL    HW114744   5.858   2.929   6.634
 4615SOL    HW214745   5.903   2.848   6.500
 4616SOL     OW14746   5.275   0.673   6.612
 4616SOL    HW114747   5.354   0.706   6.662
 4616SOL    HW214748   5.304   0.609   6.541
 4617SOL     OW14749   0.607   4.253   1.963
 4617SOL    HW114750   0.546   4.182   1.999
 4617SOL    HW214751   0.647   4.304   2.039
 4618SOL     OW14752   1.548   2.377   6.458
 4618SOL    HW114753   1.531   2.391   6.361
 4618SOL    HW214754   1.589   2.459   6.498
 4619SOL     OW14755   4.355   0.995   4.389
 4619SOL    HW114756   4.256   0.992   4.381
 4619SOL    HW214757   4.396   0.931   4.323
 4620SOL     OW14758   1.456   5.773   0.800
 4620SOL    HW114759   1.486   5.846   0.862
 4620SOL    HW214760   1.528   5.756   0.732
 4621SOL     OW14761   6.520   0.996   0.271
 4621SOL    HW114762   6.505   1.082   0.224
 4621SOL    HW214763   6.446   0.980   0.337
 4622SOL     OW14764   1.819   4.270   0.642
 4622SOL    HW114765   1.752   4.339   0.668
 4622SOL    HW214766   1.843   4.215   0.722
 4623SOL     OW14767   6.835   3.414   4.202
 4623SOL    HW114768   6.925   3.384   4.234
 4623SOL    HW214769   6.839   3.511   4.177
 4624SOL     OW14770   4.339   6.394   5.526
 4624SOL    HW114771   4.286   6.479   5.515
 4624SOL    HW214772   4.319   6.332   5.451
 4625SOL     OW14773   0.887   4.186   6.238
 4625SOL    HW114774   0.868   4.267   6.294
 4625SOL    HW214775   0.804   4.129   6.234
 4626SOL     OW14776   6.728   4.714   2.234
 4626SOL    HW114777   6.667   4.790   2.213
 4626SOL    HW214778   6.676   4.639   2.275
 4627SOL     OW14779   2.367   6.728   4.522
 4627SOL    HW114780   2.305   6.759   4.450
 4627SOL    HW214781   2.461   6.749   4.497
 4628SOL     OW14782   6.425   2.614   1.849
 4628SOL    HW114783   6.469   2.568   1.926
 4628SOL    HW214784   6.349   2.669   1.882
 4629SOL     OW14785   4.670   5.497   3.920
 4629SOL    HW114786   4.690   5.401   3.898
 4629SOL    HW214787   4.573   5.507   3.939
 4630SOL     OW14788   2.537   5.863   2.641
 4630SOL    HW114789   2.630   5.867   2.677
 4630SOL    HW214790   2.539   5.872   2.542
 4631SOL     OW14791   1.698   0.595   2.488
 4631SOL    HW114792   1.608   0.598   2.445
 4631SOL    HW214793   1.768   0.616   2.420
 4632SOL     OW14794   6.032   6.092   4.335
 4632SOL    HW114795   5.942   6.058   4.364
 4632SOL    HW214796   6.020   6.157   4.260
 4633SOL     OW14797   4.657   3.104   5.974
 4633SOL    HW114798   4.717   3.155   6.036
 4633SOL    HW214799   4.599   3.167   5.924
 4634SOL     OW14800   2.459   3.539   0.190
 4634SOL    HW114801   2.428   3.634   0.180
 4634SOL    HW214802   2.430   3.503   0.279
 4635SOL     OW14803   4.784   3.025   1.408
 4635SOL    HW114804   4.743   2.968   1.479
 4635SOL    HW214805   4.731   3.017   1.324
 4636SOL     OW14806   1.056   5.426   1.704
 4636SOL    HW114807   1.079   5.520   1.681
 4636SOL    HW214808   1.047   5.372   1.621
 4637SOL     OW14809   0.176   0.521   5.348
 4637SOL    HW114810   0.268   0.551   5.374
 4637SOL    HW214811   0.153   0.437   5.397
 4638SOL     OW14812   4.524   5.320   5.621
 4638SOL    HW114813   4.553   5.303   5.715
 4638SOL    HW214814   4.543   5.415   5.597
 4639SOL     OW14815   6.814   2.675   5.498
 4639SOL    HW114816   6.775   2.681   5.406
 4639SOL    HW214817   6.914   2.678   5.492
 4640SOL     OW14818   0.756   5.849   3.372
 4640SOL    HW114819   0.744   5.947   3.362
 4640SOL    HW214820   0.765   5.826   3.469
 4641SOL     OW14821   2.184   3.900   5.323
 4641SOL    HW114822   2.096   3.947   5.314
 4641SOL    HW214823   2.241   3.919   5.243
 4642SOL     OW14824   5.824   5.449   4.793
 4642SOL    HW114825   5.783   5.359   4.776
 4642SOL    HW214826   5.860   5.451   4.887
 4643SOL     OW14827   4.253   3.900   1.128
 4643SOL    HW114828   4.281   3.837   1.056
 4643SOL    HW214829   4.255   3.994   1.093
 4644SOL     OW14830   3.582   5.103   5.518
 4644SOL    HW114831   3.578   5.166   5.596
 4644SOL    HW214832   3.628   5.019   5.546
 4645SOL     OW14833   1.667   5.691   4.842
 4645SOL    HW114834   1.680   5.785   4.875
 4645SOL    HW214835   1.738   5.670   4.775
 4646SOL     OW14836   3.607   1.207   0.813
 4646SOL    HW114837   3.556   1.175   0.733
 4646SOL    HW214838   3.686   1.148   0.829
 4647SOL     OW14839   6.280   0.428   5.243
 4647SOL    HW114840   6.218   0.405   5.318
 4647SOL    HW214841   6.260   0.370   5.164
 4648SOL     OW14842   2.105   6.668   3.637
 4648SOL    HW114843   2.191   6.692   3.683
 4648SOL    HW214844   2.063   6.591   3.685
 4649SOL     OW14845   5.381   4.990   6.195
 4649SOL    HW114846   5.282   5.005   6.204
 4649SOL    HW214847   5.429   5.076   6.210
 4650SOL     OW14848   6.433   4.737   1.457
 4650SOL    HW114849   6.469   4.770   1.544
 4650SOL    HW214850   6.496   4.670   1.418
 4651SOL     OW14851   6.166   1.379   1.177
 4651SOL    HW114852   6.092   1.312   1.170
 4651SOL    HW214853   6.246   1.347   1.126
 4652SOL     OW14854   0.316   6.428   5.724
 4652SOL    HW114855   0.262   6.432   5.640
 4652SOL    HW214856   0.358   6.338   5.732
 4653SOL     OW14857   1.748   4.756   0.366
 4653SOL    HW114858   1.733   4.777   0.463
 4653SOL    HW214859   1.794   4.833   0.322
 4654SOL     OW14860   2.065   1.694   0.239
 4654SOL    HW114861   2.002   1.664   0.167
 4654SOL    HW214862   2.154   1.649   0.226
 4655SOL     OW14863   0.480   4.701   4.959
 4655SOL    HW114864   0.456   4.692   4.863
 4655SOL    HW214865   0.477   4.611   5.003
 4656SOL     OW14866   2.359   0.123   2.663
 4656SOL    HW114867   2.343   0.088   2.571
 4656SOL    HW214868   2.338   0.221   2.666
 4657SOL     OW14869   6.432   1.132   5.374
 4657SOL    HW114870   6.431   1.118   5.275
 4657SOL    HW214871   6.482   1.216   5.396
 4658SOL     OW14872   5.190   6.864   3.636
 4658SOL    HW114873   5.260   6.934   3.649
 4658SOL    HW214874   5.100   6.905   3.651
 4659SOL     OW14875   2.220   3.072   3.568
 4659SOL    HW114876   2.230   3.163   3.528
 4659SOL    HW214877   2.123   3.053   3.584
 4660SOL     OW14878   6.796   1.339   5.266
 4660SOL    HW114879   6.797   1.433   5.231
 4660SOL    HW214880   6.714   1.325   5.321
 4661SOL     OW14881   3.297   3.078   3.658
 4661SOL    HW114882   3.362   3.035   3.596
 4661SOL    HW214883   3.346   3.125   3.731
 4662SOL     OW14884   6.632   6.889   4.588
 4662SOL    HW114885   6.668   6.982   4.596
 4662SOL    HW214886   6.598   6.859   4.677
 4663SOL     OW14887   0.807   1.615   2.764
 4663SOL    HW114888   0.819   1.521   2.733
 4663SOL    HW214889   0.712   1.629   2.791
 4664SOL     OW14890   3.430   5.129   0.019
 4664SOL    HW114891   3.506   5.184   7.005
 4664SOL    HW214892   3.344   5.178   0.004
 4665SOL     OW14893   5.786   1.101   6.161
 4665SOL    HW114894   5.784   1.002   6.155
 4665SOL    HW214895   5.694   1.136   6.180
 4666SOL     OW14896   1.684   1.170   0.675
 4666SOL    HW114897   1.589   1.189   0.651
 4666SOL    HW214898   1.744   1.229   0.622
 4667SOL     OW14899   0.147   6.211   3.837
 4667SOL    HW114900   0.105   6.169   3.756
 4667SOL    HW214901   0.245   6.221   3.822
 4668SOL     OW14902   6.130   1.212   5.111
 4668SOL    HW114903   6.041   1.208   5.066
 4668SOL    HW214904   6.151   1.122   5.149
 4669SOL     OW14905   2.401   2.261   2.284
 4669SOL    HW114906   2.324   2.282   2.224
 4669SOL    HW214907   2.485   2.254   2.230
 4670SOL     OW14908   2.697   2.367   4.762
 4670SOL    HW114909   2.606   2.402   4.741
 4670SOL    HW214910   2.738   2.330   4.678
 4671SOL     OW14911   6.400   2.346   2.851
 4671SOL    HW114912   6.489   2.374   2.889
 4671SOL    HW214913   6.327   2.390   2.904
 4672SOL     OW14914   2.986   2.395   5.388
 4672SOL    HW114915   2.890   2.397   5.363
 4672SOL    HW214916   3.043   2.399   5.306
 4673SOL     OW14917   5.503   0.870   2.410
 4673SOL    HW114918   5.495   0.782   2.363
 4673SOL    HW214919   5.438   0.873   2.486
 4674SOL     OW14920   4.544   0.045   5.575
 4674SOL    HW114921   4.502   0.058   5.664
 4674SOL    HW214922   4.472   0.041   5.505
 4675SOL     OW14923   0.849   4.319   5.922
 4675SOL    HW114924   0.775   4.386   5.929
 4675SOL    HW214925   0.906   4.323   6.003
 4676SOL     OW14926   1.282   4.470   3.607
 4676SOL    HW114927   1.222   4.407   3.656
 4676SOL    HW214928   1.295   4.553   3.661
 4677SOL     OW14929   1.319   3.603   1.092
 4677SOL    HW114930   1.306   3.504   1.088
 4677SOL    HW214931   1.380   3.632   1.018
 4678SOL     OW14932   1.282   1.944   1.241
 4678SOL    HW114933   1.302   1.846   1.237
 4678SOL    HW214934   1.267   1.971   1.336
 4679SOL     OW14935   4.422   6.972   1.946
 4679SOL    HW114936   4.338   7.007   1.989
 4679SOL    HW214937   4.450   6.888   1.992
 4680SOL     OW14938   3.013   0.995   0.061
 4680SOL    HW114939   2.937   1.041   0.108
 4680SOL    HW214940   3.066   1.063   0.010
 4681SOL     OW14941   5.026   5.163   2.072
 4681SOL    HW114942   5.108   5.111   2.049
 4681SOL    HW214943   4.971   5.178   1.990
 4682SOL     OW14944   3.576   3.390   6.738
 4682SOL    HW114945   3.554   3.363   6.832
 4682SOL    HW214946   3.658   3.448   6.738
 4683SOL     OW14947   0.051   3.984   3.948
 4683SOL    HW114948   0.067   3.903   3.892
 4683SOL    HW214949   6.988   3.971   4.003
 4684SOL     OW14950   4.921   0.499   5.890
 4684SOL    HW114951   4.986   0.507   5.815
 4684SOL    HW214952   4.845   0.440   5.863
 4685SOL     OW14953   2.916   3.685   4.395
 4685SOL    HW114954   2.934   3.614   4.327
 4685SOL    HW214955   2.855   3.650   4.466
 4686SOL     OW14956   1.543   6.563   6.175
 4686SOL    HW114957   1.561   6.589   6.080
 4686SOL    HW214958   1.453   6.596   6.202
 4687SOL     OW14959   1.240   6.902   2.403
 4687SOL    HW114960   1.271   6.941   2.490
 4687SOL    HW214961   1.216   6.975   2.339
 4688SOL     OW14962   4.851   2.250   4.474
 4688SOL    HW114963   4.798   2.320   4.425
 4688SOL    HW214964   4.795   2.213   4.548
 4689SOL     OW14965   6.496   1.141   1.230
 4689SOL    HW114966   6.521   1.187   1.315
 4689SOL    HW214967   6.561   1.067   1.212
 4690SOL     OW14968   3.716   1.974   1.222
 4690SOL    HW114969   3.707   1.975   1.122
 4690SOL    HW214970   3.783   1.905   1.248
 4691SOL     OW14971   6.049   2.902   1.782
 4691SOL    HW114972   6.026   2.937   1.873
 4691SOL    HW214973   6.005   2.813   1.768
 4692SOL     OW14974   6.644   2.779   3.108
 4692SOL    HW114975   6.547   2.778   3.084
 4692SOL    HW214976   6.678   2.873   3.105
 4693SOL     OW14977   0.150   0.686   3.921
 4693SOL    HW114978   0.137   0.590   3.944
 4693SOL    HW214979   0.195   0.733   3.997
 4694SOL     OW14980   1.323   6.583   5.498
 4694SOL    HW114981   1.411   6.555   5.536
 4694SOL    HW214982   1.286   6.508   5.443
 4695SOL     OW14983   1.585   4.755   1.923
 4695SOL    HW114984   1.569   4.853   1.925
 4695SOL    HW214985   1.684   4.737   1.919
 4696SOL     OW14986   2.218   6.192   5.927
 4696SOL    HW114987   2.229   6.112   5.987
 4696SOL    HW214988   2.211   6.274   5.983
 4697SOL     OW14989   4.453   5.695   1.257
 4697SOL    HW114990   4.390   5.762   1.218
 4697SOL    HW214991   4.416   5.603   1.246
 4698SOL     OW14992   5.914   1.496   4.625
 4698SOL    HW114993   5.975   1.452   4.691
 4698SOL    HW214994   5.822   1.458   4.633
 4699SOL     OW14995   0.974   1.826   2.921
 4699SOL    HW114996   1.003   1.902   2.863
 4699SOL    HW214997   0.916   1.764   2.868
 4700SOL     OW14998   6.680   1.948   3.381
 4700SOL    HW114999   6.706   1.911   3.292
 4700SOL    HW215000   6.597   1.901   3.413
 4701SOL     OW15001   2.416   2.814   1.813
 4701SOL    HW115002   2.486   2.878   1.781
 4701SOL    HW215003   2.329   2.862   1.823
 4702SOL     OW15004   5.912   4.666   1.124
 4702SOL    HW115005   6.003   4.708   1.112
 4702SOL    HW215006   5.892   4.659   1.221
 4703SOL     OW15007   6.674   5.504   4.219
 4703SOL    HW115008   6.724   5.475   4.137
 4703SOL    HW215009   6.671   5.604   4.222
 4704SOL     OW15010   1.646   4.824   4.062
 4704SOL    HW115011   1.567   4.848   4.005
 4704SOL    HW215012   1.671   4.903   4.118
 4705SOL     OW15013   3.236   2.490   1.309
 4705SOL    HW115014   3.217   2.401   1.267
 4705SOL    HW215015   3.332   2.495   1.335
 4706SOL     OW15016   1.996   1.760   1.061
 4706SOL    HW115017   1.926   1.706   1.014
 4706SOL    HW215018   1.960   1.794   1.148
 4707SOL     OW15019   1.993   5.773   2.167
 4707SOL    HW115020   2.035   5.840   2.229
 4707SOL    HW215021   1.978   5.687   2.216
 4708SOL     OW15022   1.970   2.940   6.657
 4708SOL    HW115023   1.937   2.848   6.677
 4708SOL    HW215024   2.065   2.936   6.627
 4709SOL     OW15025   6.139   3.765   4.720
 4709SOL    HW115026   6.070   3.700   4.688
 4709SOL    HW215027   6.117   3.793   4.814
 4710SOL     OW15028   6.246   4.511   5.825
 4710SOL    HW115029   6.237   4.561   5.911
 4710SOL    HW215030   6.162   4.460   5.807
 4711SOL     OW15031   4.971   4.357   2.952
 4711SOL    HW115032   4.975   4.303   3.035
 4711SOL    HW215033   4.965   4.297   2.873
 4712SOL     OW15034   4.372   4.797   5.839
 4712SOL    HW115035   4.315   4.852   5.778
 4712SOL    HW215036   4.313   4.747   5.903
 4713SOL     OW15037   5.903   4.359   1.605
 4713SOL    HW115038   5.884   4.359   1.507
 4713SOL    HW215039   5.863   4.440   1.647
 4714SOL     OW15040   4.914   2.148   5.616
 4714SOL    HW115041   4.900   2.116   5.710
 4714SOL    HW215042   4.896   2.247   5.611
 4715SOL     OW15043   0.120   1.174   1.895
 4715SOL    HW115044   0.116   1.242   1.968
 4715SOL    HW215045   0.165   1.091   1.929
 4716SOL     OW15046   3.903   4.459   5.471
 4716SOL    HW115047   3.955   4.387   5.426
 4716SOL    HW215048   3.823   4.420   5.517
 4717SOL     OW15049   1.357   4.415   6.113
 4717SOL    HW115050   1.437   4.373   6.070
 4717SOL    HW215051   1.370   4.514   6.116
 4718SOL     OW15052   4.912   3.608   2.291
 4718SOL    HW115053   4.894   3.596   2.194
 4718SOL    HW215054   4.917   3.519   2.336
 4719SOL     OW15055   5.426   4.147   3.756
 4719SOL    HW115056   5.460   4.071   3.811
 4719SOL    HW215057   5.415   4.117   3.661
 4720SOL     OW15058   1.054   1.699   5.890
 4720SOL    HW115059   1.034   1.713   5.793
 4720SOL    HW215060   1.119   1.623   5.899
 4721SOL     OW15061   0.465   2.719   2.275
 4721SOL    HW115062   0.474   2.812   2.311
 4721SOL    HW215063   0.394   2.671   2.327
 4722SOL     OW15064   1.416   5.511   5.847
 4722SOL    HW115065   1.471   5.545   5.923
 4722SOL    HW215066   1.329   5.476   5.882
 4723SOL     OW15067   3.349   4.501   5.873
 4723SOL    HW115068   3.260   4.461   5.892
 4723SOL    HW215069   3.346   4.547   5.784
 4724SOL     OW15070   0.461   0.701   4.111
 4724SOL    HW115071   0.501   0.643   4.181
 4724SOL    HW215072   0.374   0.739   4.144
 4725SOL     OW15073   5.390   5.895   1.213
 4725SOL    HW115074   5.370   5.991   1.197
 4725SOL    HW215075   5.457   5.863   1.146
 4726SOL     OW15076   2.011   2.318   6.280
 4726SOL    HW115077   1.943   2.382   6.315
 4726SOL    HW215078   1.970   2.227   6.274
 4727SOL     OW15079   6.599   5.201   1.808
 4727SOL    HW115080   6.530   5.266   1.838
 4727SOL    HW215081   6.620   5.217   1.711
 4728SOL     OW15082   4.058   0.833   3.468
 4728SOL    HW115083   4.078   0.769   3.394
 4728SOL    HW215084   4.047   0.783   3.554
 4729SOL     OW15085   0.519   1.010   3.211
 4729SOL    HW115086   0.517   0.927   3.267
 4729SOL    HW215087   0.507   0.985   3.115
 4730SOL     OW15088   2.871   1.137   3.124
 4730SOL    HW115089   2.913   1.153   3.035
 4730SOL    HW215090   2.852   1.225   3.168
 4731SOL     OW15091   3.657   6.636   2.730
 4731SOL    HW115092   3.567   6.681   2.730
 4731SOL    HW215093   3.648   6.543   2.764
 4732SOL     OW15094   0.488   4.960   4.281
 4732SOL    HW115095   0.484   4.906   4.197
 4732SOL    HW215096   0.423   4.922   4.347
 4733SOL     OW15097   2.378   4.278   3.380
 4733SOL    HW115098   2.352   4.205   3.317
 4733SOL    HW215099   2.420   4.239   3.462
 4734SOL     OW15100   4.691   4.615   6.153
 4734SOL    HW115101   4.605   4.575   6.186
 4734SOL    HW215102   4.674   4.708   6.120
 4735SOL     OW15103   6.883   0.847   5.251
 4735SOL    HW115104   6.958   0.896   5.295
 4735SOL    HW215105   6.826   0.911   5.199
 4736SOL     OW15106   6.131   0.148   4.221
 4736SOL    HW115107   6.184   0.232   4.232
 4736SOL    HW215108   6.178   0.086   4.159
 4737SOL     OW15109   1.792   4.956   0.176
 4737SOL    HW115110   1.705   4.981   0.134
 4737SOL    HW215111   1.868   4.992   0.121
 4738SOL     OW15112   0.328   5.944   3.469
 4738SOL    HW115113   0.341   5.987   3.380
 4738SOL    HW215114   0.416   5.934   3.514
 4739SOL     OW15115   5.668   3.579   2.890
 4739SOL    HW115116   5.721   3.530   2.959
 4739SOL    HW215117   5.700   3.674   2.885
 4740SOL     OW15118   1.773   6.146   0.606
 4740SOL    HW115119   1.786   6.063   0.660
 4740SOL    HW215120   1.675   6.162   0.592
 4741SOL     OW15121   5.497   4.334   2.465
 4741SOL    HW115122   5.467   4.240   2.449
 4741SOL    HW215123   5.577   4.333   2.525
 4742SOL     OW15124   2.384   5.548   1.923
 4742SOL    HW115125   2.449   5.621   1.900
 4742SOL    HW215126   2.301   5.589   1.961
 4743SOL     OW15127   2.842   3.111   0.611
 4743SOL    HW115128   2.921   3.100   0.672
 4743SOL    HW215129   2.765   3.060   0.649
 4744SOL     OW15130   2.923   1.818   5.809
 4744SOL    HW115131   2.848   1.857   5.863
 4744SOL    HW215132   2.888   1.745   5.750
 4745SOL     OW15133   4.586   5.957   4.301
 4745SOL    HW115134   4.542   6.019   4.367
 4745SOL    HW215135   4.596   5.866   4.343
 4746SOL     OW15136   5.629   1.599   0.951
 4746SOL    HW115137   5.610   1.586   0.853
 4746SOL    HW215138   5.546   1.632   0.997
 4747SOL     OW15139   0.960   3.248   2.579
 4747SOL    HW115140   0.896   3.278   2.508
 4747SOL    HW215141   1.047   3.223   2.538
 4748SOL     OW15142   1.759   6.679   0.312
 4748SOL    HW115143   1.730   6.627   0.232
 4748SOL    HW215144   1.728   6.633   0.395
 4749SOL     OW15145   3.967   1.124   0.197
 4749SOL    HW115146   4.040   1.191   0.184
 4749SOL    HW215147   3.999   1.050   0.257
 4750SOL     OW15148   1.060   2.325   5.014
 4750SOL    HW115149   0.980   2.265   5.012
 4750SOL    HW215150   1.031   2.420   5.018
 4751SOL     OW15151   1.681   3.890   6.426
 4751SOL    HW115152   1.757   3.843   6.471
 4751SOL    HW215153   1.694   3.989   6.432
 4752SOL     OW15154   1.741   5.730   0.890
 4752SOL    HW115155   1.710   5.694   0.978
 4752SOL    HW215156   1.837   5.705   0.876
 4753SOL     OW15157   0.119   1.293   6.819
 4753SOL    HW115158   0.110   1.313   6.721
 4753SOL    HW215159   0.125   1.378   6.870
 4754SOL     OW15160   1.418   0.523   6.760
 4754SOL    HW115161   1.367   0.605   6.735
 4754SOL    HW215162   1.444   0.527   6.856
 4755SOL     OW15163   2.932   6.770   3.198
 4755SOL    HW115164   2.836   6.791   3.179
 4755SOL    HW215165   2.967   6.831   3.268
 4756SOL     OW15166   5.618   2.431   1.164
 4756SOL    HW115167   5.592   2.406   1.257
 4756SOL    HW215168   5.712   2.402   1.146
 4757SOL     OW15169   1.913   3.145   0.785
 4757SOL    HW115170   1.997   3.199   0.779
 4757SOL    HW215171   1.913   3.095   0.872
 4758SOL     OW15172   6.563   3.802   6.553
 4758SOL    HW115173   6.615   3.721   6.525
 4758SOL    HW215174   6.470   3.775   6.579
 4759SOL     OW15175   6.807   3.851   6.683
 4759SOL    HW115176   6.726   3.812   6.638
 4759SOL    HW215177   6.779   3.929   6.739
 4760SOL     OW15178   0.722   2.662   0.011
 4760SOL    HW115179   0.809   2.681   6.985
 4760SOL    HW215180   0.719   2.710   0.099
 4761SOL     OW15181   3.131   6.286   6.994
 4761SOL    HW115182   3.045   6.337   6.985
 4761SOL    HW215183   3.147   6.233   6.911
 4762SOL     OW15184   3.341   0.700   2.913
 4762SOL    HW115185   3.391   0.614   2.919
 4762SOL    HW215186   3.387   0.761   2.849
 4763SOL     OW15187   5.078   4.904   4.742
 4763SOL    HW115188   5.176   4.922   4.755
 4763SOL    HW215189   5.037   4.978   4.689
 4764SOL     OW15190   3.223   3.604   4.081
 4764SOL    HW115191   3.197   3.577   3.988
 4764SOL    HW215192   3.317   3.640   4.079
 4765SOL     OW15193   6.708   5.250   6.624
 4765SOL    HW115194   6.740   5.160   6.597
 4765SOL    HW215195   6.750   5.276   6.712
 4766SOL     OW15196   3.504   1.852   3.244
 4766SOL    HW115197   3.408   1.827   3.247
 4766SOL    HW215198   3.513   1.952   3.249
 4767SOL     OW15199   4.626   0.410   6.227
 4767SOL    HW115200   4.643   0.438   6.321
 4767SOL    HW215201   4.698   0.347   6.197
 4768SOL     OW15202   2.308   0.097   5.290
 4768SOL    HW115203   2.242   0.029   5.320
 4768SOL    HW215204   2.273   0.189   5.310
 4769SOL     OW15205   4.745   0.689   2.255
 4769SOL    HW115206   4.665   0.745   2.275
 4769SOL    HW215207   4.820   0.748   2.225
 4770SOL     OW15208   2.953   1.452   3.825
 4770SOL    HW115209   3.013   1.404   3.761
 4770SOL    HW215210   2.864   1.406   3.828
 4771SOL     OW15211   4.078   4.953   6.613
 4771SOL    HW115212   4.049   4.891   6.540
 4771SOL    HW215213   3.997   4.992   6.656
 4772SOL     OW15214   4.057   2.420   6.794
 4772SOL    HW115215   3.987   2.474   6.747
 4772SOL    HW215216   4.079   2.463   6.882
 4773SOL     OW15217   0.011   4.807   4.212
 4773SOL    HW115218   0.026   4.711   4.188
 4773SOL    HW215219   0.015   4.862   4.129
 4774SOL     OW15220   2.084   4.033   0.045
 4774SOL    HW115221   2.110   3.937   0.031
 4774SOL    HW215222   2.118   4.064   0.133
 4775SOL     OW15223   1.961   3.064   2.589
 4775SOL    HW115224   1.967   3.164   2.584
 4775SOL    HW215225   2.044   3.028   2.631
 4776SOL     OW15226   4.750   5.394   1.266
 4776SOL    HW115227   4.675   5.376   1.201
 4776SOL    HW215228   4.748   5.490   1.292
 4777SOL     OW15229   1.623   3.997   1.658
 4777SOL    HW115230   1.694   4.044   1.710
 4777SOL    HW215231   1.662   3.918   1.611
 4778SOL     OW15232   5.885   3.274   2.783
 4778SOL    HW115233   5.838   3.361   2.765
 4778SOL    HW215234   5.941   3.282   2.865
 4779SOL     OW15235   6.331   1.578   2.694
 4779SOL    HW115236   6.379   1.578   2.606
 4779SOL    HW215237   6.239   1.542   2.682
 4780SOL     OW15238   1.291   1.361   5.267
 4780SOL    HW115239   1.268   1.422   5.343
 4780SOL    HW215240   1.389   1.338   5.272
 4781SOL     OW15241   2.235   5.763   2.965
 4781SOL    HW115242   2.263   5.843   3.018
 4781SOL    HW215243   2.267   5.680   3.012
 4782SOL     OW15244   6.161   6.182   6.539
 4782SOL    HW115245   6.115   6.240   6.606
 4782SOL    HW215246   6.142   6.217   6.447
 4783SOL     OW15247   5.614   4.700   3.320
 4783SOL    HW115248   5.593   4.790   3.359
 4783SOL    HW215249   5.711   4.696   3.295
 4784SOL     OW15250   4.871   4.103   4.706
 4784SOL    HW115251   4.956   4.077   4.750
 4784SOL    HW215252   4.803   4.031   4.717
 4785SOL     OW15253   5.843   6.081   0.274
 4785SOL    HW115254   5.789   6.160   0.304
 4785SOL    HW215255   5.783   6.002   0.264
 4786SOL     OW15256   1.579   4.533   3.183
 4786SOL    HW115257   1.536   4.502   3.268
 4786SOL    HW215258   1.664   4.582   3.205
 4787SOL     OW15259   4.038   2.173   2.649
 4787SOL    HW115260   3.965   2.190   2.716
 4787SOL    HW215261   4.111   2.239   2.663
 4788SOL     OW15262   2.302   0.676   4.682
 4788SOL    HW115263   2.221   0.676   4.623
 4788SOL    HW215264   2.384   0.684   4.625
 4789SOL     OW15265   4.629   5.822   6.710
 4789SOL    HW115266   4.534   5.818   6.679
 4789SOL    HW215267   4.665   5.730   6.721
 4790SOL     OW15268   5.630   6.878   6.837
 4790SOL    HW115269   5.633   6.966   6.791
 4790SOL    HW215270   5.687   6.812   6.788
 4791SOL     OW15271   4.744   2.323   3.211
 4791SOL    HW115272   4.674   2.314   3.140
 4791SOL    HW215273   4.833   2.297   3.173
 4792SOL     OW15274   3.268   2.903   0.605
 4792SOL    HW115275   3.343   2.842   0.577
 4792SOL    HW215276   3.203   2.913   0.530
 4793SOL     OW15277   0.834   0.958   6.880
 4793SOL    HW115278   0.852   1.033   6.816
 4793SOL    HW215279   0.799   0.879   6.829
 4794SOL     OW15280   5.659   1.352   1.866
 4794SOL    HW115281   5.620   1.443   1.884
 4794SOL    HW215282   5.586   1.290   1.836
 4795SOL     OW15283   6.635   2.049   4.498
 4795SOL    HW115284   6.550   2.043   4.445
 4795SOL    HW215285   6.676   2.139   4.486
 4796SOL     OW15286   4.750   3.888   0.447
 4796SOL    HW115287   4.776   3.817   0.381
 4796SOL    HW215288   4.650   3.889   0.457
 4797SOL     OW15289   1.366   5.951   4.633
 4797SOL    HW115290   1.402   6.028   4.686
 4797SOL    HW215291   1.414   5.867   4.660
 4798SOL     OW15292   0.415   5.649   6.376
 4798SOL    HW115293   0.444   5.733   6.421
 4798SOL    HW215294   0.485   5.620   6.311
 4799SOL     OW15295   5.193   1.328   4.851
 4799SOL    HW115296   5.143   1.344   4.936
 4799SOL    HW215297   5.129   1.322   4.775
 4800SOL     OW15298   1.655   3.038   4.198
 4800SOL    HW115299   1.726   3.099   4.233
 4800SOL    HW215300   1.664   2.948   4.240
 4801SOL     OW15301   0.140   1.681   0.882
 4801SOL    HW115302   0.107   1.588   0.864
 4801SOL    HW215303   0.223   1.697   0.829
 4802SOL     OW15304   1.546   0.023   1.855
 4802SOL    HW115305   1.465   7.005   1.902
 4802SOL    HW215306   1.528   0.118   1.829
 4803SOL     OW15307   0.478   6.729   1.228
 4803SOL    HW115308   0.447   6.824   1.236
 4803SOL    HW215309   0.400   6.668   1.240
 4804SOL     OW15310   4.411   4.932   0.089
 4804SOL    HW115311   4.342   4.862   0.110
 4804SOL    HW215312   4.390   4.974   0.001
 4805SOL     OW15313   6.536   6.930   1.043
 4805SOL    HW115314   6.480   6.973   1.113
 4805SOL    HW215315   6.585   6.851   1.082
 4806SOL     OW15316   0.449   1.898   3.674
 4806SOL    HW115317   0.498   1.877   3.590
 4806SOL    HW215318   0.515   1.929   3.744
 4807SOL     OW15319   1.056   0.112   2.780
 4807SOL    HW115320   1.068   0.202   2.823
 4807SOL    HW215321   1.055   0.041   2.851
 4808SOL     OW15322   6.302   1.576   0.541
 4808SOL    HW115323   6.330   1.670   0.563
 4808SOL    HW215324   6.346   1.513   0.604
 4809SOL     OW15325   4.807   6.761   1.067
 4809SOL    HW115326   4.880   6.780   1.001
 4809SOL    HW215327   4.720   6.752   1.018
 4810SOL     OW15328   1.868   6.892   5.380
 4810SOL    HW115329   1.818   6.924   5.461
 4810SOL    HW215330   1.966   6.910   5.392
 4811SOL     OW15331   4.831   4.286   4.429
 4811SOL    HW115332   4.752   4.277   4.489
 4811SOL    HW215333   4.913   4.299   4.484
 4812SOL     OW15334   6.641   4.815   3.474
 4812SOL    HW115335   6.612   4.905   3.440
 4812SOL    HW215336   6.654   4.753   3.397
 4813SOL     OW15337   5.824   3.513   2.686
 4813SOL    HW115338   5.818   3.562   2.599
 4813SOL    HW215339   5.770   3.561   2.755
 4814SOL     OW15340   0.129   2.799   1.634
 4814SOL    HW115341   0.182   2.714   1.636
 4814SOL    HW215342   0.166   2.863   1.701
 4815SOL     OW15343   4.767   1.163   3.608
 4815SOL    HW115344   4.784   1.122   3.698
 4815SOL    HW215345   4.811   1.108   3.537
 4816SOL     OW15346   6.137   4.194   4.233
 4816SOL    HW115347   6.179   4.103   4.229
 4816SOL    HW215348   6.168   4.249   4.156
 4817SOL     OW15349   5.646   1.697   6.692
 4817SOL    HW115350   5.724   1.679   6.752
 4817SOL    HW215351   5.668   1.666   6.599
 4818SOL     OW15352   0.160   6.273   3.268
 4818SOL    HW115353   0.232   6.206   3.251
 4818SOL    HW215354   0.191   6.364   3.239
 4819SOL     OW15355   0.820   2.937   1.206
 4819SOL    HW115356   0.878   2.933   1.125
 4819SOL    HW215357   0.741   2.995   1.188
 4820SOL     OW15358   5.919   3.212   1.801
 4820SOL    HW115359   5.910   3.159   1.885
 4820SOL    HW215360   5.829   3.245   1.772
 4821SOL     OW15361   0.382   5.743   3.739
 4821SOL    HW115362   0.449   5.673   3.764
 4821SOL    HW215363   0.298   5.728   3.791
 4822SOL     OW15364   3.102   5.746   4.737
 4822SOL    HW115365   3.097   5.718   4.642
 4822SOL    HW215366   3.025   5.805   4.759
 4823SOL     OW15367   1.112   1.784   0.322
 4823SOL    HW115368   1.115   1.752   0.227
 4823SOL    HW215369   1.190   1.844   0.339
 4824SOL     OW15370   6.122   2.234   6.829
 4824SOL    HW115371   6.137   2.328   6.797
 4824SOL    HW215372   6.209   2.186   6.832
 4825SOL     OW15373   1.143   5.543   3.789
 4825SOL    HW115374   1.174   5.551   3.883
 4825SOL    HW215375   1.201   5.600   3.730
 4826SOL     OW15376   4.593   6.739   0.494
 4826SOL    HW115377   4.592   6.762   0.396
 4826SOL    HW215378   4.500   6.722   0.525
 4827SOL     OW15379   5.541   1.063   2.020
 4827SOL    HW115380   5.500   1.116   1.946
 4827SOL    HW215381   5.606   1.121   2.070
 4828SOL     OW15382   5.256   0.985   5.883
 4828SOL    HW115383   5.187   0.936   5.830
 4828SOL    HW215384   5.306   0.920   5.941
 4829SOL     OW15385   4.626   5.731   5.167
 4829SOL    HW115386   4.599   5.773   5.080
 4829SOL    HW215387   4.597   5.636   5.169
 4830SOL     OW15388   1.591   6.386   2.951
 4830SOL    HW115389   1.609   6.296   2.911
 4830SOL    HW215390   1.633   6.457   2.894
 4831SOL     OW15391   2.733   4.190   6.007
 4831SOL    HW115392   2.762   4.107   6.055
 4831SOL    HW215393   2.635   4.183   5.986
 4832SOL     OW15394   3.959   3.377   3.817
 4832SOL    HW115395   4.015   3.357   3.897
 4832SOL    HW215396   4.017   3.386   3.736
 4833SOL     OW15397   5.860   2.465   5.164
 4833SOL    HW115398   5.943   2.416   5.190
 4833SOL    HW215399   5.837   2.445   5.068
 4834SOL     OW15400   1.103   4.112   0.840
 4834SOL    HW115401   1.120   4.014   0.853
 4834SOL    HW215402   1.187   4.163   0.859
 4835SOL     OW15403   0.938   3.731   6.358
 4835SOL    HW115404   0.922   3.664   6.430
 4835SOL    HW215405   0.998   3.692   6.288
 4836SOL     OW15406   3.950   0.261   5.803
 4836SOL    HW115407   3.939   0.245   5.705
 4836SOL    HW215408   3.963   0.359   5.820
 4837SOL     OW15409   1.618   3.416   4.395
 4837SOL    HW115410   1.536   3.407   4.452
 4837SOL    HW215411   1.697   3.379   4.444
 4838SOL     OW15412   1.628   4.561   6.210
 4838SOL    HW115413   1.689   4.563   6.289
 4838SOL    HW215414   1.639   4.475   6.161
 4839SOL     OW15415   2.787   0.988   2.071
 4839SOL    HW115416   2.708   0.977   2.131
 4839SOL    HW215417   2.761   0.963   1.977
 4840SOL     OW15418   5.233   2.499   3.531
 4840SOL    HW115419   5.213   2.552   3.449
 4840SOL    HW215420   5.265   2.408   3.505
 4841SOL     OW15421   2.942   5.042   3.279
 4841SOL    HW115422   3.021   5.102   3.296
 4841SOL    HW215423   2.930   4.980   3.357
 4842SOL     OW15424   4.131   5.093   3.621
 4842SOL    HW115425   4.121   5.162   3.549
 4842SOL    HW215426   4.040   5.058   3.646
 4843SOL     OW15427   5.809   2.507   6.683
 4843SOL    HW115428   5.883   2.541   6.740
 4843SOL    HW215429   5.723   2.511   6.734
 4844SOL     OW15430   1.025   4.768   6.396
 4844SOL    HW115431   1.026   4.675   6.358
 4844SOL    HW215432   1.011   4.834   6.322
 4845SOL     OW15433   5.734   4.383   5.477
 4845SOL    HW115434   5.696   4.466   5.517
 4845SOL    HW215435   5.720   4.385   5.378
 4846SOL     OW15436   6.192   3.887   4.280
 4846SOL    HW115437   6.219   3.826   4.354
 4846SOL    HW215438   6.104   3.856   4.242
 4847SOL     OW15439   2.013   6.913   6.415
 4847SOL    HW115440   2.088   6.849   6.434
 4847SOL    HW215441   1.926   6.864   6.417
 4848SOL     OW15442   5.076   1.580   3.268
 4848SOL    HW115443   4.996   1.556   3.323
 4848SOL    HW215444   5.155   1.591   3.329
 4849SOL     OW15445   1.334   5.482   1.584
 4849SOL    HW115446   1.255   5.524   1.538
 4849SOL    HW215447   1.316   5.475   1.682
 4850SOL     OW15448   3.347   0.177   2.328
 4850SOL    HW115449   3.325   0.187   2.425
 4850SOL    HW215450   3.437   0.218   2.310
 4851SOL     OW15451   4.562   4.739   6.719
 4851SOL    HW115452   4.636   4.804   6.698
 4851SOL    HW215453   4.591   4.679   6.793
 4852SOL     OW15454   4.215   4.136   5.889
 4852SOL    HW115455   4.257   4.225   5.905
 4852SOL    HW215456   4.268   4.085   5.821
 4853SOL     OW15457   4.492   0.243   2.644
 4853SOL    HW115458   4.475   0.151   2.607
 4853SOL    HW215459   4.526   0.235   2.738
 4854SOL     OW15460   3.748   6.800   1.656
 4854SOL    HW115461   3.795   6.724   1.700
 4854SOL    HW215462   3.662   6.817   1.702
 4855SOL     OW15463   4.354   4.970   5.445
 4855SOL    HW115464   4.280   5.034   5.465
 4855SOL    HW215465   4.321   4.876   5.458
 4856SOL     OW15466   0.548   2.981   3.165
 4856SOL    HW115467   0.632   3.001   3.115
 4856SOL    HW215468   0.546   3.032   3.251
 4857SOL     OW15469   2.639   1.086   5.838
 4857SOL    HW115470   2.664   1.027   5.761
 4857SOL    HW215471   2.683   1.051   5.921
 4858SOL     OW15472   2.916   5.347   5.265
 4858SOL    HW115473   2.979   5.411   5.221
 4858SOL    HW215474   2.955   5.255   5.261
 4859SOL     OW15475   7.000   5.343   3.171
 4859SOL    HW115476   6.941   5.265   3.150
 4859SOL    HW215477   6.944   5.417   3.210
 4860SOL     OW15478   4.006   5.373   0.636
 4860SOL    HW115479   4.069   5.295   0.628
 4860SOL    HW215480   3.968   5.394   0.546
 4861SOL     OW15481   5.180   4.746   4.440
 4861SOL    HW115482   5.249   4.732   4.511
 4861SOL    HW215483   5.096   4.698   4.465
 4862SOL     OW15484   1.635   5.142   4.010
 4862SOL    HW115485   1.554   5.201   4.015
 4862SOL    HW215486   1.664   5.119   4.103
 4863SOL     OW15487   5.843   1.456   2.127
 4863SOL    HW115488   5.928   1.421   2.089
 4863SOL    HW215489   5.814   1.537   2.076
 4864SOL     OW15490   2.845   3.145   1.824
 4864SOL    HW115491   2.844   3.217   1.893
 4864SOL    HW215492   2.940   3.123   1.801
 4865SOL     OW15493   3.546   0.101   5.193
 4865SOL    HW115494   3.587   0.074   5.106
 4865SOL    HW215495   3.448   0.080   5.192
 4866SOL     OW15496   1.396   5.029   1.725
 4866SOL    HW115497   1.301   5.011   1.701
 4866SOL    HW215498   1.456   4.984   1.658
 4867SOL     OW15499   5.550   4.489   6.061
 4867SOL    HW115500   5.515   4.419   6.123
 4867SOL    HW215501   5.604   4.446   5.990
 4868SOL     OW15502   1.690   5.880   1.856
 4868SOL    HW115503   1.778   5.871   1.810
 4868SOL    HW215504   1.639   5.795   1.848
 4869SOL     OW15505   0.605   1.866   1.624
 4869SOL    HW115506   0.618   1.850   1.526
 4869SOL    HW215507   0.694   1.876   1.669
 4870SOL     OW15508   5.928   1.441   1.808
 4870SOL    HW115509   5.849   1.396   1.850
 4870SOL    HW215510   5.994   1.372   1.778
 4871SOL     OW15511   1.546   2.342   5.611
 4871SOL    HW115512   1.450   2.318   5.596
 4871SOL    HW215513   1.577   2.401   5.537
 4872SOL     OW15514   2.434   2.555   2.779
 4872SOL    HW115515   2.476   2.533   2.867
 4872SOL    HW215516   2.366   2.627   2.792
 4873SOL     OW15517   0.983   6.670   5.793
 4873SOL    HW115518   0.951   6.637   5.704
 4873SOL    HW215519   0.997   6.592   5.854
 4874SOL     OW15520   6.256   1.937   4.616
 4874SOL    HW115521   6.298   1.965   4.703
 4874SOL    HW215522   6.301   1.985   4.540
 4875SOL     OW15523   0.018   3.352   0.607
 4875SOL    HW115524   0.065   3.440   0.602
 4875SOL    HW215525   0.017   3.320   0.702
 4876SOL     OW15526   6.782   1.297   0.206
 4876SOL    HW115527   6.709   1.252   0.155
 4876SOL    HW215528   6.826   1.230   0.267
 4877SOL     OW15529   4.298   2.073   2.151
 4877SOL    HW115530   4.229   2.022   2.100
 4877SOL    HW215531   4.255   2.119   2.229
 4878SOL     OW15532   1.361   2.712   2.606
 4878SOL    HW115533   1.271   2.670   2.621
 4878SOL    HW215534   1.368   2.744   2.512
 4879SOL     OW15535   3.275   6.473   3.044
 4879SOL    HW115536   3.373   6.489   3.058
 4879SOL    HW215537   3.233   6.554   3.003
 4880SOL     OW15538   0.030   2.157   6.138
 4880SOL    HW115539   0.106   2.214   6.172
 4880SOL    HW215540   0.020   2.170   6.040
 4881SOL     OW15541   3.051   6.209   5.897
 4881SOL    HW115542   3.002   6.172   5.976
 4881SOL    HW215543   2.984   6.246   5.832
 4882SOL     OW15544   5.652   6.016   6.308
 4882SOL    HW115545   5.699   5.932   6.336
 4882SOL    HW215546   5.639   6.015   6.209
 4883SOL     OW15547   6.254   5.798   0.283
 4883SOL    HW115548   6.167   5.759   0.251
 4883SOL    HW215549   6.238   5.848   0.368
 4884SOL     OW15550   4.537   6.177   2.168
 4884SOL    HW115551   4.526   6.267   2.209
 4884SOL    HW215552   4.634   6.151   2.167
 4885SOL     OW15553   0.855   0.085   1.792
 4885SOL    HW115554   0.888   0.011   1.852
 4885SOL    HW215555   0.847   0.051   1.699
 4886SOL     OW15556   6.122   1.180   5.631
 4886SOL    HW115557   6.039   1.201   5.578
 4886SOL    HW215558   6.177   1.263   5.640
 4887SOL     OW15559   0.342   2.880   5.626
 4887SOL    HW115560   0.397   2.799   5.607
 4887SOL    HW215561   0.370   2.954   5.566
 4888SOL     OW15562   4.564   5.927   1.007
 4888SOL    HW115563   4.545   5.833   0.978
 4888SOL    HW215564   4.486   5.985   0.986
 4889SOL     OW15565   1.095   3.194   5.937
 4889SOL    HW115566   1.151   3.274   5.913
 4889SOL    HW215567   1.151   3.112   5.935
 4890SOL     OW15568   6.061   0.428   3.797
 4890SOL    HW115569   6.150   0.470   3.815
 4890SOL    HW215570   6.065   0.331   3.817
 4891SOL     OW15571   0.484   4.863   0.894
 4891SOL    HW115572   0.567   4.873   0.949
 4891SOL    HW215573   0.404   4.867   0.953
 4892SOL     OW15574   1.971   5.379   1.801
 4892SOL    HW115575   1.931   5.363   1.710
 4892SOL    HW215576   1.906   5.429   1.858
 4893SOL     OW15577   6.800   4.372   6.680
 4893SOL    HW115578   6.727   4.367   6.749
 4893SOL    HW215579   6.887   4.347   6.723
 4894SOL     OW15580   0.060   6.815   3.491
 4894SOL    HW115581   0.140   6.756   3.495
 4894SOL    HW215582   0.034   6.842   3.583
 4895SOL     OW15583   6.566   3.612   6.916
 4895SOL    HW115584   6.526   3.520   6.906
 4895SOL    HW215585   6.616   3.617   7.002
 4896SOL     OW15586   4.381   1.262   5.352
 4896SOL    HW115587   4.322   1.342   5.358
 4896SOL    HW215588   4.414   1.251   5.258
 4897SOL     OW15589   2.901   5.901   0.265
 4897SOL    HW115590   2.932   5.990   0.300
 4897SOL    HW215591   2.941   5.886   0.174
 4898SOL     OW15592   4.732   2.935   4.703
 4898SOL    HW115593   4.664   3.007   4.715
 4898SOL    HW215594   4.715   2.886   4.617
 4899SOL     OW15595   0.415   3.359   4.219
 4899SOL    HW115596   0.462   3.385   4.304
 4899SOL    HW215597   0.316   3.369   4.232
 4900SOL     OW15598   0.376   6.644   6.482
 4900SOL    HW115599   0.473   6.633   6.506
 4900SOL    HW215600   0.320   6.644   6.565
 4901SOL     OW15601   6.383   6.450   2.935
 4901SOL    HW115602   6.471   6.413   2.906
 4901SOL    HW215603   6.313   6.426   2.868
 4902SOL     OW15604   3.190   6.149   0.226
 4902SOL    HW115605   3.167   6.196   0.141
 4902SOL    HW215606   3.214   6.054   0.206
 4903SOL     OW15607   6.101   4.521   6.680
 4903SOL    HW115608   6.099   4.455   6.605
 4903SOL    HW215609   6.035   4.594   6.662
 4904SOL     OW15610   2.631   0.726   3.854
 4904SOL    HW115611   2.575   0.805   3.881
 4904SOL    HW215612   2.671   0.743   3.764
 4905SOL     OW15613   5.926   4.270   3.182
 4905SOL    HW115614   5.960   4.363   3.192
 4905SOL    HW215615   5.827   4.268   3.199
 4906SOL     OW15616   5.258   0.325   2.100
 4906SOL    HW115617   5.239   0.267   2.179
 4906SOL    HW215618   5.357   0.325   2.082
 4907SOL     OW15619   3.130   2.690   1.449
 4907SOL    HW115620   3.178   2.617   1.399
 4907SOL    HW215621   3.088   2.652   1.531
 4908SOL     OW15622   5.071   4.382   6.053
 4908SOL    HW115623   5.060   4.406   6.149
 4908SOL    HW215624   5.071   4.282   6.043
 4909SOL     OW15625   6.155   6.783   5.366
 4909SOL    HW115626   6.083   6.736   5.317
 4909SOL    HW215627   6.122   6.873   5.396
 4910SOL     OW15628   5.532   0.008   5.208
 4910SOL    HW115629   5.543   0.076   5.135
 4910SOL    HW215630   5.500   6.941   5.169
 4911SOL     OW15631   0.090   3.616   0.001
 4911SOL    HW115632   0.053   3.694   6.971
 4911SOL    HW215633   0.189   3.613   7.008
 4912SOL     OW15634   1.391   3.291   1.956
 4912SOL    HW115635   1.401   3.191   1.958
 4912SOL    HW215636   1.480   3.333   1.946
 4913SOL     OW15637   3.003   3.558   2.084
 4913SOL    HW115638   3.006   3.582   1.987
 4913SOL    HW215639   3.010   3.642   2.139
 4914SOL     OW15640   1.149   0.138   2.500
 4914SOL    HW115641   1.063   0.171   2.461
 4914SOL    HW215642   1.140   0.132   2.599
 4915SOL     OW15643   4.139   6.601   3.901
 4915SOL    HW115644   4.220   6.549   3.873
 4915SOL    HW215645   4.116   6.667   3.830
 4916SOL     OW15646   1.756   1.545   1.916
 4916SOL    HW115647   1.702   1.467   1.946
 4916SOL    HW215648   1.853   1.522   1.922
 4917SOL     OW15649   0.587   5.575   6.610
 4917SOL    HW115650   0.564   5.666   6.644
 4917SOL    HW215651   0.673   5.580   6.558
 4918SOL     OW15652   2.271   6.391   3.909
 4918SOL    HW115653   2.289   6.293   3.914
 4918SOL    HW215654   2.184   6.407   3.864
 4919SOL     OW15655   2.265   2.894   1.261
 4919SOL    HW115656   2.221   2.946   1.335
 4919SOL    HW215657   2.207   2.816   1.236
 4920SOL     OW15658   3.882   2.265   6.277
 4920SOL    HW115659   3.884   2.364   6.269
 4920SOL    HW215660   3.794   2.235   6.313
 4921SOL     OW15661   6.582   4.560   1.695
 4921SOL    HW115662   6.679   4.546   1.715
 4921SOL    HW215663   6.562   4.658   1.694
 4922SOL     OW15664   1.427   3.705   5.951
 4922SOL    HW115665   1.482   3.740   6.026
 4922SOL    HW215666   1.393   3.613   5.975
 4923SOL     OW15667   3.921   2.026   0.283
 4923SOL    HW115668   3.973   2.017   0.198
 4923SOL    HW215669   3.921   1.938   0.331
 4924SOL     OW15670   0.963   3.081   4.490
 4924SOL    HW115671   1.021   3.071   4.409
 4924SOL    HW215672   0.884   3.139   4.468
 4925SOL     OW15673   4.679   5.020   4.842
 4925SOL    HW115674   4.755   5.064   4.794
 4925SOL    HW215675   4.660   4.931   4.801
 4926SOL     OW15676   4.029   3.686   0.769
 4926SOL    HW115677   4.086   3.684   0.851
 4926SOL    HW215678   4.057   3.613   0.707
 4927SOL     OW15679   2.949   3.216   2.181
 4927SOL    HW115680   2.991   3.255   2.099
 4927SOL    HW215681   2.850   3.227   2.175
 4928SOL     OW15682   6.816   1.965   5.775
 4928SOL    HW115683   6.793   1.868   5.781
 4928SOL    HW215684   6.734   2.017   5.750
 4929SOL     OW15685   1.366   4.373   3.982
 4929SOL    HW115686   1.353   4.297   4.046
 4929SOL    HW215687   1.455   4.364   3.937
 4930SOL     OW15688   0.728   3.131   0.376
 4930SOL    HW115689   0.710   3.181   0.461
 4930SOL    HW215690   0.671   3.170   0.303
 4931SOL     OW15691   5.569   6.733   0.853
 4931SOL    HW115692   5.662   6.722   0.888
 4931SOL    HW215693   5.572   6.781   0.766
 4932SOL     OW15694   3.050   2.132   0.890
 4932SOL    HW115695   3.023   2.225   0.868
 4932SOL    HW215696   3.010   2.069   0.823
 4933SOL     OW15697   2.294   0.127   4.863
 4933SOL    HW115698   2.324   0.099   4.772
 4933SOL    HW215699   2.260   0.221   4.859
 4934SOL     OW15700   1.608   6.488   5.528
 4934SOL    HW115701   1.646   6.492   5.621
 4934SOL    HW215702   1.653   6.556   5.471
 4935SOL     OW15703   1.152   2.732   1.168
 4935SOL    HW115704   1.176   2.652   1.223
 4935SOL    HW215705   1.207   2.733   1.085
 4936SOL     OW15706   6.618   3.778   1.405
 4936SOL    HW115707   6.522   3.770   1.378
 4936SOL    HW215708   6.658   3.687   1.417
 4937SOL     OW15709   0.996   3.583   5.383
 4937SOL    HW115710   1.029   3.499   5.425
 4937SOL    HW215711   0.976   3.650   5.455
 4938SOL     OW15712   2.969   3.814   1.083
 4938SOL    HW115713   3.025   3.735   1.057
 4938SOL    HW215714   2.884   3.812   1.030
 4939SOL     OW15715   1.099   1.466   1.622
 4939SOL    HW115716   1.144   1.477   1.711
 4939SOL    HW215717   1.158   1.413   1.562
 4940SOL     OW15718   1.797   1.693   5.414
 4940SOL    HW115719   1.761   1.757   5.346
 4940SOL    HW215720   1.746   1.608   5.409
 4941SOL     OW15721   3.065   1.907   6.231
 4941SOL    HW115722   3.101   1.997   6.209
 4941SOL    HW215723   3.140   1.842   6.242
 4942SOL     OW15724   0.607   0.920   2.621
 4942SOL    HW115725   0.645   0.885   2.707
 4942SOL    HW215726   0.585   1.017   2.631
 4943SOL     OW15727   5.164   2.209   6.790
 4943SOL    HW115728   5.200   2.192   6.698
 4943SOL    HW215729   5.190   2.301   6.819
 4944SOL     OW15730   0.997   4.441   0.463
 4944SOL    HW115731   0.983   4.376   0.537
 4944SOL    HW215732   0.966   4.532   0.491
 4945SOL     OW15733   2.775   0.463   6.581
 4945SOL    HW115734   2.701   0.427   6.637
 4945SOL    HW215735   2.778   0.562   6.589
 4946SOL     OW15736   1.936   5.829   0.072
 4946SOL    HW115737   1.851   5.850   0.120
 4946SOL    HW215738   2.013   5.869   0.122
 4947SOL     OW15739   1.336   6.996   1.301
 4947SOL    HW115740   1.374   0.018   1.218
 4947SOL    HW215741   1.354   0.036   1.379
 4948SOL     OW15742   1.484   3.599   2.221
 4948SOL    HW115743   1.472   3.695   2.248
 4948SOL    HW215744   1.449   3.586   2.128
 4949SOL     OW15745   6.223   4.810   6.703
 4949SOL    HW115746   6.233   4.900   6.746
 4949SOL    HW215747   6.298   4.794   6.640
 4950SOL     OW15748   3.979   4.002   5.920
 4950SOL    HW115749   4.060   4.058   5.901
 4950SOL    HW215750   4.003   3.931   5.986
 4951SOL     OW15751   4.516   5.247   3.578
 4951SOL    HW115752   4.491   5.262   3.674
 4951SOL    HW215753   4.436   5.261   3.520
 4952SOL     OW15754   0.634   0.597   6.272
 4952SOL    HW115755   0.649   0.506   6.312
 4952SOL    HW215756   0.552   0.638   6.312
 4953SOL     OW15757   1.038   1.439   6.189
 4953SOL    HW115758   0.988   1.353   6.204
 4953SOL    HW215759   0.973   1.512   6.167
 4954SOL     OW15760   3.632   3.434   5.885
 4954SOL    HW115761   3.718   3.385   5.875
 4954SOL    HW215762   3.621   3.497   5.807
 4955SOL     OW15763   3.887   6.295   0.088
 4955SOL    HW115764   3.857   6.363   0.155
 4955SOL    HW215765   3.910   6.340   0.002
 4956SOL     OW15766   2.475   0.343   3.712
 4956SOL    HW115767   2.528   0.404   3.770
 4956SOL    HW215768   2.450   0.261   3.764
 4957SOL     OW15769   5.853   5.428   0.161
 4957SOL    HW115770   5.860   5.393   0.068
 4957SOL    HW215771   5.801   5.363   0.217
 4958SOL     OW15772   3.067   5.328   0.930
 4958SOL    HW115773   3.124   5.256   0.890
 4958SOL    HW215774   3.004   5.287   0.996
 4959SOL     OW15775   2.335   1.453   2.577
 4959SOL    HW115776   2.349   1.511   2.497
 4959SOL    HW215777   2.245   1.473   2.618
 4960SOL     OW15778   5.486   3.959   4.947
 4960SOL    HW115779   5.396   3.920   4.926
 4960SOL    HW215780   5.507   4.032   4.882
 4961SOL     OW15781   4.086   3.330   2.614
 4961SOL    HW115782   4.020   3.341   2.688
 4961SOL    HW215783   4.112   3.419   2.578
 4962SOL     OW15784   1.530   2.660   0.718
 4962SOL    HW115785   1.612   2.711   0.693
 4962SOL    HW215786   1.454   2.684   0.657
 4963SOL     OW15787   0.612   3.952   6.726
 4963SOL    HW115788   0.536   4.017   6.732
 4963SOL    HW215789   0.680   3.986   6.661
 4964SOL     OW15790   1.414   5.377   3.558
 4964SOL    HW115791   1.333   5.318   3.552
 4964SOL    HW215792   1.455   5.368   3.649
 4965SOL     OW15793   2.560   0.111   2.849
 4965SOL    HW115794   2.498   0.113   2.770
 4965SOL    HW215795   2.529   0.177   2.917
 4966SOL     OW15796   4.142   6.988   5.534
 4966SOL    HW115797   4.075   6.938   5.480
 4966SOL    HW215798   4.220   7.014   5.476
 4967SOL     OW15799   4.477   4.523   3.034
 4967SOL    HW115800   4.504   4.489   3.125
 4967SOL    HW215801   4.436   4.613   3.043
 4968SOL     OW15802   6.503   3.020   3.408
 4968SOL    HW115803   6.587   2.992   3.454
 4968SOL    HW215804   6.426   3.011   3.470
 4969SOL     OW15805   1.518   5.577   3.951
 4969SOL    HW115806   1.476   5.666   3.936
 4969SOL    HW215807   1.537   5.566   4.049
 4970SOL     OW15808   2.480   0.616   0.870
 4970SOL    HW115809   2.488   0.576   0.778
 4970SOL    HW215810   2.481   0.544   0.938
 4971SOL     OW15811   0.565   6.254   2.453
 4971SOL    HW115812   0.494   6.250   2.383
 4971SOL    HW215813   0.578   6.164   2.493
 4972SOL     OW15814   0.470   3.523   0.884
 4972SOL    HW115815   0.454   3.619   0.909
 4972SOL    HW215816   0.393   3.468   0.915
 4973SOL     OW15817   5.130   2.729   0.051
 4973SOL    HW115818   5.225   2.755   0.069
 4973SOL    HW215819   5.102   2.658   0.116
 4974SOL     OW15820   3.117   0.530   5.310
 4974SOL    HW115821   3.173   0.534   5.393
 4974SOL    HW215822   3.144   0.603   5.248
 4975SOL     OW15823   5.962   4.203   0.889
 4975SOL    HW115824   5.987   4.196   0.793
 4975SOL    HW215825   5.980   4.295   0.922
 4976SOL     OW15826   1.798   0.224   4.117
 4976SOL    HW115827   1.703   0.253   4.111
 4976SOL    HW215828   1.842   0.233   4.027
 4977SOL     OW15829   1.292   3.457   4.388
 4977SOL    HW115830   1.213   3.497   4.434
 4977SOL    HW215831   1.291   3.483   4.292
 4978SOL     OW15832   6.557   5.492   4.684
 4978SOL    HW115833   6.552   5.591   4.673
 4978SOL    HW215834   6.482   5.461   4.743
 4979SOL     OW15835   3.372   6.545   5.787
 4979SOL    HW115836   3.450   6.486   5.766
 4979SOL    HW215837   3.398   6.641   5.771
 4980SOL     OW15838   5.722   2.880   4.304
 4980SOL    HW115839   5.776   2.890   4.220
 4980SOL    HW215840   5.716   2.969   4.350
 4981SOL     OW15841   3.103   7.005   2.829
 4981SOL    HW115842   3.153   6.945   2.766
 4981SOL    HW215843   3.011   0.004   2.793
 4982SOL     OW15844   3.661   1.990   5.016
 4982SOL    HW115845   3.574   2.014   4.971
 4982SOL    HW215846   3.737   2.018   4.957
 4983SOL     OW15847   5.359   3.637   3.462
 4983SOL    HW115848   5.260   3.647   3.453
 4983SOL    HW215849   5.404   3.679   3.383
 4984SOL     OW15850   4.996   3.605   5.188
 4984SOL    HW115851   5.029   3.697   5.169
 4984SOL    HW215852   4.917   3.586   5.130
 4985SOL     OW15853   4.783   0.084   2.446
 4985SOL    HW115854   4.697   0.126   2.418
 4985SOL    HW215855   4.812   0.019   2.377
 4986SOL     OW15856   1.346   5.648   1.330
 4986SOL    HW115857   1.339   5.697   1.244
 4986SOL    HW215858   1.365   5.551   1.313
 4987SOL     OW15859   2.112   4.296   1.985
 4987SOL    HW115860   2.133   4.233   1.911
 4987SOL    HW215861   2.014   4.294   2.004
 4988SOL     OW15862   6.442   4.901   4.181
 4988SOL    HW115863   6.450   4.853   4.269
 4988SOL    HW215864   6.357   4.875   4.136
 4989SOL     OW15865   6.695   0.355   4.313
 4989SOL    HW115866   6.616   0.407   4.346
 4989SOL    HW215867   6.716   0.281   4.376
 4990SOL     OW15868   4.451   1.556   5.890
 4990SOL    HW115869   4.396   1.485   5.846
 4990SOL    HW215870   4.547   1.530   5.886
 4991SOL     OW15871   2.286   5.054   5.500
 4991SOL    HW115872   2.195   5.035   5.463
 4991SOL    HW215873   2.336   4.967   5.509
 4992SOL     OW15874   2.875   2.698   5.376
 4992SOL    HW115875   2.826   2.630   5.432
 4992SOL    HW215876   2.847   2.790   5.405
 4993SOL     OW15877   2.332   5.207   3.764
 4993SOL    HW115878   2.309   5.261   3.683
 4993SOL    HW215879   2.369   5.119   3.737
 4994SOL     OW15880   3.257   5.014   5.752
 4994SOL    HW115881   3.297   4.962   5.827
 4994SOL    HW215882   3.191   5.080   5.789
 4995SOL     OW15883   0.305   2.220   6.414
 4995SOL    HW115884   0.253   2.136   6.430
 4995SOL    HW215885   0.393   2.197   6.371
 4996SOL     OW15886   0.162   0.761   4.756
 4996SOL    HW115887   0.255   0.796   4.748
 4996SOL    HW215888   0.117   0.803   4.834
 4997SOL     OW15889   3.570   1.721   0.939
 4997SOL    HW115890   3.470   1.718   0.952
 4997SOL    HW215891   3.613   1.663   1.009
 4998SOL     OW15892   1.291   4.127   3.185
 4998SOL    HW115893   1.233   4.098   3.261
 4998SOL    HW215894   1.367   4.062   3.175
 4999SOL     OW15895   6.804   3.048   3.306
 4999SOL    HW115896   6.765   3.132   3.343
 4999SOL    HW215897   6.780   3.040   3.209
 5000SOL     OW15898   2.556   6.290   2.780
 5000SOL    HW115899   2.509   6.377   2.763
 5000SOL    HW215900   2.510   6.218   2.728
 5001SOL     OW15901   0.151   6.100   2.951
 5001SOL    HW115902   0.231   6.159   2.939
 5001SOL    HW215903   0.172   6.029   3.019
 5002SOL     OW15904   1.390   5.282   4.032
 5002SOL    HW115905   1.436   5.298   3.944
 5002SOL    HW215906   1.362   5.370   4.071
 5003SOL     OW15907   4.020   1.454   1.289
 5003SOL    HW115908   3.992   1.530   1.230
 5003SOL    HW215909   4.115   1.466   1.317
 5004SOL     OW15910   3.682   6.024   0.372
 5004SOL    HW115911   3.773   6.035   0.331
 5004SOL    HW215912   3.651   6.111   0.408
 5005SOL     OW15913   4.408   3.183   0.880
 5005SOL    HW115914   4.311   3.202   0.866
 5005SOL    HW215915   4.420   3.096   0.926
 5006SOL     OW15916   4.486   0.901   2.627
 5006SOL    HW115917   4.462   0.835   2.557
 5006SOL    HW215918   4.522   0.984   2.585
 5007SOL     OW15919   6.695   5.270   3.128
 5007SOL    HW115920   6.609   5.322   3.120
 5007SOL    HW215921   6.677   5.183   3.174
 5008SOL     OW15922   4.410   0.300   3.802
 5008SOL    HW115923   4.437   0.382   3.851
 5008SOL    HW215924   4.319   0.314   3.761
 5009SOL     OW15925   0.782   1.859   6.259
 5009SOL    HW115926   0.830   1.829   6.342
 5009SOL    HW215927   0.843   1.914   6.203
 5010SOL     OW15928   5.307   4.630   0.883
 5010SOL    HW115929   5.287   4.597   0.975
 5010SOL    HW215930   5.393   4.592   0.851
 5011SOL     OW15931   1.705   2.112   5.594
 5011SOL    HW115932   1.727   2.141   5.500
 5011SOL    HW215933   1.653   2.184   5.639
 5012SOL     OW15934   5.837   2.728   5.394
 5012SOL    HW115935   5.929   2.729   5.433
 5012SOL    HW215936   5.828   2.650   5.332
 5013SOL     OW15937   6.238   5.697   5.631
 5013SOL    HW115938   6.293   5.672   5.711
 5013SOL    HW215939   6.187   5.617   5.599
 5014SOL     OW15940   6.144   2.831   0.424
 5014SOL    HW115941   6.102   2.772   0.493
 5014SOL    HW215942   6.243   2.828   0.434
 5015SOL     OW15943   6.595   5.103   4.652
 5015SOL    HW115944   6.626   5.186   4.606
 5015SOL    HW215945   6.602   5.026   4.588
 5016SOL     OW15946   1.259   2.015   6.218
 5016SOL    HW115947   1.313   1.993   6.299
 5016SOL    HW215948   1.193   2.087   6.241
 5017SOL     OW15949   1.292   3.028   1.752
 5017SOL    HW115950   1.363   3.000   1.816
 5017SOL    HW215951   1.274   2.954   1.687
 5018SOL     OW15952   0.538   0.423   0.631
 5018SOL    HW115953   0.445   0.456   0.646
 5018SOL    HW215954   0.588   0.486   0.572
 5019SOL     OW15955   2.021   4.272   4.023
 5019SOL    HW115956   2.115   4.241   4.005
 5019SOL    HW215957   1.976   4.207   4.084
 5020SOL     OW15958   1.635   0.071   2.739
 5020SOL    HW115959   1.595   0.143   2.683
 5020SOL    HW215960   1.598   7.002   2.712
 5021SOL     OW15961   2.310   0.394   1.334
 5021SOL    HW115962   2.367   0.429   1.408
 5021SOL    HW215963   2.362   0.392   1.249
 5022SOL     OW15964   0.135   3.426   1.683
 5022SOL    HW115965   0.108   3.520   1.664
 5022SOL    HW215966   0.150   3.378   1.596
 5023SOL     OW15967   0.761   2.052   3.158
 5023SOL    HW115968   0.687   2.059   3.225
 5023SOL    HW215969   0.836   2.112   3.186
 5024SOL     OW15970   4.239   3.920   0.047
 5024SOL    HW115971   4.222   4.017   0.028
 5024SOL    HW215972   4.198   3.896   0.135
 5025SOL     OW15973   4.675   2.138   4.659
 5025SOL    HW115974   4.683   2.214   4.723
 5025SOL    HW215975   4.582   2.103   4.659
 5026SOL     OW15976   5.167   5.917   4.975
 5026SOL    HW115977   5.250   5.961   5.012
 5026SOL    HW215978   5.090   5.980   4.984
 5027SOL     OW15979   5.416   6.385   1.453
 5027SOL    HW115980   5.426   6.314   1.523
 5027SOL    HW215981   5.499   6.440   1.449
 5028SOL     OW15982   0.295   2.103   2.570
 5028SOL    HW115983   0.374   2.056   2.530
 5028SOL    HW215984   0.277   2.067   2.661
 5029SOL     OW15985   5.998   2.709   3.076
 5029SOL    HW115986   6.088   2.731   3.115
 5029SOL    HW215987   5.941   2.791   3.075
 5030SOL     OW15988   0.716   3.138   0.881
 5030SOL    HW115989   0.627   3.170   0.848
 5030SOL    HW215990   0.725   3.040   0.863
 5031SOL     OW15991   5.830   0.781   6.250
 5031SOL    HW115992   5.924   0.768   6.220
 5031SOL    HW215993   5.775   0.702   6.222
 5032SOL     OW15994   2.015   4.526   6.562
 5032SOL    HW115995   2.106   4.521   6.519
 5032SOL    HW215996   2.025   4.515   6.661
 5033SOL     OW15997   2.124   6.846   4.066
 5033SOL    HW115998   2.039   6.883   4.028
 5033SOL    HW215999   2.180   6.921   4.102
 5034SOL     OW16000   4.240   6.090   3.592
 5034SOL    HW116001   4.333   6.055   3.583
 5034SOL    HW216002   4.178   6.037   3.535
 5035SOL     OW16003   1.917   3.914   3.915
 5035SOL    HW116004   1.878   4.003   3.940
 5035SOL    HW216005   1.847   3.843   3.928
 5036SOL     OW16006   1.374   2.829   4.375
 5036SOL    HW116007   1.362   2.889   4.454
 5036SOL    HW216008   1.428   2.749   4.402
 5037SOL     OW16009   5.262   4.687   1.342
 5037SOL    HW116010   5.296   4.750   1.411
 5037SOL    HW216011   5.183   4.727   1.296
 5038SOL     OW16012   3.028   3.885   4.807
 5038SOL    HW116013   2.937   3.844   4.804
 5038SOL    HW216014   3.059   3.889   4.902
 5039SOL     OW16015   0.248   2.775   6.529
 5039SOL    HW116016   0.258   2.734   6.620
 5039SOL    HW216017   0.226   2.873   6.540
 5040SOL     OW16018   0.930   1.513   4.874
 5040SOL    HW116019   0.936   1.426   4.824
 5040SOL    HW216020   0.986   1.508   4.957
 5041SOL     OW16021   6.627   2.437   1.131
 5041SOL    HW116022   6.600   2.446   1.227
 5041SOL    HW216023   6.726   2.446   1.123
 5042SOL     OW16024   0.943   1.666   5.645
 5042SOL    HW116025   0.953   1.761   5.615
 5042SOL    HW216026   0.940   1.606   5.565
 5043SOL     OW16027   2.540   7.000   1.243
 5043SOL    HW116028   2.445   0.013   1.233
 5043SOL    HW216029   2.572   6.965   1.155
 5044SOL     OW16030   6.906   5.997   1.204
 5044SOL    HW116031   6.887   6.063   1.132
 5044SOL    HW216032   7.002   5.969   1.199
 5045SOL     OW16033   5.891   2.751   2.166
 5045SOL    HW116034   5.804   2.800   2.159
 5045SOL    HW216035   5.899   2.712   2.257
 5046SOL     OW16036   4.151   3.185   1.850
 5046SOL    HW116037   4.161   3.282   1.873
 5046SOL    HW216038   4.083   3.176   1.777
 5047SOL     OW16039   2.286   4.522   3.727
 5047SOL    HW116040   2.371   4.479   3.759
 5047SOL    HW216041   2.309   4.601   3.669
 5048SOL     OW16042   1.593   6.667   5.895
 5048SOL    HW116043   1.620   6.762   5.910
 5048SOL    HW216044   1.512   6.664   5.838
 5049SOL     OW16045   4.086   1.749   6.466
 5049SOL    HW116046   4.132   1.828   6.424
 5049SOL    HW216047   4.134   1.724   6.550
 5050SOL     OW16048   1.050   0.117   1.270
 5050SOL    HW116049   1.118   0.107   1.198
 5050SOL    HW216050   1.093   0.105   1.359
 5051SOL     OW16051   4.275   4.179   0.991
 5051SOL    HW116052   4.203   4.245   1.010
 5051SOL    HW216053   4.358   4.205   1.039
 5052SOL     OW16054   1.874   3.701   4.378
 5052SOL    HW116055   1.887   3.615   4.328
 5052SOL    HW216056   1.816   3.762   4.325
 5053SOL     OW16057   0.015   0.740   0.452
 5053SOL    HW116058   6.936   0.760   0.449
 5053SOL    HW216059   0.066   0.822   0.425
 5054SOL     OW16060   3.988   5.571   2.914
 5054SOL    HW116061   4.084   5.548   2.896
 5054SOL    HW216062   3.941   5.589   2.827
 5055SOL     OW16063   5.999   4.328   5.824
 5055SOL    HW116064   5.908   4.335   5.864
 5055SOL    HW216065   6.006   4.244   5.769
 5056SOL     OW16066   6.629   5.026   3.281
 5056SOL    HW116067   6.662   5.075   3.362
 5056SOL    HW216068   6.530   5.012   3.289
 5057SOL     OW16069   6.741   6.425   2.602
 5057SOL    HW116070   6.764   6.379   2.688
 5057SOL    HW216071   6.757   6.524   2.612
 5058SOL     OW16072   2.883   5.728   5.636
 5058SOL    HW116073   2.936   5.796   5.686
 5058SOL    HW216074   2.927   5.639   5.644
 5059SOL     OW16075   6.570   6.542   2.393
 5059SOL    HW116076   6.619   6.469   2.442
 5059SOL    HW216077   6.554   6.619   2.454
 5060SOL     OW16078   6.605   2.983   0.177
 5060SOL    HW116079   6.667   2.981   0.099
 5060SOL    HW216080   6.657   2.967   0.261
 5061SOL     OW16081   5.562   3.258   0.802
 5061SOL    HW116082   5.536   3.289   0.711
 5061SOL    HW216083   5.506   3.304   0.870
 5062SOL     OW16084   6.682   0.170   6.945
 5062SOL    HW116085   6.718   0.244   6.888
 5062SOL    HW216086   6.644   0.208   0.010
 5063SOL     OW16087   1.219   6.430   2.419
 5063SOL    HW116088   1.163   6.483   2.355
 5063SOL    HW216089   1.239   6.486   2.500
 5064SOL     OW16090   5.276   4.368   6.854
 5064SOL    HW116091   5.215   4.312   6.911
 5064SOL    HW216092   5.359   4.389   6.907
 5065SOL     OW16093   2.101   6.987   5.825
 5065SOL    HW116094   2.042   6.971   5.904
 5065SOL    HW216095   2.104   6.905   5.768
 5066SOL     OW16096   5.047   4.589   0.147
 5066SOL    HW116097   5.060   4.501   0.192
 5066SOL    HW216098   4.949   4.609   0.140
 5067SOL     OW16099   5.395   1.048   6.647
 5067SOL    HW116100   5.483   1.092   6.661
 5067SOL    HW216101   5.392   1.007   6.556
 5068SOL     OW16102   3.408   5.093   1.533
 5068SOL    HW116103   3.498   5.136   1.530
 5068SOL    HW216104   3.412   5.012   1.592
 5069SOL     OW16105   0.124   5.384   2.923
 5069SOL    HW116106   0.104   5.478   2.949
 5069SOL    HW216107   0.162   5.335   3.001
 5070SOL     OW16108   5.234   2.620   3.097
 5070SOL    HW116109   5.204   2.652   3.187
 5070SOL    HW216110   5.277   2.696   3.047
 5071SOL     OW16111   4.881   0.866   1.825
 5071SOL    HW116112   4.793   0.860   1.872
 5071SOL    HW216113   4.905   0.962   1.812
 5072SOL     OW16114   0.849   4.203   2.463
 5072SOL    HW116115   0.798   4.161   2.387
 5072SOL    HW216116   0.933   4.152   2.480
 5073SOL     OW16117   4.381   2.355   3.340
 5073SOL    HW116118   4.336   2.268   3.362
 5073SOL    HW216119   4.471   2.357   3.382
 5074SOL     OW16120   4.041   3.470   5.026
 5074SOL    HW116121   3.981   3.447   5.103
 5074SOL    HW216122   4.079   3.561   5.040
 5075SOL     OW16123   6.318   0.112   4.011
 5075SOL    HW116124   6.370   0.197   4.017
 5075SOL    HW216125   6.295   0.094   3.915
 5076SOL     OW16126   5.587   0.393   0.196
 5076SOL    HW116127   5.521   0.366   0.125
 5076SOL    HW216128   5.542   0.391   0.285
 5077SOL     OW16129   0.387   1.431   2.710
 5077SOL    HW116130   0.339   1.360   2.761
 5077SOL    HW216131   0.422   1.500   2.775
 5078SOL     OW16132   0.364   2.037   4.689
 5078SOL    HW116133   0.350   2.082   4.778
 5078SOL    HW216134   0.276   2.021   4.645
 5079SOL     OW16135   4.885   5.139   4.729
 5079SOL    HW116136   4.950   5.116   4.802
 5079SOL    HW216137   4.902   5.232   4.696
 5080SOL     OW16138   4.726   0.360   5.778
 5080SOL    HW116139   4.743   0.309   5.694
 5080SOL    HW216140   4.628   0.374   5.789
 5081SOL     OW16141   3.055   3.466   3.299
 5081SOL    HW116142   3.015   3.485   3.389
 5081SOL    HW216143   3.100   3.548   3.265
 5082SOL     OW16144   1.176   1.849   5.099
 5082SOL    HW116145   1.241   1.794   5.047
 5082SOL    HW216146   1.140   1.921   5.041
 5083SOL     OW16147   0.944   3.785   2.467
 5083SOL    HW116148   0.952   3.774   2.368
 5083SOL    HW216149   1.008   3.723   2.512
 5084SOL     OW16150   1.528   5.532   2.486
 5084SOL    HW116151   1.490   5.604   2.428
 5084SOL    HW216152   1.624   5.517   2.464
 5085SOL     OW16153   6.486   2.988   0.876
 5085SOL    HW116154   6.488   3.075   0.925
 5085SOL    HW216155   6.537   2.996   0.790
 5086SOL     OW16156   6.557   4.828   4.854
 5086SOL    HW116157   6.638   4.828   4.912
 5086SOL    HW216158   6.499   4.906   4.875
 5087SOL     OW16159   5.480   5.466   5.770
 5087SOL    HW116160   5.565   5.464   5.823
 5087SOL    HW216161   5.467   5.379   5.723
 5088SOL     OW16162   5.698   1.139   6.628
 5088SOL    HW116163   5.702   1.059   6.569
 5088SOL    HW216164   5.718   1.221   6.574
 5089SOL     OW16165   5.487   3.247   4.307
 5089SOL    HW116166   5.444   3.244   4.397
 5089SOL    HW216167   5.585   3.228   4.316
 5090SOL     OW16168   1.020   4.690   6.874
 5090SOL    HW116169   0.983   4.683   6.782
 5090SOL    HW216170   0.970   4.629   6.936
 5091SOL     OW16171   0.730   6.006   3.992
 5091SOL    HW116172   0.824   5.999   3.957
 5091SOL    HW216173   0.732   6.044   4.084
 5092SOL     OW16174   3.723   3.011   0.538
 5092SOL    HW116175   3.791   3.032   0.468
 5092SOL    HW216176   3.643   2.969   0.495
 5093SOL     OW16177   0.922   0.917   2.565
 5093SOL    HW116178   0.854   0.851   2.533
 5093SOL    HW216179   0.892   0.957   2.651
 5094SOL     OW16180   0.916   0.278   6.098
 5094SOL    HW116181   0.962   0.262   6.011
 5094SOL    HW216182   0.820   0.300   6.082
 5095SOL     OW16183   3.289   6.280   4.983
 5095SOL    HW116184   3.189   6.293   4.983
 5095SOL    HW216185   3.318   6.246   4.894
 5096SOL     OW16186   3.321   5.961   2.149
 5096SOL    HW116187   3.382   6.038   2.164
 5096SOL    HW216188   3.300   5.954   2.051
 5097SOL     OW16189   0.718   2.323   6.698
 5097SOL    HW116190   0.775   2.342   6.618
 5097SOL    HW216191   0.775   2.324   6.781
 5098SOL     OW16192   1.351   2.682   2.884
 5098SOL    HW116193   1.380   2.682   2.788
 5098SOL    HW216194   1.388   2.601   2.930
 5099SOL     OW16195   0.999   1.506   4.525
 5099SOL    HW116196   0.920   1.542   4.574
 5099SOL    HW216197   1.072   1.485   4.590
 5100SOL     OW16198   4.646   4.636   5.526
 5100SOL    HW116199   4.695   4.688   5.596
 5100SOL    HW216200   4.689   4.546   5.515
 5101SOL     OW16201   5.652   6.255   0.353
 5101SOL    HW116202   5.593   6.259   0.434
 5101SOL    HW216203   5.596   6.263   0.270
 5102SOL     OW16204   3.769   5.994   3.414
 5102SOL    HW116205   3.712   6.018   3.493
 5102SOL    HW216206   3.711   5.965   3.338
 5103SOL     OW16207   1.835   2.087   3.419
 5103SOL    HW116208   1.767   2.029   3.464
 5103SOL    HW216209   1.916   2.096   3.478
 5104SOL     OW16210   0.840   0.587   0.741
 5104SOL    HW116211   0.761   0.647   0.758
 5104SOL    HW216212   0.866   0.542   0.826
 5105SOL     OW16213   1.348   3.436   0.343
 5105SOL    HW116214   1.425   3.373   0.357
 5105SOL    HW216215   1.291   3.402   0.268
 5106SOL     OW16216   2.173   6.736   2.124
 5106SOL    HW116217   2.207   6.665   2.186
 5106SOL    HW216218   2.075   6.722   2.109
 5107SOL     OW16219   1.609   6.929   6.008
 5107SOL    HW116220   1.601   6.905   6.105
 5107SOL    HW216221   1.546   7.004   5.987
 5108SOL     OW16222   3.823   3.546   4.618
 5108SOL    HW116223   3.772   3.599   4.685
 5108SOL    HW216224   3.915   3.529   4.652
 5109SOL     OW16225   0.880   2.318   2.132
 5109SOL    HW116226   0.893   2.418   2.137
 5109SOL    HW216227   0.787   2.298   2.102
 5110SOL     OW16228   1.264   5.960   5.475
 5110SOL    HW116229   1.170   5.981   5.448
 5110SOL    HW216230   1.299   5.885   5.419
 5111SOL     OW16231   1.103   0.944   6.602
 5111SOL    HW116232   1.013   0.950   6.560
 5111SOL    HW216233   1.093   0.918   6.698
 5112SOL     OW16234   0.593   6.908   3.323
 5112SOL    HW116235   0.691   6.919   3.340
 5112SOL    HW216236   0.555   6.995   3.293
 5113SOL     OW16237   0.667   1.808   6.583
 5113SOL    HW116238   0.661   1.892   6.637
 5113SOL    HW216239   0.678   1.832   6.486
 5114SOL     OW16240   5.132   5.244   6.454
 5114SOL    HW116241   5.162   5.160   6.410
 5114SOL    HW216242   5.122   5.317   6.386
 5115SOL     OW16243   2.645   3.863   5.253
 5115SOL    HW116244   2.621   3.775   5.294
 5115SOL    HW216245   2.564   3.905   5.213
 5116SOL     OW16246   6.759   3.991   1.519
 5116SOL    HW116247   6.693   4.056   1.554
 5116SOL    HW216248   6.712   3.912   1.480
 5117SOL     OW16249   2.526   5.834   2.382
 5117SOL    HW116250   2.466   5.886   2.321
 5117SOL    HW216251   2.523   5.737   2.357
 5118SOL     OW16252   4.137   6.976   1.753
 5118SOL    HW116253   4.122   6.973   1.654
 5118SOL    HW216254   4.115   0.049   1.787
 5119SOL     OW16255   6.688   0.973   3.440
 5119SOL    HW116256   6.751   0.896   3.435
 5119SOL    HW216257   6.707   1.037   3.366
 5120SOL     OW16258   3.681   1.277   1.067
 5120SOL    HW116259   3.778   1.257   1.081
 5120SOL    HW216260   3.658   1.262   0.971
 5121SOL     OW16261   0.783   3.815   4.323
 5121SOL    HW116262   0.846   3.876   4.372
 5121SOL    HW216263   0.799   3.823   4.224
 5122SOL     OW16264   2.573   5.652   2.995
 5122SOL    HW116265   2.665   5.613   2.995
 5122SOL    HW216266   2.570   5.733   3.053
 5123SOL     OW16267   6.333   3.060   1.950
 5123SOL    HW116268   6.406   3.032   1.887
 5123SOL    HW216269   6.330   2.995   2.027
 5124SOL     OW16270   3.582   6.867   6.755
 5124SOL    HW116271   3.608   6.960   6.729
 5124SOL    HW216272   3.486   6.866   6.781
 5125SOL     OW16273   0.524   2.201   6.255
 5125SOL    HW116274   0.563   2.273   6.312
 5125SOL    HW216275   0.584   2.183   6.177
 5126SOL     OW16276   3.977   1.509   0.547
 5126SOL    HW116277   3.999   1.413   0.530
 5126SOL    HW216278   3.909   1.516   0.620
 5127SOL     OW16279   4.671   3.677   5.875
 5127SOL    HW116280   4.745   3.610   5.868
 5127SOL    HW216281   4.592   3.644   5.823
 5128SOL     OW16282   0.515   0.669   0.242
 5128SOL    HW116283   0.534   0.702   0.150
 5128SOL    HW216284   0.451   0.592   0.237
 5129SOL     OW16285   4.598   2.510   3.929
 5129SOL    HW116286   4.511   2.475   3.964
 5129SOL    HW216287   4.672   2.449   3.959
 5130SOL     OW16288   1.794   6.682   4.613
 5130SOL    HW116289   1.779   6.676   4.712
 5130SOL    HW216290   1.742   6.609   4.568
 5131SOL     OW16291   3.788   5.158   2.712
 5131SOL    HW116292   3.743   5.068   2.709
 5131SOL    HW216293   3.746   5.213   2.785
 5132SOL     OW16294   3.243   1.486   5.983
 5132SOL    HW116295   3.279   1.394   5.994
 5132SOL    HW216296   3.159   1.496   6.037
 5133SOL     OW16297   3.246   3.885   6.255
 5133SOL    HW116298   3.262   3.792   6.288
 5133SOL    HW216299   3.308   3.904   6.178
 5134SOL     OW16300   5.315   5.963   1.479
 5134SOL    HW116301   5.348   5.919   1.395
 5134SOL    HW216302   5.388   6.016   1.521
 5135SOL     OW16303   1.053   3.017   2.133
 5135SOL    HW116304   1.134   3.073   2.147
 5135SOL    HW216305   1.011   3.039   2.045
 5136SOL     OW16306   0.124   0.188   5.131
 5136SOL    HW116307   0.183   0.261   5.167
 5136SOL    HW216308   0.148   0.170   5.036
 5137SOL     OW16309   5.502   1.117   3.518
 5137SOL    HW116310   5.430   1.168   3.472
 5137SOL    HW216311   5.590   1.139   3.476
 5138SOL     OW16312   3.450   3.692   2.821
 5138SOL    HW116313   3.464   3.710   2.723
 5138SOL    HW216314   3.514   3.746   2.874
 5139SOL     OW16315   5.239   0.878   4.695
 5139SOL    HW116316   5.144   0.909   4.691
 5139SOL    HW216317   5.245   0.784   4.662
 5140SOL     OW16318   2.695   3.587   5.632
 5140SOL    HW116319   2.777   3.545   5.592
 5140SOL    HW216320   2.619   3.522   5.629
 5141SOL     OW16321   0.748   2.560   1.712
 5141SOL    HW116322   0.728   2.623   1.636
 5141SOL    HW216323   0.843   2.530   1.706
 5142SOL     OW16324   6.916   6.223   2.967
 5142SOL    HW116325   6.893   6.245   3.062
 5142SOL    HW216326   7.000   6.169   2.965
 5143SOL     OW16327   6.138   5.994   2.695
 5143SOL    HW116328   6.126   5.941   2.779
 5143SOL    HW216329   6.236   6.009   2.679
 5144SOL     OW16330   1.392   2.705   5.123
 5144SOL    HW116331   1.313   2.765   5.107
 5144SOL    HW216332   1.459   2.754   5.179
 5145SOL     OW16333   0.960   5.078   6.435
 5145SOL    HW116334   0.871   5.102   6.475
 5145SOL    HW216335   1.024   5.052   6.508
 5146SOL     OW16336   5.219   5.803   6.344
 5146SOL    HW116337   5.183   5.896   6.348
 5146SOL    HW216338   5.313   5.805   6.312
 5147SOL     OW16339   3.834   0.973   3.349
 5147SOL    HW116340   3.896   0.920   3.407
 5147SOL    HW216341   3.883   1.048   3.306
 5148SOL     OW16342   6.080   1.189   0.714
 5148SOL    HW116343   6.174   1.193   0.680
 5148SOL    HW216344   6.018   1.168   0.638
 5149SOL     OW16345   2.803   0.118   3.650
 5149SOL    HW116346   2.729   0.131   3.584
 5149SOL    HW216347   2.824   0.205   3.694
 5150SOL     OW16348   6.957   0.902   4.287
 5150SOL    HW116349   6.941   0.994   4.323
 5150SOL    HW216350   6.992   0.843   4.359
 5151SOL     OW16351   5.297   4.777   1.983
 5151SOL    HW116352   5.387   4.758   1.943
 5151SOL    HW216353   5.290   4.874   2.006
 5152SOL     OW16354   2.275   1.350   0.504
 5152SOL    HW116355   2.197   1.400   0.466
 5152SOL    HW216356   2.271   1.255   0.473
 5153SOL     OW16357   2.202   1.951   0.104
 5153SOL    HW116358   2.218   1.879   0.171
 5153SOL    HW216359   2.194   2.039   0.151
 5154SOL     OW16360   0.874   2.978   6.592
 5154SOL    HW116361   0.934   3.048   6.555
 5154SOL    HW216362   0.928   2.899   6.620
 5155SOL     OW16363   1.518   0.686   0.292
 5155SOL    HW116364   1.542   0.730   0.379
 5155SOL    HW216365   1.521   0.753   0.219
 5156SOL     OW16366   5.186   3.718   5.763
 5156SOL    HW116367   5.175   3.810   5.725
 5156SOL    HW216368   5.281   3.689   5.752
 5157SOL     OW16369   3.339   1.009   2.168
 5157SOL    HW116370   3.278   0.986   2.092
 5157SOL    HW216371   3.382   1.097   2.151
 5158SOL     OW16372   1.076   3.314   1.967
 5158SOL    HW116373   1.167   3.303   2.006
 5158SOL    HW216374   1.078   3.287   1.871
 5159SOL     OW16375   6.483   3.218   6.002
 5159SOL    HW116376   6.511   3.250   6.092
 5159SOL    HW216377   6.397   3.168   6.011
 5160SOL     OW16378   6.079   1.303   3.307
 5160SOL    HW116379   6.106   1.343   3.395
 5160SOL    HW216380   6.145   1.233   3.280
 5161SOL     OW16381   1.388   1.834   6.721
 5161SOL    HW116382   1.485   1.847   6.699
 5161SOL    HW216383   1.378   1.820   6.819
 5162SOL     OW16384   0.347   0.562   6.072
 5162SOL    HW116385   0.442   0.554   6.043
 5162SOL    HW216386   0.295   0.484   6.039
 5163SOL     OW16387   3.485   1.627   1.391
 5163SOL    HW116388   3.467   1.534   1.358
 5163SOL    HW216389   3.584   1.640   1.399
 5164SOL     OW16390   2.250   2.797   0.113
 5164SOL    HW116391   2.255   2.758   0.021
 5164SOL    HW216392   2.245   2.724   0.181
 5165SOL     OW16393   1.242   5.650   5.406
 5165SOL    HW116394   1.333   5.620   5.435
 5165SOL    HW216395   1.249   5.691   5.315
 5166SOL     OW16396   6.471   5.774   6.069
 5166SOL    HW116397   6.398   5.772   6.138
 5166SOL    HW216398   6.471   5.863   6.023
 5167SOL     OW16399   5.877   3.095   5.690
 5167SOL    HW116400   5.820   3.014   5.677
 5167SOL    HW216401   5.966   3.067   5.728
 5168SOL     OW16402   5.745   1.141   3.391
 5168SOL    HW116403   5.827   1.088   3.411
 5168SOL    HW216404   5.767   1.213   3.325
 5169SOL     OW16405   4.878   5.729   4.672
 5169SOL    HW116406   4.879   5.648   4.730
 5169SOL    HW216407   4.878   5.701   4.576
 5170SOL     OW16408   2.825   2.920   6.790
 5170SOL    HW116409   2.854   2.840   6.738
 5170SOL    HW216410   2.762   2.975   6.735
 5171SOL     OW16411   1.314   6.630   5.792
 5171SOL    HW116412   1.244   6.597   5.856
 5171SOL    HW216413   1.273   6.640   5.701
 5172SOL     OW16414   4.968   5.047   5.789
 5172SOL    HW116415   4.910   5.084   5.715
 5172SOL    HW216416   4.912   5.035   5.871
 5173SOL     OW16417   4.607   6.286   4.006
 5173SOL    HW116418   4.564   6.205   3.966
 5173SOL    HW216419   4.707   6.276   4.004
 5174SOL     OW16420   0.996   5.941   3.952
 5174SOL    HW116421   1.061   5.996   4.004
 5174SOL    HW216422   1.044   5.868   3.904
 5175SOL     OW16423   2.821   1.977   6.140
 5175SOL    HW116424   2.869   2.052   6.094
 5175SOL    HW216425   2.885   1.929   6.200
 5176SOL     OW16426   5.649   6.803   5.696
 5176SOL    HW116427   5.582   6.815   5.769
 5176SOL    HW216428   5.715   6.878   5.699
 5177SOL     OW16429   4.916   4.955   1.045
 5177SOL    HW116430   4.965   4.905   0.974
 5177SOL    HW216431   4.898   4.895   1.123
 5178SOL     OW16432   0.915   4.019   1.224
 5178SOL    HW116433   0.962   4.083   1.164
 5178SOL    HW216434   0.914   3.928   1.183
 5179SOL     OW16435   3.867   5.604   2.689
 5179SOL    HW116436   3.886   5.542   2.613
 5179SOL    HW216437   3.829   5.689   2.654
 5180SOL     OW16438   2.840   5.133   2.212
 5180SOL    HW116439   2.837   5.210   2.276
 5180SOL    HW216440   2.875   5.164   2.124
 5181SOL     OW16441   6.692   1.725   5.533
 5181SOL    HW116442   6.741   1.653   5.583
 5181SOL    HW216443   6.743   1.811   5.540
 5182SOL     OW16444   2.433   5.958   2.163
 5182SOL    HW116445   2.388   5.908   2.089
 5182SOL    HW216446   2.522   5.992   2.131
 5183SOL     OW16447   5.341   1.843   3.189
 5183SOL    HW116448   5.366   1.752   3.155
 5183SOL    HW216449   5.369   1.913   3.123
 5184SOL     OW16450   3.182   1.217   1.922
 5184SOL    HW116451   3.168   1.252   1.829
 5184SOL    HW216452   3.111   1.150   1.943
 5185SOL     OW16453   6.340   0.709   1.106
 5185SOL    HW116454   6.311   0.802   1.130
 5185SOL    HW216455   6.284   0.643   1.155
 5186SOL     OW16456   6.191   2.473   6.706
 5186SOL    HW116457   6.254   2.545   6.736
 5186SOL    HW216458   6.178   2.479   6.607
 5187SOL     OW16459   1.275   4.672   4.971
 5187SOL    HW116460   1.374   4.680   4.985
 5187SOL    HW216461   1.256   4.597   4.908
 5188SOL     OW16462   6.800   0.511   1.600
 5188SOL    HW116463   6.834   0.577   1.532
 5188SOL    HW216464   6.741   0.444   1.555
 5189SOL     OW16465   5.441   6.067   5.885
 5189SOL    HW116466   5.453   5.981   5.935
 5189SOL    HW216467   5.372   6.054   5.814
 5190SOL     OW16468   1.134   5.281   0.870
 5190SOL    HW116469   1.162   5.186   0.888
 5190SOL    HW216470   1.071   5.311   0.941
 5191SOL     OW16471   3.021   4.094   1.207
 5191SOL    HW116472   2.987   4.056   1.121
 5191SOL    HW216473   3.119   4.078   1.214
 5192SOL     OW16474   0.622   4.633   2.505
 5192SOL    HW116475   0.660   4.559   2.561
 5192SOL    HW216476   0.557   4.686   2.559
 5193SOL     OW16477   3.820   0.676   4.667
 5193SOL    HW116478   3.849   0.592   4.714
 5193SOL    HW216479   3.721   0.676   4.655
 5194SOL     OW16480   3.968   1.533   5.579
 5194SOL    HW116481   4.026   1.609   5.549
 5194SOL    HW216482   3.872   1.561   5.576
 5195SOL     OW16483   2.049   0.837   5.083
 5195SOL    HW116484   2.138   0.813   5.045
 5195SOL    HW216485   1.982   0.767   5.059
 5196SOL     OW16486   6.143   6.139   3.010
 5196SOL    HW116487   6.166   6.176   2.920
 5196SOL    HW216488   6.138   6.039   3.006
 5197SOL     OW16489   2.698   3.843   5.728
 5197SOL    HW116490   2.705   3.746   5.708
 5197SOL    HW216491   2.705   3.895   5.643
 5198SOL     OW16492   6.752   5.609   3.542
 5198SOL    HW116493   6.680   5.662   3.587
 5198SOL    HW216494   6.741   5.512   3.566
 5199SOL     OW16495   0.691   5.412   1.170
 5199SOL    HW116496   0.747   5.447   1.246
 5199SOL    HW216497   0.608   5.467   1.162
 5200SOL     OW16498   0.214   4.458   5.897
 5200SOL    HW116499   0.166   4.387   5.846
 5200SOL    HW216500   0.201   4.444   5.995
 5201SOL     OW16501   1.039   5.564   4.563
 5201SOL    HW116502   1.000   5.653   4.586
 5201SOL    HW216503   0.988   5.493   4.612
 5202SOL     OW16504   0.044   4.874   1.768
 5202SOL    HW116505   0.059   4.966   1.731
 5202SOL    HW216506   0.110   4.810   1.729
 5203SOL     OW16507   6.917   3.102   0.107
 5203SOL    HW116508   6.900   3.132   0.013
 5203SOL    HW216509   6.979   3.024   0.106
 5204SOL     OW16510   5.338   5.321   6.185
 5204SOL    HW116511   5.283   5.241   6.211
 5204SOL    HW216512   5.303   5.359   6.099
 5205SOL     OW16513   2.501   6.023   0.479
 5205SOL    HW116514   2.469   6.093   0.542
 5205SOL    HW216515   2.601   6.019   0.480
 5206SOL     OW16516   0.175   4.439   4.670
 5206SOL    HW116517   0.083   4.402   4.653
 5206SOL    HW216518   0.243   4.374   4.637
 5207SOL     OW16519   1.353   6.494   2.008
 5207SOL    HW116520   1.390   6.563   2.070
 5207SOL    HW216521   1.340   6.535   1.917
 5208SOL     OW16522   4.580   2.055   0.487
 5208SOL    HW116523   4.627   1.977   0.446
 5208SOL    HW216524   4.506   2.023   0.547
 5209SOL     OW16525   6.401   5.267   3.457
 5209SOL    HW116526   6.463   5.343   3.473
 5209SOL    HW216527   6.421   5.192   3.520
 5210SOL     OW16528   5.375   3.263   3.767
 5210SOL    HW116529   5.305   3.272   3.838
 5210SOL    HW216530   5.338   3.210   3.690
 5211SOL     OW16531   2.836   4.358   1.598
 5211SOL    HW116532   2.849   4.401   1.688
 5211SOL    HW216533   2.814   4.429   1.531
 5212SOL     OW16534   0.259   7.018   6.424
 5212SOL    HW116535   0.294   7.005   6.516
 5212SOL    HW216536   0.223   6.932   6.388
 5213SOL     OW16537   4.602   2.054   6.623
 5213SOL    HW116538   4.638   2.145   6.605
 5213SOL    HW216539   4.674   1.996   6.661
 5214SOL     OW16540   4.645   2.132   0.039
 5214SOL    HW116541   4.721   2.113   0.101
 5214SOL    HW216542   4.671   2.203   6.993
 5215SOL     OW16543   5.822   5.827   4.550
 5215SOL    HW116544   5.914   5.848   4.582
 5215SOL    HW216545   5.781   5.909   4.510
 5216SOL     OW16546   2.833   6.385   1.265
 5216SOL    HW116547   2.745   6.360   1.225
 5216SOL    HW216548   2.907   6.345   1.211
 5217SOL     OW16549   3.077   5.623   3.743
 5217SOL    HW116550   3.024   5.597   3.824
 5217SOL    HW216551   3.053   5.716   3.717
 5218SOL     OW16552   1.017   0.484   3.634
 5218SOL    HW116553   1.103   0.533   3.620
 5218SOL    HW216554   0.953   0.540   3.686
 5219SOL     OW16555   3.066   6.654   1.122
 5219SOL    HW116556   3.149   6.710   1.124
 5219SOL    HW216557   3.090   6.558   1.134
 5220SOL     OW16558   0.912   6.679   2.049
 5220SOL    HW116559   0.870   6.705   2.136
 5220SOL    HW216560   0.855   6.612   2.003
 5221SOL     OW16561   4.814   0.759   0.139
 5221SOL    HW116562   4.781   0.666   0.121
 5221SOL    HW216563   4.896   0.776   0.085
 5222SOL     OW16564   6.542   5.496   2.351
 5222SOL    HW116565   6.483   5.424   2.313
 5222SOL    HW216566   6.500   5.533   2.434
 5223SOL     OW16567   4.169   6.592   1.450
 5223SOL    HW116568   4.106   6.517   1.465
 5223SOL    HW216569   4.252   6.578   1.506
 5224SOL     OW16570   5.543   0.282   3.306
 5224SOL    HW116571   5.551   0.333   3.392
 5224SOL    HW216572   5.488   0.199   3.322
 5225SOL     OW16573   6.986   6.881   6.108
 5225SOL    HW116574   6.892   6.848   6.103
 5225SOL    HW216575   0.018   6.848   6.029
 5226SOL     OW16576   2.156   0.799   3.440
 5226SOL    HW116577   2.226   0.775   3.508
 5226SOL    HW216578   2.172   0.747   3.356
 5227SOL     OW16579   5.469   4.121   4.497
 5227SOL    HW116580   5.517   4.037   4.474
 5227SOL    HW216581   5.458   4.177   4.414
 5228SOL     OW16582   5.143   6.956   2.578
 5228SOL    HW116583   5.228   7.007   2.572
 5228SOL    HW216584   5.106   6.941   2.486
 5229SOL     OW16585   1.047   3.925   3.829
 5229SOL    HW116586   0.985   3.918   3.908
 5229SOL    HW216587   1.037   4.015   3.787
 5230SOL     OW16588   0.477   1.503   6.592
 5230SOL    HW116589   0.468   1.550   6.504
 5230SOL    HW216590   0.572   1.506   6.622
 5231SOL     OW16591   3.079   3.757   3.435
 5231SOL    HW116592   3.017   3.708   3.496
 5231SOL    HW216593   3.026   3.806   3.365
 5232SOL     OW16594   5.128   2.858   4.843
 5232SOL    HW116595   5.222   2.834   4.818
 5232SOL    HW216596   5.081   2.779   4.881
 5233SOL     OW16597   0.616   0.115   2.619
 5233SOL    HW116598   0.644   0.194   2.672
 5233SOL    HW216599   0.648   0.031   2.664
 5234SOL     OW16600   3.403   4.130   1.469
 5234SOL    HW116601   3.356   4.116   1.556
 5234SOL    HW216602   3.436   4.225   1.464
 5235SOL     OW16603   0.801   1.400   1.752
 5235SOL    HW116604   0.875   1.418   1.688
 5235SOL    HW216605   0.799   1.471   1.822
 5236SOL     OW16606   6.779   3.037   0.977
 5236SOL    HW116607   6.754   2.950   0.934
 5236SOL    HW216608   6.707   3.064   1.041
 5237SOL     OW16609   1.648   2.004   2.490
 5237SOL    HW116610   1.681   1.930   2.549
 5237SOL    HW216611   1.571   2.051   2.535
 5238SOL     OW16612   1.771   3.558   1.672
 5238SOL    HW116613   1.739   3.466   1.691
 5238SOL    HW216614   1.866   3.568   1.703
 5239SOL     OW16615   2.952   3.067   5.262
 5239SOL    HW116616   2.999   2.980   5.243
 5239SOL    HW216617   2.974   3.133   5.189
 5240SOL     OW16618   4.256   2.342   3.568
 5240SOL    HW116619   4.248   2.418   3.631
 5240SOL    HW216620   4.267   2.377   3.475
 5241SOL     OW16621   4.578   5.772   4.921
 5241SOL    HW116622   4.613   5.825   4.844
 5241SOL    HW216623   4.478   5.773   4.920
 5242SOL     OW16624   2.983   0.547   6.321
 5242SOL    HW116625   2.997   0.460   6.367
 5242SOL    HW216626   3.032   0.619   6.370
 5243SOL     OW16627   1.733   3.453   6.798
 5243SOL    HW116628   1.795   3.428   6.872
 5243SOL    HW216629   1.764   3.412   6.712
 5244SOL     OW16630   6.182   2.941   6.822
 5244SOL    HW116631   6.149   3.022   6.774
 5244SOL    HW216632   6.251   2.967   6.889
 5245SOL     OW16633   4.358   4.373   5.930
 5245SOL    HW116634   4.458   4.368   5.931
 5245SOL    HW216635   4.329   4.429   5.852
 5246SOL     OW16636   1.566   3.532   3.432
 5246SOL    HW116637   1.497   3.603   3.447
 5246SOL    HW216638   1.547   3.484   3.346
 5247SOL     OW16639   0.665   4.080   6.965
 5247SOL    HW116640   0.685   4.178   6.957
 5247SOL    HW216641   0.657   4.040   6.874
 5248SOL     OW16642   4.817   1.253   0.641
 5248SOL    HW116643   4.808   1.265   0.740
 5248SOL    HW216644   4.787   1.336   0.594
 5249SOL     OW16645   0.755   5.263   0.241
 5249SOL    HW116646   0.733   5.232   0.334
 5249SOL    HW216647   0.725   5.193   0.175
 5250SOL     OW16648   1.222   1.501   5.489
 5250SOL    HW116649   1.176   1.438   5.551
 5250SOL    HW216650   1.158   1.572   5.460
 5251SOL     OW16651   0.687   2.152   1.738
 5251SOL    HW116652   0.628   2.087   1.786
 5251SOL    HW216653   0.686   2.133   1.640
 5252SOL     OW16654   5.473   5.454   1.363
 5252SOL    HW116655   5.563   5.477   1.400
 5252SOL    HW216656   5.452   5.358   1.383
 5253SOL     OW16657   5.747   3.161   4.382
 5253SOL    HW116658   5.831   3.129   4.339
 5253SOL    HW216659   5.770   3.216   4.462
 5254SOL     OW16660   5.330   0.638   4.604
 5254SOL    HW116661   5.300   0.551   4.644
 5254SOL    HW216662   5.423   0.659   4.634
 5255SOL     OW16663   1.971   5.544   2.304
 5255SOL    HW116664   1.902   5.484   2.264
 5255SOL    HW216665   2.062   5.511   2.279
 5256SOL     OW16666   4.970   5.930   2.348
 5256SOL    HW116667   4.927   5.872   2.278
 5256SOL    HW216668   5.033   5.994   2.303
 5257SOL     OW16669   2.475   1.705   2.044
 5257SOL    HW116670   2.550   1.772   2.053
 5257SOL    HW216671   2.393   1.741   2.089
 5258SOL     OW16672   5.562   2.077   1.615
 5258SOL    HW116673   5.572   2.101   1.518
 5258SOL    HW216674   5.561   1.978   1.625
 5259SOL     OW16675   5.862   4.966   1.031
 5259SOL    HW116676   5.856   4.867   1.041
 5259SOL    HW216677   5.937   4.988   0.968
 5260SOL     OW16678   5.374   3.493   1.870
 5260SOL    HW116679   5.464   3.529   1.893
 5260SOL    HW216680   5.304   3.542   1.922
 5261SOL     OW16681   2.230   2.821   4.940
 5261SOL    HW116682   2.292   2.899   4.956
 5261SOL    HW216683   2.281   2.746   4.899
 5262SOL     OW16684   1.336   0.716   2.048
 5262SOL    HW116685   1.296   0.791   1.995
 5262SOL    HW216686   1.433   0.707   2.027
 5263SOL     OW16687   1.609   6.563   6.465
 5263SOL    HW116688   1.654   6.483   6.505
 5263SOL    HW216689   1.621   6.563   6.366
 5264SOL     OW16690   1.383   0.539   0.738
 5264SOL    HW116691   1.440   0.621   0.740
 5264SOL    HW216692   1.430   0.464   0.786
 5265SOL     OW16693   4.783   5.119   3.687
 5265SOL    HW116694   4.816   5.161   3.772
 5265SOL    HW216695   4.756   5.191   3.623
 5266SOL     OW16696   0.983   6.590   1.376
 5266SOL    HW116697   0.987   6.533   1.294
 5266SOL    HW216698   1.055   6.660   1.372
 5267SOL     OW16699   3.518   3.464   4.827
 5267SOL    HW116700   3.561   3.510   4.905
 5267SOL    HW216701   3.498   3.531   4.756
 5268SOL     OW16702   5.816   4.323   6.520
 5268SOL    HW116703   5.789   4.259   6.592
 5268SOL    HW216704   5.775   4.412   6.537
 5269SOL     OW16705   2.811   5.060   5.497
 5269SOL    HW116706   2.775   5.079   5.405
 5269SOL    HW216707   2.793   5.138   5.557
 5270SOL     OW16708   0.273   1.239   2.868
 5270SOL    HW116709   0.273   1.239   2.968
 5270SOL    HW216710   0.246   1.148   2.836
 5271SOL     OW16711   5.723   3.829   4.864
 5271SOL    HW116712   5.635   3.862   4.900
 5271SOL    HW216713   5.791   3.902   4.869
 5272SOL     OW16714   2.189   2.504   3.450
 5272SOL    HW116715   2.283   2.538   3.445
 5272SOL    HW216716   2.139   2.534   3.369
 5273SOL     OW16717   6.919   1.065   5.617
 5273SOL    HW116718   6.972   1.002   5.674
 5273SOL    HW216719   6.821   1.043   5.625
 5274SOL     OW16720   0.466   5.055   4.915
 5274SOL    HW116721   0.465   5.028   5.011
 5274SOL    HW216722   0.376   5.037   4.875
 5275SOL     OW16723   2.227   6.427   6.674
 5275SOL    HW116724   2.306   6.381   6.634
 5275SOL    HW216725   2.153   6.361   6.689
 5276SOL     OW16726   0.100   0.804   6.972
 5276SOL    HW116727   0.030   0.837   0.015
 5276SOL    HW216728   0.130   0.878   6.912
 5277SOL     OW16729   0.798   0.827   1.054
 5277SOL    HW116730   0.711   0.798   1.094
 5277SOL    HW216731   0.816   0.776   0.971
 5278SOL     OW16732   6.885   4.907   6.938
 5278SOL    HW116733   6.979   4.936   6.949
 5278SOL    HW216734   6.877   4.850   6.855
 5279SOL     OW16735   2.585   6.281   0.201
 5279SOL    HW116736   2.664   6.341   0.211
 5279SOL    HW216737   2.600   6.219   0.123
 5280SOL     OW16738   4.835   6.293   5.984
 5280SOL    HW116739   4.742   6.329   5.995
 5280SOL    HW216740   4.863   6.248   6.069
 5281SOL     OW16741   2.104   6.325   4.479
 5281SOL    HW116742   2.174   6.386   4.516
 5281SOL    HW216743   2.117   6.314   4.381
 5282SOL     OW16744   6.507   6.007   1.073
 5282SOL    HW116745   6.555   6.065   1.007
 5282SOL    HW216746   6.488   5.918   1.031
 5283SOL     OW16747   1.520   0.278   4.139
 5283SOL    HW116748   1.506   0.264   4.041
 5283SOL    HW216749   1.440   0.324   4.178
 5284SOL     OW16750   4.946   3.219   1.876
 5284SOL    HW116751   5.018   3.254   1.936
 5284SOL    HW216752   4.889   3.154   1.926
 5285SOL     OW16753   2.188   1.298   4.128
 5285SOL    HW116754   2.265   1.238   4.105
 5285SOL    HW216755   2.176   1.366   4.056
 5286SOL     OW16756   0.503   2.799   1.795
 5286SOL    HW116757   0.581   2.767   1.850
 5286SOL    HW216758   0.512   2.897   1.779
 5287SOL     OW16759   0.136   5.620   2.111
 5287SOL    HW116760   0.086   5.674   2.043
 5287SOL    HW216761   0.077   5.549   2.148
 5288SOL     OW16762   4.183   0.722   1.778
 5288SOL    HW116763   4.115   0.709   1.706
 5288SOL    HW216764   4.168   0.654   1.851
 5289SOL     OW16765   1.180   5.364   6.594
 5289SOL    HW116766   1.225   5.388   6.680
 5289SOL    HW216767   1.228   5.289   6.550
 5290SOL     OW16768   1.990   2.375   5.321
 5290SOL    HW116769   1.901   2.343   5.287
 5290SOL    HW216770   2.063   2.335   5.264
 5291SOL     OW16771   2.958   6.338   4.491
 5291SOL    HW116772   2.934   6.338   4.588
 5291SOL    HW216773   3.057   6.354   4.481
 5292SOL     OW16774   0.855   4.196   4.167
 5292SOL    HW116775   0.916   4.129   4.208
 5292SOL    HW216776   0.909   4.272   4.130
 5293SOL     OW16777   2.486   0.670   3.445
 5293SOL    HW116778   2.469   0.713   3.356
 5293SOL    HW216779   2.442   0.723   3.517
 5294SOL     OW16780   5.022   0.217   4.156
 5294SOL    HW116781   4.947   0.266   4.200
 5294SOL    HW216782   5.000   0.201   4.060
 5295SOL     OW16783   2.085   0.333   1.054
 5295SOL    HW116784   2.087   0.397   1.131
 5295SOL    HW216785   2.177   0.322   1.018
 5296SOL     OW16786   4.693   4.983   2.002
 5296SOL    HW116787   4.736   4.903   1.961
 5296SOL    HW216788   4.745   5.065   1.977
 5297SOL     OW16789   3.815   5.028   5.878
 5297SOL    HW116790   3.839   5.124   5.867
 5297SOL    HW216791   3.723   5.020   5.916
 5298SOL     OW16792   3.451   0.984   6.968
 5298SOL    HW116793   3.497   0.895   6.970
 5298SOL    HW216794   3.368   0.978   6.914
 5299SOL     OW16795   1.677   0.213   1.187
 5299SOL    HW116796   1.609   0.233   1.258
 5299SOL    HW216797   1.762   0.182   1.229
 5300SOL     OW16798   2.772   4.923   6.600
 5300SOL    HW116799   2.740   4.828   6.607
 5300SOL    HW216800   2.696   4.985   6.621
 5301SOL     OW16801   6.278   0.169   5.807
 5301SOL    HW116802   6.298   0.074   5.783
 5301SOL    HW216803   6.198   0.172   5.866
 5302SOL     OW16804   4.940   5.649   3.404
 5302SOL    HW116805   5.037   5.623   3.406
 5302SOL    HW216806   4.889   5.584   3.348
 5303SOL     OW16807   1.732   6.232   5.169
 5303SOL    HW116808   1.655   6.269   5.223
 5303SOL    HW216809   1.781   6.165   5.224
 5304SOL     OW16810   0.422   0.124   3.235
 5304SOL    HW116811   0.434   0.175   3.150
 5304SOL    HW216812   0.348   0.164   3.289
 5305SOL     OW16813   6.306   5.364   4.755
 5305SOL    HW116814   6.368   5.306   4.703
 5305SOL    HW216815   6.213   5.327   4.751
 5306SOL     OW16816   0.806   1.689   6.799
 5306SOL    HW116817   0.774   1.734   6.715
 5306SOL    HW216818   0.763   1.599   6.807
 5307SOL     OW16819   1.321   1.101   1.756
 5307SOL    HW116820   1.389   1.162   1.796
 5307SOL    HW216821   1.233   1.149   1.752
 5308SOL     OW16822   2.255   4.525   3.335
 5308SOL    HW116823   2.296   4.435   3.346
 5308SOL    HW216824   2.192   4.543   3.411
 5309SOL     OW16825   6.372   6.151   2.816
 5309SOL    HW116826   6.405   6.104   2.734
 5309SOL    HW216827   6.401   6.100   2.897
 5310SOL     OW16828   6.192   2.111   3.735
 5310SOL    HW116829   6.281   2.066   3.743
 5310SOL    HW216830   6.120   2.050   3.767
 5311SOL     OW16831   6.110   0.486   0.093
 5311SOL    HW116832   6.199   0.533   0.090
 5311SOL    HW216833   6.037   0.553   0.084
 5312SOL     OW16834   5.219   6.611   1.191
 5312SOL    HW116835   5.266   6.619   1.279
 5312SOL    HW216836   5.268   6.665   1.123
 5313SOL     OW16837   0.660   6.683   5.369
 5313SOL    HW116838   0.604   6.654   5.291
 5313SOL    HW216839   0.612   6.662   5.454
 5314SOL     OW16840   5.635   1.855   2.465
 5314SOL    HW116841   5.686   1.777   2.429
 5314SOL    HW216842   5.697   1.916   2.514
 5315SOL     OW16843   4.298   1.686   3.551
 5315SOL    HW116844   4.287   1.785   3.556
 5315SOL    HW216845   4.208   1.642   3.561
 5316SOL     OW16846   0.392   3.027   5.389
 5316SOL    HW116847   0.391   2.933   5.354
 5316SOL    HW216848   0.320   3.080   5.345
 5317SOL     OW16849   5.501   2.825   1.638
 5317SOL    HW116850   5.402   2.823   1.624
 5317SOL    HW216851   5.522   2.801   1.733
 5318SOL     OW16852   6.954   4.635   6.245
 5318SOL    HW116853   6.908   4.552   6.214
 5318SOL    HW216854   6.999   4.618   6.332
 5319SOL     OW16855   4.238   5.607   2.463
 5319SOL    HW116856   4.268   5.534   2.525
 5319SOL    HW216857   4.171   5.665   2.509
 5320SOL     OW16858   4.507   6.010   0.049
 5320SOL    HW116859   4.602   6.022   0.019
 5320SOL    HW216860   4.447   6.002   6.988
 5321SOL     OW16861   1.712   4.225   5.239
 5321SOL    HW116862   1.710   4.303   5.177
 5321SOL    HW216863   1.734   4.142   5.187
 5322SOL     OW16864   4.369   5.679   1.705
 5322SOL    HW116865   4.316   5.731   1.772
 5322SOL    HW216866   4.390   5.737   1.626
 5323SOL     OW16867   4.089   0.086   6.199
 5323SOL    HW116868   4.166   0.023   6.189
 5323SOL    HW216869   4.046   0.073   6.289
 5324SOL     OW16870   0.826   1.041   1.849
 5324SOL    HW116871   0.789   1.085   1.768
 5324SOL    HW216872   0.775   1.071   1.930
 5325SOL     OW16873   2.112   2.935   4.177
 5325SOL    HW116874   2.064   2.892   4.100
 5325SOL    HW216875   2.187   2.875   4.206
 5326SOL     OW16876   6.099   0.322   0.988
 5326SOL    HW116877   6.014   0.277   0.961
 5326SOL    HW216878   6.177   0.272   0.951
 5327SOL     OW16879   0.174   1.972   6.446
 5327SOL    HW116880   0.134   1.939   6.361
 5327SOL    HW216881   0.181   1.896   6.511
 5328SOL     OW16882   3.341   5.070   0.668
 5328SOL    HW116883   3.352   5.066   0.568
 5328SOL    HW216884   3.309   4.981   0.701
 5329SOL     OW16885   2.417   5.859   6.226
 5329SOL    HW116886   2.340   5.822   6.174
 5329SOL    HW216887   2.383   5.899   6.312
 5330SOL     OW16888   2.479   5.254   0.705
 5330SOL    HW116889   2.487   5.266   0.804
 5330SOL    HW216890   2.535   5.323   0.658
 5331SOL     OW16891   6.178   1.579   6.819
 5331SOL    HW116892   6.228   1.555   6.736
 5331SOL    HW216893   6.140   1.671   6.809
 5332SOL     OW16894   1.168   5.024   2.525
 5332SOL    HW116895   1.246   5.068   2.569
 5332SOL    HW216896   1.199   4.978   2.441
 5333SOL     OW16897   0.732   6.432   4.378
 5333SOL    HW116898   0.791   6.488   4.436
 5333SOL    HW216899   0.679   6.369   4.435
 5334SOL     OW16900   3.055   6.739   5.308
 5334SOL    HW116901   3.052   6.733   5.209
 5334SOL    HW216902   3.005   6.820   5.339
 5335SOL     OW16903   5.854   6.758   0.919
 5335SOL    HW116904   5.911   6.837   0.941
 5335SOL    HW216905   5.901   6.700   0.854
 5336SOL     OW16906   1.289   3.842   1.342
 5336SOL    HW116907   1.234   3.759   1.355
 5336SOL    HW216908   1.324   3.845   1.248
 5337SOL     OW16909   5.525   5.020   1.802
 5337SOL    HW116910   5.541   4.923   1.816
 5337SOL    HW216911   5.613   5.067   1.788
 5338SOL     OW16912   5.276   2.853   1.002
 5338SOL    HW116913   5.320   2.805   1.078
 5338SOL    HW216914   5.299   2.950   1.007
 5339SOL     OW16915   6.202   0.483   2.126
 5339SOL    HW116916   6.128   0.544   2.155
 5339SOL    HW216917   6.178   0.389   2.149
 5340SOL     OW16918   4.877   2.327   0.239
 5340SOL    HW116919   4.959   2.367   0.197
 5340SOL    HW216920   4.807   2.397   0.247
 5341SOL     OW16921   4.053   0.600   1.232
 5341SOL    HW116922   4.150   0.606   1.258
 5341SOL    HW216923   4.038   0.650   1.147
 5342SOL     OW16924   1.902   0.244   5.957
 5342SOL    HW116925   1.893   0.260   6.055
 5342SOL    HW216926   1.964   0.311   5.918
 5343SOL     OW16927   2.830   4.002   1.398
 5343SOL    HW116928   2.893   4.066   1.354
 5343SOL    HW216929   2.862   3.908   1.384
 5344SOL     OW16930   2.158   2.634   2.929
 5344SOL    HW116931   2.149   2.536   2.946
 5344SOL    HW216932   2.067   2.675   2.923
 5345SOL     OW16933   5.225   0.593   3.275
 5345SOL    HW116934   5.320   0.619   3.292
 5345SOL    HW216935   5.216   0.558   3.182
 5346SOL     OW16936   3.836   0.669   4.219
 5346SOL    HW116937   3.742   0.698   4.238
 5346SOL    HW216938   3.895   0.694   4.296
 5347SOL     OW16939   6.851   1.327   2.291
 5347SOL    HW116940   6.820   1.341   2.385
 5347SOL    HW216941   6.914   1.401   2.265
 5348SOL     OW16942   6.534   2.181   0.145
 5348SOL    HW116943   6.569   2.170   0.052
 5348SOL    HW216944   6.536   2.092   0.192
 5349SOL     OW16945   5.161   0.829   0.600
 5349SOL    HW116946   5.220   0.867   0.528
 5349SOL    HW216947   5.066   0.853   0.581
 5350SOL     OW16948   2.982   0.791   6.882
 5350SOL    HW116949   3.072   0.800   6.839
 5350SOL    HW216950   2.976   0.853   6.960
 5351SOL     OW16951   4.648   1.503   2.293
 5351SOL    HW116952   4.679   1.461   2.379
 5351SOL    HW216953   4.562   1.462   2.265
 5352SOL     OW16954   4.043   0.802   4.065
 5352SOL    HW116955   3.999   0.780   4.152
 5352SOL    HW216956   3.973   0.815   3.995
 5353SOL     OW16957   6.384   0.115   6.261
 5353SOL    HW116958   6.320   0.042   6.286
 5353SOL    HW216959   6.333   0.201   6.252
 5354SOL     OW16960   0.724   2.787   1.561
 5354SOL    HW116961   0.647   2.848   1.576
 5354SOL    HW216962   0.754   2.793   1.466
 5355SOL     OW16963   4.687   1.285   5.392
 5355SOL    HW116964   4.623   1.349   5.435
 5355SOL    HW216965   4.667   1.192   5.424
 5356SOL     OW16966   6.801   3.708   1.692
 5356SOL    HW116967   6.878   3.701   1.629
 5356SOL    HW216968   6.738   3.778   1.660
 5357SOL     OW16969   4.249   5.476   0.026
 5357SOL    HW116970   4.149   5.475   0.021
 5357SOL    HW216971   4.283   5.384   0.049
 5358SOL     OW16972   5.530   4.587   1.588
 5358SOL    HW116973   5.480   4.501   1.590
 5358SOL    HW216974   5.469   4.661   1.618
 5359SOL     OW16975   3.140   0.498   5.633
 5359SOL    HW116976   3.222   0.450   5.665
 5359SOL    HW216977   3.059   0.461   5.680
 5360SOL     OW16978   4.147   2.339   0.472
 5360SOL    HW116979   4.158   2.431   0.510
 5360SOL    HW216980   4.236   2.303   0.444
 5361SOL     OW16981   0.386   1.404   6.984
 5361SOL    HW116982   0.299   1.452   6.989
 5361SOL    HW216983   0.374   1.310   7.014
 5362SOL     OW16984   4.457   6.070   3.923
 5362SOL    HW116985   4.428   6.133   3.850
 5362SOL    HW216986   4.451   5.976   3.890
 5363SOL     OW16987   0.566   5.813   4.549
 5363SOL    HW116988   0.477   5.770   4.540
 5363SOL    HW216989   0.634   5.761   4.497
 5364SOL     OW16990   0.860   5.758   6.673
 5364SOL    HW116991   0.882   5.667   6.707
 5364SOL    HW216992   0.889   5.766   6.578
 5365SOL     OW16993   4.145   2.605   6.223
 5365SOL    HW116994   4.060   2.568   6.261
 5365SOL    HW216995   4.165   2.559   6.136
 5366SOL     OW16996   3.975   4.042   5.657
 5366SOL    HW116997   3.975   4.010   5.752
 5366SOL    HW216998   3.896   4.004   5.609
 5367SOL     OW16999   0.562   3.823   0.928
 5367SOL    HW117000   0.622   3.872   0.865
 5367SOL    HW217001   0.469   3.823   0.893
 5368SOL     OW17002   0.481   6.864   3.564
 5368SOL    HW117003   0.506   6.898   3.473
 5368SOL    HW217004   0.547   6.796   3.593
 5369SOL     OW17005   1.683   3.605   2.441
 5369SOL    HW117006   1.620   3.582   2.366
 5369SOL    HW217007   1.730   3.691   2.419
 5370SOL     OW17008   3.601   2.735   1.826
 5370SOL    HW117009   3.614   2.716   1.924
 5370SOL    HW217010   3.582   2.649   1.778
 5371SOL     OW17011   2.247   4.285   4.981
 5371SOL    HW117012   2.241   4.304   5.079
 5371SOL    HW217013   2.276   4.190   4.967
 5372SOL     OW17014   3.611   6.463   2.406
 5372SOL    HW117015   3.531   6.521   2.423
 5372SOL    HW217016   3.589   6.395   2.337
 5373SOL     OW17017   2.705   4.905   3.858
 5373SOL    HW117018   2.705   4.950   3.769
 5373SOL    HW217019   2.799   4.897   3.891
 5374SOL     OW17020   3.354   2.356   0.612
 5374SOL    HW117021   3.270   2.390   0.654
 5374SOL    HW217022   3.423   2.342   0.683
 5375SOL     OW17023   1.559   4.428   4.650
 5375SOL    HW117024   1.493   4.503   4.656
 5375SOL    HW217025   1.549   4.381   4.562
 5376SOL     OW17026   2.988   4.827   6.136
 5376SOL    HW117027   3.025   4.799   6.047
 5376SOL    HW217028   3.062   4.824   6.204
 5377SOL     OW17029   1.345   2.066   1.495
 5377SOL    HW117030   1.418   2.003   1.470
 5377SOL    HW217031   1.372   2.118   1.577
 5378SOL     OW17032   5.031   6.847   6.697
 5378SOL    HW117033   4.982   6.905   6.762
 5378SOL    HW217034   5.121   6.887   6.679
 5379SOL     OW17035   0.251   0.212   0.135
 5379SOL    HW117036   0.326   0.155   0.103
 5379SOL    HW217037   0.197   0.243   0.056
 5380SOL     OW17038   2.006   1.553   5.200
 5380SOL    HW117039   2.040   1.622   5.136
 5380SOL    HW217040   1.907   1.544   5.189
 5381SOL     OW17041   5.940   3.822   2.030
 5381SOL    HW117042   5.864   3.841   2.092
 5381SOL    HW217043   6.027   3.836   2.077
 5382SOL     OW17044   2.237   6.474   1.441
 5382SOL    HW117045   2.148   6.454   1.401
 5382SOL    HW217046   2.237   6.448   1.538
 5383SOL     OW17047   2.448   2.441   5.066
 5383SOL    HW117048   2.452   2.346   5.035
 5383SOL    HW217049   2.537   2.484   5.050
 5384SOL     OW17050   5.437   6.651   4.997
 5384SOL    HW117051   5.445   6.723   4.928
 5384SOL    HW217052   5.367   6.586   4.970
 5385SOL     OW17053   3.303   4.116   2.414
 5385SOL    HW117054   3.285   4.140   2.318
 5385SOL    HW217055   3.227   4.063   2.450
 5386SOL     OW17056   5.621   6.223   5.598
 5386SOL    HW117057   5.619   6.125   5.581
 5386SOL    HW217058   5.702   6.245   5.653
 5387SOL     OW17059   4.106   5.140   0.555
 5387SOL    HW117060   4.105   5.040   0.563
 5387SOL    HW217061   4.200   5.173   0.553
 5388SOL     OW17062   6.037   5.557   3.386
 5388SOL    HW117063   5.952   5.507   3.364
 5388SOL    HW217064   6.054   5.551   3.484
 5389SOL     OW17065   5.761   3.359   1.483
 5389SOL    HW117066   5.809   3.273   1.500
 5389SOL    HW217067   5.737   3.402   1.570
 5390SOL     OW17068   6.602   4.973   6.717
 5390SOL    HW117069   6.684   4.989   6.663
 5390SOL    HW217070   6.571   5.059   6.758
 5391SOL     OW17071   3.212   5.204   6.831
 5391SOL    HW117072   3.185   5.301   6.830
 5391SOL    HW217073   3.138   5.149   6.794
 5392SOL     OW17074   0.699   2.389   3.160
 5392SOL    HW117075   0.713   2.335   3.243
 5392SOL    HW217076   0.777   2.450   3.147
 5393SOL     OW17077   6.654   0.291   6.359
 5393SOL    HW117078   6.562   0.262   6.335
 5393SOL    HW217079   6.691   0.231   6.429
 5394SOL     OW17080   2.308   3.585   6.339
 5394SOL    HW117081   2.287   3.549   6.248
 5394SOL    HW217082   2.357   3.671   6.330
 5395SOL     OW17083   4.777   0.414   1.852
 5395SOL    HW117084   4.723   0.340   1.893
 5395SOL    HW217085   4.869   0.414   1.891
 5396SOL     OW17086   4.485   2.227   0.970
 5396SOL    HW117087   4.444   2.192   0.886
 5396SOL    HW217088   4.483   2.155   1.040
 5397SOL     OW17089   1.328   2.119   1.875
 5397SOL    HW117090   1.236   2.099   1.909
 5397SOL    HW217091   1.326   2.206   1.824
 5398SOL     OW17092   2.865   3.585   2.452
 5398SOL    HW117093   2.782   3.599   2.399
 5398SOL    HW217094   2.893   3.489   2.446
 5399SOL     OW17095   0.423   5.121   0.396
 5399SOL    HW117096   0.417   5.097   0.299
 5399SOL    HW217097   0.489   5.062   0.442
 5400SOL     OW17098   2.490   3.970   7.001
 5400SOL    HW117099   2.437   4.020   6.932
 5400SOL    HW217100   2.581   4.010   7.008
 5401SOL     OW17101   6.086   1.600   0.986
 5401SOL    HW117102   6.133   1.663   1.047
 5401SOL    HW217103   6.098   1.506   1.019
 5402SOL     OW17104   0.608   5.909   1.986
 5402SOL    HW117105   0.681   5.883   2.049
 5402SOL    HW217106   0.581   5.830   1.932
 5403SOL     OW17107   0.311   2.351   6.124
 5403SOL    HW117108   0.379   2.319   6.190
 5403SOL    HW217109   0.278   2.442   6.152
 5404SOL     OW17110   0.507   2.502   3.032
 5404SOL    HW117111   0.509   2.459   2.942
 5404SOL    HW217112   0.587   2.474   3.085
 5405SOL     OW17113   6.424   4.120   4.954
 5405SOL    HW117114   6.376   4.205   4.933
 5405SOL    HW217115   6.448   4.118   5.051
 5406SOL     OW17116   2.234   0.135   3.094
 5406SOL    HW117117   2.315   0.192   3.079
 5406SOL    HW217118   2.211   0.087   3.010
 5407SOL     OW17119   4.029   2.990   6.409
 5407SOL    HW117120   4.001   3.083   6.382
 5407SOL    HW217121   4.129   2.985   6.410
 5408SOL     OW17122   4.673   1.122   6.933
 5408SOL    HW117123   4.657   1.106   0.012
 5408SOL    HW217124   4.592   1.162   6.892
 5409SOL     OW17125   4.394   0.428   1.970
 5409SOL    HW117126   4.459   0.502   1.952
 5409SOL    HW217127   4.442   0.341   1.970
 5410SOL     OW17128   1.749   2.707   2.686
 5410SOL    HW117129   1.773   2.610   2.681
 5410SOL    HW217130   1.818   2.756   2.738
 5411SOL     OW17131   3.152   4.919   5.067
 5411SOL    HW117132   3.225   4.859   5.033
 5411SOL    HW217133   3.066   4.895   5.021
 5412SOL     OW17134   6.692   1.716   2.389
 5412SOL    HW117135   6.645   1.801   2.415
 5412SOL    HW217136   6.749   1.686   2.465
 5413SOL     OW17137   1.511   6.649   2.162
 5413SOL    HW117138   1.550   6.739   2.141
 5413SOL    HW217139   1.462   6.653   2.249
 5414SOL     OW17140   4.568   6.985   6.074
 5414SOL    HW117141   4.506   6.924   6.024
 5414SOL    HW217142   4.528   0.057   6.078
 5415SOL     OW17143   6.264   3.661   3.008
 5415SOL    HW117144   6.218   3.589   3.060
 5415SOL    HW217145   6.223   3.667   2.917
 5416SOL     OW17146   4.078   5.129   4.554
 5416SOL    HW117147   3.992   5.164   4.516
 5416SOL    HW217148   4.140   5.105   4.480
 5417SOL     OW17149   2.753   6.826   5.780
 5417SOL    HW117150   2.848   6.856   5.791
 5417SOL    HW217151   2.748   6.726   5.788
 5418SOL     OW17152   3.517   1.509   3.483
 5418SOL    HW117153   3.591   1.441   3.486
 5418SOL    HW217154   3.549   1.589   3.433
 5419SOL     OW17155   3.242   4.488   0.191
 5419SOL    HW117156   3.335   4.494   0.229
 5419SOL    HW217157   3.228   4.397   0.151
 5420SOL     OW17158   1.246   2.406   2.574
 5420SOL    HW117159   1.337   2.426   2.538
 5420SOL    HW217160   1.215   2.318   2.536
 5421SOL     OW17161   2.517   3.098   0.688
 5421SOL    HW117162   2.546   3.005   0.664
 5421SOL    HW217163   2.498   3.150   0.605
 5422SOL     OW17164   0.560   3.234   0.150
 5422SOL    HW117165   0.473   3.191   0.126
 5422SOL    HW217166   0.543   3.319   0.200
 5423SOL     OW17167   3.838   3.367   5.614
 5423SOL    HW117168   3.858   3.408   5.703
 5423SOL    HW217169   3.882   3.278   5.608
 5424SOL     OW17170   5.570   3.308   5.423
 5424SOL    HW117171   5.624   3.377   5.472
 5424SOL    HW217172   5.481   3.346   5.399
 5425SOL     OW17173   5.092   1.714   4.944
 5425SOL    HW117174   5.084   1.697   4.845
 5425SOL    HW217175   5.080   1.629   4.994
 5426SOL     OW17176   0.527   0.081   4.521
 5426SOL    HW117177   0.541   0.105   4.617
 5426SOL    HW217178   0.463   0.003   4.514
 5427SOL     OW17179   4.190   6.806   0.177
 5427SOL    HW117180   4.227   6.838   0.089
 5427SOL    HW217181   4.093   6.784   0.166
 5428SOL     OW17182   1.840   0.188   0.492
 5428SOL    HW117183   1.829   0.249   0.570
 5428SOL    HW217184   1.820   0.094   0.520
 5429SOL     OW17185   1.102   2.453   5.889
 5429SOL    HW117186   1.010   2.477   5.921
 5429SOL    HW217187   1.116   2.490   5.797
 5430SOL     OW17188   2.437   2.617   5.290
 5430SOL    HW117189   2.465   2.566   5.372
 5430SOL    HW217190   2.430   2.554   5.213
 5431SOL     OW17191   2.999   5.404   4.203
 5431SOL    HW117192   3.052   5.320   4.218
 5431SOL    HW217193   3.062   5.478   4.179
 5432SOL     OW17194   6.220   4.174   0.631
 5432SOL    HW117195   6.290   4.243   0.650
 5432SOL    HW217196   6.234   4.095   0.689
 5433SOL     OW17197   1.812   1.762   3.580
 5433SOL    HW117198   1.811   1.718   3.490
 5433SOL    HW217199   1.734   1.825   3.587
 5434SOL     OW17200   2.067   6.277   5.057
 5434SOL    HW117201   2.044   6.272   5.155
 5434SOL    HW217202   2.132   6.205   5.035
 5435SOL     OW17203   4.534   2.118   1.878
 5435SOL    HW117204   4.457   2.181   1.883
 5435SOL    HW217205   4.531   2.070   1.790
 5436SOL     OW17206   5.376   4.075   3.509
 5436SOL    HW117207   5.345   3.983   3.481
 5436SOL    HW217208   5.304   4.141   3.491
 5437SOL     OW17209   3.561   4.847   6.200
 5437SOL    HW117210   3.529   4.874   6.291
 5437SOL    HW217211   3.656   4.875   6.189
 5438SOL     OW17212   6.406   1.273   0.286
 5438SOL    HW117213   6.329   1.229   0.240
 5438SOL    HW217214   6.408   1.370   0.263
 5439SOL     OW17215   1.693   2.255   0.608
 5439SOL    HW117216   1.600   2.269   0.642
 5439SOL    HW217217   1.697   2.274   0.510
 5440SOL     OW17218   2.109   0.555   0.850
 5440SOL    HW117219   2.099   0.504   0.764
 5440SOL    HW217220   2.076   0.500   0.926
 5441SOL     OW17221   3.670   1.818   5.252
 5441SOL    HW117222   3.672   1.860   5.162
 5441SOL    HW217223   3.677   1.888   5.322
 5442SOL     OW17224   3.880   1.109   1.797
 5442SOL    HW117225   3.936   1.059   1.863
 5442SOL    HW217226   3.938   1.173   1.746
 5443SOL     OW17227   0.722   6.094   5.611
 5443SOL    HW117228   0.757   6.001   5.603
 5443SOL    HW217229   0.794   6.154   5.647
 5444SOL     OW17230   0.429   0.661   3.662
 5444SOL    HW117231   0.463   0.641   3.570
 5444SOL    HW217232   0.376   0.746   3.659
 5445SOL     OW17233   5.613   3.411   2.130
 5445SOL    HW117234   5.561   3.336   2.089
 5445SOL    HW217235   5.698   3.425   2.080
 5446SOL     OW17236   6.492   6.715   5.733
 5446SOL    HW117237   6.571   6.713   5.672
 5446SOL    HW217238   6.512   6.665   5.817
 5447SOL     OW17239   3.444   2.720   1.383
 5447SOL    HW117240   3.465   2.626   1.355
 5447SOL    HW217241   3.410   2.771   1.304
 5448SOL     OW17242   5.331   1.590   6.334
 5448SOL    HW117243   5.351   1.654   6.409
 5448SOL    HW217244   5.386   1.614   6.254
 5449SOL     OW17245   6.751   3.147   6.816
 5449SOL    HW117246   6.836   3.144   6.765
 5449SOL    HW217247   6.757   3.216   6.888
 5450SOL     OW17248   1.816   5.830   0.654
 5450SOL    HW117249   1.883   5.774   0.606
 5450SOL    HW217250   1.800   5.793   0.745
 5451SOL     OW17251   2.633   0.321   2.407
 5451SOL    HW117252   2.642   0.394   2.340
 5451SOL    HW217253   2.549   0.270   2.390
 5452SOL     OW17254   2.902   3.904   5.928
 5452SOL    HW117255   2.978   3.949   5.882
 5452SOL    HW217256   2.826   3.892   5.865
 5453SOL     OW17257   0.327   5.554   5.422
 5453SOL    HW117258   0.341   5.648   5.391
 5453SOL    HW217259   0.256   5.551   5.491
 5454SOL     OW17260   1.164   3.840   6.061
 5454SOL    HW117261   1.193   3.930   6.029
 5454SOL    HW217262   1.203   3.823   6.152
 5455SOL     OW17263   5.845   1.622   1.364
 5455SOL    HW117264   5.823   1.546   1.304
 5455SOL    HW217265   5.943   1.621   1.384
 5456SOL     OW17266   3.954   0.036   1.238
 5456SOL    HW117267   3.945   6.999   1.155
 5456SOL    HW217268   3.967   0.132   1.211
 5457SOL     OW17269   6.338   3.285   1.230
 5457SOL    HW117270   6.304   3.194   1.252
 5457SOL    HW217271   6.358   3.335   1.315
 5458SOL     OW17272   1.591   4.185   5.624
 5458SOL    HW117273   1.546   4.108   5.669
 5458SOL    HW217274   1.550   4.199   5.534
 5459SOL     OW17275   2.082   4.435   5.843
 5459SOL    HW117276   2.029   4.350   5.848
 5459SOL    HW217277   2.020   4.512   5.858
 5460SOL     OW17278   4.171   0.609   4.627
 5460SOL    HW117279   4.246   0.673   4.609
 5460SOL    HW217280   4.142   0.566   4.542
 5461SOL     OW17281   3.763   6.747   4.769
 5461SOL    HW117282   3.815   6.783   4.691
 5461SOL    HW217283   3.820   6.753   4.851
 5462SOL     OW17284   7.015   1.109   2.333
 5462SOL    HW117285   6.998   1.050   2.254
 5462SOL    HW217286   6.953   1.188   2.331
 5463SOL     OW17287   6.780   3.206   1.276
 5463SOL    HW117288   6.774   3.231   1.372
 5463SOL    HW217289   6.788   3.289   1.220
 5464SOL     OW17290   1.437   6.516   4.551
 5464SOL    HW117291   1.398   6.607   4.563
 5464SOL    HW217292   1.531   6.523   4.519
 5465SOL     OW17293   2.474   6.049   6.012
 5465SOL    HW117294   2.442   5.998   6.092
 5465SOL    HW217295   2.433   6.140   6.012
 5466SOL     OW17296   4.373   6.483   3.775
 5466SOL    HW117297   4.405   6.497   3.681
 5466SOL    HW217298   4.449   6.502   3.838
 5467SOL     OW17299   6.427   1.331   1.437
 5467SOL    HW117300   6.402   1.415   1.389
 5467SOL    HW217301   6.500   1.349   1.502
 5468SOL     OW17302   4.530   1.566   6.316
 5468SOL    HW117303   4.564   1.472   6.307
 5468SOL    HW217304   4.445   1.565   6.368
 5469SOL     OW17305   4.939   4.602   1.049
 5469SOL    HW117306   4.999   4.629   1.125
 5469SOL    HW217307   4.960   4.658   0.969
 5470SOL     OW17308   0.622   4.845   3.313
 5470SOL    HW117309   0.669   4.758   3.329
 5470SOL    HW217310   0.540   4.830   3.259
 5471SOL     OW17311   6.496   3.410   2.560
 5471SOL    HW117312   6.462   3.340   2.623
 5471SOL    HW217313   6.419   3.466   2.528
 5472SOL     OW17314   3.709   5.253   5.339
 5472SOL    HW117315   3.639   5.313   5.302
 5472SOL    HW217316   3.667   5.184   5.397
 5473SOL     OW17317   2.474   4.409   3.906
 5473SOL    HW117318   2.461   4.316   3.942
 5473SOL    HW217319   2.513   4.467   3.977
 5474SOL     OW17320   1.263   6.216   2.940
 5474SOL    HW117321   1.164   6.224   2.945
 5474SOL    HW217322   1.298   6.173   3.023
 5475SOL     OW17323   3.207   1.899   2.059
 5475SOL    HW117324   3.294   1.864   2.023
 5475SOL    HW217325   3.152   1.933   1.983
 5476SOL     OW17326   2.001   3.147   6.846
 5476SOL    HW117327   2.098   3.148   6.822
 5476SOL    HW217328   1.949   3.099   6.775
 5477SOL     OW17329   1.936   2.400   2.414
 5477SOL    HW117330   1.887   2.330   2.363
 5477SOL    HW217331   2.034   2.387   2.403
 5478SOL     OW17332   0.470   5.326   4.977
 5478SOL    HW117333   0.489   5.232   4.950
 5478SOL    HW217334   0.385   5.329   5.031
 5479SOL     OW17335   4.589   0.092   4.998
 5479SOL    HW117336   4.520   0.140   5.052
 5479SOL    HW217337   4.649   0.040   5.058
 5480SOL     OW17338   0.193   1.857   5.930
 5480SOL    HW117339   0.184   1.929   5.862
 5480SOL    HW217340   0.270   1.798   5.906
 5481SOL     OW17341   4.680   6.650   3.193
 5481SOL    HW117342   4.633   6.736   3.179
 5481SOL    HW217343   4.615   6.574   3.188
 5482SOL     OW17344   1.527   6.243   1.929
 5482SOL    HW117345   1.475   6.310   1.982
 5482SOL    HW217346   1.596   6.200   1.986
 5483SOL     OW17347   0.847   2.572   6.517
 5483SOL    HW117348   0.906   2.636   6.565
 5483SOL    HW217349   0.753   2.583   6.549
 5484SOL     OW17350   5.072   6.654   5.240
 5484SOL    HW117351   5.041   6.741   5.201
 5484SOL    HW217352   5.093   6.590   5.167
 5485SOL     OW17353   3.739   0.453   4.496
 5485SOL    HW117354   3.771   0.530   4.552
 5485SOL    HW217355   3.685   0.488   4.419
 5486SOL     OW17356   2.898   5.619   4.000
 5486SOL    HW117357   2.884   5.522   3.979
 5486SOL    HW217358   2.812   5.657   4.035
 5487SOL     OW17359   3.807   6.043   5.251
 5487SOL    HW117360   3.797   6.123   5.192
 5487SOL    HW217361   3.790   5.960   5.199
 5488SOL     OW17362   4.727   2.253   6.281
 5488SOL    HW117363   4.637   2.230   6.245
 5488SOL    HW217364   4.795   2.187   6.248
 5489SOL     OW17365   6.840   2.377   4.028
 5489SOL    HW117366   6.844   2.284   3.992
 5489SOL    HW217367   6.842   2.442   3.951
 5490SOL     OW17368   0.692   5.111   1.610
 5490SOL    HW117369   0.775   5.110   1.665
 5490SOL    HW217370   0.612   5.106   1.671
 5491SOL     OW17371   0.185   4.010   0.736
 5491SOL    HW117372   0.123   4.071   0.686
 5491SOL    HW217373   0.157   4.005   0.832
 5492SOL     OW17374   1.050   1.747   6.929
 5492SOL    HW117375   1.073   1.845   6.933
 5492SOL    HW217376   0.966   1.736   6.876
 5493SOL     OW17377   4.398   3.657   5.502
 5493SOL    HW117378   4.320   3.696   5.454
 5493SOL    HW217379   4.483   3.693   5.462
 5494SOL     OW17380   5.982   1.922   4.695
 5494SOL    HW117381   5.921   1.973   4.755
 5494SOL    HW217382   6.069   1.971   4.687
 5495SOL     OW17383   5.763   1.375   0.037
 5495SOL    HW117384   5.800   1.329   6.975
 5495SOL    HW217385   5.699   1.314   0.083
 5496SOL     OW17386   4.157   6.436   6.156
 5496SOL    HW117387   4.062   6.405   6.171
 5496SOL    HW217388   4.168   6.463   6.061
 5497SOL     OW17389   1.049   0.403   5.738
 5497SOL    HW117390   1.109   0.480   5.717
 5497SOL    HW217391   0.953   0.433   5.734
 5498SOL     OW17392   6.976   5.746   1.923
 5498SOL    HW117393   6.884   5.764   1.957
 5498SOL    HW217394   6.989   5.791   1.835
 5499SOL     OW17395   2.565   0.129   3.508
 5499SOL    HW117396   2.535   0.206   3.564
 5499SOL    HW217397   2.506   0.051   3.524
 5500SOL     OW17398   0.725   6.185   1.518
 5500SOL    HW117399   0.708   6.147   1.609
 5500SOL    HW217400   0.759   6.278   1.526
 5501SOL     OW17401   4.895   3.666   1.241
 5501SOL    HW117402   4.908   3.580   1.290
 5501SOL    HW217403   4.950   3.665   1.157
 5502SOL     OW17404   4.384   3.619   0.634
 5502SOL    HW117405   4.411   3.543   0.692
 5502SOL    HW217406   4.292   3.605   0.599
 5503SOL     OW17407   5.972   2.820   1.242
 5503SOL    HW117408   5.900   2.881   1.211
 5503SOL    HW217409   5.961   2.730   1.199
 5504SOL     OW17410   3.796   2.519   0.130
 5504SOL    HW117411   3.720   2.544   0.190
 5504SOL    HW217412   3.871   2.482   0.185
 5505SOL     OW17413   2.832   5.554   3.014
 5505SOL    HW117414   2.800   5.464   2.986
 5505SOL    HW217415   2.926   5.547   3.048
 5506SOL     OW17416   6.503   3.051   6.738
 5506SOL    HW117417   6.456   3.139   6.740
 5506SOL    HW217418   6.599   3.064   6.764
 5507SOL     OW17419   4.008   6.030   6.744
 5507SOL    HW117420   4.082   5.986   6.692
 5507SOL    HW217421   3.988   6.119   6.704
 5508SOL     OW17422   6.789   2.987   6.008
 5508SOL    HW117423   6.734   3.070   6.002
 5508SOL    HW217424   6.872   3.006   6.061
 5509SOL     OW17425   6.352   4.122   0.359
 5509SOL    HW117426   6.281   4.094   0.294
 5509SOL    HW217427   6.309   4.160   0.441
 5510SOL     OW17428   5.039   6.275   6.865
 5510SOL    HW117429   5.081   6.242   6.781
 5510SOL    HW217430   4.948   6.312   6.845
 5511SOL     OW17431   0.547   2.881   5.907
 5511SOL    HW117432   0.523   2.949   5.977
 5511SOL    HW217433   0.524   2.916   5.817
 5512SOL     OW17434   3.134   0.082   2.175
 5512SOL    HW117435   3.176   0.048   2.091
 5512SOL    HW217436   3.204   0.129   2.230
 5513SOL     OW17437   3.740   4.940   6.545
 5513SOL    HW117438   3.741   4.981   6.636
 5513SOL    HW217439   3.647   4.913   6.522
 5514SOL     OW17440   3.931   1.822   0.034
 5514SOL    HW117441   4.007   1.886   0.022
 5514SOL    HW217442   3.967   1.729   0.046
 5515SOL     OW17443   3.630   4.899   2.697
 5515SOL    HW117444   3.547   4.894   2.642
 5515SOL    HW217445   3.710   4.890   2.638
 5516SOL     OW17446   1.132   2.719   5.989
 5516SOL    HW117447   1.094   2.627   5.974
 5516SOL    HW217448   1.092   2.782   5.923
 5517SOL     OW17449   1.432   2.298   4.708
 5517SOL    HW117450   1.358   2.311   4.641
 5517SOL    HW217451   1.474   2.209   4.695
 5518SOL     OW17452   3.923   4.001   5.283
 5518SOL    HW117453   3.869   3.946   5.347
 5518SOL    HW217454   4.017   4.004   5.315
 5519SOL     OW17455   5.164   2.533   5.538
 5519SOL    HW117456   5.101   2.480   5.482
 5519SOL    HW217457   5.120   2.619   5.564
 5520SOL     OW17458   4.708   5.650   1.313
 5520SOL    HW117459   4.609   5.663   1.306
 5520SOL    HW217460   4.748   5.725   1.365
 5521SOL     OW17461   5.026   0.018   2.086
 5521SOL    HW117462   5.048   6.945   2.053
 5521SOL    HW217463   5.070   0.086   2.028
 5522SOL     OW17464   4.940   6.024   6.631
 5522SOL    HW117465   4.894   5.950   6.582
 5522SOL    HW217466   5.034   5.996   6.653
 5523SOL     OW17467   5.527   1.528   0.417
 5523SOL    HW117468   5.433   1.495   0.419
 5523SOL    HW217469   5.564   1.518   0.324
 5524SOL     OW17470   2.334   1.973   2.452
 5524SOL    HW117471   2.271   2.017   2.517
 5524SOL    HW217472   2.423   2.020   2.455
 5525SOL     OW17473   6.330   1.267   0.660
 5525SOL    HW117474   6.329   1.357   0.703
 5525SOL    HW217475   6.415   1.255   0.608
 5526SOL     OW17476   4.692   4.206   4.136
 5526SOL    HW117477   4.695   4.162   4.226
 5526SOL    HW217478   4.763   4.168   4.078
 5527SOL     OW17479   6.734   0.087   2.627
 5527SOL    HW117480   6.685   0.040   2.553
 5527SOL    HW217481   6.783   0.166   2.590
 5528SOL     OW17482   2.283   1.573   0.117
 5528SOL    HW117483   2.272   1.546   0.022
 5528SOL    HW217484   2.380   1.581   0.139
 5529SOL     OW17485   3.473   0.864   1.892
 5529SOL    HW117486   3.434   0.787   1.942
 5529SOL    HW217487   3.520   0.925   1.955
 5530SOL     OW17488   1.359   1.409   1.434
 5530SOL    HW117489   1.303   1.355   1.371
 5530SOL    HW217490   1.337   1.506   1.423
 5531SOL     OW17491   1.010   4.393   6.539
 5531SOL    HW117492   1.101   4.393   6.496
 5531SOL    HW217493   0.949   4.452   6.486
 5532SOL     OW17494   0.130   4.856   5.807
 5532SOL    HW117495   0.167   4.858   5.900
 5532SOL    HW217496   0.078   4.771   5.794
 5533SOL     OW17497   3.742   0.925   4.048
 5533SOL    HW117498   3.708   0.945   3.956
 5533SOL    HW217499   3.767   1.010   4.094
 5534SOL     OW17500   1.462   7.013   4.413
 5534SOL    HW117501   1.390   0.057   4.441
 5534SOL    HW217502   1.514   6.984   4.494
 5535SOL     OW17503   1.100   1.460   2.784
 5535SOL    HW117504   1.100   1.403   2.867
 5535SOL    HW217505   1.031   1.532   2.793
 5536SOL     OW17506   4.567   0.824   4.836
 5536SOL    HW117507   4.562   0.924   4.847
 5536SOL    HW217508   4.651   0.800   4.787
 5537SOL     OW17509   2.635   2.321   2.903
 5537SOL    HW117510   2.613   2.407   2.949
 5537SOL    HW217511   2.708   2.336   2.836
 5538SOL     OW17512   3.745   5.594   4.041
 5538SOL    HW117513   3.840   5.623   4.035
 5538SOL    HW217514   3.740   5.505   4.086
 5539SOL     OW17515   2.324   4.017   0.517
 5539SOL    HW117516   2.256   3.947   0.540
 5539SOL    HW217517   2.407   4.002   0.572
 5540SOL     OW17518   3.687   5.281   1.545
 5540SOL    HW117519   3.619   5.349   1.570
 5540SOL    HW217520   3.688   5.208   1.613
 5541SOL     OW17521   4.649   0.616   6.598
 5541SOL    HW117522   4.703   0.628   6.515
 5541SOL    HW217523   4.708   0.590   6.674
 5542SOL     OW17524   5.457   3.822   6.667
 5542SOL    HW117525   5.524   3.897   6.660
 5542SOL    HW217526   5.503   3.738   6.695
 5543SOL     OW17527   0.656   3.094   4.738
 5543SOL    HW117528   0.659   3.192   4.716
 5543SOL    HW217529   0.620   3.043   4.660
 5544SOL     OW17530   5.142   6.681   0.179
 5544SOL    HW117531   5.121   6.779   0.182
 5544SOL    HW217532   5.061   6.629   0.203
 5545SOL     OW17533   2.745   2.252   1.810
 5545SOL    HW117534   2.821   2.239   1.747
 5545SOL    HW217535   2.777   2.302   1.890
 5546SOL     OW17536   3.236   6.034   4.693
 5546SOL    HW117537   3.274   5.944   4.715
 5546SOL    HW217538   3.139   6.037   4.718
 5547SOL     OW17539   3.073   5.175   3.706
 5547SOL    HW117540   3.029   5.219   3.628
 5547SOL    HW217541   3.036   5.214   3.791
 5548SOL     OW17542   6.426   1.527   4.364
 5548SOL    HW117543   6.353   1.589   4.391
 5548SOL    HW217544   6.492   1.575   4.307
 5549SOL     OW17545   3.793   4.906   5.302
 5549SOL    HW117546   3.740   4.947   5.227
 5549SOL    HW217547   3.759   4.815   5.321
 5550SOL     OW17548   3.009   5.705   1.806
 5550SOL    HW117549   2.919   5.731   1.772
 5550SOL    HW217550   3.018   5.731   1.902
 5551SOL     OW17551   0.721   1.096   2.311
 5551SOL    HW117552   0.729   1.195   2.319
 5551SOL    HW217553   0.770   1.053   2.386
 5552SOL     OW17554   2.387   2.593   1.982
 5552SOL    HW117555   2.424   2.653   1.911
 5552SOL    HW217556   2.435   2.610   2.068
 5553SOL     OW17557   4.896   6.708   6.057
 5553SOL    HW117558   4.853   6.676   6.141
 5553SOL    HW217559   4.922   6.629   6.001
 5554SOL     OW17560   3.303   0.156   6.091
 5554SOL    HW117561   3.287   0.253   6.107
 5554SOL    HW217562   3.247   0.126   6.014
 5555SOL     OW17563   0.892   5.968   1.769
 5555SOL    HW117564   0.801   5.927   1.756
 5555SOL    HW217565   0.935   5.981   1.679
 5556SOL     OW17566   0.141   1.405   4.910
 5556SOL    HW117567   0.195   1.328   4.875
 5556SOL    HW217568   0.120   1.391   5.007
 5557SOL     OW17569   3.715   0.772   2.669
 5557SOL    HW117570   3.738   0.835   2.743
 5557SOL    HW217571   3.618   0.748   2.674
 5558SOL     OW17572   5.523   2.429   6.705
 5558SOL    HW117573   5.543   2.337   6.670
 5558SOL    HW217574   5.431   2.456   6.676
 5559SOL     OW17575   3.485   1.365   1.256
 5559SOL    HW117576   3.423   1.296   1.294
 5559SOL    HW217577   3.554   1.320   1.199
 5560SOL     OW17578   0.101   2.575   4.778
 5560SOL    HW117579   0.085   2.478   4.759
 5560SOL    HW217580   0.027   2.629   4.739
 5561SOL     OW17581   1.850   4.799   2.760
 5561SOL    HW117582   1.809   4.882   2.723
 5561SOL    HW217583   1.854   4.729   2.688
 5562SOL     OW17584   4.755   3.120   0.201
 5562SOL    HW117585   4.682   3.138   0.267
 5562SOL    HW217586   4.818   3.052   0.239
 5563SOL     OW17587   4.016   4.511   0.932
 5563SOL    HW117588   4.010   4.420   0.973
 5563SOL    HW217589   3.972   4.578   0.993
 5564SOL     OW17590   5.989   0.909   2.558
 5564SOL    HW117591   5.959   0.817   2.534
 5564SOL    HW217592   5.911   0.971   2.555
 5565SOL     OW17593   2.018   2.802   5.789
 5565SOL    HW117594   1.936   2.747   5.772
 5565SOL    HW217595   2.051   2.785   5.882
 5566SOL     OW17596   2.510   4.245   0.474
 5566SOL    HW117597   2.517   4.344   0.464
 5566SOL    HW217598   2.414   4.219   0.486
 5567SOL     OW17599   1.338   5.870   2.975
 5567SOL    HW117600   1.317   5.963   3.006
 5567SOL    HW217601   1.269   5.840   2.909
 5568SOL     OW17602   4.626   2.866   6.959
 5568SOL    HW117603   4.547   2.811   6.984
 5568SOL    HW217604   4.610   2.910   6.870
 5569SOL     OW17605   4.332   1.287   5.900
 5569SOL    HW117606   4.248   1.305   5.849
 5569SOL    HW217607   4.317   1.304   5.997
 5570SOL     OW17608   1.796   1.677   5.862
 5570SOL    HW117609   1.716   1.712   5.813
 5570SOL    HW217610   1.878   1.723   5.830
 5571SOL     OW17611   0.650   5.100   6.618
 5571SOL    HW117612   0.698   5.092   6.706
 5571SOL    HW217613   0.601   5.187   6.616
 5572SOL     OW17614   1.317   3.581   5.102
 5572SOL    HW117615   1.415   3.603   5.106
 5572SOL    HW217616   1.265   3.664   5.083
 5573SOL     OW17617   0.401   4.134   6.721
 5573SOL    HW117618   0.361   4.149   6.631
 5573SOL    HW217619   0.334   4.088   6.780
 5574SOL     OW17620   1.813   5.980   4.462
 5574SOL    HW117621   1.722   5.982   4.422
 5574SOL    HW217622   1.813   5.918   4.541
 5575SOL     OW17623   1.048   2.018   2.677
 5575SOL    HW117624   1.018   1.932   2.635
 5575SOL    HW217625   1.060   2.088   2.606
 5576SOL     OW17626   5.029   6.583   6.865
 5576SOL    HW117627   4.949   6.526   6.881
 5576SOL    HW217628   5.003   6.664   6.812
 5577SOL     OW17629   1.722   5.205   5.371
 5577SOL    HW117630   1.721   5.244   5.278
 5577SOL    HW217631   1.655   5.131   5.376
 5578SOL     OW17632   4.143   1.778   6.190
 5578SOL    HW117633   4.208   1.725   6.136
 5578SOL    HW217634   4.122   1.729   6.275
 5579SOL     OW17635   5.131   4.893   2.553
 5579SOL    HW117636   5.141   4.798   2.525
 5579SOL    HW217637   5.143   4.900   2.652
 5580SOL     OW17638   6.522   0.985   2.472
 5580SOL    HW117639   6.439   0.976   2.527
 5580SOL    HW217640   6.586   0.912   2.494
 5581SOL     OW17641   3.440   3.015   0.887
 5581SOL    HW117642   3.393   2.957   0.821
 5581SOL    HW217643   3.464   3.102   0.844
 5582SOL     OW17644   3.141   3.906   5.293
 5582SOL    HW117645   3.142   3.809   5.268
 5582SOL    HW217646   3.102   3.959   5.218
 5583SOL     OW17647   4.099   1.056   6.767
 5583SOL    HW117648   4.152   1.030   6.686
 5583SOL    HW217649   4.019   1.109   6.740
 5584SOL     OW17650   5.379   3.599   4.785
 5584SOL    HW117651   5.443   3.528   4.816
 5584SOL    HW217652   5.299   3.556   4.744
 5585SOL     OW17653   0.240   0.972   3.950
 5585SOL    HW117654   0.285   0.908   3.888
 5585SOL    HW217655   0.183   1.035   3.897
 5586SOL     OW17656   1.662   0.822   0.493
 5586SOL    HW117657   1.738   0.864   0.543
 5586SOL    HW217658   1.615   0.892   0.439
 5587SOL     OW17659   4.001   0.184   3.099
 5587SOL    HW117660   3.909   0.155   3.072
 5587SOL    HW217661   4.057   0.103   3.121
 5588SOL     OW17662   4.260   5.703   0.239
 5588SOL    HW117663   4.355   5.674   0.246
 5588SOL    HW217664   4.211   5.645   0.174
 5589SOL     OW17665   1.136   2.638   6.436
 5589SOL    HW117666   1.232   2.662   6.421
 5589SOL    HW217667   1.101   2.588   6.357
 5590SOL     OW17668   5.815   0.046   3.520
 5590SOL    HW117669   5.774   0.020   3.433
 5590SOL    HW217670   5.865   0.132   3.509
 5591SOL     OW17671   4.982   1.247   6.090
 5591SOL    HW117672   4.919   1.305   6.039
 5591SOL    HW217673   5.069   1.294   6.101
 5592SOL     OW17674   1.140   3.762   3.002
 5592SOL    HW117675   1.076   3.800   3.069
 5592SOL    HW217676   1.232   3.761   3.041
 5593SOL     OW17677   2.621   3.570   5.331
 5593SOL    HW117678   2.627   3.566   5.431
 5593SOL    HW217679   2.536   3.527   5.301
 5594SOL     OW17680   3.207   0.754   5.661
 5594SOL    HW117681   3.122   0.792   5.697
 5594SOL    HW217682   3.194   0.656   5.643
 5595SOL     OW17683   6.534   3.543   1.047
 5595SOL    HW117684   6.471   3.472   1.016
 5595SOL    HW217685   6.506   3.631   1.010
 5596SOL     OW17686   5.093   4.294   4.562
 5596SOL    HW117687   5.162   4.366   4.568
 5596SOL    HW217688   5.127   4.211   4.607
 5597SOL     OW17689   0.460   2.402   6.750
 5597SOL    HW117690   0.558   2.386   6.733
 5597SOL    HW217691   0.422   2.326   6.802
 5598SOL     OW17692   0.045   0.245   3.356
 5598SOL    HW117693   0.071   0.205   3.444
 5598SOL    HW217694   0.081   0.187   3.282
 5599SOL     OW17695   4.934   3.363   2.381
 5599SOL    HW117696   4.955   3.299   2.306
 5599SOL    HW217697   4.899   3.312   2.459
 5600SOL     OW17698   2.073   3.668   2.146
 5600SOL    HW117699   1.998   3.609   2.174
 5600SOL    HW217700   2.126   3.623   2.074
 5601SOL     OW17701   5.218   2.606   6.582
 5601SOL    HW117702   5.137   2.635   6.632
 5601SOL    HW217703   5.238   2.674   6.510
 5602SOL     OW17704   5.229   1.166   2.824
 5602SOL    HW117705   5.240   1.182   2.922
 5602SOL    HW217706   5.141   1.201   2.794
 5603SOL     OW17707   3.609   1.603   6.766
 5603SOL    HW117708   3.533   1.578   6.827
 5603SOL    HW217709   3.629   1.527   6.705
 5604SOL     OW17710   2.123   4.515   4.375
 5604SOL    HW117711   2.122   4.458   4.457
 5604SOL    HW217712   2.196   4.484   4.314
 5605SOL     OW17713   3.519   6.994   4.321
 5605SOL    HW117714   3.558   6.903   4.339
 5605SOL    HW217715   3.534   7.018   4.225
 5606SOL     OW17716   4.152   4.859   0.612
 5606SOL    HW117717   4.088   4.832   0.684
 5606SOL    HW217718   4.239   4.886   0.653
 5607SOL     OW17719   1.709   1.769   1.631
 5607SOL    HW117720   1.622   1.774   1.679
 5607SOL    HW217721   1.783   1.797   1.691
 5608SOL     OW17722   6.435   6.209   3.513
 5608SOL    HW117723   6.433   6.229   3.415
 5608SOL    HW217724   6.524   6.171   3.538
 5609SOL     OW17725   0.293   0.816   0.769
 5609SOL    HW117726   0.237   0.883   0.817
 5609SOL    HW217727   0.368   0.862   0.721
 5610SOL     OW17728   5.295   6.407   6.439
 5610SOL    HW117729   5.305   6.507   6.444
 5610SOL    HW217730   5.262   6.372   6.526
 5611SOL     OW17731   0.152   3.792   1.795
 5611SOL    HW117732   0.073   3.733   1.811
 5611SOL    HW217733   0.137   3.881   1.838
 5612SOL     OW17734   5.201   2.236   1.151
 5612SOL    HW117735   5.126   2.266   1.210
 5612SOL    HW217736   5.262   2.314   1.133
 5613SOL     OW17737   6.905   4.878   5.243
 5613SOL    HW117738   6.897   4.977   5.258
 5613SOL    HW217739   6.975   4.841   5.304
 5614SOL     OW17740   6.205   2.286   4.515
 5614SOL    HW117741   6.176   2.272   4.609
 5614SOL    HW217742   6.127   2.278   4.454
 5615SOL     OW17743   0.955   3.890   3.165
 5615SOL    HW117744   1.023   3.934   3.223
 5615SOL    HW217745   0.928   3.803   3.205
 5616SOL     OW17746   1.509   2.987   1.976
 5616SOL    HW117747   1.559   3.017   2.057
 5616SOL    HW217748   1.559   2.912   1.933
 5617SOL     OW17749   0.808   5.543   5.475
 5617SOL    HW117750   0.895   5.546   5.525
 5617SOL    HW217751   0.826   5.515   5.380
 5618SOL     OW17752   5.278   1.440   3.588
 5618SOL    HW117753   5.221   1.431   3.669
 5618SOL    HW217754   5.282   1.536   3.561
 5619SOL     OW17755   3.652   4.047   3.877
 5619SOL    HW117756   3.738   4.003   3.855
 5619SOL    HW217757   3.581   3.978   3.892
 5620SOL     OW17758   4.865   4.258   5.292
 5620SOL    HW117759   4.803   4.240   5.369
 5620SOL    HW217760   4.898   4.352   5.298
 5621SOL     OW17761   0.558   3.495   0.544
 5621SOL    HW117762   0.613   3.443   0.609
 5621SOL    HW217763   0.583   3.592   0.549
 5622SOL     OW17764   5.649   5.049   4.225
 5622SOL    HW117765   5.551   5.064   4.214
 5622SOL    HW217766   5.694   5.134   4.251
 5623SOL     OW17767   4.695   4.275   3.475
 5623SOL    HW117768   4.698   4.189   3.526
 5623SOL    HW217769   4.656   4.347   3.532
 5624SOL     OW17770   4.868   3.987   4.391
 5624SOL    HW117771   4.870   3.935   4.476
 5624SOL    HW217772   4.899   4.081   4.409
 5625SOL     OW17773   4.021   0.541   6.561
 5625SOL    HW117774   3.945   0.491   6.602
 5625SOL    HW217775   4.072   0.480   6.500
 5626SOL     OW17776   1.937   4.211   5.912
 5626SOL    HW117777   1.957   4.240   6.006
 5626SOL    HW217778   1.920   4.113   5.911
 5627SOL     OW17779   0.892   5.390   0.982
 5627SOL    HW117780   0.967   5.437   1.028
 5627SOL    HW217781   0.805   5.414   1.027
 5628SOL     OW17782   0.997   2.696   6.921
 5628SOL    HW117783   1.019   2.599   6.928
 5628SOL    HW217784   1.020   2.729   6.830
 5629SOL     OW17785   0.945   3.334   4.914
 5629SOL    HW117786   0.991   3.254   4.875
 5629SOL    HW217787   0.986   3.417   4.878
 5630SOL     OW17788   0.664   4.283   6.756
 5630SOL    HW117789   0.565   4.266   6.756
 5630SOL    HW217790   0.708   4.220   6.691
 5631SOL     OW17791   2.314   0.752   3.670
 5631SOL    HW117792   2.308   0.704   3.758
 5631SOL    HW217793   2.331   0.849   3.687
 5632SOL     OW17794   2.538   6.346   6.090
 5632SOL    HW117795   2.632   6.362   6.118
 5632SOL    HW217796   2.482   6.324   6.170
 5633SOL     OW17797   1.456   5.194   5.046
 5633SOL    HW117798   1.432   5.187   4.949
 5633SOL    HW217799   1.456   5.290   5.074
 5634SOL     OW17800   1.358   0.153   1.532
 5634SOL    HW117801   1.270   0.148   1.578
 5634SOL    HW217802   1.426   0.191   1.595
 5635SOL     OW17803   4.134   0.665   3.240
 5635SOL    HW117804   4.051   0.707   3.204
 5635SOL    HW217805   4.214   0.716   3.209
 5636SOL     OW17806   5.031   0.370   4.860
 5636SOL    HW117807   5.032   0.288   4.803
 5636SOL    HW217808   4.978   0.353   4.943
 5637SOL     OW17809   5.778   6.847   5.366
 5637SOL    HW117810   5.741   6.904   5.292
 5637SOL    HW217811   5.850   6.788   5.329
 5638SOL     OW17812   1.990   6.470   6.983
 5638SOL    HW117813   2.074   6.492   0.013
 5638SOL    HW217814   1.911   6.494   0.020
 5639SOL     OW17815   3.461   7.009   1.562
 5639SOL    HW117816   3.379   0.043   1.583
 5639SOL    HW217817   3.504   6.980   1.647
 5640SOL     OW17818   4.418   6.440   4.167
 5640SOL    HW117819   4.395   6.532   4.133
 5640SOL    HW217820   4.477   6.395   4.100
 5641SOL     OW17821   6.379   5.131   3.725
 5641SOL    HW117822   6.318   5.115   3.803
 5641SOL    HW217823   6.427   5.046   3.702
 5642SOL     OW17824   1.963   1.754   6.706
 5642SOL    HW117825   1.963   1.770   6.607
 5642SOL    HW217826   2.034   1.811   6.748
 5643SOL     OW17827   4.831   2.306   3.481
 5643SOL    HW117828   4.770   2.281   3.406
 5643SOL    HW217829   4.902   2.236   3.492
 5644SOL     OW17830   2.583   0.704   5.492
 5644SOL    HW117831   2.612   0.797   5.512
 5644SOL    HW217832   2.628   0.641   5.555
 5645SOL     OW17833   0.173   6.100   4.224
 5645SOL    HW117834   0.099   6.112   4.158
 5645SOL    HW217835   0.151   6.147   4.309
 5646SOL     OW17836   6.131   0.971   2.303
 5646SOL    HW117837   6.036   0.972   2.273
 5646SOL    HW217838   6.135   0.955   2.402
 5647SOL     OW17839   5.702   3.337   6.591
 5647SOL    HW117840   5.725   3.406   6.660
 5647SOL    HW217841   5.787   3.298   6.554
 5648SOL     OW17842   1.695   1.794   4.502
 5648SOL    HW117843   1.739   1.860   4.442
 5648SOL    HW217844   1.702   1.825   4.597
 5649SOL     OW17845   6.726   0.670   4.729
 5649SOL    HW117846   6.774   0.749   4.765
 5649SOL    HW217847   6.706   0.606   4.804
 5650SOL     OW17848   5.932   4.616   6.158
 5650SOL    HW117849   6.009   4.553   6.167
 5650SOL    HW217850   5.881   4.618   6.244
 5651SOL     OW17851   5.892   0.671   3.048
 5651SOL    HW117852   5.820   0.610   3.015
 5651SOL    HW217853   5.961   0.617   3.096
 5652SOL     OW17854   3.757   4.295   6.452
 5652SOL    HW117855   3.835   4.233   6.449
 5652SOL    HW217856   3.673   4.243   6.466
 5653SOL     OW17857   2.121   6.983   5.425
 5653SOL    HW117858   2.084   0.041   5.477
 5653SOL    HW217859   2.167   6.920   5.487
 5654SOL     OW17860   3.324   6.845   6.853
 5654SOL    HW117861   3.285   6.890   6.933
 5654SOL    HW217862   3.273   6.760   6.835
 5655SOL     OW17863   5.823   4.839   1.884
 5655SOL    HW117864   5.775   4.901   1.946
 5655SOL    HW217865   5.887   4.783   1.936
 5656SOL     OW17866   3.036   4.462   6.557
 5656SOL    HW117867   3.003   4.542   6.506
 5656SOL    HW217868   3.136   4.459   6.552
 5657SOL     OW17869   5.299   5.344   1.772
 5657SOL    HW117870   5.329   5.288   1.696
 5657SOL    HW217871   5.377   5.397   1.807
 5658SOL     OW17872   4.432   6.625   6.117
 5658SOL    HW117873   4.434   6.660   6.023
 5658SOL    HW217874   4.338   6.622   6.150
 5659SOL     OW17875   2.974   3.142   2.678
 5659SOL    HW117876   3.074   3.133   2.678
 5659SOL    HW217877   2.944   3.171   2.769
 5660SOL     OW17878   0.925   4.554   2.072
 5660SOL    HW117879   0.877   4.641   2.088
 5660SOL    HW217880   0.916   4.528   1.976
 5661SOL     OW17881   5.761   5.454   5.200
 5661SOL    HW117882   5.820   5.487   5.275
 5661SOL    HW217883   5.665   5.469   5.225
 5662SOL     OW17884   1.675   4.438   5.087
 5662SOL    HW117885   1.605   4.499   5.050
 5662SOL    HW217886   1.748   4.493   5.128
 5663SOL     OW17887   2.326   3.475   0.425
 5663SOL    HW117888   2.347   3.527   0.507
 5663SOL    HW217889   2.235   3.500   0.392
 5664SOL     OW17890   6.087   7.015   1.238
 5664SOL    HW117891   6.092   0.096   1.248
 5664SOL    HW217892   6.139   6.971   1.311
 5665SOL     OW17893   1.105   0.469   6.203
 5665SOL    HW117894   1.096   0.550   6.145
 5665SOL    HW217895   1.023   0.414   6.196
 5666SOL     OW17896   4.742   6.209   6.291
 5666SOL    HW117897   4.784   6.122   6.264
 5666SOL    HW217898   4.645   6.208   6.267
 5667SOL     OW17899   5.378   5.081   3.391
 5667SOL    HW117900   5.379   5.181   3.398
 5667SOL    HW217901   5.472   5.047   3.385
 5668SOL     OW17902   6.545   2.802   6.301
 5668SOL    HW117903   6.449   2.780   6.318
 5668SOL    HW217904   6.570   2.772   6.209
 5669SOL     OW17905   1.095   2.113   5.717
 5669SOL    HW117906   1.182   2.147   5.681
 5669SOL    HW217907   1.059   2.043   5.655
 5670SOL     OW17908   1.418   2.807   2.375
 5670SOL    HW117909   1.345   2.789   2.310
 5670SOL    HW217910   1.464   2.892   2.350
 5671SOL     OW17911   0.381   0.900   5.956
 5671SOL    HW117912   0.400   0.939   5.865
 5671SOL    HW217913   0.428   0.812   5.964
 5672SOL     OW17914   4.266   4.770   6.098
 5672SOL    HW117915   4.179   4.806   6.065
 5672SOL    HW217916   4.255   4.674   6.124
 5673SOL     OW17917   2.043   6.066   1.554
 5673SOL    HW117918   2.065   5.982   1.604
 5673SOL    HW217919   2.076   6.059   1.460
 5674SOL     OW17920   0.313   3.081   0.187
 5674SOL    HW117921   0.305   2.989   0.148
 5674SOL    HW217922   0.259   3.086   0.271
 5675SOL     OW17923   4.110   1.372   5.779
 5675SOL    HW117924   4.062   1.429   5.712
 5675SOL    HW217925   4.056   1.364   5.862
 5676SOL     OW17926   2.324   5.826   1.933
 5676SOL    HW117927   2.388   5.851   1.861
 5676SOL    HW217928   2.233   5.811   1.892
 5677SOL     OW17929   6.115   0.744   3.524
 5677SOL    HW117930   6.054   0.678   3.569
 5677SOL    HW217931   6.207   0.706   3.517
 5678SOL     OW17932   1.288   5.415   2.542
 5678SOL    HW117933   1.242   5.459   2.619
 5678SOL    HW217934   1.382   5.449   2.536
 5679SOL     OW17935   4.126   6.076   5.638
 5679SOL    HW117936   4.100   6.060   5.543
 5679SOL    HW217937   4.211   6.027   5.658
 5680SOL     OW17938   0.936   0.333   6.612
 5680SOL    HW117939   0.868   0.361   6.679
 5680SOL    HW217940   0.994   0.411   6.589
 5681SOL     OW17941   3.146   3.334   0.416
 5681SOL    HW117942   3.194   3.321   0.503
 5681SOL    HW217943   3.076   3.263   0.405
 5682SOL     OW17944   2.115   4.753   4.578
 5682SOL    HW117945   2.121   4.658   4.608
 5682SOL    HW217946   2.137   4.813   4.655
 5683SOL     OW17947   3.148   3.606   4.886
 5683SOL    HW117948   3.155   3.548   4.804
 5683SOL    HW217949   3.203   3.565   4.959
 5684SOL     OW17950   3.096   3.963   2.489
 5684SOL    HW117951   3.118   3.881   2.436
 5684SOL    HW217952   3.015   3.946   2.544
 5685SOL     OW17953   6.741   0.411   1.851
 5685SOL    HW117954   6.792   0.452   1.928
 5685SOL    HW217955   6.784   0.438   1.765
 5686SOL     OW17956   3.238   4.605   6.341
 5686SOL    HW117957   3.254   4.538   6.414
 5686SOL    HW217958   3.293   4.579   6.261
 5687SOL     OW17959   4.909   6.788   5.757
 5687SOL    HW117960   4.820   6.783   5.711
 5687SOL    HW217961   4.903   6.739   5.844
 5688SOL     OW17962   5.399   1.223   2.251
 5688SOL    HW117963   5.454   1.143   2.227
 5688SOL    HW217964   5.346   1.203   2.333
 5689SOL     OW17965   3.851   3.436   5.218
 5689SOL    HW117966   3.779   3.370   5.241
 5689SOL    HW217967   3.899   3.463   5.302
 5690SOL     OW17968   3.249   0.483   3.379
 5690SOL    HW117969   3.258   0.581   3.366
 5690SOL    HW217970   3.201   0.465   3.465
 5691SOL     OW17971   3.269   0.260   4.801
 5691SOL    HW117972   3.335   0.301   4.737
 5691SOL    HW217973   3.177   0.270   4.765
 5692SOL     OW17974   6.072   2.676   0.647
 5692SOL    HW117975   6.134   2.678   0.725
 5692SOL    HW217976   5.981   2.705   0.677
 5693SOL     OW17977   5.643   3.561   1.810
 5693SOL    HW117978   5.612   3.652   1.782
 5693SOL    HW217979   5.739   3.565   1.839
 5694SOL     OW17980   1.881   2.464   4.903
 5694SOL    HW117981   1.877   2.440   5.000
 5694SOL    HW217982   1.921   2.555   4.893
 5695SOL     OW17983   1.917   3.356   2.901
 5695SOL    HW117984   1.866   3.380   2.818
 5695SOL    HW217985   2.013   3.344   2.880
 5696SOL     OW17986   3.422   1.328   6.562
 5696SOL    HW117987   3.444   1.253   6.500
 5696SOL    HW217988   3.356   1.389   6.518
 5697SOL     OW17989   6.454   3.812   1.043
 5697SOL    HW117990   6.380   3.802   1.110
 5697SOL    HW217991   6.464   3.908   1.018
 5698SOL     OW17992   2.182   4.858   4.339
 5698SOL    HW117993   2.156   4.810   4.422
 5698SOL    HW217994   2.243   4.934   4.362
 5699SOL     OW17995   1.055   2.224   5.351
 5699SOL    HW117996   1.043   2.321   5.333
 5699SOL    HW217997   0.967   2.181   5.369
 5700SOL     OW17998   1.693   5.357   4.366
 5700SOL    HW117999   1.702   5.324   4.460
 5700SOL    HW218000   1.750   5.302   4.305
 5701SOL     OW18001   5.003   2.059   2.454
 5701SOL    HW118002   5.020   1.981   2.515
 5701SOL    HW218003   4.957   2.132   2.505
 5702SOL     OW18004   4.290   0.850   0.175
 5702SOL    HW118005   4.262   0.890   0.088
 5702SOL    HW218006   4.274   0.751   0.173
 5703SOL     OW18007   4.779   4.166   2.476
 5703SOL    HW118008   4.745   4.243   2.422
 5703SOL    HW218009   4.754   4.080   2.430
 5704SOL     OW18010   5.727   3.307   3.721
 5704SOL    HW118011   5.815   3.317   3.768
 5704SOL    HW218012   5.671   3.389   3.738
 5705SOL     OW18013   6.245   1.234   4.233
 5705SOL    HW118014   6.290   1.160   4.282
 5705SOL    HW218015   6.288   1.246   4.144
 5706SOL     OW18016   2.078   1.497   5.754
 5706SOL    HW118017   2.090   1.475   5.657
 5706SOL    HW218018   2.057   1.594   5.764
 5707SOL     OW18019   4.468   0.271   1.590
 5707SOL    HW118020   4.467   0.370   1.605
 5707SOL    HW218021   4.378   0.240   1.560
 5708SOL     OW18022   1.141   6.737   0.440
 5708SOL    HW118023   1.144   6.722   0.539
 5708SOL    HW218024   1.189   6.822   0.418
 5709SOL     OW18025   0.444   2.704   0.901
 5709SOL    HW118026   0.450   2.627   0.838
 5709SOL    HW218027   0.350   2.738   0.905
 5710SOL     OW18028   3.016   5.159   6.354
 5710SOL    HW118029   3.029   5.203   6.443
 5710SOL    HW218030   3.059   5.069   6.354
 5711SOL     OW18031   5.218   1.321   5.392
 5711SOL    HW118032   5.311   1.287   5.378
 5711SOL    HW218033   5.153   1.261   5.346
 5712SOL     OW18034   5.191   6.956   5.958
 5712SOL    HW118035   5.267   6.996   5.908
 5712SOL    HW218036   5.105   6.978   5.911
 5713SOL     OW18037   0.169   3.772   2.533
 5713SOL    HW118038   0.119   3.855   2.507
 5713SOL    HW218039   0.152   3.751   2.629
 5714SOL     OW18040   2.256   0.648   1.145
 5714SOL    HW118041   2.205   0.721   1.099
 5714SOL    HW218042   2.325   0.688   1.205
 5715SOL     OW18043   0.483   5.839   4.010
 5715SOL    HW118044   0.573   5.881   4.027
 5715SOL    HW218045   0.496   5.756   3.956
 5716SOL     OW18046   1.244   2.826   4.686
 5716SOL    HW118047   1.271   2.918   4.657
 5716SOL    HW218048   1.316   2.786   4.743
 5717SOL     OW18049   0.488   4.476   5.354
 5717SOL    HW118050   0.544   4.526   5.420
 5717SOL    HW218051   0.404   4.445   5.399
 5718SOL     OW18052   2.323   5.635   5.957
 5718SOL    HW118053   2.338   5.699   5.882
 5718SOL    HW218054   2.398   5.569   5.960
 5719SOL     OW18055   1.534   1.032   0.382
 5719SOL    HW118056   1.542   1.114   0.326
 5719SOL    HW218057   1.449   1.036   0.435
 5720SOL     OW18058   2.085   5.796   3.968
 5720SOL    HW118059   2.136   5.797   3.882
 5720SOL    HW218060   2.075   5.889   4.002
 5721SOL     OW18061   6.129   5.252   6.738
 5721SOL    HW118062   6.185   5.315   6.684
 5721SOL    HW218063   6.081   5.190   6.677
 5722SOL     OW18064   5.337   0.959   3.853
 5722SOL    HW118065   5.327   0.958   3.952
 5722SOL    HW218066   5.247   0.949   3.810
 5723SOL     OW18067   5.978   5.222   0.480
 5723SOL    HW118068   6.035   5.287   0.531
 5723SOL    HW218069   5.974   5.251   0.384
 5724SOL     OW18070   4.717   2.936   5.769
 5724SOL    HW118071   4.699   2.978   5.858
 5724SOL    HW218072   4.687   2.841   5.770
 5725SOL     OW18073   6.045   7.004   5.512
 5725SOL    HW118074   5.985   0.038   5.452
 5725SOL    HW218075   6.138   0.023   5.509
 5726SOL     OW18076   4.310   5.976   5.064
 5726SOL    HW118077   4.377   5.963   5.137
 5726SOL    HW218078   4.223   5.933   5.091
 5727SOL     OW18079   5.524   3.267   3.250
 5727SOL    HW118080   5.462   3.338   3.217
 5727SOL    HW218081   5.580   3.304   3.324
 5728SOL     OW18082   3.682   1.040   5.079
 5728SOL    HW118083   3.772   0.998   5.081
 5728SOL    HW218084   3.614   0.976   5.114
 5729SOL     OW18085   3.237   1.827   4.044
 5729SOL    HW118086   3.317   1.772   4.065
 5729SOL    HW218087   3.241   1.913   4.096
 5730SOL     OW18088   4.105   5.099   0.221
 5730SOL    HW118089   4.026   5.157   0.240
 5730SOL    HW218090   4.079   5.029   0.155
 5731SOL     OW18091   4.463   1.618   5.064
 5731SOL    HW118092   4.473   1.699   5.122
 5731SOL    HW218093   4.550   1.598   5.019
 5732SOL     OW18094   6.615   4.027   4.386
 5732SOL    HW118095   6.562   4.046   4.303
 5732SOL    HW218096   6.577   4.081   4.462
 5733SOL     OW18097   2.089   6.137   0.715
 5733SOL    HW118098   2.124   6.230   0.730
 5733SOL    HW218099   1.994   6.142   0.683
 5734SOL     OW18100   1.783   0.236   6.583
 5734SOL    HW118101   1.738   0.316   6.622
 5734SOL    HW218102   1.731   0.203   6.504
 5735SOL     OW18103   5.521   1.362   1.171
 5735SOL    HW118104   5.518   1.440   1.109
 5735SOL    HW218105   5.507   1.278   1.119
 5736SOL     OW18106   4.060   3.622   6.296
 5736SOL    HW118107   4.129   3.632   6.367
 5736SOL    HW218108   3.970   3.609   6.339
 5737SOL     OW18109   5.138   5.261   2.423
 5737SOL    HW118110   5.088   5.242   2.507
 5737SOL    HW218111   5.184   5.349   2.430
 5738SOL     OW18112   3.206   1.544   1.115
 5738SOL    HW118113   3.207   1.524   1.213
 5738SOL    HW218114   3.129   1.605   1.094
 5739SOL     OW18115   2.021   1.094   5.892
 5739SOL    HW118116   1.934   1.059   5.929
 5739SOL    HW218117   2.095   1.031   5.916
 5740SOL     OW18118   5.736   2.924   2.571
 5740SOL    HW118119   5.722   2.990   2.645
 5740SOL    HW218120   5.668   2.851   2.578
 5741SOL     OW18121   1.475   3.391   3.972
 5741SOL    HW118122   1.554   3.404   4.031
 5741SOL    HW218123   1.488   3.309   3.916
 5742SOL     OW18124   6.595   4.496   2.311
 5742SOL    HW118125   6.645   4.462   2.391
 5742SOL    HW218126   6.528   4.428   2.283
 5743SOL     OW18127   3.216   6.520   6.010
 5743SOL    HW118128   3.284   6.580   6.051
 5743SOL    HW218129   3.251   6.484   5.923
 5744SOL     OW18130   5.397   5.600   4.082
 5744SOL    HW118131   5.352   5.614   4.170
 5744SOL    HW218132   5.473   5.536   4.092
 5745SOL     OW18133   2.087   3.968   2.473
 5745SOL    HW118134   2.111   3.981   2.377
 5745SOL    HW218135   2.165   3.995   2.531
 5746SOL     OW18136   5.101   0.759   3.600
 5746SOL    HW118137   5.119   0.830   3.668
 5746SOL    HW218138   5.139   0.787   3.512
 5747SOL     OW18139   0.958   6.850   1.834
 5747SOL    HW118140   0.937   6.786   1.909
 5747SOL    HW218141   0.995   6.799   1.757
 5748SOL     OW18142   6.340   6.801   0.163
 5748SOL    HW118143   6.321   6.825   0.258
 5748SOL    HW218144   6.437   6.813   0.144
 5749SOL     OW18145   1.908   6.292   6.088
 5749SOL    HW118146   1.903   6.335   5.997
 5749SOL    HW218147   1.932   6.196   6.077
 5750SOL     OW18148   6.283   2.359   4.071
 5750SOL    HW118149   6.369   2.361   4.019
 5750SOL    HW218150   6.273   2.445   4.120
 5751SOL     OW18151   6.856   3.940   4.354
 5751SOL    HW118152   6.932   3.956   4.417
 5751SOL    HW218153   6.775   3.989   4.385
 5752SOL     OW18154   5.724   1.562   6.445
 5752SOL    HW118155   5.730   1.650   6.397
 5752SOL    HW218156   5.679   1.495   6.386
 5753SOL     OW18157   3.873   3.639   3.665
 5753SOL    HW118158   3.775   3.616   3.666
 5753SOL    HW218159   3.924   3.564   3.623
 5754SOL     OW18160   6.035   0.673   0.678
 5754SOL    HW118161   6.105   0.725   0.727
 5754SOL    HW218162   5.955   0.662   0.737
 5755SOL     OW18163   1.116   4.029   6.377
 5755SOL    HW118164   1.214   4.048   6.387
 5755SOL    HW218165   1.089   4.044   6.282
 5756SOL     OW18166   5.505   0.056   1.692
 5756SOL    HW118167   5.502   0.004   1.607
 5756SOL    HW218168   5.577   0.125   1.686
 5757SOL     OW18169   1.457   1.914   4.169
 5757SOL    HW118170   1.460   2.012   4.189
 5757SOL    HW218171   1.388   1.870   4.226
 5758SOL     OW18172   6.648   6.684   2.924
 5758SOL    HW118173   6.698   6.770   2.936
 5758SOL    HW218174   6.572   6.681   2.988
 5759SOL     OW18175   3.122   6.693   2.990
 5759SOL    HW118176   3.073   6.761   3.043
 5759SOL    HW218177   3.057   6.638   2.937
 5760SOL     OW18178   0.299   2.556   0.140
 5760SOL    HW118179   0.244   2.526   0.062
 5760SOL    HW218180   0.372   2.490   0.157
 5761SOL     OW18181   7.017   6.693   5.494
 5761SOL    HW118182   6.979   6.613   5.541
 5761SOL    HW218183   6.943   6.756   5.470
 5762SOL     OW18184   0.432   6.544   5.960
 5762SOL    HW118185   0.405   6.468   6.019
 5762SOL    HW218186   0.403   6.526   5.866
 5763SOL     OW18187   4.814   0.573   6.914
 5763SOL    HW118188   4.772   0.483   6.931
 5763SOL    HW218189   4.902   0.561   6.868
 5764SOL     OW18190   3.994   6.129   3.832
 5764SOL    HW118191   3.971   6.174   3.918
 5764SOL    HW218192   4.090   6.146   3.809
 5765SOL     OW18193   6.499   6.722   2.687
 5765SOL    HW118194   6.408   6.684   2.675
 5765SOL    HW218195   6.531   6.703   2.780
 5766SOL     OW18196   0.947   0.786   4.446
 5766SOL    HW118197   0.913   0.853   4.512
 5766SOL    HW218198   0.876   0.767   4.378
 5767SOL     OW18199   6.285   0.065   0.450
 5767SOL    HW118200   6.269   0.108   0.539
 5767SOL    HW218201   6.298   6.986   0.462
 5768SOL     OW18202   1.272   0.432   5.098
 5768SOL    HW118203   1.253   0.338   5.126
 5768SOL    HW218204   1.199   0.492   5.132
 5769SOL     OW18205   1.117   2.251   6.253
 5769SOL    HW118206   1.037   2.254   6.194
 5769SOL    HW218207   1.100   2.302   6.337
 5770SOL     OW18208   1.373   3.486   2.465
 5770SOL    HW118209   1.455   3.493   2.408
 5770SOL    HW218210   1.347   3.577   2.497
 5771SOL     OW18211   2.857   6.306   3.203
 5771SOL    HW118212   2.839   6.384   3.143
 5771SOL    HW218213   2.945   6.266   3.180
 5772SOL     OW18214   2.698   1.249   3.470
 5772SOL    HW118215   2.753   1.267   3.551
 5772SOL    HW218216   2.750   1.274   3.388
 5773SOL     OW18217   5.570   0.310   4.026
 5773SOL    HW118218   5.629   0.291   3.948
 5773SOL    HW218219   5.589   0.402   4.061
 5774SOL     OW18220   1.103   6.447   3.483
 5774SOL    HW118221   1.047   6.518   3.526
 5774SOL    HW218222   1.196   6.453   3.518
 5775SOL     OW18223   6.055   4.925   2.612
 5775SOL    HW118224   6.005   4.882   2.687
 5775SOL    HW218225   6.061   4.861   2.535
 5776SOL     OW18226   3.988   1.069   4.411
 5776SOL    HW118227   3.966   1.111   4.323
 5776SOL    HW218228   4.047   1.131   4.463
 5777SOL     OW18229   0.084   0.725   1.761
 5777SOL    HW118230   0.018   0.794   1.791
 5777SOL    HW218231   0.108   0.741   1.665
 5778SOL     OW18232   0.177   1.010   6.821
 5778SOL    HW118233   0.171   1.094   6.875
 5778SOL    HW218234   0.187   1.034   6.724
 5779SOL     OW18235   5.907   1.492   0.266
 5779SOL    HW118236   5.982   1.450   0.318
 5779SOL    HW218237   5.943   1.533   0.182
 5780SOL     OW18238   5.362   5.010   4.455
 5780SOL    HW118239   5.272   4.972   4.432
 5780SOL    HW218240   5.394   5.068   4.381
 5781SOL     OW18241   1.396   6.039   5.696
 5781SOL    HW118242   1.399   5.963   5.762
 5781SOL    HW218243   1.355   6.007   5.611
 5782SOL     OW18244   5.170   1.150   1.608
 5782SOL    HW118245   5.229   1.228   1.624
 5782SOL    HW218246   5.195   1.075   1.670
 5783SOL     OW18247   2.311   2.050   6.538
 5783SOL    HW118248   2.322   2.137   6.585
 5783SOL    HW218249   2.351   1.976   6.592
 5784SOL     OW18250   6.653   6.203   0.420
 5784SOL    HW118251   6.681   6.127   0.361
 5784SOL    HW218252   6.689   6.188   0.512
 5785SOL     OW18253   1.823   1.224   2.304
 5785SOL    HW118254   1.854   1.217   2.399
 5785SOL    HW218255   1.896   1.262   2.248
 5786SOL     OW18256   5.514   4.756   2.240
 5786SOL    HW118257   5.474   4.755   2.148
 5786SOL    HW218258   5.476   4.680   2.293
 5787SOL     OW18259   2.358   2.630   6.304
 5787SOL    HW118260   2.384   2.696   6.375
 5787SOL    HW218261   2.408   2.650   6.220
 5788SOL     OW18262   3.347   0.994   4.250
 5788SOL    HW118263   3.343   1.017   4.153
 5788SOL    HW218264   3.347   1.078   4.304
 5789SOL     OW18265   3.365   4.827   6.006
 5789SOL    HW118266   3.447   4.818   6.063
 5789SOL    HW218267   3.333   4.737   5.978
 5790SOL     OW18268   1.892   3.167   3.899
 5790SOL    HW118269   1.989   3.145   3.891
 5790SOL    HW218270   1.871   3.246   3.841
 5791SOL     OW18271   1.262   1.183   3.645
 5791SOL    HW118272   1.305   1.253   3.700
 5791SOL    HW218273   1.162   1.195   3.646
 5792SOL     OW18274   1.244   1.152   3.352
 5792SOL    HW118275   1.239   1.243   3.311
 5792SOL    HW218276   1.255   1.160   3.451
 5793SOL     OW18277   6.577   1.374   5.481
 5793SOL    HW118278   6.509   1.430   5.433
 5793SOL    HW218279   6.579   1.399   5.578
 5794SOL     OW18280   6.983   3.772   6.489
 5794SOL    HW118281   6.952   3.786   6.583
 5794SOL    HW218282   0.062   3.751   6.489
 5795SOL     OW18283   6.957   4.325   0.087
 5795SOL    HW118284   6.884   4.260   0.068
 5795SOL    HW218285   6.919   4.414   0.110
 5796SOL     OW18286   3.053   2.109   0.508
 5796SOL    HW118287   3.018   2.080   0.419
 5796SOL    HW218288   3.032   2.039   0.576
 5797SOL     OW18289   3.151   3.329   5.812
 5797SOL    HW118290   3.209   3.343   5.731
 5797SOL    HW218291   3.077   3.396   5.811
 5798SOL     OW18292   6.202   4.759   4.090
 5798SOL    HW118293   6.175   4.801   4.003
 5798SOL    HW218294   6.141   4.682   4.110
 5799SOL     OW18295   5.196   0.258   3.873
 5799SOL    HW118296   5.264   0.200   3.919
 5799SOL    HW218297   5.115   0.203   3.851
 5800SOL     OW18298   5.601   6.581   6.355
 5800SOL    HW118299   5.520   6.620   6.400
 5800SOL    HW218300   5.627   6.496   6.400
 5801SOL     OW18301   1.818   1.040   2.094
 5801SOL    HW118302   1.818   1.106   2.169
 5801SOL    HW218303   1.899   0.982   2.101
 5802SOL     OW18304   0.307   2.968   4.352
 5802SOL    HW118305   0.317   2.994   4.256
 5802SOL    HW218306   0.220   2.920   4.365
 5803SOL     OW18307   1.008   4.819   1.036
 5803SOL    HW118308   0.908   4.826   1.038
 5803SOL    HW218309   1.034   4.732   0.995
 5804SOL     OW18310   0.174   3.033   6.608
 5804SOL    HW118311   0.206   3.069   6.696
 5804SOL    HW218312   0.076   3.048   6.600
 5805SOL     OW18313   4.497   3.409   6.909
 5805SOL    HW118314   4.480   3.358   6.825
 5805SOL    HW218315   4.589   3.448   6.907
 5806SOL     OW18316   5.723   6.091   5.936
 5806SOL    HW118317   5.625   6.100   5.922
 5806SOL    HW218318   5.769   6.085   5.848
 5807SOL     OW18319   2.413   4.511   1.252
 5807SOL    HW118320   2.315   4.523   1.262
 5807SOL    HW218321   2.432   4.435   1.190
 5808SOL     OW18322   6.568   1.750   3.586
 5808SOL    HW118323   6.556   1.696   3.503
 5808SOL    HW218324   6.632   1.704   3.647
 5809SOL     OW18325   0.986   3.385   3.512
 5809SOL    HW118326   1.025   3.332   3.436
 5809SOL    HW218327   0.893   3.413   3.488
 5810SOL     OW18328   3.553   1.796   2.784
 5810SOL    HW118329   3.488   1.720   2.797
 5810SOL    HW218330   3.507   1.870   2.736
 5811SOL     OW18331   2.912   6.922   1.226
 5811SOL    HW118332   2.873   7.014   1.232
 5811SOL    HW218333   2.855   6.865   1.168
 5812SOL     OW18334   4.961   0.815   4.354
 5812SOL    HW118335   4.917   0.726   4.368
 5812SOL    HW218336   4.933   0.852   4.266
 5813SOL     OW18337   1.361   2.372   4.971
 5813SOL    HW118338   1.393   2.363   4.877
 5813SOL    HW218339   1.263   2.353   4.974
 5814SOL     OW18340   0.538   5.238   1.384
 5814SOL    HW118341   0.543   5.337   1.372
 5814SOL    HW218342   0.622   5.206   1.427
 5815SOL     OW18343   4.286   6.497   5.040
 5815SOL    HW118344   4.243   6.566   4.982
 5815SOL    HW218345   4.216   6.452   5.097
 5816SOL     OW18346   5.254   6.164   6.655
 5816SOL    HW118347   5.325   6.198   6.717
 5816SOL    HW218348   5.249   6.064   6.663
 5817SOL     OW18349   6.351   2.522   6.158
 5817SOL    HW118350   6.418   2.487   6.223
 5817SOL    HW218351   6.344   2.459   6.080
 5818SOL     OW18352   5.960   6.459   5.060
 5818SOL    HW118353   6.025   6.498   4.995
 5818SOL    HW218354   5.868   6.461   5.020
 5819SOL     OW18355   6.684   0.934   1.253
 5819SOL    HW118356   6.705   0.877   1.174
 5819SOL    HW218357   6.655   0.876   1.329
 5820SOL     OW18358   5.343   4.835   1.605
 5820SOL    HW118359   5.277   4.768   1.638
 5820SOL    HW218360   5.318   4.926   1.638
 5821SOL     OW18361   2.938   6.576   2.811
 5821SOL    HW118362   2.844   6.604   2.793
 5821SOL    HW218363   2.992   6.585   2.727
 5822SOL     OW18364   0.327   0.799   3.039
 5822SOL    HW118365   0.397   0.728   3.049
 5822SOL    HW218366   0.296   0.802   2.943
 5823SOL     OW18367   1.426   2.463   3.618
 5823SOL    HW118368   1.483   2.501   3.690
 5823SOL    HW218369   1.420   2.529   3.543
 5824SOL     OW18370   4.895   0.673   3.743
 5824SOL    HW118371   4.810   0.719   3.715
 5824SOL    HW218372   4.970   0.705   3.685
 5825SOL     OW18373   3.053   1.400   1.673
 5825SOL    HW118374   3.046   1.418   1.771
 5825SOL    HW218375   3.126   1.456   1.634
 5826SOL     OW18376   0.249   6.813   2.946
 5826SOL    HW118377   0.172   6.775   2.895
 5826SOL    HW218378   0.279   6.897   2.902
 5827SOL     OW18379   1.736   5.314   6.102
 5827SOL    HW118380   1.721   5.287   6.006
 5827SOL    HW218381   1.729   5.233   6.160
 5828SOL     OW18382   6.391   1.575   1.327
 5828SOL    HW118383   6.293   1.572   1.309
 5828SOL    HW218384   6.409   1.630   1.408
 5829SOL     OW18385   2.008   0.785   1.778
 5829SOL    HW118386   2.037   0.742   1.692
 5829SOL    HW218387   1.914   0.817   1.769
 5830SOL     OW18388   1.213   0.966   6.182
 5830SOL    HW118389   1.176   0.899   6.246
 5830SOL    HW218390   1.203   0.933   6.089
 5831SOL     OW18391   5.943   5.630   2.765
 5831SOL    HW118392   5.955   5.596   2.671
 5831SOL    HW218393   5.851   5.608   2.797
 5832SOL     OW18394   3.885   3.557   4.286
 5832SOL    HW118395   3.843   3.609   4.212
 5832SOL    HW218396   3.813   3.521   4.346
 5833SOL     OW18397   3.027   3.088   4.452
 5833SOL    HW118398   3.108   3.046   4.492
 5833SOL    HW218399   2.945   3.043   4.486
 5834SOL     OW18400   5.695   1.286   6.391
 5834SOL    HW118401   5.617   1.240   6.348
 5834SOL    HW218402   5.770   1.293   6.326
 5835SOL     OW18403   5.511   2.717   4.245
 5835SOL    HW118404   5.458   2.737   4.162
 5835SOL    HW218405   5.588   2.780   4.251
 5836SOL     OW18406   3.687   6.738   4.011
 5836SOL    HW118407   3.782   6.715   4.032
 5836SOL    HW218408   3.681   6.834   3.984
 5837SOL     OW18409   4.003   4.205   6.764
 5837SOL    HW118410   4.045   4.158   6.841
 5837SOL    HW218411   3.921   4.253   6.795
 5838SOL     OW18412   0.387   1.442   5.755
 5838SOL    HW118413   0.411   1.375   5.825
 5838SOL    HW218414   0.313   1.406   5.698
 5839SOL     OW18415   0.007   2.601   2.232
 5839SOL    HW118416   6.932   2.615   2.263
 5839SOL    HW218417   0.007   2.554   2.144
 5840SOL     OW18418   2.981   5.705   0.435
 5840SOL    HW118419   2.958   5.786   0.380
 5840SOL    HW218420   3.040   5.732   0.511
 5841SOL     OW18421   6.241   2.285   3.249
 5841SOL    HW118422   6.220   2.193   3.217
 5841SOL    HW218423   6.339   2.301   3.241
 5842SOL     OW18424   3.789   2.439   1.186
 5842SOL    HW118425   3.818   2.517   1.242
 5842SOL    HW218426   3.798   2.355   1.239
 5843SOL     OW18427   0.361   2.011   1.506
 5843SOL    HW118428   0.394   1.965   1.589
 5843SOL    HW218429   0.409   1.974   1.427
 5844SOL     OW18430   1.616   6.144   6.350
 5844SOL    HW118431   1.692   6.081   6.336
 5844SOL    HW218432   1.530   6.095   6.343
 5845SOL     OW18433   2.319   2.771   4.244
 5845SOL    HW118434   2.373   2.686   4.243
 5845SOL    HW218435   2.316   2.807   4.337
 5846SOL     OW18436   0.386   3.445   6.969
 5846SOL    HW118437   0.319   3.392   0.003
 5846SOL    HW218438   0.410   3.395   6.887
 5847SOL     OW18439   1.305   2.502   4.209
 5847SOL    HW118440   1.309   2.449   4.124
 5847SOL    HW218441   1.378   2.473   4.270
 5848SOL     OW18442   1.121   4.789   3.398
 5848SOL    HW118443   1.143   4.861   3.463
 5848SOL    HW218444   1.191   4.784   3.327
 5849SOL     OW18445   2.136   0.215   5.649
 5849SOL    HW118446   2.235   0.199   5.643
 5849SOL    HW218447   2.101   0.176   5.734
 5850SOL     OW18448   1.033   5.081   3.111
 5850SOL    HW118449   1.060   4.991   3.077
 5850SOL    HW218450   1.100   5.150   3.080
 5851SOL     OW18451   6.755   3.431   1.737
 5851SOL    HW118452   6.754   3.531   1.728
 5851SOL    HW218453   6.696   3.403   1.812
 5852SOL     OW18454   4.065   6.384   2.679
 5852SOL    HW118455   4.115   6.305   2.644
 5852SOL    HW218456   4.082   6.463   2.620
 5853SOL     OW18457   5.200   3.852   5.227
 5853SOL    HW118458   5.181   3.848   5.129
 5853SOL    HW218459   5.151   3.928   5.268
 5854SOL     OW18460   1.458   1.164   6.859
 5854SOL    HW118461   1.390   1.169   6.787
 5854SOL    HW218462   1.412   1.156   6.948
 5855SOL     OW18463   1.715   1.905   5.289
 5855SOL    HW118464   1.731   2.004   5.296
 5855SOL    HW218465   1.668   1.884   5.204
 5856SOL     OW18466   0.940   6.667   3.348
 5856SOL    HW118467   0.849   6.635   3.371
 5856SOL    HW218468   0.984   6.705   3.430
 5857SOL     OW18469   0.730   2.400   5.227
 5857SOL    HW118470   0.690   2.342   5.156
 5857SOL    HW218471   0.746   2.346   5.309
 5858SOL     OW18472   3.030   0.385   3.920
 5858SOL    HW118473   3.058   0.480   3.906
 5858SOL    HW218474   3.096   0.325   3.876
 5859SOL     OW18475   5.697   5.039   2.042
 5859SOL    HW118476   5.633   5.108   2.076
 5859SOL    HW218477   5.748   5.077   1.965
 5860SOL     OW18478   6.894   4.537   0.376
 5860SOL    HW118479   6.826   4.548   0.449
 5860SOL    HW218480   6.852   4.558   0.288
 5861SOL     OW18481   6.367   2.084   4.419
 5861SOL    HW118482   6.342   2.174   4.454
 5861SOL    HW218483   6.346   2.079   4.321
 5862SOL     OW18484   6.092   5.375   4.252
 5862SOL    HW118485   6.084   5.443   4.179
 5862SOL    HW218486   6.165   5.403   4.314
 5863SOL     OW18487   1.667   1.500   0.360
 5863SOL    HW118488   1.728   1.580   0.360
 5863SOL    HW218489   1.574   1.529   0.382
 5864SOL     OW18490   4.822   5.327   0.337
 5864SOL    HW118491   4.729   5.322   0.374
 5864SOL    HW218492   4.827   5.272   0.253
 5865SOL     OW18493   4.663   0.211   3.217
 5865SOL    HW118494   4.755   0.211   3.258
 5865SOL    HW218495   4.657   0.139   3.148
 5866SOL     OW18496   3.658   2.179   6.348
 5866SOL    HW118497   3.603   2.155   6.268
 5866SOL    HW218498   3.669   2.099   6.406
 5867SOL     OW18499   6.626   2.812   2.017
 5867SOL    HW118500   6.658   2.721   1.990
 5867SOL    HW218501   6.562   2.846   1.948
 5868SOL     OW18502   0.006   6.142   5.497
 5868SOL    HW118503   6.930   6.125   5.523
 5868SOL    HW218504   0.025   6.100   5.408
 5869SOL     OW18505   2.229   5.200   4.987
 5869SOL    HW118506   2.287   5.278   4.964
 5869SOL    HW218507   2.139   5.211   4.946
 5870SOL     OW18508   5.601   5.885   4.110
 5870SOL    HW118509   5.555   5.797   4.120
 5870SOL    HW218510   5.700   5.871   4.114
 5871SOL     OW18511   3.516   4.487   0.920
 5871SOL    HW118512   3.497   4.532   1.007
 5871SOL    HW218513   3.519   4.555   0.847
 5872SOL     OW18514   4.175   5.738   3.711
 5872SOL    HW118515   4.097   5.737   3.774
 5872SOL    HW218516   4.240   5.807   3.740
 5873SOL     OW18517   2.303   3.465   1.142
 5873SOL    HW118518   2.303   3.433   1.237
 5873SOL    HW218519   2.340   3.393   1.083
 5874SOL     OW18520   0.674   4.578   5.926
 5874SOL    HW118521   0.580   4.604   5.902
 5874SOL    HW218522   0.730   4.579   5.843
 5875SOL     OW18523   4.084   2.642   1.586
 5875SOL    HW118524   3.989   2.666   1.564
 5875SOL    HW218525   4.086   2.553   1.632
 5876SOL     OW18526   3.955   4.475   6.112
 5876SOL    HW118527   3.930   4.519   6.026
 5876SOL    HW218528   3.893   4.506   6.185
 5877SOL     OW18529   5.525   6.276   2.972
 5877SOL    HW118530   5.594   6.332   3.019
 5877SOL    HW218531   5.526   6.183   3.010
 5878SOL     OW18532   4.963   3.537   2.918
 5878SOL    HW118533   4.925   3.609   2.861
 5878SOL    HW218534   4.991   3.460   2.860
 5879SOL     OW18535   3.310   4.611   5.608
 5879SOL    HW118536   3.235   4.673   5.583
 5879SOL    HW218537   3.333   4.552   5.531
 5880SOL     OW18538   5.879   2.142   0.580
 5880SOL    HW118539   5.839   2.188   0.501
 5880SOL    HW218540   5.832   2.055   0.595
 5881SOL     OW18541   0.907   6.195   3.665
 5881SOL    HW118542   0.865   6.202   3.575
 5881SOL    HW218543   0.849   6.242   3.732
 5882SOL     OW18544   1.132   5.911   4.831
 5882SOL    HW118545   1.103   5.819   4.855
 5882SOL    HW218546   1.230   5.911   4.812
 5883SOL     OW18547   0.203   5.708   0.020
 5883SOL    HW118548   0.172   5.801   0.002
 5883SOL    HW218549   0.246   5.703   0.110
 5884SOL     OW18550   0.875   0.792   1.458
 5884SOL    HW118551   0.840   0.885   1.464
 5884SOL    HW218552   0.807   0.729   1.496
 5885SOL     OW18553   6.692   5.907   1.814
 5885SOL    HW118554   6.694   5.990   1.871
 5885SOL    HW218555   6.775   5.903   1.758
 5886SOL     OW18556   1.881   4.379   3.208
 5886SOL    HW118557   1.926   4.292   3.228
 5886SOL    HW218558   1.782   4.367   3.214
 5887SOL     OW18559   2.190   3.606   1.462
 5887SOL    HW118560   2.238   3.632   1.546
 5887SOL    HW218561   2.239   3.530   1.418
 5888SOL     OW18562   3.321   6.338   2.052
 5888SOL    HW118563   3.331   6.436   2.070
 5888SOL    HW218564   3.258   6.325   1.975
 5889SOL     OW18565   4.519   0.892   1.737
 5889SOL    HW118566   4.566   0.942   1.663
 5889SOL    HW218567   4.551   0.798   1.738
 5890SOL     OW18568   2.573   4.923   3.345
 5890SOL    HW118569   2.556   4.978   3.263
 5890SOL    HW218570   2.655   4.867   3.331
 5891SOL     OW18571   2.394   3.049   6.876
 5891SOL    HW118572   2.321   3.112   6.849
 5891SOL    HW218573   2.480   3.100   6.886
 5892SOL     OW18574   0.518   2.373   1.630
 5892SOL    HW118575   0.603   2.412   1.664
 5892SOL    HW218576   0.524   2.273   1.630
 5893SOL     OW18577   6.835   6.586   1.322
 5893SOL    HW118578   6.798   6.663   1.374
 5893SOL    HW218579   6.921   6.614   1.277
 5894SOL     OW18580   3.142   5.470   6.879
 5894SOL    HW118581   3.056   5.451   6.926
 5894SOL    HW218582   3.146   5.568   6.857
 5895SOL     OW18583   6.003   2.631   4.152
 5895SOL    HW118584   5.929   2.596   4.209
 5895SOL    HW218585   6.090   2.622   4.200
 5896SOL     OW18586   5.511   2.349   0.839
 5896SOL    HW118587   5.517   2.280   0.767
 5896SOL    HW218588   5.417   2.355   0.872
 5897SOL     OW18589   3.168   3.620   0.076
 5897SOL    HW118590   3.179   3.584   0.168
 5897SOL    HW218591   3.073   3.610   0.046
 5898SOL     OW18592   4.115   0.584   6.852
 5898SOL    HW118593   4.049   0.536   6.910
 5898SOL    HW218594   4.100   0.558   6.756
 5899SOL     OW18595   0.266   0.213   0.677
 5899SOL    HW118596   0.186   0.179   0.726
 5899SOL    HW218597   0.240   0.294   0.624
 5900SOL     OW18598   5.482   5.943   2.421
 5900SOL    HW118599   5.388   5.929   2.452
 5900SOL    HW218600   5.509   6.038   2.436
 5901SOL     OW18601   0.896   0.296   4.724
 5901SOL    HW118602   0.919   0.220   4.785
 5901SOL    HW218603   0.977   0.321   4.671
 5902SOL     OW18604   4.255   3.798   5.885
 5902SOL    HW118605   4.211   3.790   5.796
 5902SOL    HW218606   4.186   3.809   5.956
 5903SOL     OW18607   5.315   0.928   6.380
 5903SOL    HW118608   5.300   0.836   6.344
 5903SOL    HW218609   5.238   0.954   6.438
 5904SOL     OW18610   6.894   5.683   1.454
 5904SOL    HW118611   6.854   5.711   1.366
 5904SOL    HW218612   6.873   5.751   1.523
 5905SOL     OW18613   6.660   1.995   4.768
 5905SOL    HW118614   6.672   1.988   4.669
 5905SOL    HW218615   6.570   2.034   4.788
 5906SOL     OW18616   4.145   0.359   4.766
 5906SOL    HW118617   4.056   0.352   4.720
 5906SOL    HW218618   4.179   0.453   4.758
 5907SOL     OW18619   1.312   3.339   5.872
 5907SOL    HW118620   1.285   3.426   5.830
 5907SOL    HW218621   1.411   3.336   5.883
 5908SOL     OW18622   4.729   3.012   6.716
 5908SOL    HW118623   4.764   2.918   6.707
 5908SOL    HW218624   4.782   3.060   6.786
 5909SOL     OW18625   6.947   5.017   3.185
 5909SOL    HW118626   0.025   4.991   3.193
 5909SOL    HW218627   6.892   4.952   3.238
 5910SOL     OW18628   2.103   4.314   2.542
 5910SOL    HW118629   2.141   4.277   2.457
 5910SOL    HW218630   2.146   4.269   2.620
 5911SOL     OW18631   0.093   1.386   5.177
 5911SOL    HW118632   0.047   1.310   5.224
 5911SOL    HW218633   0.157   1.430   5.240
 5912SOL     OW18634   0.915   3.535   5.921
 5912SOL    HW118635   0.817   3.549   5.909
 5912SOL    HW218636   0.965   3.611   5.879
 5913SOL     OW18637   1.654   3.169   5.039
 5913SOL    HW118638   1.739   3.147   5.086
 5913SOL    HW218639   1.623   3.090   4.987
 5914SOL     OW18640   0.679   5.534   0.237
 5914SOL    HW118641   0.673   5.435   0.249
 5914SOL    HW218642   0.674   5.579   0.326
 5915SOL     OW18643   5.885   4.333   4.855
 5915SOL    HW118644   5.914   4.238   4.845
 5915SOL    HW218645   5.859   4.371   4.766
 5916SOL     OW18646   3.896   0.838   6.827
 5916SOL    HW118647   3.976   0.809   6.775
 5916SOL    HW218648   3.922   0.851   6.923
 5917SOL     OW18649   3.525   3.715   1.965
 5917SOL    HW118650   3.537   3.776   2.043
 5917SOL    HW218651   3.567   3.626   1.985
 5918SOL     OW18652   3.227   2.124   3.985
 5918SOL    HW118653   3.138   2.166   3.966
 5918SOL    HW218654   3.267   2.092   3.900
 5919SOL     OW18655   1.479   1.505   6.043
 5919SOL    HW118656   1.558   1.499   5.983
 5919SOL    HW218657   1.441   1.414   6.057
 5920SOL     OW18658   2.271   3.867   6.765
 5920SOL    HW118659   2.197   3.859   6.699
 5920SOL    HW218660   2.287   3.964   6.786
 5921SOL     OW18661   3.534   6.469   4.057
 5921SOL    HW118662   3.605   6.439   4.121
 5921SOL    HW218663   3.560   6.557   4.017
 5922SOL     OW18664   6.705   5.372   2.153
 5922SOL    HW118665   6.658   5.391   2.239
 5922SOL    HW218666   6.690   5.277   2.127
 5923SOL     OW18667   1.097   6.965   3.021
 5923SOL    HW118668   1.194   6.963   2.994
 5923SOL    HW218669   1.090   6.966   3.120
 5924SOL     OW18670   5.900   2.183   4.867
 5924SOL    HW118671   5.825   2.176   4.933
 5924SOL    HW218672   5.913   2.279   4.842
 5925SOL     OW18673   6.474   6.473   0.926
 5925SOL    HW118674   6.474   6.509   0.833
 5925SOL    HW218675   6.547   6.517   0.979
 5926SOL     OW18676   2.908   6.983   2.020
 5926SOL    HW118677   2.868   6.922   2.088
 5926SOL    HW218678   2.970   0.028   2.065
 5927SOL     OW18679   1.736   5.371   1.094
 5927SOL    HW118680   1.696   5.428   1.022
 5927SOL    HW218681   1.835   5.363   1.079
 5928SOL     OW18682   6.165   6.154   1.030
 5928SOL    HW118683   6.190   6.122   1.121
 5928SOL    HW218684   6.194   6.249   1.019
 5929SOL     OW18685   0.220   0.447   6.502
 5929SOL    HW118686   0.155   0.386   6.457
 5929SOL    HW218687   0.199   0.453   6.599
 5930SOL     OW18688   6.716   1.656   4.623
 5930SOL    HW118689   6.809   1.629   4.649
 5930SOL    HW218690   6.649   1.599   4.671
 5931SOL     OW18691   6.063   4.431   0.504
 5931SOL    HW118692   5.995   4.499   0.532
 5931SOL    HW218693   6.062   4.354   0.569
 5932SOL     OW18694   2.383   0.434   1.065
 5932SOL    HW118695   2.329   0.513   1.095
 5932SOL    HW218696   2.342   0.394   0.984
 5933SOL     OW18697   5.500   2.626   3.312
 5933SOL    HW118698   5.519   2.591   3.220
 5933SOL    HW218699   5.410   2.668   3.314
 5934SOL     OW18700   4.129   3.477   1.874
 5934SOL    HW118701   4.121   3.459   1.972
 5934SOL    HW218702   4.099   3.570   1.855
 5935SOL     OW18703   3.828   3.311   2.811
 5935SOL    HW118704   3.800   3.283   2.903
 5935SOL    HW218705   3.747   3.332   2.757
 5936SOL     OW18706   6.591   5.659   0.128
 5936SOL    HW118707   6.545   5.748   0.134
 5936SOL    HW218708   6.687   5.670   0.155
 5937SOL     OW18709   0.893   3.787   1.060
 5937SOL    HW118710   0.882   3.709   1.122
 5937SOL    HW218711   0.816   3.790   0.996
 5938SOL     OW18712   3.035   5.102   1.422
 5938SOL    HW118713   2.961   5.107   1.354
 5938SOL    HW218714   3.035   5.010   1.463
 5939SOL     OW18715   0.454   0.062   2.418
 5939SOL    HW118716   0.532   0.105   2.464
 5939SOL    HW218717   0.487   0.000   2.347
 5940SOL     OW18718   4.440   4.877   2.790
 5940SOL    HW118719   4.537   4.879   2.814
 5940SOL    HW218720   4.414   4.963   2.747
 5941SOL     OW18721   6.271   3.008   3.995
 5941SOL    HW118722   6.243   2.933   3.935
 5941SOL    HW218723   6.212   3.010   4.076
 5942SOL     OW18724   0.208   1.844   5.140
 5942SOL    HW118725   0.148   1.812   5.067
 5942SOL    HW218726   0.300   1.807   5.127
 5943SOL     OW18727   1.773   6.208   1.193
 5943SOL    HW118728   1.735   6.127   1.148
 5943SOL    HW218729   1.756   6.203   1.292
 5944SOL     OW18730   5.240   2.878   2.966
 5944SOL    HW118731   5.229   2.802   2.902
 5944SOL    HW218732   5.260   2.962   2.914
 5945SOL     OW18733   6.374   6.065   6.334
 5945SOL    HW118734   6.456   6.079   6.277
 5945SOL    HW218735   6.305   6.133   6.309
 5946SOL     OW18736   4.123   2.257   5.510
 5946SOL    HW118737   4.032   2.254   5.467
 5946SOL    HW218738   4.121   2.205   5.595
 5947SOL     OW18739   5.999   3.962   2.773
 5947SOL    HW118740   5.987   4.022   2.852
 5947SOL    HW218741   5.959   4.006   2.692
 5948SOL     OW18742   2.339   5.574   3.140
 5948SOL    HW118743   2.432   5.596   3.170
 5948SOL    HW218744   2.274   5.599   3.211
 5949SOL     OW18745   5.056   4.075   3.091
 5949SOL    HW118746   5.080   3.986   3.053
 5949SOL    HW218747   4.957   4.089   3.083
 5950SOL     OW18748   0.473   1.777   5.058
 5950SOL    HW118749   0.460   1.871   5.028
 5950SOL    HW218750   0.568   1.750   5.043
 5951SOL     OW18751   2.100   0.480   3.235
 5951SOL    HW118752   2.088   0.434   3.322
 5951SOL    HW218753   2.085   0.578   3.246
 5952SOL     OW18754   0.102   6.651   4.242
 5952SOL    HW118755   0.096   6.552   4.230
 5952SOL    HW218756   0.012   6.687   4.267
 5953SOL     OW18757   1.681   4.062   5.936
 5953SOL    HW118758   1.761   4.008   5.909
 5953SOL    HW218759   1.602   4.035   5.880
 5954SOL     OW18760   1.370   4.122   6.401
 5954SOL    HW118761   1.445   4.161   6.347
 5954SOL    HW218762   1.395   4.119   6.497
 5955SOL     OW18763   3.639   5.432   2.081
 5955SOL    HW118764   3.692   5.391   2.006
 5955SOL    HW218765   3.581   5.504   2.044
 5956SOL     OW18766   0.466   1.692   0.749
 5956SOL    HW118767   0.450   1.606   0.797
 5956SOL    HW218768   0.503   1.759   0.813
 5957SOL     OW18769   4.140   6.648   6.411
 5957SOL    HW118770   4.234   6.667   6.386
 5957SOL    HW218771   4.084   6.641   6.329
 5958SOL     OW18772   0.803   5.913   2.212
 5958SOL    HW118773   0.836   6.008   2.210
 5958SOL    HW218774   0.858   5.857   2.150
 5959SOL     OW18775   1.600   0.401   5.516
 5959SOL    HW118776   1.638   0.466   5.582
 5959SOL    HW218777   1.547   0.451   5.448
 5960SOL     OW18778   3.456   5.938   5.224
 5960SOL    HW118779   3.363   5.965   5.250
 5960SOL    HW218780   3.512   6.019   5.211
 5961SOL     OW18781   3.153   0.762   5.168
 5961SOL    HW118782   3.234   0.711   5.142
 5961SOL    HW218783   3.180   0.853   5.201
 5962SOL     OW18784   5.609   4.177   3.407
 5962SOL    HW118785   5.537   4.116   3.441
 5962SOL    HW218786   5.695   4.155   3.451
 5963SOL     OW18787   4.251   4.114   1.687
 5963SOL    HW118788   4.151   4.111   1.698
 5963SOL    HW218789   4.292   4.154   1.768
 5964SOL     OW18790   1.537   3.391   4.974
 5964SOL    HW118791   1.458   3.369   4.917
 5964SOL    HW218792   1.577   3.306   5.009
 5965SOL     OW18793   2.091   2.244   4.556
 5965SOL    HW118794   2.003   2.259   4.602
 5965SOL    HW218795   2.165   2.247   4.624
 5966SOL     OW18796   1.228   5.514   4.082
 5966SOL    HW118797   1.171   5.533   4.163
 5966SOL    HW218798   1.283   5.595   4.061
 5967SOL     OW18799   5.222   5.807   0.947
 5967SOL    HW118800   5.143   5.747   0.944
 5967SOL    HW218801   5.306   5.753   0.940
 5968SOL     OW18802   2.314   1.967   4.214
 5968SOL    HW118803   2.338   2.052   4.166
 5968SOL    HW218804   2.271   1.904   4.149
 5969SOL     OW18805   0.899   2.332   2.814
 5969SOL    HW118806   0.817   2.349   2.760
 5969SOL    HW218807   0.927   2.416   2.861
 5970SOL     OW18808   2.057   4.204   3.333
 5970SOL    HW118809   2.065   4.141   3.410
 5970SOL    HW218810   1.998   4.281   3.360
 5971SOL     OW18811   3.268   5.520   3.605
 5971SOL    HW118812   3.199   5.540   3.675
 5971SOL    HW218813   3.322   5.603   3.587
 5972SOL     OW18814   5.071   0.091   1.584
 5972SOL    HW118815   4.983   0.044   1.588
 5972SOL    HW218816   5.138   0.033   1.537
 5973SOL     OW18817   2.964   4.866   3.508
 5973SOL    HW118818   2.936   4.923   3.586
 5973SOL    HW218819   2.892   4.801   3.486
 5974SOL     OW18820   0.773   4.100   6.580
 5974SOL    HW118821   0.851   4.043   6.605
 5974SOL    HW218822   0.761   4.098   6.481
 5975SOL     OW18823   2.110   2.529   6.621
 5975SOL    HW118824   2.104   2.580   6.707
 5975SOL    HW218825   2.200   2.486   6.614
 5976SOL     OW18826   3.251   4.079   4.217
 5976SOL    HW118827   3.293   4.128   4.293
 5976SOL    HW218828   3.165   4.039   4.246
 5977SOL     OW18829   0.352   3.754   2.854
 5977SOL    HW118830   0.257   3.763   2.825
 5977SOL    HW218831   0.411   3.806   2.793
 5978SOL     OW18832   5.119   5.186   1.081
 5978SOL    HW118833   5.140   5.170   0.985
 5978SOL    HW218834   5.055   5.116   1.113
 5979SOL     OW18835   1.078   1.205   1.795
 5979SOL    HW118836   1.046   1.295   1.824
 5979SOL    HW218837   0.999   1.146   1.779
 5980SOL     OW18838   5.735   2.643   4.878
 5980SOL    HW118839   5.666   2.589   4.830
 5980SOL    HW218840   5.700   2.670   4.968
 5981SOL     OW18841   3.471   2.061   0.772
 5981SOL    HW118842   3.430   2.072   0.682
 5981SOL    HW218843   3.493   2.151   0.810
 5982SOL     OW18844   6.309   2.695   6.819
 5982SOL    HW118845   6.253   2.778   6.813
 5982SOL    HW218846   6.285   2.645   6.902
 5983SOL     OW18847   0.177   1.171   4.128
 5983SOL    HW118848   0.221   1.114   4.059
 5983SOL    HW218849   0.081   1.186   4.103
 5984SOL     OW18850   0.261   0.131   6.160
 5984SOL    HW118851   0.230   0.038   6.139
 5984SOL    HW218852   0.289   0.135   6.256
 5985SOL     OW18853   6.029   3.610   3.784
 5985SOL    HW118854   6.023   3.595   3.685
 5985SOL    HW218855   6.114   3.571   3.818
 5986SOL     OW18856   3.354   3.493   2.415
 5986SOL    HW118857   3.421   3.553   2.458
 5986SOL    HW218858   3.397   3.441   2.342
 5987SOL     OW18859   3.771   0.294   5.071
 5987SOL    HW118860   3.796   0.379   5.117
 5987SOL    HW218861   3.686   0.307   5.019
 5988SOL     OW18862   3.086   6.637   5.699
 5988SOL    HW118863   3.179   6.627   5.732
 5988SOL    HW218864   3.055   6.731   5.713
 5989SOL     OW18865   3.195   1.434   6.434
 5989SOL    HW118866   3.125   1.363   6.423
 5989SOL    HW218867   3.152   1.524   6.429
 5990SOL     OW18868   2.454   6.123   3.342
 5990SOL    HW118869   2.489   6.060   3.411
 5990SOL    HW218870   2.498   6.212   3.352
 5991SOL     OW18871   4.020   4.891   2.903
 5991SOL    HW118872   4.050   4.968   2.959
 5991SOL    HW218873   4.064   4.896   2.813
 5992SOL     OW18874   3.791   1.740   3.969
 5992SOL    HW118875   3.723   1.810   3.990
 5992SOL    HW218876   3.881   1.783   3.957
 5993SOL     OW18877   2.644   5.679   4.060
 5993SOL    HW118878   2.566   5.667   3.999
 5993SOL    HW218879   2.615   5.727   4.143
 5994SOL     OW18880   6.157   2.414   0.585
 5994SOL    HW118881   6.210   2.437   0.504
 5994SOL    HW218882   6.108   2.495   0.617
 5995SOL     OW18883   0.380   3.695   1.658
 5995SOL    HW118884   0.298   3.738   1.696
 5995SOL    HW218885   0.410   3.746   1.577
 5996SOL     OW18886   1.373   5.885   6.031
 5996SOL    HW118887   1.391   5.831   5.949
 5996SOL    HW218888   1.292   5.942   6.016
 5997SOL     OW18889   0.238   0.209   1.537
 5997SOL    HW118890   0.211   0.304   1.526
 5997SOL    HW218891   0.337   0.201   1.524
 5998SOL     OW18892   5.030   3.409   3.198
 5998SOL    HW118893   5.038   3.433   3.101
 5998SOL    HW218894   5.016   3.493   3.252
 5999SOL     OW18895   2.229   3.050   3.080
 5999SOL    HW118896   2.186   3.140   3.083
 5999SOL    HW218897   2.246   3.018   3.173
 6000SOL     OW18898   5.180   1.200   3.773
 6000SOL    HW118899   5.134   1.259   3.840
 6000SOL    HW218900   5.272   1.236   3.755
 6001SOL     OW18901   5.030   1.433   0.183
 6001SOL    HW118902   5.030   1.532   0.190
 6001SOL    HW218903   5.124   1.400   0.171
 6002SOL     OW18904   2.214   0.059   1.995
 6002SOL    HW118905   2.302   0.054   1.950
 6002SOL    HW218906   2.155   7.005   1.962
 6003SOL     OW18907   5.259   4.458   3.766
 6003SOL    HW118908   5.348   4.473   3.723
 6003SOL    HW218909   5.271   4.447   3.865
 6004SOL     OW18910   0.746   3.577   2.128
 6004SOL    HW118911   0.766   3.509   2.058
 6004SOL    HW218912   0.828   3.594   2.183
 6005SOL     OW18913   2.417   6.570   2.225
 6005SOL    HW118914   2.451   6.646   2.170
 6005SOL    HW218915   2.462   6.571   2.314
 6006SOL     OW18916   2.106   6.121   6.317
 6006SOL    HW118917   2.020   6.164   6.345
 6006SOL    HW218918   2.090   6.062   6.238
 6007SOL     OW18919   5.590   3.751   4.638
 6007SOL    HW118920   5.510   3.729   4.693
 6007SOL    HW218921   5.658   3.796   4.695
 6008SOL     OW18922   5.074   3.963   2.050
 6008SOL    HW118923   5.123   3.911   2.120
 6008SOL    HW218924   4.975   3.945   2.057
 6009SOL     OW18925   3.360   1.647   4.924
 6009SOL    HW118926   3.309   1.624   4.841
 6009SOL    HW218927   3.314   1.721   4.972
 6010SOL     OW18928   1.908   5.241   3.501
 6010SOL    HW118929   1.901   5.318   3.564
 6010SOL    HW218930   1.895   5.156   3.551
 6011SOL     OW18931   6.629   2.278   1.455
 6011SOL    HW118932   6.709   2.224   1.484
 6011SOL    HW218933   6.593   2.329   1.532
 6012SOL     OW18934   0.762   2.361   0.910
 6012SOL    HW118935   0.799   2.290   0.970
 6012SOL    HW218936   0.664   2.373   0.930
 6013SOL     OW18937   5.245   1.137   2.470
 6013SOL    HW118938   5.252   1.142   2.570
 6013SOL    HW218939   5.223   1.044   2.442
 6014SOL     OW18940   6.159   1.685   0.240
 6014SOL    HW118941   6.089   1.754   0.219
 6014SOL    HW218942   6.178   1.686   0.338
 6015SOL     OW18943   5.956   6.783   4.403
 6015SOL    HW118944   6.052   6.785   4.373
 6015SOL    HW218945   5.949   6.729   4.486
 6016SOL     OW18946   1.223   0.187   5.545
 6016SOL    HW118947   1.172   0.114   5.591
 6016SOL    HW218948   1.307   0.150   5.506
 6017SOL     OW18949   0.137   3.534   2.397
 6017SOL    HW118950   0.139   3.543   2.297
 6017SOL    HW218951   0.147   3.625   2.439
 6018SOL     OW18952   3.317   4.799   1.993
 6018SOL    HW118953   3.304   4.748   1.908
 6018SOL    HW218954   3.410   4.783   2.027
 6019SOL     OW18955   6.947   6.840   3.732
 6019SOL    HW118956   6.980   6.772   3.797
 6019SOL    HW218957   6.847   6.835   3.727
 6020SOL     OW18958   2.562   6.518   3.125
 6020SOL    HW118959   2.529   6.567   3.045
 6020SOL    HW218960   2.589   6.583   3.196
 6021SOL     OW18961   2.940   1.047   3.382
 6021SOL    HW118962   2.926   1.124   3.320
 6021SOL    HW218963   2.869   0.978   3.367
 6022SOL     OW18964   3.452   2.050   5.900
 6022SOL    HW118965   3.524   1.982   5.888
 6022SOL    HW218966   3.365   2.014   5.865
 6023SOL     OW18967   0.486   2.060   1.902
 6023SOL    HW118968   0.394   2.098   1.899
 6023SOL    HW218969   0.481   1.963   1.928
 6024SOL     OW18970   5.990   4.673   2.055
 6024SOL    HW118971   6.008   4.575   2.070
 6024SOL    HW218972   5.927   4.706   2.125
 6025SOL     OW18973   4.444   2.370   2.395
 6025SOL    HW118974   4.514   2.346   2.329
 6025SOL    HW218975   4.392   2.450   2.363
 6026SOL     OW18976   1.069   4.039   5.397
 6026SOL    HW118977   1.004   4.021   5.323
 6026SOL    HW218978   1.080   4.138   5.407
 6027SOL     OW18979   3.953   4.109   0.296
 6027SOL    HW118980   3.899   4.073   0.373
 6027SOL    HW218981   3.891   4.146   0.227
 6028SOL     OW18982   1.106   3.948   5.667
 6028SOL    HW118983   1.095   3.983   5.574
 6028SOL    HW218984   1.131   4.023   5.728
 6029SOL     OW18985   1.104   5.128   1.468
 6029SOL    HW118986   1.200   5.158   1.471
 6029SOL    HW218987   1.053   5.188   1.407
 6030SOL     OW18988   1.982   6.487   1.822
 6030SOL    HW118989   1.893   6.487   1.869
 6030SOL    HW218990   2.003   6.395   1.791
 6031SOL     OW18991   4.357   0.829   4.609
 6031SOL    HW118992   4.368   0.897   4.536
 6031SOL    HW218993   4.447   0.797   4.638
 6032SOL     OW18994   1.312   2.739   2.142
 6032SOL    HW118995   1.284   2.674   2.071
 6032SOL    HW218996   1.379   2.803   2.104
 6033SOL     OW18997   6.951   0.093   4.271
 6033SOL    HW118998   6.952   0.115   4.173
 6033SOL    HW218999   6.992   0.003   4.286
 6034SOL     OW19000   2.823   4.854   4.444
 6034SOL    HW119001   2.911   4.824   4.480
 6034SOL    HW219002   2.749   4.813   4.498
 6035SOL     OW19003   4.918   0.172   3.869
 6035SOL    HW119004   4.895   0.227   3.789
 6035SOL    HW219005   4.840   0.170   3.931
 6036SOL     OW19006   5.287   0.923   5.462
 6036SOL    HW119007   5.266   0.832   5.426
 6036SOL    HW219008   5.348   0.971   5.399
 6037SOL     OW19009   0.187   5.292   4.771
 6037SOL    HW119010   0.223   5.253   4.856
 6037SOL    HW219011   0.177   5.220   4.702
 6038SOL     OW19012   6.941   3.437   6.517
 6038SOL    HW119013   7.016   3.443   6.451
 6038SOL    HW219014   6.979   3.431   6.610
 6039SOL     OW19015   3.176   3.528   3.800
 6039SOL    HW119016   3.078   3.537   3.784
 6039SOL    HW219017   3.227   3.554   3.718
 6040SOL     OW19018   1.541   1.010   0.893
 6040SOL    HW119019   1.507   0.925   0.853
 6040SOL    HW219020   1.588   1.064   0.823
 6041SOL     OW19021   0.663   3.165   6.415
 6041SOL    HW119022   0.745   3.124   6.455
 6041SOL    HW219023   0.688   3.249   6.366
 6042SOL     OW19024   5.641   5.833   4.990
 6042SOL    HW119025   5.672   5.788   4.907
 6042SOL    HW219026   5.719   5.848   5.051
 6043SOL     OW19027   6.697   4.637   3.292
 6043SOL    HW119028   6.796   4.624   3.287
 6043SOL    HW219029   6.651   4.567   3.238
 6044SOL     OW19030   1.477   0.793   0.717
 6044SOL    HW119031   1.556   0.775   0.660
 6044SOL    HW219032   1.400   0.822   0.660
 6045SOL     OW19033   5.795   3.665   6.610
 6045SOL    HW119034   5.774   3.596   6.679
 6045SOL    HW219035   5.834   3.746   6.655
 6046SOL     OW19036   0.866   3.616   6.956
 6046SOL    HW119037   0.873   3.697   6.898
 6046SOL    HW219038   0.838   3.537   6.901
 6047SOL     OW19039   0.951   6.423   4.938
 6047SOL    HW119040   1.025   6.490   4.926
 6047SOL    HW219041   0.980   6.334   4.902
 6048SOL     OW19042   5.046   6.559   4.370
 6048SOL    HW119043   5.126   6.522   4.416
 6048SOL    HW219044   4.983   6.485   4.348
 6049SOL     OW19045   6.923   5.696   0.543
 6049SOL    HW119046   6.989   5.637   0.497
 6049SOL    HW219047   6.844   5.642   0.571
 6050SOL     OW19048   5.468   4.392   5.261
 6050SOL    HW119049   5.380   4.344   5.255
 6050SOL    HW219050   5.459   4.469   5.325
 6051SOL     OW19051   2.570   2.039   3.386
 6051SOL    HW119052   2.614   2.016   3.473
 6051SOL    HW219053   2.483   1.990   3.379
 6052SOL     OW19054   0.632   2.068   6.680
 6052SOL    HW119055   0.660   2.164   6.684
 6052SOL    HW219056   0.570   2.048   6.755
 6053SOL     OW19057   0.685   0.360   6.397
 6053SOL    HW119058   0.599   0.312   6.378
 6053SOL    HW219059   0.718   0.335   6.488
 6054SOL     OW19060   0.658   3.680   6.271
 6054SOL    HW119061   0.649   3.762   6.216
 6054SOL    HW219062   0.743   3.683   6.323
 6055SOL     OW19063   5.714   6.710   2.641
 6055SOL    HW119064   5.729   6.795   2.590
 6055SOL    HW219065   5.671   6.643   2.582
 6056SOL     OW19066   5.172   2.803   6.340
 6056SOL    HW119067   5.151   2.873   6.272
 6056SOL    HW219068   5.270   2.798   6.355
 6057SOL     OW19069   5.022   0.801   6.511
 6057SOL    HW119070   5.101   0.766   6.562
 6057SOL    HW219071   4.947   0.734   6.515
 6058SOL     OW19072   5.320   2.586   5.758
 6058SOL    HW119073   5.254   2.545   5.696
 6058SOL    HW219074   5.288   2.677   5.785
 6059SOL     OW19075   0.181   6.287   6.837
 6059SOL    HW119076   0.168   6.351   6.913
 6059SOL    HW219077   0.278   6.278   6.816
 6060SOL     OW19078   3.292   5.798   6.490
 6060SOL    HW119079   3.333   5.824   6.402
 6060SOL    HW219080   3.322   5.706   6.515
 6061SOL     OW19081   2.298   1.257   6.641
 6061SOL    HW119082   2.321   1.343   6.686
 6061SOL    HW219083   2.277   1.275   6.545
 6062SOL     OW19084   1.290   6.726   3.299
 6062SOL    HW119085   1.242   6.707   3.213
 6062SOL    HW219086   1.224   6.755   3.368
 6063SOL     OW19087   5.834   6.358   6.764
 6063SOL    HW119088   5.818   6.259   6.761
 6063SOL    HW219089   5.929   6.377   6.742
 6064SOL     OW19090   0.747   5.616   2.018
 6064SOL    HW119091   0.728   5.560   1.937
 6064SOL    HW219092   0.667   5.616   2.078
 6065SOL     OW19093   5.095   6.836   1.031
 6065SOL    HW119094   5.148   6.884   0.961
 6065SOL    HW219095   5.091   6.893   1.113
 6066SOL     OW19096   4.856   2.078   5.894
 6066SOL    HW119097   4.834   2.170   5.928
 6066SOL    HW219098   4.773   2.023   5.889
 6067SOL     OW19099   5.286   1.378   0.099
 6067SOL    HW119100   5.275   1.421   0.009
 6067SOL    HW219101   5.361   1.312   0.094
 6068SOL     OW19102   4.975   0.933   5.469
 6068SOL    HW119103   4.956   0.837   5.450
 6068SOL    HW219104   5.074   0.946   5.475
 6069SOL     OW19105   0.095   5.206   3.437
 6069SOL    HW119106   0.074   5.293   3.483
 6069SOL    HW219107   0.088   5.219   3.338
 6070SOL     OW19108   4.914   3.437   1.403
 6070SOL    HW119109   4.921   3.383   1.487
 6070SOL    HW219110   4.827   3.416   1.358
 6071SOL     OW19111   5.566   0.832   5.066
 6071SOL    HW119112   5.558   0.752   5.124
 6071SOL    HW219113   5.581   0.913   5.123
 6072SOL     OW19114   5.933   1.141   1.821
 6072SOL    HW119115   5.843   1.113   1.854
 6072SOL    HW219116   5.959   1.085   1.742
 6073SOL     OW19117   5.715   0.963   1.004
 6073SOL    HW119118   5.806   1.000   0.987
 6073SOL    HW219119   5.646   1.028   0.972
 6074SOL     OW19120   0.379   1.071   5.721
 6074SOL    HW119121   0.330   1.127   5.653
 6074SOL    HW219122   0.473   1.058   5.692
 6075SOL     OW19123   5.184   3.422   5.897
 6075SOL    HW119124   5.111   3.355   5.907
 6075SOL    HW219125   5.248   3.392   5.827
 6076SOL     OW19126   3.277   0.532   3.782
 6076SOL    HW119127   3.373   0.508   3.793
 6076SOL    HW219128   3.232   0.466   3.722
 6077SOL     OW19129   5.003   5.165   3.119
 6077SOL    HW119130   5.098   5.132   3.118
 6077SOL    HW219131   4.971   5.170   3.214
 6078SOL     OW19132   2.195   4.937   4.801
 6078SOL    HW119133   2.193   5.008   4.872
 6078SOL    HW219134   2.180   4.847   4.843
 6079SOL     OW19135   3.330   2.099   0.539
 6079SOL    HW119136   3.232   2.078   0.529
 6079SOL    HW219137   3.341   2.198   0.551
 6080SOL     OW19138   6.294   3.497   3.745
 6080SOL    HW119139   6.367   3.436   3.774
 6080SOL    HW219140   6.242   3.454   3.671
 6081SOL     OW19141   0.979   4.629   1.781
 6081SOL    HW119142   1.038   4.685   1.724
 6081SOL    HW219143   0.960   4.542   1.735
 6082SOL     OW19144   4.643   1.725   5.408
 6082SOL    HW119145   4.689   1.797   5.460
 6082SOL    HW219146   4.711   1.673   5.356
 6083SOL     OW19147   1.561   6.413   6.947
 6083SOL    HW119148   1.464   6.432   6.931
 6083SOL    HW219149   1.601   6.370   6.866
 6084SOL     OW19150   0.359   5.999   6.283
 6084SOL    HW119151   0.423   5.950   6.342
 6084SOL    HW219152   0.371   5.969   6.188
 6085SOL     OW19153   5.515   4.700   1.861
 6085SOL    HW119154   5.477   4.607   1.851
 6085SOL    HW219155   5.614   4.694   1.870
 6086SOL     OW19156   3.210   2.111   1.722
 6086SOL    HW119157   3.152   2.055   1.781
 6086SOL    HW219158   3.303   2.112   1.758
 6087SOL     OW19159   3.402   0.751   0.501
 6087SOL    HW119160   3.457   0.821   0.548
 6087SOL    HW219161   3.431   0.746   0.406
 6088SOL     OW19162   0.846   1.089   4.385
 6088SOL    HW119163   0.807   1.181   4.382
 6088SOL    HW219164   0.858   1.061   4.480
 6089SOL     OW19165   0.250   3.497   1.247
 6089SOL    HW119166   0.316   3.511   1.320
 6089SOL    HW219167   0.171   3.557   1.261
 6090SOL     OW19168   6.422   6.567   4.153
 6090SOL    HW119169   6.475   6.515   4.086
 6090SOL    HW219170   6.483   6.627   4.205
 6091SOL     OW19171   6.607   1.952   2.487
 6091SOL    HW119172   6.521   1.917   2.524
 6091SOL    HW219173   6.599   2.051   2.473
 6092SOL     OW19174   0.395   3.149   1.043
 6092SOL    HW119175   0.340   3.077   1.086
 6092SOL    HW219176   0.340   3.233   1.037
 6093SOL     OW19177   0.966   4.251   0.653
 6093SOL    HW119178   0.954   4.331   0.711
 6093SOL    HW219179   1.040   4.195   0.688
 6094SOL     OW19180   0.538   1.345   1.099
 6094SOL    HW119181   0.576   1.371   1.010
 6094SOL    HW219182   0.484   1.261   1.089
 6095SOL     OW19183   0.719   3.833   5.132
 6095SOL    HW119184   0.708   3.774   5.212
 6095SOL    HW219185   0.651   3.907   5.135
 6096SOL     OW19186   5.663   2.070   2.794
 6096SOL    HW119187   5.584   2.112   2.749
 6096SOL    HW219188   5.737   2.060   2.728
 6097SOL     OW19189   3.994   1.273   2.728
 6097SOL    HW119190   3.944   1.356   2.704
 6097SOL    HW219191   3.956   1.196   2.677
 6098SOL     OW19192   0.450   1.061   6.918
 6098SOL    HW119193   0.351   1.066   6.930
 6098SOL    HW219194   0.476   0.970   6.884
 6099SOL     OW19195   5.745   4.336   4.604
 6099SOL    HW119196   5.703   4.427   4.596
 6099SOL    HW219197   5.793   4.313   4.520
 6100SOL     OW19198   0.078   2.984   1.417
 6100SOL    HW119199   0.139   2.924   1.468
 6100SOL    HW219200   7.002   2.968   1.445
 6101SOL     OW19201   6.386   6.481   3.351
 6101SOL    HW119202   6.363   6.412   3.282
 6101SOL    HW219203   6.302   6.518   3.391
 6102SOL     OW19204   3.682   6.104   4.951
 6102SOL    HW119205   3.673   6.128   5.048
 6102SOL    HW219206   3.601   6.136   4.902
 6103SOL     OW19207   5.292   1.877   4.779
 6103SOL    HW119208   5.365   1.834   4.725
 6103SOL    HW219209   5.205   1.833   4.758
 6104SOL     OW19210   2.510   2.720   1.260
 6104SOL    HW119211   2.607   2.741   1.274
 6104SOL    HW219212   2.456   2.803   1.275
 6105SOL     OW19213   3.473   5.260   4.803
 6105SOL    HW119214   3.466   5.182   4.741
 6105SOL    HW219215   3.386   5.272   4.852
 6106SOL     OW19216   2.020   5.460   4.355
 6106SOL    HW119217   2.106   5.437   4.401
 6106SOL    HW219218   1.990   5.383   4.299
 6107SOL     OW19219   1.876   4.894   6.173
 6107SOL    HW119220   1.810   4.898   6.098
 6107SOL    HW219221   1.841   4.833   6.244
 6108SOL     OW19222   5.494   1.664   4.690
 6108SOL    HW119223   5.584   1.691   4.655
 6108SOL    HW219224   5.504   1.584   4.749
 6109SOL     OW19225   0.524   4.622   1.961
 6109SOL    HW119226   0.438   4.672   1.967
 6109SOL    HW219227   0.578   4.637   2.044
 6110SOL     OW19228   3.118   2.057   3.523
 6110SOL    HW119229   3.059   1.980   3.503
 6110SOL    HW219230   3.177   2.076   3.444
 6111SOL     OW19231   0.678   4.794   3.695
 6111SOL    HW119232   0.745   4.776   3.623
 6111SOL    HW219233   0.652   4.891   3.693
 6112SOL     OW19234   1.901   0.837   1.240
 6112SOL    HW119235   1.814   0.792   1.255
 6112SOL    HW219236   1.886   0.934   1.219
 6113SOL     OW19237   0.913   4.891   5.815
 6113SOL    HW119238   0.890   4.961   5.883
 6113SOL    HW219239   1.012   4.887   5.804
 6114SOL     OW19240   3.726   4.404   1.183
 6114SOL    HW119241   3.787   4.483   1.175
 6114SOL    HW219242   3.766   4.339   1.248
 6115SOL     OW19243   0.166   4.091   2.645
 6115SOL    HW119244   0.191   4.169   2.702
 6115SOL    HW219245   0.081   4.051   2.678
 6116SOL     OW19246   4.133   2.427   1.216
 6116SOL    HW119247   4.147   2.328   1.225
 6116SOL    HW219248   4.160   2.457   1.125
 6117SOL     OW19249   5.248   6.407   4.513
 6117SOL    HW119250   5.261   6.325   4.458
 6117SOL    HW219251   5.332   6.461   4.511
 6118SOL     OW19252   6.578   0.213   3.491
 6118SOL    HW119253   6.601   0.123   3.526
 6118SOL    HW219254   6.518   0.261   3.555
 6119SOL     OW19255   5.793   4.973   5.133
 6119SOL    HW119256   5.820   4.980   5.037
 6119SOL    HW219257   5.860   4.917   5.183
 6120SOL     OW19258   2.574   2.082   2.545
 6120SOL    HW119259   2.572   2.091   2.645
 6120SOL    HW219260   2.637   2.149   2.506
 6121SOL     OW19261   0.110   1.887   3.062
 6121SOL    HW119262   0.114   1.833   3.146
 6121SOL    HW219263   0.087   1.982   3.086
 6122SOL     OW19264   4.022   5.696   4.236
 6122SOL    HW119265   4.021   5.796   4.234
 6122SOL    HW219266   3.965   5.664   4.311
 6123SOL     OW19267   6.788   2.009   2.790
 6123SOL    HW119268   6.696   2.048   2.792
 6123SOL    HW219269   6.823   2.013   2.696
 6124SOL     OW19270   3.048   0.452   4.752
 6124SOL    HW119271   3.022   0.538   4.709
 6124SOL    HW219272   2.995   0.441   4.837
 6125SOL     OW19273   1.219   4.321   2.620
 6125SOL    HW119274   1.146   4.255   2.640
 6125SOL    HW219275   1.184   4.414   2.631
 6126SOL     OW19276   3.413   6.855   3.111
 6126SOL    HW119277   3.425   6.783   3.180
 6126SOL    HW219278   3.316   6.877   3.102
 6127SOL     OW19279   1.984   5.585   0.893
 6127SOL    HW119280   1.970   5.486   0.897
 6127SOL    HW219281   2.072   5.605   0.849
 6128SOL     OW19282   5.635   4.091   1.971
 6128SOL    HW119283   5.722   4.062   1.930
 6128SOL    HW219284   5.653   4.133   2.060
 6129SOL     OW19285   6.572   3.886   3.610
 6129SOL    HW119286   6.602   3.933   3.693
 6129SOL    HW219287   6.564   3.952   3.535
 6130SOL     OW19288   6.134   3.228   2.671
 6130SOL    HW119289   6.159   3.324   2.664
 6130SOL    HW219290   6.036   3.220   2.690
 6131SOL     OW19291   0.075   1.745   5.368
 6131SOL    HW119292   0.120   1.780   5.286
 6131SOL    HW219293   7.006   1.791   5.381
 6132SOL     OW19294   0.042   2.957   0.425
 6132SOL    HW119295   0.011   2.882   0.365
 6132SOL    HW219296   0.069   2.920   0.514
 6133SOL     OW19297   1.466   4.800   0.825
 6133SOL    HW119298   1.409   4.749   0.760
 6133SOL    HW219299   1.432   4.785   0.918
 6134SOL     OW19300   4.385   4.096   6.269
 6134SOL    HW119301   4.286   4.089   6.287
 6134SOL    HW219302   4.400   4.097   6.170
 6135SOL     OW19303   5.680   6.164   1.975
 6135SOL    HW119304   5.736   6.168   2.058
 6135SOL    HW219305   5.707   6.238   1.914
 6136SOL     OW19306   1.498   2.221   2.221
 6136SOL    HW119307   1.483   2.317   2.199
 6136SOL    HW219308   1.591   2.208   2.254
 6137SOL     OW19309   2.998   0.322   6.095
 6137SOL    HW119310   2.999   0.355   6.189
 6137SOL    HW219311   2.906   0.293   6.071
 6138SOL     OW19312   4.604   0.512   3.543
 6138SOL    HW119313   4.617   0.473   3.634
 6138SOL    HW219314   4.693   0.539   3.505
 6139SOL     OW19315   2.539   6.318   3.621
 6139SOL    HW119316   2.568   6.369   3.540
 6139SOL    HW219317   2.577   6.225   3.617
 6140SOL     OW19318   2.207   5.541   1.458
 6140SOL    HW119319   2.222   5.516   1.553
 6140SOL    HW219320   2.170   5.462   1.408
 6141SOL     OW19321   0.593   6.304   4.577
 6141SOL    HW119322   0.590   6.207   4.601
 6141SOL    HW219323   0.510   6.349   4.610
 6142SOL     OW19324   0.288   3.010   4.088
 6142SOL    HW119325   0.376   3.008   4.042
 6142SOL    HW219326   0.256   3.105   4.093
 6143SOL     OW19327   6.741   5.724   6.718
 6143SOL    HW119328   6.805   5.788   6.761
 6143SOL    HW219329   6.660   5.774   6.687
 6144SOL     OW19330   0.322   5.703   4.859
 6144SOL    HW119331   0.264   5.762   4.803
 6144SOL    HW219332   0.295   5.712   4.955
 6145SOL     OW19333   5.749   5.268   3.476
 6145SOL    HW119334   5.825   5.245   3.414
 6145SOL    HW219335   5.784   5.280   3.568
 6146SOL     OW19336   5.944   1.601   3.892
 6146SOL    HW119337   5.925   1.556   3.979
 6146SOL    HW219338   5.879   1.676   3.878
 6147SOL     OW19339   1.294   3.896   3.748
 6147SOL    HW119340   1.323   3.823   3.809
 6147SOL    HW219341   1.198   3.917   3.765
 6148SOL     OW19342   5.950   6.669   3.543
 6148SOL    HW119343   6.002   6.598   3.495
 6148SOL    HW219344   5.918   6.737   3.478
 6149SOL     OW19345   0.767   5.645   4.421
 6149SOL    HW119346   0.811   5.679   4.338
 6149SOL    HW219347   0.701   5.574   4.398
 6150SOL     OW19348   4.571   6.953   6.503
 6150SOL    HW119349   4.668   6.937   6.485
 6150SOL    HW219350   4.550   0.031   6.491
 6151SOL     OW19351   3.882   0.460   4.794
 6151SOL    HW119352   3.812   0.388   4.797
 6151SOL    HW219353   3.943   0.450   4.873
 6152SOL     OW19354   6.300   3.585   6.538
 6152SOL    HW119355   6.354   3.582   6.454
 6152SOL    HW219356   6.279   3.492   6.568
 6153SOL     OW19357   4.008   5.714   5.693
 6153SOL    HW119358   4.049   5.691   5.604
 6153SOL    HW219359   3.925   5.769   5.678
 6154SOL     OW19360   5.169   2.712   3.353
 6154SOL    HW119361   5.097   2.707   3.422
 6154SOL    HW219362   5.159   2.797   3.300
 6155SOL     OW19363   3.031   4.972   4.714
 6155SOL    HW119364   3.127   4.970   4.743
 6155SOL    HW219365   2.973   4.935   4.787
 6156SOL     OW19366   5.567   0.551   4.162
 6156SOL    HW119367   5.554   0.601   4.247
 6156SOL    HW219368   5.591   0.615   4.089
 6157SOL     OW19369   1.214   0.103   4.471
 6157SOL    HW119370   1.193   0.058   4.385
 6157SOL    HW219371   1.137   0.092   4.534
 6158SOL     OW19372   4.896   6.311   0.268
 6158SOL    HW119373   4.887   6.246   0.343
 6158SOL    HW219374   4.898   6.263   0.181
 6159SOL     OW19375   4.498   3.284   6.339
 6159SOL    HW119376   4.562   3.344   6.388
 6159SOL    HW219377   4.410   3.283   6.387
 6160SOL     OW19378   6.236   4.860   0.273
 6160SOL    HW119379   6.226   4.959   0.258
 6160SOL    HW219380   6.291   4.844   0.355
 6161SOL     OW19381   5.289   0.682   6.251
 6161SOL    HW119382   5.199   0.691   6.210
 6161SOL    HW219383   5.304   0.588   6.281
 6162SOL     OW19384   5.545   6.031   3.640
 6162SOL    HW119385   5.518   6.004   3.733
 6162SOL    HW219386   5.464   6.035   3.582
 6163SOL     OW19387   0.416   3.903   3.072
 6163SOL    HW119388   0.396   3.849   2.990
 6163SOL    HW219389   0.330   3.939   3.109
 6164SOL     OW19390   4.675   3.366   1.277
 6164SOL    HW119391   4.629   3.291   1.229
 6164SOL    HW219392   4.615   3.402   1.348
 6165SOL     OW19393   3.563   0.068   1.153
 6165SOL    HW119394   3.485   0.092   1.094
 6165SOL    HW219395   3.635   0.136   1.141
 6166SOL     OW19396   3.198   0.521   0.809
 6166SOL    HW119397   3.213   0.588   0.882
 6166SOL    HW219398   3.264   0.446   0.819
 6167SOL     OW19399   0.359   5.307   3.370
 6167SOL    HW119400   0.267   5.276   3.392
 6167SOL    HW219401   0.413   5.312   3.454
 6168SOL     OW19402   0.257   2.418   1.813
 6168SOL    HW119403   0.197   2.402   1.735
 6168SOL    HW219404   0.296   2.331   1.843
 6169SOL     OW19405   1.707   4.237   1.203
 6169SOL    HW119406   1.680   4.238   1.107
 6169SOL    HW219407   1.697   4.328   1.242
 6170SOL     OW19408   5.630   2.185   3.717
 6170SOL    HW119409   5.544   2.155   3.675
 6170SOL    HW219410   5.647   2.131   3.799
 6171SOL     OW19411   6.140   2.508   6.452
 6171SOL    HW119412   6.213   2.567   6.416
 6171SOL    HW219413   6.060   2.514   6.392
 6172SOL     OW19414   6.997   4.579   3.286
 6172SOL    HW119415   7.007   4.609   3.191
 6172SOL    HW219416   0.043   4.505   3.305
 6173SOL     OW19417   5.309   6.310   2.427
 6173SOL    HW119418   5.396   6.274   2.461
 6173SOL    HW219419   5.277   6.382   2.489
 6174SOL     OW19420   0.602   1.974   3.451
 6174SOL    HW119421   0.544   2.013   3.379
 6174SOL    HW219422   0.602   2.036   3.530
 6175SOL     OW19423   4.661   2.296   6.539
 6175SOL    HW119424   4.575   2.346   6.551
 6175SOL    HW219425   4.686   2.295   6.443
 6176SOL     OW19426   2.376   5.180   6.034
 6176SOL    HW119427   2.441   5.119   6.078
 6176SOL    HW219428   2.344   5.140   5.948
 6177SOL     OW19429   5.954   5.248   1.409
 6177SOL    HW119430   6.042   5.294   1.393
 6177SOL    HW219431   5.905   5.239   1.323
 6178SOL     OW19432   4.258   4.576   1.785
 6178SOL    HW119433   4.253   4.545   1.880
 6178SOL    HW219434   4.336   4.534   1.740
 6179SOL     OW19435   4.869   5.285   4.387
 6179SOL    HW119436   4.941   5.344   4.423
 6179SOL    HW219437   4.812   5.251   4.462
 6180SOL     OW19438   1.463   3.224   6.228
 6180SOL    HW119439   1.429   3.222   6.134
 6180SOL    HW219440   1.560   3.201   6.229
 6181SOL     OW19441   0.368   6.497   0.233
 6181SOL    HW119442   0.436   6.505   0.306
 6181SOL    HW219443   0.290   6.443   0.265
 6182SOL     OW19444   2.647   2.492   5.878
 6182SOL    HW119445   2.670   2.514   5.783
 6182SOL    HW219446   2.708   2.543   5.940
 6183SOL     OW19447   0.292   0.551   0.685
 6183SOL    HW119448   0.277   0.649   0.698
 6183SOL    HW219449   0.220   0.515   0.625
 6184SOL     OW19450   3.710   6.541   5.177
 6184SOL    HW119451   3.645   6.532   5.102
 6184SOL    HW219452   3.708   6.458   5.233
 6185SOL     OW19453   3.471   3.165   3.178
 6185SOL    HW119454   3.423   3.082   3.151
 6185SOL    HW219455   3.521   3.149   3.263
 6186SOL     OW19456   0.710   1.166   2.058
 6186SOL    HW119457   0.724   1.123   2.147
 6186SOL    HW219458   0.699   1.265   2.071
 6187SOL     OW19459   3.825   2.286   5.864
 6187SOL    HW119460   3.857   2.373   5.826
 6187SOL    HW219461   3.773   2.304   5.948
 6188SOL     OW19462   0.639   1.410   5.578
 6188SOL    HW119463   0.626   1.409   5.479
 6188SOL    HW219464   0.552   1.432   5.623
 6189SOL     OW19465   6.952   5.131   0.707
 6189SOL    HW119466   6.865   5.081   0.703
 6189SOL    HW219467   6.996   5.129   0.617
 6190SOL     OW19468   1.307   3.183   3.630
 6190SOL    HW119469   1.321   3.124   3.550
 6190SOL    HW219470   1.302   3.278   3.599
 6191SOL     OW19471   2.314   4.865   7.012
 6191SOL    HW119472   2.245   4.936   0.008
 6191SOL    HW219473   2.376   4.862   0.071
 6192SOL     OW19474   2.391   1.613   1.066
 6192SOL    HW119475   2.338   1.644   0.988
 6192SOL    HW219476   2.419   1.518   1.052
 6193SOL     OW19477   4.666   5.276   6.757
 6193SOL    HW119478   4.748   5.244   6.709
 6193SOL    HW219479   4.671   5.247   6.853
 6194SOL     OW19480   5.226   0.059   6.200
 6194SOL    HW119481   5.197   0.011   6.118
 6194SOL    HW219482   5.316   0.100   6.184
 6195SOL     OW19483   5.150   5.343   5.655
 6195SOL    HW119484   5.224   5.292   5.610
 6195SOL    HW219485   5.188   5.397   5.730
 6196SOL     OW19486   6.806   4.017   2.953
 6196SOL    HW119487   6.745   3.945   2.920
 6196SOL    HW219488   6.754   4.102   2.963
 6197SOL     OW19489   6.809   5.370   1.302
 6197SOL    HW119490   6.750   5.441   1.341
 6197SOL    HW219491   6.896   5.368   1.350
 6198SOL     OW19492   6.588   2.102   5.733
 6198SOL    HW119493   6.495   2.065   5.735
 6198SOL    HW219494   6.584   2.202   5.743
 6199SOL     OW19495   2.267   0.076   6.006
 6199SOL    HW119496   2.205   0.064   5.928
 6199SOL    HW219497   2.290   7.006   6.044
 6200SOL     OW19498   1.775   6.726   6.861
 6200SOL    HW119499   1.784   6.807   6.804
 6200SOL    HW219500   1.792   6.644   6.806
 6201SOL     OW19501   1.178   4.984   3.583
 6201SOL    HW119502   1.130   4.977   3.671
 6201SOL    HW219503   1.226   5.071   3.578
 6202SOL     OW19504   4.899   1.812   1.582
 6202SOL    HW119505   4.971   1.768   1.529
 6202SOL    HW219506   4.911   1.790   1.679
 6203SOL     OW19507   0.557   1.174   2.711
 6203SOL    HW119508   0.493   1.248   2.730
 6203SOL    HW219509   0.650   1.211   2.703
 6204SOL     OW19510   0.943   5.967   4.433
 6204SOL    HW119511   0.884   5.972   4.352
 6204SOL    HW219512   0.941   5.874   4.470
 6205SOL     OW19513   0.411   4.491   3.239
 6205SOL    HW119514   0.387   4.511   3.334
 6205SOL    HW219515   0.456   4.402   3.233
 6206SOL     OW19516   5.419   2.323   4.036
 6206SOL    HW119517   5.367   2.257   3.982
 6206SOL    HW219518   5.420   2.411   3.990
 6207SOL     OW19519   1.716   5.956   3.239
 6207SOL    HW119520   1.779   5.992   3.170
 6207SOL    HW219521   1.708   5.857   3.227
 6208SOL     OW19522   4.362   4.278   6.470
 6208SOL    HW119523   4.272   4.308   6.441
 6208SOL    HW219524   4.403   4.220   6.399
 6209SOL     OW19525   3.325   1.115   2.798
 6209SOL    HW119526   3.245   1.096   2.854
 6209SOL    HW219527   3.296   1.152   2.709
 6210SOL     OW19528   5.402   0.299   4.289
 6210SOL    HW119529   5.330   0.365   4.309
 6210SOL    HW219530   5.430   0.308   4.193
 6211SOL     OW19531   5.148   2.804   5.457
 6211SOL    HW119532   5.153   2.900   5.484
 6211SOL    HW219533   5.237   2.774   5.423
 6212SOL     OW19534   4.855   4.021   4.987
 6212SOL    HW119535   4.866   4.120   4.978
 6212SOL    HW219536   4.797   4.001   5.066
 6213SOL     OW19537   5.181   5.888   0.658
 6213SOL    HW119538   5.197   5.799   0.615
 6213SOL    HW219539   5.201   5.882   0.756
 6214SOL     OW19540   6.743   6.352   6.166
 6214SOL    HW119541   6.769   6.388   6.256
 6214SOL    HW219542   6.727   6.254   6.174
 6215SOL     OW19543   5.377   2.697   5.336
 6215SOL    HW119544   5.473   2.726   5.330
 6215SOL    HW219545   5.372   2.608   5.381
 6216SOL     OW19546   5.431   2.803   6.366
 6216SOL    HW119547   5.479   2.825   6.280
 6216SOL    HW219548   5.489   2.744   6.422
 6217SOL     OW19549   0.323   4.234   2.277
 6217SOL    HW119550   0.265   4.168   2.229
 6217SOL    HW219551   0.375   4.188   2.349
 6218SOL     OW19552   5.090   6.608   1.758
 6218SOL    HW119553   5.167   6.573   1.704
 6218SOL    HW219554   5.063   6.698   1.724
 6219SOL     OW19555   2.476   0.561   0.407
 6219SOL    HW119556   2.531   0.623   0.351
 6219SOL    HW219557   2.423   0.501   0.348
 6220SOL     OW19558   2.221   0.974   2.669
 6220SOL    HW119559   2.133   0.994   2.712
 6220SOL    HW219560   2.281   0.931   2.736
 6221SOL     OW19561   4.319   5.262   5.150
 6221SOL    HW119562   4.313   5.345   5.094
 6221SOL    HW219563   4.265   5.189   5.107
 6222SOL     OW19564   0.271   0.960   1.996
 6222SOL    HW119565   0.266   0.931   2.092
 6222SOL    HW219566   0.329   1.040   1.988
 6223SOL     OW19567   6.490   4.897   3.712
 6223SOL    HW119568   6.537   4.872   3.627
 6223SOL    HW219569   6.527   4.843   3.787
 6224SOL     OW19570   3.924   0.124   0.035
 6224SOL    HW119571   3.905   0.053   6.985
 6224SOL    HW219572   3.846   0.132   0.097
 6225SOL     OW19573   6.161   5.195   6.105
 6225SOL    HW119574   6.201   5.247   6.180
 6225SOL    HW219575   6.117   5.113   6.140
 6226SOL     OW19576   1.776   1.082   4.087
 6226SOL    HW119577   1.776   1.091   3.987
 6226SOL    HW219578   1.827   1.158   4.127
 6227SOL     OW19579   2.132   4.128   5.647
 6227SOL    HW119580   2.211   4.108   5.590
 6227SOL    HW219581   2.139   4.080   5.734
 6228SOL     OW19582   1.343   3.119   4.054
 6228SOL    HW119583   1.412   3.131   4.126
 6228SOL    HW219584   1.333   3.021   4.034
 6229SOL     OW19585   0.217   5.156   4.301
 6229SOL    HW119586   0.175   5.119   4.218
 6229SOL    HW219587   0.272   5.236   4.278
 6230SOL     OW19588   1.119   0.885   0.878
 6230SOL    HW119589   1.030   0.913   0.913
 6230SOL    HW219590   1.181   0.963   0.875
 6231SOL     OW19591   1.450   5.781   5.792
 6231SOL    HW119592   1.526   5.789   5.728
 6231SOL    HW219593   1.429   5.685   5.808
 6232SOL     OW19594   3.920   1.031   6.423
 6232SOL    HW119595   3.974   1.075   6.351
 6232SOL    HW219596   3.939   0.933   6.424
 6233SOL     OW19597   6.868   4.179   1.348
 6233SOL    HW119598   6.930   4.164   1.425
 6233SOL    HW219599   6.783   4.128   1.363
 6234SOL     OW19600   4.641   4.643   2.618
 6234SOL    HW119601   4.678   4.557   2.654
 6234SOL    HW219602   4.552   4.626   2.577
 6235SOL     OW19603   0.813   1.167   1.261
 6235SOL    HW119604   0.884   1.234   1.282
 6235SOL    HW219605   0.737   1.213   1.214
 6236SOL     OW19606   6.050   6.111   1.911
 6236SOL    HW119607   6.105   6.191   1.886
 6236SOL    HW219608   5.998   6.130   1.994
 6237SOL     OW19609   4.256   0.991   3.377
 6237SOL    HW119610   4.180   0.946   3.424
 6237SOL    HW219611   4.259   0.960   3.282
 6238SOL     OW19612   2.059   6.568   3.104
 6238SOL    HW119613   2.144   6.520   3.083
 6238SOL    HW219614   2.057   6.592   3.201
 6239SOL     OW19615   4.581   1.545   4.096
 6239SOL    HW119616   4.503   1.523   4.154
 6239SOL    HW219617   4.554   1.616   4.030
 6240SOL     OW19618   4.162   3.624   4.147
 6240SOL    HW119619   4.194   3.622   4.052
 6240SOL    HW219620   4.069   3.588   4.151
 6241SOL     OW19621   4.008   0.381   2.921
 6241SOL    HW119622   4.093   0.431   2.931
 6241SOL    HW219623   4.013   0.296   2.973
 6242SOL     OW19624   3.213   1.896   4.646
 6242SOL    HW119625   3.136   1.931   4.594
 6242SOL    HW219626   3.181   1.833   4.717
 6243SOL     OW19627   3.340   0.357   0.237
 6243SOL    HW119628   3.246   0.358   0.272
 6243SOL    HW219629   3.372   0.262   0.230
 6244SOL     OW19630   5.463   2.451   1.490
 6244SOL    HW119631   5.532   2.418   1.555
 6244SOL    HW219632   5.380   2.396   1.499
 6245SOL     OW19633   6.775   5.009   1.493
 6245SOL    HW119634   6.857   5.062   1.515
 6245SOL    HW219635   6.798   4.912   1.488
 6246SOL     OW19636   0.655   6.150   5.303
 6246SOL    HW119637   0.707   6.235   5.302
 6246SOL    HW219638   0.707   6.080   5.353
 6247SOL     OW19639   5.778   4.831   2.244
 6247SOL    HW119640   5.689   4.789   2.262
 6247SOL    HW219641   5.764   4.926   2.216
 6248SOL     OW19642   4.632   2.686   5.826
 6248SOL    HW119643   4.583   2.660   5.743
 6248SOL    HW219644   4.567   2.724   5.892
 6249SOL     OW19645   5.575   2.439   3.510
 6249SOL    HW119646   5.645   2.371   3.488
 6249SOL    HW219647   5.537   2.477   3.426
 6250SOL     OW19648   5.138   6.901   4.878
 6250SOL    HW119649   5.096   6.816   4.845
 6250SOL    HW219650   5.134   6.970   4.806
 6251SOL     OW19651   2.949   0.876   4.097
 6251SOL    HW119652   2.927   0.786   4.060
 6251SOL    HW219653   2.927   0.946   4.029
 6252SOL     OW19654   2.441   4.827   0.242
 6252SOL    HW119655   2.538   4.840   0.223
 6252SOL    HW219656   2.431   4.767   0.322
 6253SOL     OW19657   4.740   5.979   4.081
 6253SOL    HW119658   4.681   5.973   4.162
 6253SOL    HW219659   4.785   5.891   4.065
 6254SOL     OW19660   6.707   6.753   1.979
 6254SOL    HW119661   6.615   6.785   1.954
 6254SOL    HW219662   6.757   6.730   1.896
 6255SOL     OW19663   3.178   0.207   1.199
 6255SOL    HW119664   3.247   0.219   1.270
 6255SOL    HW219665   3.184   0.115   1.161
 6256SOL     OW19666   0.100   4.474   2.165
 6256SOL    HW119667   0.102   4.556   2.222
 6256SOL    HW219668   0.192   4.458   2.127
 6257SOL     OW19669   3.896   4.100   0.598
 6257SOL    HW119670   3.959   4.033   0.558
 6257SOL    HW219671   3.929   4.128   0.688
 6258SOL     OW19672   4.351   5.269   3.949
 6258SOL    HW119673   4.319   5.363   3.940
 6258SOL    HW219674   4.438   5.259   3.900
 6259SOL     OW19675   4.996   6.949   4.445
 6259SOL    HW119676   5.078   6.970   4.393
 6259SOL    HW219677   4.950   6.869   4.406
 6260SOL     OW19678   3.554   1.956   6.876
 6260SOL    HW119679   3.599   1.888   6.934
 6260SOL    HW219680   3.601   1.962   6.788
 6261SOL     OW19681   4.474   6.093   1.385
 6261SOL    HW119682   4.556   6.110   1.439
 6261SOL    HW219683   4.456   6.171   1.325
 6262SOL     OW19684   5.994   1.977   3.919
 6262SOL    HW119685   6.026   1.924   3.997
 6262SOL    HW219686   5.928   1.923   3.866
 6263SOL     OW19687   6.524   5.986   5.918
 6263SOL    HW119688   6.516   5.971   5.820
 6263SOL    HW219689   6.620   6.005   5.942
 6264SOL     OW19690   0.938   6.379   0.759
 6264SOL    HW119691   0.845   6.399   0.790
 6264SOL    HW219692   0.935   6.314   0.683
 6265SOL     OW19693   3.746   6.107   6.821
 6265SOL    HW119694   3.845   6.101   6.827
 6265SOL    HW219695   3.719   6.201   6.801
 6266SOL     OW19696   2.932   5.346   3.560
 6266SOL    HW119697   2.950   5.443   3.547
 6266SOL    HW219698   2.833   5.330   3.558
 6267SOL     OW19699   0.066   6.662   3.867
 6267SOL    HW119700   0.088   6.728   3.939
 6267SOL    HW219701   0.025   6.580   3.907
 6268SOL     OW19702   3.292   2.019   0.962
 6268SOL    HW119703   3.352   2.048   0.888
 6268SOL    HW219704   3.200   2.056   0.947
 6269SOL     OW19705   0.336   5.470   0.593
 6269SOL    HW119706   0.396   5.401   0.633
 6269SOL    HW219707   0.308   5.442   0.502
 6270SOL     OW19708   1.405   5.776   1.100
 6270SOL    HW119709   1.441   5.704   1.040
 6270SOL    HW219710   1.390   5.859   1.046
 6271SOL     OW19711   6.632   3.392   5.550
 6271SOL    HW119712   6.646   3.406   5.452
 6271SOL    HW219713   6.637   3.480   5.597
 6272SOL     OW19714   6.589   0.898   0.846
 6272SOL    HW119715   6.508   0.951   0.871
 6272SOL    HW219716   6.578   0.862   0.754
 6273SOL     OW19717   0.570   6.655   2.372
 6273SOL    HW119718   0.635   6.596   2.325
 6273SOL    HW219719   0.530   6.605   2.449
 6274SOL     OW19720   3.189   6.072   4.438
 6274SOL    HW119721   3.201   6.032   4.530
 6274SOL    HW219722   3.099   6.048   4.403
 6275SOL     OW19723   3.193   5.432   1.241
 6275SOL    HW119724   3.248   5.348   1.251
 6275SOL    HW219725   3.224   5.500   1.307
 6276SOL     OW19726   2.109   4.558   2.714
 6276SOL    HW119727   2.161   4.475   2.693
 6276SOL    HW219728   2.036   4.536   2.779
 6277SOL     OW19729   5.426   1.977   1.347
 6277SOL    HW119730   5.406   2.002   1.253
 6277SOL    HW219731   5.440   1.878   1.353
 6278SOL     OW19732   3.936   3.303   0.080
 6278SOL    HW119733   3.950   3.377   0.146
 6278SOL    HW219734   3.846   3.262   0.093
 6279SOL     OW19735   0.838   6.518   1.795
 6279SOL    HW119736   0.938   6.516   1.796
 6279SOL    HW219737   0.805   6.470   1.714
 6280SOL     OW19738   5.069   0.981   0.213
 6280SOL    HW119739   5.044   0.981   0.117
 6280SOL    HW219740   4.994   1.019   0.267
 6281SOL     OW19741   5.746   3.859   6.180
 6281SOL    HW119742   5.781   3.821   6.095
 6281SOL    HW219743   5.742   3.787   6.250
 6282SOL     OW19744   0.004   4.615   5.757
 6282SOL    HW119745   6.963   4.578   5.686
 6282SOL    HW219746   0.016   4.548   5.830
 6283SOL     OW19747   3.234   6.355   4.454
 6283SOL    HW119748   3.290   6.398   4.526
 6283SOL    HW219749   3.249   6.256   4.456
 6284SOL     OW19750   2.222   4.549   6.222
 6284SOL    HW119751   2.132   4.552   6.180
 6284SOL    HW219752   2.265   4.640   6.216
 6285SOL     OW19753   1.891   4.618   4.320
 6285SOL    HW119754   1.905   4.706   4.276
 6285SOL    HW219755   1.977   4.587   4.361
 6286SOL     OW19756   0.858   3.400   6.795
 6286SOL    HW119757   0.915   3.329   6.751
 6286SOL    HW219758   0.791   3.356   6.854
 6287SOL     OW19759   3.658   5.121   4.589
 6287SOL    HW119760   3.661   5.216   4.558
 6287SOL    HW219761   3.652   5.060   4.511
 6288SOL     OW19762   3.100   3.934   5.715
 6288SOL    HW119763   3.185   3.910   5.761
 6288SOL    HW219764   3.101   4.032   5.692
 6289SOL     OW19765   3.005   5.513   5.899
 6289SOL    HW119766   3.054   5.448   5.842
 6289SOL    HW219767   3.036   5.505   5.994
 6290SOL     OW19768   6.911   0.560   2.964
 6290SOL    HW119769   6.848   0.536   3.038
 6290SOL    HW219770   6.886   0.510   2.881
 6291SOL     OW19771   3.384   3.381   1.864
 6291SOL    HW119772   3.484   3.374   1.854
 6291SOL    HW219773   3.354   3.470   1.830
 6292SOL     OW19774   1.045   4.014   4.740
 6292SOL    HW119775   1.126   4.053   4.694
 6292SOL    HW219776   1.006   4.082   4.802
 6293SOL     OW19777   3.351   1.844   0.464
 6293SOL    HW119778   3.358   1.940   0.490
 6293SOL    HW219779   3.318   1.837   0.370
 6294SOL     OW19780   1.108   0.165   1.896
 6294SOL    HW119781   1.132   0.254   1.935
 6294SOL    HW219782   1.054   0.178   1.813
 6295SOL     OW19783   4.462   3.027   5.682
 6295SOL    HW119784   4.471   3.114   5.732
 6295SOL    HW219785   4.549   2.978   5.685
 6296SOL     OW19786   6.606   2.516   0.421
 6296SOL    HW119787   6.538   2.545   0.489
 6296SOL    HW219788   6.583   2.557   0.332
 6297SOL     OW19789   0.603   1.896   4.688
 6297SOL    HW119790   0.510   1.927   4.708
 6297SOL    HW219791   0.648   1.868   4.773
 6298SOL     OW19792   0.123   1.069   6.424
 6298SOL    HW119793   0.119   1.057   6.325
 6298SOL    HW219794   0.202   1.125   6.448
 6299SOL     OW19795   3.465   1.671   4.028
 6299SOL    HW119796   3.473   1.669   3.928
 6299SOL    HW219797   3.467   1.577   4.063
 6300SOL     OW19798   2.692   2.040   0.862
 6300SOL    HW119799   2.693   2.123   0.916
 6300SOL    HW219800   2.662   2.061   0.769
 6301SOL     OW19801   4.335   6.097   0.436
 6301SOL    HW119802   4.430   6.084   0.408
 6301SOL    HW219803   4.275   6.069   0.361
 6302SOL     OW19804   1.610   3.520   0.699
 6302SOL    HW119805   1.621   3.495   0.795
 6302SOL    HW219806   1.645   3.446   0.641
 6303SOL     OW19807   6.515   4.544   5.377
 6303SOL    HW119808   6.496   4.515   5.283
 6303SOL    HW219809   6.600   4.595   5.380
 6304SOL     OW19810   1.974   2.777   4.927
 6304SOL    HW119811   1.922   2.816   5.003
 6304SOL    HW219812   2.069   2.811   4.930
 6305SOL     OW19813   1.163   6.175   4.981
 6305SOL    HW119814   1.120   6.193   5.070
 6305SOL    HW219815   1.142   6.082   4.952
 6306SOL     OW19816   1.638   4.438   4.190
 6306SOL    HW119817   1.632   4.446   4.091
 6306SOL    HW219818   1.716   4.491   4.223
 6307SOL     OW19819   3.951   3.222   2.403
 6307SOL    HW119820   4.029   3.226   2.466
 6307SOL    HW219821   3.963   3.146   2.340
 6308SOL     OW19822   1.516   0.891   1.149
 6308SOL    HW119823   1.559   0.947   1.078
 6308SOL    HW219824   1.439   0.942   1.189
 6309SOL     OW19825   1.941   6.037   4.923
 6309SOL    HW119826   1.956   6.135   4.938
 6309SOL    HW219827   2.028   5.991   4.909
 6310SOL     OW19828   0.821   6.784   2.312
 6310SOL    HW119829   0.731   6.756   2.346
 6310SOL    HW219830   0.815   6.877   2.274
 6311SOL     OW19831   5.280   1.263   5.841
 6311SOL    HW119832   5.209   1.205   5.883
 6311SOL    HW219833   5.366   1.252   5.891
 6312SOL     OW19834   4.309   4.689   1.499
 6312SOL    HW119835   4.351   4.605   1.533
 6312SOL    HW219836   4.367   4.728   1.427
 6313SOL     OW19837   5.370   5.340   3.349
 6313SOL    HW119838   5.463   5.378   3.355
 6313SOL    HW219839   5.336   5.351   3.256
 6314SOL     OW19840   1.509   5.424   2.747
 6314SOL    HW119841   1.567   5.343   2.732
 6314SOL    HW219842   1.498   5.473   2.661
 6315SOL     OW19843   2.005   2.541   3.249
 6315SOL    HW119844   2.064   2.482   3.195
 6315SOL    HW219845   1.950   2.485   3.312
 6316SOL     OW19846   4.918   0.679   5.425
 6316SOL    HW119847   4.874   0.650   5.340
 6316SOL    HW219848   4.851   0.677   5.499
 6317SOL     OW19849   4.743   4.121   3.042
 6317SOL    HW119850   4.740   4.061   2.963
 6317SOL    HW219851   4.697   4.207   3.020
 6318SOL     OW19852   5.510   6.327   0.141
 6318SOL    HW119853   5.581   6.348   0.073
 6318SOL    HW219854   5.420   6.337   0.100
 6319SOL     OW19855   4.826   2.374   3.986
 6319SOL    HW119856   4.833   2.403   3.891
 6319SOL    HW219857   4.898   2.307   4.005
 6320SOL     OW19858   5.843   2.729   6.402
 6320SOL    HW119859   5.756   2.695   6.436
 6320SOL    HW219860   5.869   2.678   6.320
 6321SOL     OW19861   0.202   3.184   6.848
 6321SOL    HW119862   0.297   3.204   6.821
 6321SOL    HW219863   0.178   3.242   6.926
 6322SOL     OW19864   1.969   1.008   2.774
 6322SOL    HW119865   1.951   1.098   2.812
 6322SOL    HW219866   1.923   0.938   2.828
 6323SOL     OW19867   1.676   5.953   1.116
 6323SOL    HW119868   1.711   5.906   1.035
 6323SOL    HW219869   1.677   5.890   1.193
 6324SOL     OW19870   5.107   4.402   2.266
 6324SOL    HW119871   5.094   4.498   2.291
 6324SOL    HW219872   5.026   4.369   2.217
 6325SOL     OW19873   0.713   3.433   3.423
 6325SOL    HW119874   0.639   3.419   3.489
 6325SOL    HW219875   0.710   3.361   3.354
 6326SOL     OW19876   5.409   5.647   4.719
 6326SOL    HW119877   5.494   5.682   4.757
 6326SOL    HW219878   5.333   5.707   4.745
 6327SOL     OW19879   0.716   0.736   2.457
 6327SOL    HW119880   0.697   0.639   2.439
 6327SOL    HW219881   0.650   0.771   2.524
 6328SOL     OW19882   4.059   3.860   4.782
 6328SOL    HW119883   4.071   3.764   4.756
 6328SOL    HW219884   4.058   3.917   4.700
 6329SOL     OW19885   7.012   3.237   4.511
 6329SOL    HW119886   6.977   3.233   4.604
 6329SOL    HW219887   6.945   3.199   4.448
 6330SOL     OW19888   4.362   1.680   3.270
 6330SOL    HW119889   4.442   1.629   3.239
 6330SOL    HW219890   4.379   1.718   3.361
 6331SOL     OW19891   1.542   2.774   3.547
 6331SOL    HW119892   1.521   2.864   3.507
 6331SOL    HW219893   1.581   2.787   3.638
 6332SOL     OW19894   4.331   1.861   0.265
 6332SOL    HW119895   4.279   1.878   0.182
 6332SOL    HW219896   4.423   1.899   0.256
 6333SOL     OW19897   5.954   1.805   0.115
 6333SOL    HW119898   5.935   1.902   0.105
 6333SOL    HW219899   5.909   1.754   0.041
 6334SOL     OW19900   2.853   1.276   2.012
 6334SOL    HW119901   2.834   1.178   2.019
 6334SOL    HW219902   2.798   1.316   1.939
 6335SOL     OW19903   5.919   2.380   5.497
 6335SOL    HW119904   5.978   2.402   5.419
 6335SOL    HW219905   5.825   2.407   5.476
 6336SOL     OW19906   1.102   5.655   5.873
 6336SOL    HW119907   1.034   5.692   5.937
 6336SOL    HW219908   1.101   5.555   5.878
 6337SOL     OW19909   6.400   0.706   6.034
 6337SOL    HW119910   6.490   0.672   6.003
 6337SOL    HW219911   6.386   0.799   6.000
 6338SOL     OW19912   1.088   1.134   2.174
 6338SOL    HW119913   1.118   1.080   2.252
 6338SOL    HW219914   1.031   1.078   2.114
 6339SOL     OW19915   0.542   4.142   3.586
 6339SOL    HW119916   0.479   4.153   3.663
 6339SOL    HW219917   0.524   4.213   3.518
 6340SOL     OW19918   2.795   5.723   6.978
 6340SOL    HW119919   2.809   5.695   6.883
 6340SOL    HW219920   2.849   5.805   6.998
 6341SOL     OW19921   1.386   4.551   2.980
 6341SOL    HW119922   1.475   4.539   3.024
 6341SOL    HW219923   1.318   4.493   3.025
 6342SOL     OW19924   2.723   6.682   1.120
 6342SOL    HW119925   2.816   6.651   1.100
 6342SOL    HW219926   2.694   6.644   1.208
 6343SOL     OW19927   1.686   3.688   0.008
 6343SOL    HW119928   1.654   3.758   6.964
 6343SOL    HW219929   1.635   3.695   0.095
 6344SOL     OW19930   1.980   0.895   4.189
 6344SOL    HW119931   2.066   0.945   4.193
 6344SOL    HW219932   1.910   0.953   4.145
 6345SOL     OW19933   6.933   3.576   3.771
 6345SOL    HW119934   6.911   3.560   3.867
 6345SOL    HW219935   7.007   3.643   3.764
 6346SOL     OW19936   0.760   4.625   4.095
 6346SOL    HW119937   0.744   4.644   4.192
 6346SOL    HW219938   0.731   4.531   4.075
 6347SOL     OW19939   1.780   1.677   2.438
 6347SOL    HW119940   1.808   1.591   2.396
 6347SOL    HW219941   1.684   1.671   2.466
 6348SOL     OW19942   0.571   2.391   0.128
 6348SOL    HW119943   0.664   2.393   0.165
 6348SOL    HW219944   0.570   2.436   0.039
 6349SOL     OW19945   6.035   1.019   0.955
 6349SOL    HW119946   6.038   1.064   0.866
 6349SOL    HW219947   6.015   1.087   1.026
 6350SOL     OW19948   0.066   0.032   1.444
 6350SOL    HW119949   0.059   6.971   1.504
 6350SOL    HW219950   0.146   0.086   1.470
 6351SOL     OW19951   6.391   2.404   2.587
 6351SOL    HW119952   6.354   2.393   2.679
 6351SOL    HW219953   6.325   2.371   2.520
 6352SOL     OW19954   3.565   0.801   5.185
 6352SOL    HW119955   3.485   0.742   5.192
 6352SOL    HW219956   3.622   0.772   5.108
 6353SOL     OW19957   3.897   6.349   5.375
 6353SOL    HW119958   3.908   6.433   5.428
 6353SOL    HW219959   3.866   6.276   5.436
 6354SOL     OW19960   6.210   4.683   3.609
 6354SOL    HW119961   6.243   4.767   3.652
 6354SOL    HW219962   6.128   4.651   3.657
 6355SOL     OW19963   4.190   6.325   0.052
 6355SOL    HW119964   4.160   6.385   6.997
 6355SOL    HW219965   4.287   6.304   0.042
 6356SOL     OW19966   6.883   6.837   6.803
 6356SOL    HW119967   6.870   6.892   6.721
 6356SOL    HW219968   6.795   6.824   6.848
 6357SOL     OW19969   5.177   2.041   3.302
 6357SOL    HW119970   5.231   2.124   3.288
 6357SOL    HW219971   5.232   1.961   3.280
 6358SOL     OW19972   1.477   0.889   4.986
 6358SOL    HW119973   1.507   0.822   4.918
 6358SOL    HW219974   1.432   0.965   4.939
 6359SOL     OW19975   6.840   4.463   1.464
 6359SOL    HW119976   6.913   4.430   1.404
 6359SOL    HW219977   6.862   4.438   1.559
 6360SOL     OW19978   3.033   2.671   0.595
 6360SOL    HW119979   3.048   2.580   0.559
 6360SOL    HW219980   3.033   2.737   0.520
 6361SOL     OW19981   0.159   1.722   3.264
 6361SOL    HW119982   0.149   1.642   3.323
 6361SOL    HW219983   0.255   1.739   3.246
 6362SOL     OW19984   1.758   5.138   0.436
 6362SOL    HW119985   1.705   5.215   0.400
 6362SOL    HW219986   1.793   5.084   0.360
 6363SOL     OW19987   0.551   1.913   1.301
 6363SOL    HW119988   0.503   1.898   1.214
 6363SOL    HW219989   0.603   1.832   1.325
 6364SOL     OW19990   2.832   2.222   3.530
 6364SOL    HW119991   2.782   2.308   3.525
 6364SOL    HW219992   2.887   2.210   3.447
 6365SOL     OW19993   6.069   6.850   1.940
 6365SOL    HW119994   6.065   6.944   1.907
 6365SOL    HW219995   5.988   6.831   1.996
 6366SOL     OW19996   6.644   1.663   5.260
 6366SOL    HW119997   6.718   1.648   5.194
 6366SOL    HW219998   6.683   1.694   5.347
 6367SOL     OW19999   1.873   3.336   4.582
 6367SOL    HW120000   1.965   3.364   4.552
 6367SOL    HW220001   1.864   3.354   4.680
 6368SOL     OW20002   5.629   3.458   5.193
 6368SOL    HW120003   5.632   3.550   5.232
 6368SOL    HW220004   5.613   3.391   5.265
 6369SOL     OW20005   3.060   4.180   0.715
 6369SOL    HW120006   3.066   4.082   0.696
 6369SOL    HW220007   3.129   4.228   0.661
 6370SOL     OW20008   6.287   3.456   4.845
 6370SOL    HW120009   6.335   3.401   4.913
 6370SOL    HW220010   6.284   3.551   4.876
 6371SOL     OW20011   6.007   4.409   1.058
 6371SOL    HW120012   5.968   4.496   1.087
 6371SOL    HW220013   6.107   4.413   1.068
 6372SOL     OW20014   5.623   1.604   1.934
 6372SOL    HW120015   5.655   1.638   2.022
 6372SOL    HW220016   5.527   1.629   1.921
 6373SOL     OW20017   5.551   1.784   1.686
 6373SOL    HW120018   5.639   1.739   1.706
 6373SOL    HW220019   5.477   1.730   1.726
 6374SOL     OW20020   3.698   3.359   6.336
 6374SOL    HW120021   3.757   3.433   6.368
 6374SOL    HW220022   3.645   3.390   6.258
 6375SOL     OW20023   5.149   1.260   1.968
 6375SOL    HW120024   5.131   1.200   2.045
 6375SOL    HW220025   5.127   1.354   1.993
 6376SOL     OW20026   3.317   6.410   6.644
 6376SOL    HW120027   3.406   6.410   6.691
 6376SOL    HW220028   3.248   6.449   6.704
 6377SOL     OW20029   0.305   1.771   0.333
 6377SOL    HW120030   0.383   1.724   0.291
 6377SOL    HW220031   0.284   1.727   0.421
 6378SOL     OW20032   6.167   3.760   2.763
 6378SOL    HW120033   6.090   3.824   2.765
 6378SOL    HW220034   6.250   3.809   2.737
 6379SOL     OW20035   2.362   4.148   6.824
 6379SOL    HW120036   2.457   4.165   6.798
 6379SOL    HW220037   2.336   4.212   6.897
 6380SOL     OW20038   1.944   2.532   4.423
 6380SOL    HW120039   1.954   2.608   4.486
 6380SOL    HW220040   1.881   2.464   4.461
 6381SOL     OW20041   3.488   4.689   0.705
 6381SOL    HW120042   3.550   4.640   0.644
 6381SOL    HW220043   3.527   4.779   0.726
 6382SOL     OW20044   2.114   1.245   1.192
 6382SOL    HW120045   2.188   1.291   1.242
 6382SOL    HW220046   2.132   1.251   1.094
 6383SOL     OW20047   3.010   2.064   1.924
 6383SOL    HW120048   2.948   2.006   1.872
 6383SOL    HW220049   2.960   2.141   1.963
 6384SOL     OW20050   0.710   1.461   2.026
 6384SOL    HW120051   0.619   1.452   1.985
 6384SOL    HW220052   0.721   1.552   2.065
 6385SOL     OW20053   0.583   3.588   1.830
 6385SOL    HW120054   0.513   3.631   1.773
 6385SOL    HW220055   0.586   3.490   1.809
 6386SOL     OW20056   3.039   4.923   1.181
 6386SOL    HW120057   3.117   4.942   1.121
 6386SOL    HW220058   3.015   4.826   1.174
 6387SOL     OW20059   6.350   1.969   5.749
 6387SOL    HW120060   6.294   1.963   5.832
 6387SOL    HW220061   6.360   1.877   5.709
 6388SOL     OW20062   6.592   4.941   2.143
 6388SOL    HW120063   6.525   4.982   2.205
 6388SOL    HW220064   6.652   5.013   2.107
 6389SOL     OW20065   6.788   0.468   0.496
 6389SOL    HW120066   6.777   0.565   0.474
 6389SOL    HW220067   6.766   0.413   0.416
 6390SOL     OW20068   4.219   6.405   0.312
 6390SOL    HW120069   4.293   6.344   0.339
 6390SOL    HW220070   4.183   6.378   0.223
 6391SOL     OW20071   0.968   1.787   4.802
 6391SOL    HW120072   0.954   1.696   4.842
 6391SOL    HW220073   1.035   1.780   4.728
 6392SOL     OW20074   4.451   6.436   3.126
 6392SOL    HW120075   4.412   6.403   3.212
 6392SOL    HW220076   4.424   6.375   3.052
 6393SOL     OW20077   2.201   4.143   0.274
 6393SOL    HW120078   2.276   4.090   0.313
 6393SOL    HW220079   2.143   4.178   0.348
 6394SOL     OW20080   1.418   5.358   1.956
 6394SOL    HW120081   1.478   5.364   2.035
 6394SOL    HW220082   1.355   5.436   1.956
 6395SOL     OW20083   1.281   3.371   4.891
 6395SOL    HW120084   1.248   3.449   4.943
 6395SOL    HW220085   1.233   3.365   4.803
 6396SOL     OW20086   1.394   3.769   4.026
 6396SOL    HW120087   1.353   3.705   4.091
 6396SOL    HW220088   1.436   3.717   3.952
 6397SOL     OW20089   1.092   3.592   4.511
 6397SOL    HW120090   1.009   3.582   4.456
 6397SOL    HW220091   1.068   3.604   4.607
 6398SOL     OW20092   0.240   0.130   2.244
 6398SOL    HW120093   0.312   0.098   2.305
 6398SOL    HW220094   0.275   0.131   2.150
 6399SOL     OW20095   2.288   6.865   6.143
 6399SOL    HW120096   2.202   6.815   6.138
 6399SOL    HW220097   2.350   6.819   6.208
 6400SOL     OW20098   1.487   6.735   2.920
 6400SOL    HW120099   1.441   6.646   2.922
 6400SOL    HW220100   1.579   6.726   2.958
 6401SOL     OW20101   4.139   4.966   1.198
 6401SOL    HW120102   4.101   5.052   1.161
 6401SOL    HW220103   4.207   4.987   1.268
 6402SOL     OW20104   3.268   3.217   6.579
 6402SOL    HW120105   3.254   3.310   6.545
 6402SOL    HW220106   3.362   3.190   6.564
 6403SOL     OW20107   4.114   5.270   6.069
 6403SOL    HW120108   4.061   5.345   6.108
 6403SOL    HW220109   4.117   5.193   6.133
 6404SOL     OW20110   4.729   6.197   6.560
 6404SOL    HW120111   4.738   6.227   6.465
 6404SOL    HW220112   4.793   6.122   6.577
 6405SOL     OW20113   4.027   1.140   3.722
 6405SOL    HW120114   3.977   1.224   3.698
 6405SOL    HW220115   4.107   1.131   3.662
 6406SOL     OW20116   0.135   3.108   2.349
 6406SOL    HW120117   0.231   3.137   2.355
 6406SOL    HW220118   0.084   3.171   2.292
 6407SOL     OW20119   0.749   6.910   2.736
 6407SOL    HW120120   0.704   6.953   2.814
 6407SOL    HW220121   0.725   6.813   2.733
 6408SOL     OW20122   0.378   0.863   2.492
 6408SOL    HW120123   0.447   0.901   2.554
 6408SOL    HW220124   0.418   0.788   2.439
 6409SOL     OW20125   6.368   4.457   3.995
 6409SOL    HW120126   6.393   4.479   4.090
 6409SOL    HW220127   6.450   4.427   3.946
 6410SOL     OW20128   2.350   0.715   6.914
 6410SOL    HW120129   2.426   0.712   6.848
 6410SOL    HW220130   2.272   0.761   6.873
 6411SOL     OW20131   1.551   2.143   4.370
 6411SOL    HW120132   1.465   2.162   4.323
 6411SOL    HW220133   1.532   2.104   4.460
 6412SOL     OW20134   4.651   0.168   0.172
 6412SOL    HW120135   4.648   0.242   0.239
 6412SOL    HW220136   4.717   0.099   0.202
 6413SOL     OW20137   4.519   6.005   3.478
 6413SOL    HW120138   4.549   5.962   3.393
 6413SOL    HW220139   4.599   6.042   3.527
 6414SOL     OW20140   3.630   0.154   6.799
 6414SOL    HW120141   3.729   0.168   6.797
 6414SOL    HW220142   3.603   0.116   6.888
 6415SOL     OW20143   6.903   1.709   3.632
 6415SOL    HW120144   6.941   1.671   3.717
 6415SOL    HW220145   6.904   1.638   3.561
 6416SOL     OW20146   2.848   4.223   0.910
 6416SOL    HW120147   2.766   4.206   0.855
 6416SOL    HW220148   2.929   4.202   0.856
 6417SOL     OW20149   4.954   3.230   5.461
 6417SOL    HW120150   4.890   3.196   5.392
 6417SOL    HW220151   4.963   3.329   5.452
 6418SOL     OW20152   4.712   5.744   6.989
 6418SOL    HW120153   4.741   5.819   0.030
 6418SOL    HW220154   4.613   5.750   6.974
 6419SOL     OW20155   1.553   6.983   6.665
 6419SOL    HW120156   1.652   6.992   6.659
 6419SOL    HW220157   1.515   0.042   6.714
 6420SOL     OW20158   2.732   5.025   3.587
 6420SOL    HW120159   2.718   5.118   3.552
 6420SOL    HW220160   2.662   4.964   3.549
 6421SOL     OW20161   4.381   6.278   1.802
 6421SOL    HW120162   4.412   6.214   1.732
 6421SOL    HW220163   4.451   6.286   1.873
 6422SOL     OW20164   1.084   0.955   5.896
 6422SOL    HW120165   1.144   0.943   5.817
 6422SOL    HW220166   1.007   1.014   5.870
 6423SOL     OW20167   0.995   3.545   4.075
 6423SOL    HW120168   0.986   3.525   3.977
 6423SOL    HW220169   0.944   3.477   4.128
 6424SOL     OW20170   5.946   4.027   5.843
 6424SOL    HW120171   5.898   4.074   5.918
 6424SOL    HW220172   5.882   4.008   5.769
 6425SOL     OW20173   1.091   0.196   3.852
 6425SOL    HW120174   1.066   0.259   3.926
 6425SOL    HW220175   1.077   0.102   3.882
 6426SOL     OW20176   3.193   5.239   4.187
 6426SOL    HW120177   3.259   5.208   4.256
 6426SOL    HW220178   3.241   5.280   4.110
 6427SOL     OW20179   3.180   3.342   2.576
 6427SOL    HW120180   3.102   3.338   2.514
 6427SOL    HW220181   3.252   3.399   2.536
 6428SOL     OW20182   0.009   3.796   6.816
 6428SOL    HW120183   6.946   3.789   6.760
 6428SOL    HW220184   0.085   3.749   6.771
 6429SOL     OW20185   3.210   1.559   4.686
 6429SOL    HW120186   3.271   1.481   4.699
 6429SOL    HW220187   3.209   1.585   4.589
 6430SOL     OW20188   6.124   1.448   4.305
 6430SOL    HW120189   6.177   1.366   4.284
 6430SOL    HW220190   6.163   1.493   4.386
 6431SOL     OW20191   3.640   5.538   3.303
 6431SOL    HW120192   3.652   5.524   3.401
 6431SOL    HW220193   3.708   5.484   3.253
 6432SOL     OW20194   3.606   3.315   0.357
 6432SOL    HW120195   3.692   3.362   0.339
 6432SOL    HW220196   3.559   3.359   0.433
 6433SOL     OW20197   4.250   5.491   6.257
 6433SOL    HW120198   4.159   5.518   6.226
 6433SOL    HW220199   4.283   5.413   6.203
 6434SOL     OW20200   6.340   4.516   6.854
 6434SOL    HW120201   6.341   4.498   6.756
 6434SOL    HW220202   6.284   4.597   6.873
 6435SOL     OW20203   4.677   0.732   0.391
 6435SOL    HW120204   4.585   0.757   0.360
 6435SOL    HW220205   4.733   0.707   0.313
 6436SOL     OW20206   1.452   1.433   3.729
 6436SOL    HW120207   1.446   1.521   3.684
 6436SOL    HW220208   1.437   1.445   3.828
 6437SOL     OW20209   1.090   2.756   6.683
 6437SOL    HW120210   1.146   2.837   6.699
 6437SOL    HW220211   1.110   2.719   6.592
 6438SOL     OW20212   0.827   5.697   1.619
 6438SOL    HW120213   0.800   5.607   1.654
 6438SOL    HW220214   0.747   5.758   1.618
 6439SOL     OW20215   3.952   5.741   3.135
 6439SOL    HW120216   3.981   5.690   3.054
 6439SOL    HW220217   4.021   5.733   3.207
 6440SOL     OW20218   2.209   2.308   5.137
 6440SOL    HW120219   2.278   2.368   5.098
 6440SOL    HW220220   2.253   2.236   5.191
 6441SOL     OW20221   1.609   1.317   2.090
 6441SOL    HW120222   1.513   1.294   2.106
 6441SOL    HW220223   1.666   1.272   2.159
 6442SOL     OW20224   3.096   2.131   4.240
 6442SOL    HW120225   3.009   2.098   4.203
 6442SOL    HW220226   3.165   2.132   4.168
 6443SOL     OW20227   2.525   1.704   6.174
 6443SOL    HW120228   2.449   1.645   6.147
 6443SOL    HW220229   2.577   1.730   6.092
 6444SOL     OW20230   6.447   4.025   5.614
 6444SOL    HW120231   6.526   4.074   5.650
 6444SOL    HW220232   6.478   3.946   5.562
 6445SOL     OW20233   3.095   3.031   3.375
 6445SOL    HW120234   3.035   3.027   3.454
 6445SOL    HW220235   3.190   3.037   3.406
 6446SOL     OW20236   0.395   0.626   1.664
 6446SOL    HW120237   0.409   0.694   1.736
 6446SOL    HW220238   0.410   0.535   1.702
 6447SOL     OW20239   0.486   3.949   2.201
 6447SOL    HW120240   0.406   3.978   2.254
 6447SOL    HW220241   0.471   3.856   2.166
 6448SOL     OW20242   3.831   4.243   1.376
 6448SOL    HW120243   3.752   4.227   1.435
 6448SOL    HW220244   3.903   4.178   1.399
 6449SOL     OW20245   4.325   6.474   6.744
 6449SOL    HW120246   4.391   6.535   6.701
 6449SOL    HW220247   4.374   6.404   6.797
 6450SOL     OW20248   4.429   3.851   0.778
 6450SOL    HW120249   4.420   3.763   0.731
 6450SOL    HW220250   4.493   3.841   0.855
 6451SOL     OW20251   4.501   3.608   1.521
 6451SOL    HW120252   4.414   3.622   1.568
 6451SOL    HW220253   4.528   3.692   1.474
 6452SOL     OW20254   4.843   1.806   4.037
 6452SOL    HW120255   4.867   1.823   4.132
 6452SOL    HW220256   4.745   1.790   4.030
 6453SOL     OW20257   3.084   0.590   2.926
 6453SOL    HW120258   3.046   0.634   3.008
 6453SOL    HW220259   3.173   0.630   2.904
 6454SOL     OW20260   4.577   3.325   5.600
 6454SOL    HW120261   4.648   3.268   5.641
 6454SOL    HW220262   4.534   3.380   5.672
 6455SOL     OW20263   0.254   3.522   5.369
 6455SOL    HW120264   0.190   3.476   5.429
 6455SOL    HW220265   0.325   3.458   5.340
 6456SOL     OW20266   5.964   2.241   3.054
 6456SOL    HW120267   6.043   2.181   3.040
 6456SOL    HW220268   5.970   2.284   3.144
 6457SOL     OW20269   1.722   6.243   3.568
 6457SOL    HW120270   1.810   6.263   3.525
 6457SOL    HW220271   1.717   6.290   3.656
 6458SOL     OW20272   1.047   0.015   4.671
 6458SOL    HW120273   1.077   6.949   4.715
 6458SOL    HW220274   0.948   0.018   4.667
 6459SOL     OW20275   0.157   3.111   3.504
 6459SOL    HW120276   0.085   3.041   3.508
 6459SOL    HW220277   0.205   3.114   3.592
 6460SOL     OW20278   1.427   5.338   5.613
 6460SOL    HW120279   1.391   5.244   5.606
 6460SOL    HW220280   1.408   5.373   5.705
 6461SOL     OW20281   6.325   0.416   2.388
 6461SOL    HW120282   6.268   0.492   2.356
 6461SOL    HW220283   6.277   0.368   2.462
 6462SOL     OW20284   2.818   4.256   5.534
 6462SOL    HW120285   2.740   4.202   5.503
 6462SOL    HW220286   2.903   4.209   5.509
 6463SOL     OW20287   4.794   3.435   1.811
 6463SOL    HW120288   4.837   3.351   1.844
 6463SOL    HW220289   4.747   3.417   1.725
 6464SOL     OW20290   0.828   3.602   3.198
 6464SOL    HW120291   0.777   3.544   3.260
 6464SOL    HW220292   0.794   3.590   3.105
 6465SOL     OW20293   2.818   1.296   2.760
 6465SOL    HW120294   2.747   1.234   2.726
 6465SOL    HW220295   2.839   1.364   2.690
 6466SOL     OW20296   6.281   5.008   6.930
 6466SOL    HW120297   6.207   5.053   6.980
 6466SOL    HW220298   6.354   5.073   6.912
 6467SOL     OW20299   2.976   3.711   6.092
 6467SOL    HW120300   2.966   3.798   6.045
 6467SOL    HW220301   3.070   3.700   6.124
 6468SOL     OW20302   0.753   0.746   6.602
 6468SOL    HW120303   0.796   0.820   6.550
 6468SOL    HW220304   0.769   0.659   6.556
 6469SOL     OW20305   3.005   0.966   1.051
 6469SOL    HW120306   3.091   1.011   1.029
 6469SOL    HW220307   2.932   1.004   0.994
 6470SOL     OW20308   6.297   1.102   6.853
 6470SOL    HW120309   6.356   1.028   6.820
 6470SOL    HW220310   6.203   1.070   6.860
 6471SOL     OW20311   0.181   6.428   5.219
 6471SOL    HW120312   0.179   6.393   5.312
 6471SOL    HW220313   0.191   6.527   5.220
 6472SOL     OW20314   1.184   6.059   0.832
 6472SOL    HW120315   1.118   6.042   0.905
 6472SOL    HW220316   1.139   6.046   0.743
 6473SOL     OW20317   3.230   1.427   3.488
 6473SOL    HW120318   3.220   1.363   3.411
 6473SOL    HW220319   3.318   1.474   3.481
 6474SOL     OW20320   4.286   0.286   4.412
 6474SOL    HW120321   4.235   0.370   4.393
 6474SOL    HW220322   4.254   0.247   4.499
 6475SOL     OW20323   5.813   5.666   4.293
 6475SOL    HW120324   5.874   5.720   4.235
 6475SOL    HW220325   5.820   5.697   4.387
 6476SOL     OW20326   5.376   4.292   4.309
 6476SOL    HW120327   5.306   4.236   4.266
 6476SOL    HW220328   5.453   4.304   4.245
 6477SOL     OW20329   1.083   0.003   0.858
 6477SOL    HW120330   1.017   0.022   0.931
 6477SOL    HW220331   1.039   6.967   0.787
 6478SOL     OW20332   2.264   6.520   0.120
 6478SOL    HW120333   2.326   6.496   0.195
 6478SOL    HW220334   2.180   6.561   0.157
 6479SOL     OW20335   4.674   5.330   4.583
 6479SOL    HW120336   4.611   5.296   4.653
 6479SOL    HW220337   4.623   5.383   4.515
 6480SOL     OW20338   2.682   0.564   4.615
 6480SOL    HW120339   2.718   0.470   4.608
 6480SOL    HW220340   2.686   0.594   4.710
 6481SOL     OW20341   4.060   3.683   1.250
 6481SOL    HW120342   4.052   3.634   1.337
 6481SOL    HW220343   4.118   3.763   1.262
 6482SOL     OW20344   5.274   3.453   3.970
 6482SOL    HW120345   5.209   3.502   4.028
 6482SOL    HW220346   5.355   3.510   3.956
 6483SOL     OW20347   2.090   6.486   5.655
 6483SOL    HW120348   2.098   6.496   5.556
 6483SOL    HW220349   2.123   6.395   5.682
 6484SOL     OW20350   3.568   0.531   3.822
 6484SOL    HW120351   3.602   0.466   3.754
 6484SOL    HW220352   3.613   0.620   3.809
 6485SOL     OW20353   2.429   4.886   5.221
 6485SOL    HW120354   2.415   4.889   5.320
 6485SOL    HW220355   2.341   4.891   5.175
 6486SOL     OW20356   6.681   3.271   2.347
 6486SOL    HW120357   6.616   3.205   2.309
 6486SOL    HW220358   6.632   3.335   2.407
 6487SOL     OW20359   6.078   5.913   4.647
 6487SOL    HW120360   6.118   5.888   4.558
 6487SOL    HW220361   6.138   5.881   4.720
 6488SOL     OW20362   4.058   5.108   3.065
 6488SOL    HW120363   3.991   5.180   3.085
 6488SOL    HW220364   4.062   5.044   3.142
 6489SOL     OW20365   6.784   3.917   5.291
 6489SOL    HW120366   6.739   4.007   5.295
 6489SOL    HW220367   6.782   3.883   5.197
 6490SOL     OW20368   1.999   3.418   5.821
 6490SOL    HW120369   2.040   3.485   5.882
 6490SOL    HW220370   2.034   3.432   5.728
 6491SOL     OW20371   0.851   0.246   2.241
 6491SOL    HW120372   0.895   0.163   2.206
 6491SOL    HW220373   0.888   0.268   2.331
 6492SOL     OW20374   4.061   3.561   2.826
 6492SOL    HW120375   4.059   3.476   2.879
 6492SOL    HW220376   4.091   3.636   2.885
 6493SOL     OW20377   2.118   5.191   3.969
 6493SOL    HW120378   2.051   5.118   3.960
 6493SOL    HW220379   2.160   5.209   3.880
 6494SOL     OW20380   6.742   0.970   1.620
 6494SOL    HW120381   6.702   0.890   1.576
 6494SOL    HW220382   6.683   1.049   1.606
 6495SOL     OW20383   6.470   5.831   2.863
 6495SOL    HW120384   6.566   5.830   2.835
 6495SOL    HW220385   6.455   5.905   2.929
 6496SOL     OW20386   2.793   2.737   1.257
 6496SOL    HW120387   2.827   2.789   1.336
 6496SOL    HW220388   2.847   2.654   1.246
 6497SOL     OW20389   7.018   3.166   1.108
 6497SOL    HW120390   6.986   3.178   1.203
 6497SOL    HW220391   6.946   3.121   1.055
 6498SOL     OW20392   2.514   4.936   4.672
 6498SOL    HW120393   2.572   4.855   4.667
 6498SOL    HW220394   2.484   4.949   4.766
 6499SOL     OW20395   5.382   1.976   2.896
 6499SOL    HW120396   5.310   1.946   2.834
 6499SOL    HW220397   5.471   1.953   2.857
 6500SOL     OW20398   1.876   3.712   2.852
 6500SOL    HW120399   1.943   3.641   2.833
 6500SOL    HW220400   1.882   3.783   2.781
 6501SOL     OW20401   6.616   1.063   2.827
 6501SOL    HW120402   6.534   1.074   2.770
 6501SOL    HW220403   6.693   1.110   2.784
 6502SOL     OW20404   0.887   3.187   2.837
 6502SOL    HW120405   0.924   3.204   2.746
 6502SOL    HW220406   0.804   3.241   2.851
 6503SOL     OW20407   0.958   2.965   5.536
 6503SOL    HW120408   0.932   3.060   5.520
 6503SOL    HW220409   0.981   2.921   5.449
 6504SOL     OW20410   4.180   6.633   5.440
 6504SOL    HW120411   4.091   6.634   5.394
 6504SOL    HW220412   4.238   6.706   5.403
 6505SOL     OW20413   0.923   6.845   6.653
 6505SOL    HW120414   1.010   6.820   6.610
 6505SOL    HW220415   0.905   6.943   6.637
 6506SOL     OW20416   0.983   5.099   2.284
 6506SOL    HW120417   0.980   5.017   2.342
 6506SOL    HW220418   1.039   5.169   2.328
 6507SOL     OW20419   5.151   5.521   0.191
 6507SOL    HW120420   5.109   5.438   0.153
 6507SOL    HW220421   5.162   5.510   0.290
 6508SOL     OW20422   6.970   1.518   4.705
 6508SOL    HW120423   6.927   1.461   4.776
 6508SOL    HW220424   0.048   1.496   4.700
 6509SOL     OW20425   2.770   1.648   6.493
 6509SOL    HW120426   2.728   1.610   6.410
 6509SOL    HW220427   2.824   1.729   6.469
 6510SOL     OW20428   3.950   5.214   4.316
 6510SOL    HW120429   3.921   5.308   4.300
 6510SOL    HW220430   4.010   5.184   4.242
 6511SOL     OW20431   3.685   3.191   0.120
 6511SOL    HW120432   3.644   3.220   0.207
 6511SOL    HW220433   3.621   3.211   0.045
 6512SOL     OW20434   5.355   1.490   2.217
 6512SOL    HW120435   5.280   1.515   2.277
 6512SOL    HW220436   5.381   1.394   2.234
 6513SOL     OW20437   3.277   4.434   1.620
 6513SOL    HW120438   3.247   4.457   1.527
 6513SOL    HW220439   3.376   4.443   1.627
 6514SOL     OW20440   5.521   5.758   5.276
 6514SOL    HW120441   5.545   5.841   5.327
 6514SOL    HW220442   5.516   5.778   5.179
 6515SOL     OW20443   0.356   4.684   2.278
 6515SOL    HW120444   0.452   4.672   2.253
 6515SOL    HW220445   0.322   4.599   2.319
 6516SOL     OW20446   5.657   1.555   3.849
 6516SOL    HW120447   5.644   1.533   3.752
 6516SOL    HW220448   5.637   1.651   3.865
 6517SOL     OW20449   0.094   3.730   1.243
 6517SOL    HW120450   0.029   3.799   1.211
 6517SOL    HW220451   0.187   3.767   1.237
 6518SOL     OW20452   0.946   1.782   2.581
 6518SOL    HW120453   0.894   1.815   2.503
 6518SOL    HW220454   0.885   1.732   2.643
 6519SOL     OW20455   2.378   1.868   3.288
 6519SOL    HW120456   2.367   1.768   3.284
 6519SOL    HW220457   2.379   1.904   3.195
 6520SOL     OW20458   6.138   6.665   6.499
 6520SOL    HW120459   6.189   6.726   6.439
 6520SOL    HW220460   6.152   6.693   6.594
 6521SOL     OW20461   1.884   4.945   4.867
 6521SOL    HW120462   1.865   4.924   4.771
 6521SOL    HW220463   1.951   4.879   4.902
 6522SOL     OW20464   2.433   3.221   5.371
 6522SOL    HW120465   2.402   3.305   5.327
 6522SOL    HW220466   2.425   3.144   5.306
 6523SOL     OW20467   4.681   6.780   0.762
 6523SOL    HW120468   4.662   6.806   0.667
 6523SOL    HW220469   4.745   6.703   0.763
 6524SOL     OW20470   3.700   2.222   1.356
 6524SOL    HW120471   3.709   2.132   1.313
 6524SOL    HW220472   3.788   2.252   1.392
 6525SOL     OW20473   3.174   5.164   3.330
 6525SOL    HW120474   3.236   5.110   3.274
 6525SOL    HW220475   3.188   5.141   3.427
 6526SOL     OW20476   5.916   6.518   0.796
 6526SOL    HW120477   5.932   6.443   0.859
 6526SOL    HW220478   5.854   6.488   0.723
 6527SOL     OW20479   5.589   2.145   0.997
 6527SOL    HW120480   5.601   2.224   0.938
 6527SOL    HW220481   5.679   2.104   1.016
 6528SOL     OW20482   4.520   0.224   0.777
 6528SOL    HW120483   4.575   0.243   0.696
 6528SOL    HW220484   4.494   0.127   0.777
 6529SOL     OW20485   3.425   6.235   1.372
 6529SOL    HW120486   3.485   6.273   1.302
 6529SOL    HW220487   3.369   6.163   1.332
 6530SOL     OW20488   0.813   2.814   4.290
 6530SOL    HW120489   0.806   2.765   4.203
 6530SOL    HW220490   0.885   2.773   4.346
 6531SOL     OW20491   2.972   3.352   4.454
 6531SOL    HW120492   2.966   3.395   4.364
 6531SOL    HW220493   3.016   3.263   4.446
 6532SOL     OW20494   0.475   5.851   6.746
 6532SOL    HW120495   0.504   5.918   6.814
 6532SOL    HW220496   0.449   5.766   6.792
 6533SOL     OW20497   5.830   5.224   1.127
 6533SOL    HW120498   5.924   5.251   1.102
 6533SOL    HW220499   5.817   5.127   1.107
 6534SOL     OW20500   6.011   3.163   4.299
 6534SOL    HW120501   6.062   3.078   4.286
 6534SOL    HW220502   6.018   3.191   4.394
 6535SOL     OW20503   5.454   3.296   6.520
 6535SOL    HW120504   5.435   3.211   6.471
 6535SOL    HW220505   5.553   3.304   6.536
 6536SOL     OW20506   6.690   5.854   5.415
 6536SOL    HW120507   6.709   5.880   5.510
 6536SOL    HW220508   6.757   5.785   5.386
 6537SOL     OW20509   6.571   5.148   4.043
 6537SOL    HW120510   6.641   5.116   4.107
 6537SOL    HW220511   6.608   5.148   3.950
 6538SOL     OW20512   1.504   4.061   3.686
 6538SOL    HW120513   1.409   4.029   3.694
 6538SOL    HW220514   1.561   4.014   3.753
 6539SOL     OW20515   5.806   6.580   5.737
 6539SOL    HW120516   5.756   6.665   5.720
 6539SOL    HW220517   5.747   6.516   5.788
 6540SOL     OW20518   0.609   2.873   5.163
 6540SOL    HW120519   0.562   2.900   5.080
 6540SOL    HW220520   0.637   2.955   5.214
 6541SOL     OW20521   3.167   1.937   5.802
 6541SOL    HW120522   3.187   1.968   5.709
 6541SOL    HW220523   3.075   1.899   5.805
 6542SOL     OW20524   1.779   4.954   1.758
 6542SOL    HW120525   1.830   4.952   1.844
 6542SOL    HW220526   1.783   4.864   1.715
 6543SOL     OW20527   4.295   2.016   3.826
 6543SOL    HW120528   4.379   2.005   3.880
 6543SOL    HW220529   4.306   1.968   3.739
 6544SOL     OW20530   1.253   1.010   1.295
 6544SOL    HW120531   1.254   1.082   1.226
 6544SOL    HW220532   1.162   0.968   1.298
 6545SOL     OW20533   6.411   4.370   0.693
 6545SOL    HW120534   6.381   4.439   0.627
 6545SOL    HW220535   6.499   4.333   0.665
 6546SOL     OW20536   4.413   5.555   4.031
 6546SOL    HW120537   4.379   5.630   4.087
 6546SOL    HW220538   4.430   5.475   4.089
 6547SOL     OW20539   6.831   6.409   4.832
 6547SOL    HW120540   6.846   6.311   4.839
 6547SOL    HW220541   6.909   6.458   4.870
 6548SOL     OW20542   1.632   1.023   5.190
 6548SOL    HW120543   1.596   0.992   5.102
 6548SOL    HW220544   1.632   0.947   5.255
 6549SOL     OW20545   2.357   1.937   2.158
 6549SOL    HW120546   2.385   1.966   2.249
 6549SOL    HW220547   2.260   1.913   2.159
 6550SOL     OW20548   5.281   0.570   1.939
 6550SOL    HW120549   5.307   0.477   1.962
 6550SOL    HW220550   5.343   0.634   1.983
 6551SOL     OW20551   2.175   5.899   1.110
 6551SOL    HW120552   2.268   5.867   1.125
 6551SOL    HW220553   2.157   5.902   1.011
 6552SOL     OW20554   2.392   3.629   6.807
 6552SOL    HW120555   2.337   3.587   6.879
 6552SOL    HW220556   2.366   3.725   6.797
 6553SOL     OW20557   0.446   1.721   3.234
 6553SOL    HW120558   0.459   1.622   3.238
 6553SOL    HW220559   0.504   1.765   3.302
 6554SOL     OW20560   2.163   1.711   4.117
 6554SOL    HW120561   2.078   1.688   4.165
 6554SOL    HW220562   2.241   1.671   4.166
 6555SOL     OW20563   2.051   3.568   1.737
 6555SOL    HW120564   2.120   3.546   1.668
 6555SOL    HW220565   2.097   3.595   1.822
 6556SOL     OW20566   4.838   3.079   3.530
 6556SOL    HW120567   4.820   3.084   3.432
 6556SOL    HW220568   4.893   3.157   3.558
 6557SOL     OW20569   1.931   6.600   2.584
 6557SOL    HW120570   1.927   6.576   2.487
 6557SOL    HW220571   2.007   6.551   2.627
 6558SOL     OW20572   4.600   5.987   0.296
 6558SOL    HW120573   4.628   5.892   0.314
 6558SOL    HW220574   4.559   5.992   0.205
 6559SOL     OW20575   0.090   1.880   6.189
 6559SOL    HW120576   0.161   1.865   6.120
 6559SOL    HW220577   0.011   1.925   6.147
 6560SOL     OW20578   0.018   4.238   6.215
 6560SOL    HW120579   7.001   4.149   6.243
 6560SOL    HW220580   6.961   4.303   6.208
 6561SOL     OW20581   2.382   5.136   6.889
 6561SOL    HW120582   2.479   5.144   6.864
 6561SOL    HW220583   2.373   5.082   6.973
 6562SOL     OW20584   4.893   2.754   1.099
 6562SOL    HW120585   4.858   2.781   1.188
 6562SOL    HW220586   4.842   2.801   1.027
 6563SOL     OW20587   5.774   4.103   6.066
 6563SOL    HW120588   5.764   4.013   6.109
 6563SOL    HW220589   5.752   4.174   6.133
 6564SOL     OW20590   6.120   4.026   2.390
 6564SOL    HW120591   6.094   4.037   2.293
 6564SOL    HW220592   6.185   3.951   2.399
 6565SOL     OW20593   5.421   5.227   1.544
 6565SOL    HW120594   5.389   5.190   1.456
 6565SOL    HW220595   5.511   5.190   1.565
 6566SOL     OW20596   5.452   5.995   4.714
 6566SOL    HW120597   5.496   5.990   4.624
 6566SOL    HW220598   5.520   5.971   4.784
 6567SOL     OW20599   2.736   0.643   2.413
 6567SOL    HW120600   2.762   0.582   2.488
 6567SOL    HW220601   2.669   0.597   2.355
 6568SOL     OW20602   5.577   1.531   0.693
 6568SOL    HW120603   5.570   1.528   0.593
 6568SOL    HW220604   5.545   1.444   0.731
 6569SOL     OW20605   1.529   3.981   3.285
 6569SOL    HW120606   1.581   3.972   3.200
 6569SOL    HW220607   1.559   4.063   3.334
 6570SOL     OW20608   4.275   0.037   2.372
 6570SOL    HW120609   4.190   0.083   2.395
 6570SOL    HW220610   4.316   0.080   2.292
 6571SOL     OW20611   2.355   6.844   3.326
 6571SOL    HW120612   2.415   6.835   3.247
 6571SOL    HW220613   2.410   6.853   3.409
 6572SOL     OW20614   1.015   6.969   3.978
 6572SOL    HW120615   0.928   7.004   3.944
 6572SOL    HW220616   1.025   6.996   4.074
 6573SOL     OW20617   1.149   2.295   3.433
 6573SOL    HW120618   1.123   2.296   3.336
 6573SOL    HW220619   1.156   2.200   3.465
 6574SOL     OW20620   1.661   5.132   1.520
 6574SOL    HW120621   1.692   5.079   1.599
 6574SOL    HW220622   1.735   5.139   1.453
 6575SOL     OW20623   6.855   0.884   4.030
 6575SOL    HW120624   6.897   0.806   3.983
 6575SOL    HW220625   6.893   0.892   4.121
 6576SOL     OW20626   4.344   0.850   3.141
 6576SOL    HW120627   4.429   0.844   3.088
 6576SOL    HW220628   4.268   0.872   3.080
 6577SOL     OW20629   2.862   0.579   5.505
 6577SOL    HW120630   2.960   0.569   5.491
 6577SOL    HW220631   2.813   0.511   5.451
 6578SOL     OW20632   0.573   6.042   0.355
 6578SOL    HW120633   0.657   6.062   0.403
 6578SOL    HW220634   0.559   5.943   0.352
 6579SOL     OW20635   2.157   1.815   2.815
 6579SOL    HW120636   2.112   1.823   2.726
 6579SOL    HW220637   2.227   1.743   2.811
 6580SOL     OW20638   3.448   2.386   0.359
 6580SOL    HW120639   3.397   2.355   0.439
 6580SOL    HW220640   3.425   2.329   0.280
 6581SOL     OW20641   0.933   2.280   1.789
 6581SOL    HW120642   0.851   2.227   1.770
 6581SOL    HW220643   0.957   2.270   1.886
 6582SOL     OW20644   3.615   6.245   3.151
 6582SOL    HW120645   3.662   6.321   3.194
 6582SOL    HW220646   3.606   6.262   3.053
 6583SOL     OW20647   2.406   4.692   0.494
 6583SOL    HW120648   2.443   4.718   0.583
 6583SOL    HW220649   2.307   4.681   0.500
 6584SOL     OW20650   4.636   3.725   5.369
 6584SOL    HW120651   4.726   3.729   5.412
 6584SOL    HW220652   4.641   3.670   5.285
 6585SOL     OW20653   5.201   6.206   1.834
 6585SOL    HW120654   5.207   6.113   1.868
 6585SOL    HW220655   5.114   6.219   1.786
 6586SOL     OW20656   6.638   1.796   6.978
 6586SOL    HW120657   6.667   1.757   0.046
 6586SOL    HW220658   6.550   1.757   6.951
 6587SOL     OW20659   2.699   4.855   5.144
 6587SOL    HW120660   2.737   4.764   5.129
 6587SOL    HW220661   2.599   4.849   5.150
 6588SOL     OW20662   1.638   2.580   0.400
 6588SOL    HW120663   1.645   2.665   0.451
 6588SOL    HW220664   1.561   2.526   0.433
 6589SOL     OW20665   5.859   0.595   0.304
 6589SOL    HW120666   5.902   0.505   0.294
 6589SOL    HW220667   5.802   0.596   0.386
 6590SOL     OW20668   0.627   5.943   4.279
 6590SOL    HW120669   0.598   5.916   4.370
 6590SOL    HW220670   0.571   6.020   4.248
 6591SOL     OW20671   6.300   3.741   3.446
 6591SOL    HW120672   6.335   3.752   3.353
 6591SOL    HW220673   6.209   3.700   3.442
 6592SOL     OW20674   0.530   0.610   4.393
 6592SOL    HW120675   0.441   0.566   4.382
 6592SOL    HW220676   0.598   0.541   4.420
 6593SOL     OW20677   0.800   6.802   3.636
 6593SOL    HW120678   0.771   6.851   3.719
 6593SOL    HW220679   0.837   6.713   3.662
 6594SOL     OW20680   5.303   6.891   6.367
 6594SOL    HW120681   5.233   6.824   6.346
 6594SOL    HW220682   5.299   6.966   6.301
 6595SOL     OW20683   0.552   6.831   4.361
 6595SOL    HW120684   0.638   6.819   4.410
 6595SOL    HW220685   0.569   6.875   4.273
 6596SOL     OW20686   4.807   0.597   3.410
 6596SOL    HW120687   4.830   0.650   3.328
 6596SOL    HW220688   4.882   0.533   3.430
 6597SOL     OW20689   0.694   5.488   1.802
 6597SOL    HW120690   0.741   5.408   1.838
 6597SOL    HW220691   0.628   5.460   1.733
 6598SOL     OW20692   1.376   5.230   1.485
 6598SOL    HW120693   1.359   5.307   1.547
 6598SOL    HW220694   1.467   5.192   1.503
 6599SOL     OW20695   0.085   5.645   0.778
 6599SOL    HW120696   0.061   5.551   0.803
 6599SOL    HW220697   0.021   5.680   0.710
 6600SOL     OW20698   5.274   0.262   4.601
 6600SOL    HW120699   5.250   0.306   4.515
 6600SOL    HW220700   5.300   0.331   4.669
 6601SOL     OW20701   0.964   2.190   3.777
 6601SOL    HW120702   1.013   2.103   3.786
 6601SOL    HW220703   0.978   2.243   3.861
 6602SOL     OW20704   6.025   6.046   0.808
 6602SOL    HW120705   6.064   6.071   0.897
 6602SOL    HW220706   6.031   6.125   0.746
 6603SOL     OW20707   6.888   5.105   2.365
 6603SOL    HW120708   6.798   5.151   2.366
 6603SOL    HW220709   6.908   5.075   2.272
 6604SOL     OW20710   2.548   4.558   2.351
 6604SOL    HW120711   2.503   4.500   2.284
 6604SOL    HW220712   2.631   4.598   2.310
 6605SOL     OW20713   6.751   5.484   0.635
 6605SOL    HW120714   6.799   5.422   0.572
 6605SOL    HW220715   6.740   5.440   0.723
 6606SOL     OW20716   1.182   5.247   3.432
 6606SOL    HW120717   1.246   5.203   3.369
 6606SOL    HW220718   1.141   5.327   3.387
 6607SOL     OW20719   0.497   2.763   4.300
 6607SOL    HW120720   0.438   2.842   4.316
 6607SOL    HW220721   0.501   2.743   4.202
 6608SOL     OW20722   1.390   6.997   5.423
 6608SOL    HW120723   1.310   6.937   5.431
 6608SOL    HW220724   1.405   0.000   5.326
 6609SOL     OW20725   2.672   1.967   0.054
 6609SOL    HW120726   2.643   2.033   0.123
 6609SOL    HW220727   2.676   1.876   0.094
 6610SOL     OW20728   3.288   5.344   0.420
 6610SOL    HW120729   3.227   5.417   0.389
 6610SOL    HW220730   3.234   5.263   0.443
 6611SOL     OW20731   2.640   0.868   4.807
 6611SOL    HW120732   2.738   0.887   4.797
 6611SOL    HW220733   2.627   0.771   4.826
 6612SOL     OW20734   6.194   6.770   6.748
 6612SOL    HW120735   6.231   6.828   6.675
 6612SOL    HW220736   6.158   6.827   6.821
 6613SOL     OW20737   5.087   6.526   0.930
 6613SOL    HW120738   5.186   6.511   0.927
 6613SOL    HW220739   5.068   6.623   0.943
 6614SOL     OW20740   4.136   5.711   0.481
 6614SOL    HW120741   4.146   5.737   0.385
 6614SOL    HW220742   4.054   5.754   0.519
 6615SOL     OW20743   3.939   5.770   6.008
 6615SOL    HW120744   3.959   5.702   5.938
 6615SOL    HW220745   3.978   5.858   5.981
 6616SOL     OW20746   4.290   1.934   6.447
 6616SOL    HW120747   4.320   1.942   6.542
 6616SOL    HW220748   4.370   1.929   6.387
 6617SOL     OW20749   4.062   1.863   3.978
 6617SOL    HW120750   4.127   1.903   3.914
 6617SOL    HW220751   4.051   1.923   4.057
 6618SOL     OW20752   6.254   2.735   3.532
 6618SOL    HW120753   6.237   2.637   3.521
 6618SOL    HW220754   6.226   2.763   3.624
 6619SOL     OW20755   4.913   5.099   3.398
 6619SOL    HW120756   4.987   5.083   3.463
 6619SOL    HW220757   4.890   5.014   3.351
 6620SOL     OW20758   1.717   2.778   3.786
 6620SOL    HW120759   1.720   2.866   3.833
 6620SOL    HW220760   1.769   2.784   3.700
 6621SOL     OW20761   3.590   3.573   3.237
 6621SOL    HW120762   3.622   3.663   3.267
 6621SOL    HW220763   3.624   3.503   3.299
 6622SOL     OW20764   6.804   5.178   1.107
 6622SOL    HW120765   6.721   5.127   1.129
 6622SOL    HW220766   6.813   5.256   1.169
 6623SOL     OW20767   3.584   3.560   4.346
 6623SOL    HW120768   3.655   3.619   4.382
 6623SOL    HW220769   3.602   3.541   4.249
 6624SOL     OW20770   2.191   2.176   2.714
 6624SOL    HW120771   2.169   2.251   2.651
 6624SOL    HW220772   2.131   2.098   2.694
 6625SOL     OW20773   0.893   5.376   6.225
 6625SOL    HW120774   0.983   5.365   6.267
 6625SOL    HW220775   0.824   5.386   6.297
 6626SOL     OW20776   3.806   5.917   5.701
 6626SOL    HW120777   3.873   5.932   5.773
 6626SOL    HW220778   3.806   5.995   5.639
 6627SOL     OW20779   2.330   0.329   4.394
 6627SOL    HW120780   2.247   0.379   4.419
 6627SOL    HW220781   2.341   0.250   4.454
 6628SOL     OW20782   3.673   6.396   3.799
 6628SOL    HW120783   3.668   6.479   3.744
 6628SOL    HW220784   3.632   6.412   3.888
 6629SOL     OW20785   4.985   5.314   5.259
 6629SOL    HW120786   5.062   5.343   5.201
 6629SOL    HW220787   4.940   5.394   5.297
 6630SOL     OW20788   1.774   6.750   0.737
 6630SOL    HW120789   1.744   6.747   0.642
 6630SOL    HW220790   1.735   6.830   0.782
 6631SOL     OW20791   1.479   1.502   5.671
 6631SOL    HW120792   1.414   1.542   5.606
 6631SOL    HW220793   1.454   1.530   5.764
 6632SOL     OW20794   1.112   0.714   6.027
 6632SOL    HW120795   1.094   0.803   5.986
 6632SOL    HW220796   1.181   0.666   5.973
 6633SOL     OW20797   5.155   0.460   5.593
 6633SOL    HW120798   5.242   0.436   5.549
 6633SOL    HW220799   5.083   0.399   5.560
 6634SOL     OW20800   2.880   2.133   4.050
 6634SOL    HW120801   2.807   2.074   4.015
 6634SOL    HW220802   2.921   2.184   3.975
 6635SOL     OW20803   4.432   5.702   6.337
 6635SOL    HW120804   4.440   5.606   6.309
 6635SOL    HW220805   4.411   5.706   6.435
 6636SOL     OW20806   4.783   1.584   1.042
 6636SOL    HW120807   4.800   1.638   1.124
 6636SOL    HW220808   4.717   1.631   0.984
 6637SOL     OW20809   0.584   3.703   0.055
 6637SOL    HW120810   0.661   3.669   0.109
 6637SOL    HW220811   0.552   3.789   0.095
 6638SOL     OW20812   3.340   3.395   4.259
 6638SOL    HW120813   3.410   3.465   4.273
 6638SOL    HW220814   3.277   3.426   4.187
 6639SOL     OW20815   6.045   2.443   2.595
 6639SOL    HW120816   6.012   2.428   2.688
 6639SOL    HW220817   6.058   2.355   2.549
 6640SOL     OW20818   0.107   3.397   4.282
 6640SOL    HW120819   0.086   3.492   4.305
 6640SOL    HW220820   0.086   3.338   4.360
 6641SOL     OW20821   5.305   2.357   0.358
 6641SOL    HW120822   5.402   2.375   0.373
 6641SOL    HW220823   5.294   2.265   0.322
 6642SOL     OW20824   0.803   4.528   6.399
 6642SOL    HW120825   0.729   4.556   6.460
 6642SOL    HW220826   0.776   4.546   6.304
 6643SOL     OW20827   6.330   5.641   5.899
 6643SOL    HW120828   6.398   5.680   5.960
 6643SOL    HW220829   6.334   5.541   5.903
 6644SOL     OW20830   2.107   6.686   3.345
 6644SOL    HW120831   2.182   6.745   3.314
 6644SOL    HW220832   2.093   6.698   3.443
 6645SOL     OW20833   4.661   2.716   5.491
 6645SOL    HW120834   4.663   2.804   5.444
 6645SOL    HW220835   4.568   2.677   5.486
 6646SOL     OW20836   4.352   6.876   5.921
 6646SOL    HW120837   4.297   6.865   6.004
 6646SOL    HW220838   4.313   6.821   5.847
 6647SOL     OW20839   3.230   4.847   0.766
 6647SOL    HW120840   3.268   4.757   0.744
 6647SOL    HW220841   3.142   4.836   0.812
 6648SOL     OW20842   3.208   5.987   5.039
 6648SOL    HW120843   3.170   5.906   5.084
 6648SOL    HW220844   3.139   6.026   4.978
 6649SOL     OW20845   5.373   2.432   5.406
 6649SOL    HW120846   5.374   2.333   5.395
 6649SOL    HW220847   5.289   2.460   5.453
 6650SOL     OW20848   2.506   0.775   4.528
 6650SOL    HW120849   2.542   0.862   4.561
 6650SOL    HW220850   2.572   0.702   4.545
 6651SOL     OW20851   6.097   1.468   3.699
 6651SOL    HW120852   6.192   1.475   3.668
 6651SOL    HW220853   6.077   1.543   3.762
 6652SOL     OW20854   6.660   5.023   0.031
 6652SOL    HW120855   6.699   4.936   0.001
 6652SOL    HW220856   6.589   5.051   6.985
 6653SOL     OW20857   5.506   3.548   6.705
 6653SOL    HW120858   5.596   3.520   6.740
 6653SOL    HW220859   5.471   3.478   6.643
 6654SOL     OW20860   6.766   2.119   3.116
 6654SOL    HW120861   6.816   2.152   3.036
 6654SOL    HW220862   6.765   2.190   3.187
 6655SOL     OW20863   6.605   5.522   1.430
 6655SOL    HW120864   6.510   5.528   1.398
 6655SOL    HW220865   6.614   5.569   1.517
 6656SOL     OW20866   5.721   1.579   2.448
 6656SOL    HW120867   5.807   1.594   2.496
 6656SOL    HW220868   5.711   1.481   2.427
 6657SOL     OW20869   4.935   2.148   4.093
 6657SOL    HW120870   5.003   2.190   4.154
 6657SOL    HW220871   4.912   2.057   4.127
 6658SOL     OW20872   6.316   5.029   3.958
 6658SOL    HW120873   6.409   5.018   3.995
 6658SOL    HW220874   6.254   5.055   4.032
 6659SOL     OW20875   0.667   6.460   0.771
 6659SOL    HW120876   0.583   6.453   0.718
 6659SOL    HW220877   0.692   6.556   0.783
 6660SOL     OW20878   1.506   0.757   3.393
 6660SOL    HW120879   1.599   0.768   3.428
 6660SOL    HW220880   1.441   0.795   3.459
 6661SOL     OW20881   3.520   6.351   3.527
 6661SOL    HW120882   3.431   6.308   3.542
 6661SOL    HW220883   3.516   6.448   3.553
 6662SOL     OW20884   4.048   5.624   1.634
 6662SOL    HW120885   4.110   5.563   1.683
 6662SOL    HW220886   3.983   5.569   1.580
 6663SOL     OW20887   1.769   4.349   5.730
 6663SOL    HW120888   1.707   4.289   5.679
 6663SOL    HW220889   1.826   4.295   5.791
 6664SOL     OW20890   3.164   0.087   1.584
 6664SOL    HW120891   3.101   0.011   1.567
 6664SOL    HW220892   3.165   0.109   1.681
 6665SOL     OW20893   2.810   0.214   6.814
 6665SOL    HW120894   2.748   0.290   6.835
 6665SOL    HW220895   2.903   0.239   6.840
 6666SOL     OW20896   2.935   6.955   6.436
 6666SOL    HW120897   3.025   6.998   6.437
 6666SOL    HW220898   2.864   0.006   6.430
 6667SOL     OW20899   1.253   5.606   0.049
 6667SOL    HW120900   1.279   5.623   0.144
 6667SOL    HW220901   1.153   5.607   0.041
 6668SOL     OW20902   6.884   3.588   5.816
 6668SOL    HW120903   6.981   3.571   5.836
 6668SOL    HW220904   6.874   3.618   5.722
 6669SOL     OW20905   1.092   3.747   3.418
 6669SOL    HW120906   1.019   3.764   3.484
 6669SOL    HW220907   1.137   3.661   3.441
 6670SOL     OW20908   1.971   3.673   0.650
 6670SOL    HW120909   1.920   3.593   0.618
 6670SOL    HW220910   2.007   3.655   0.741
 6671SOL     OW20911   5.476   5.430   0.141
 6671SOL    HW120912   5.378   5.451   0.130
 6671SOL    HW220913   5.506   5.371   0.067
 6672SOL     OW20914   1.454   2.375   1.002
 6672SOL    HW120915   1.394   2.425   0.940
 6672SOL    HW220916   1.426   2.279   1.004
 6673SOL     OW20917   5.638   4.061   4.205
 6673SOL    HW120918   5.737   4.052   4.198
 6673SOL    HW220919   5.603   3.997   4.274
 6674SOL     OW20920   6.601   1.477   0.093
 6674SOL    HW120921   6.561   1.413   0.027
 6674SOL    HW220922   6.528   1.521   0.145
 6675SOL     OW20923   5.341   1.054   1.104
 6675SOL    HW120924   5.293   1.019   1.185
 6675SOL    HW220925   5.368   0.977   1.046
 6676SOL     OW20926   0.866   3.394   5.181
 6676SOL    HW120927   0.901   3.369   5.090
 6676SOL    HW220928   0.939   3.435   5.235
 6677SOL     OW20929   0.484   2.118   0.131
 6677SOL    HW120930   0.539   2.197   0.158
 6677SOL    HW220931   0.525   2.035   0.169
 6678SOL     OW20932   3.251   4.234   0.070
 6678SOL    HW120933   3.158   4.215   0.101
 6678SOL    HW220934   3.311   4.157   0.093
 6679SOL     OW20935   1.529   6.839   3.538
 6679SOL    HW120936   1.540   6.817   3.441
 6679SOL    HW220937   1.575   6.926   3.558
 6680SOL     OW20938   5.994   5.193   1.707
 6680SOL    HW120939   5.972   5.220   1.613
 6680SOL    HW220940   6.093   5.182   1.715
 6681SOL     OW20941   3.150   6.403   1.061
 6681SOL    HW120942   3.110   6.407   0.970
 6681SOL    HW220943   3.119   6.320   1.107
 6682SOL     OW20944   1.979   4.825   6.566
 6682SOL    HW120945   1.957   4.728   6.554
 6682SOL    HW220946   2.073   4.834   6.597
 6683SOL     OW20947   6.563   6.586   5.997
 6683SOL    HW120948   6.527   6.606   6.088
 6683SOL    HW220949   6.553   6.489   5.977
 6684SOL     OW20950   3.253   0.059   5.848
 6684SOL    HW120951   3.226   0.045   5.753
 6684SOL    HW220952   3.350   0.037   5.858
 6685SOL     OW20953   3.917   3.150   0.692
 6685SOL    HW120954   3.826   3.109   0.682
 6685SOL    HW220955   3.947   3.142   0.787
 6686SOL     OW20956   4.175   4.754   5.482
 6686SOL    HW120957   4.250   4.701   5.521
 6686SOL    HW220958   4.151   4.717   5.392
 6687SOL     OW20959   0.157   2.522   1.228
 6687SOL    HW120960   0.063   2.553   1.214
 6687SOL    HW220961   0.215   2.599   1.251
 6688SOL     OW20962   5.873   5.879   0.008
 6688SOL    HW120963   5.796   5.892   0.071
 6688SOL    HW220964   5.847   5.907   6.935
 6689SOL     OW20965   3.927   4.657   5.650
 6689SOL    HW120966   4.021   4.690   5.645
 6689SOL    HW220967   3.909   4.596   5.574
 6690SOL     OW20968   0.829   0.694   0.280
 6690SOL    HW120969   0.912   0.692   0.336
 6690SOL    HW220970   0.766   0.623   0.312
 6691SOL     OW20971   2.024   2.030   2.352
 6691SOL    HW120972   2.078   2.036   2.268
 6691SOL    HW220973   1.942   1.976   2.334
 6692SOL     OW20974   4.549   6.348   2.559
 6692SOL    HW120975   4.546   6.396   2.471
 6692SOL    HW220976   4.588   6.257   2.547
 6693SOL     OW20977   3.084   0.958   6.167
 6693SOL    HW120978   3.058   1.038   6.113
 6693SOL    HW220979   3.109   0.987   6.259
 6694SOL     OW20980   4.612   4.160   1.662
 6694SOL    HW120981   4.565   4.181   1.748
 6694SOL    HW220982   4.704   4.127   1.681
 6695SOL     OW20983   3.105   2.377   7.016
 6695SOL    HW120984   3.112   2.341   6.923
 6695SOL    HW220985   3.183   2.346   0.051
 6696SOL     OW20986   3.650   3.239   5.265
 6696SOL    HW120987   3.597   3.227   5.181
 6696SOL    HW220988   3.626   3.166   5.330
 6697SOL     OW20989   4.789   0.900   2.934
 6697SOL    HW120990   4.822   0.988   2.900
 6697SOL    HW220991   4.858   0.830   2.918
 6698SOL     OW20992   2.679   3.513   1.262
 6698SOL    HW120993   2.755   3.448   1.262
 6698SOL    HW220994   2.632   3.509   1.350
 6699SOL     OW20995   1.675   3.580   5.771
 6699SOL    HW120996   1.736   3.565   5.849
 6699SOL    HW220997   1.583   3.600   5.806
 6700SOL     OW20998   4.769   6.513   1.622
 6700SOL    HW120999   4.840   6.569   1.580
 6700SOL    HW221000   4.690   6.570   1.643
 6701SOL     OW21001   6.886   0.229   1.295
 6701SOL    HW121002   6.886   0.223   1.395
 6701SOL    HW221003   6.940   0.154   1.257
 6702SOL     OW21004   5.232   2.883   1.606
 6702SOL    HW121005   5.227   2.808   1.539
 6702SOL    HW221006   5.215   2.970   1.559
 6703SOL     OW21007   0.127   0.973   0.895
 6703SOL    HW121008   0.035   1.007   0.913
 6703SOL    HW221009   0.185   0.990   0.974
 6704SOL     OW21010   2.084   5.698   6.513
 6704SOL    HW121011   2.114   5.611   6.474
 6704SOL    HW221012   2.156   5.734   6.573
 6705SOL     OW21013   1.699   4.358   2.876
 6705SOL    HW121014   1.664   4.317   2.960
 6705SOL    HW221015   1.715   4.286   2.808
 6706SOL     OW21016   0.210   5.800   1.703
 6706SOL    HW121017   0.246   5.720   1.752
 6706SOL    HW221018   0.258   5.882   1.733
 6707SOL     OW21019   5.598   1.068   2.846
 6707SOL    HW121020   5.670   1.005   2.876
 6707SOL    HW221021   5.568   1.124   2.923
 6708SOL     OW21022   0.243   2.937   1.169
 6708SOL    HW121023   0.151   2.959   1.201
 6708SOL    HW221024   0.290   2.883   1.239
 6709SOL     OW21025   2.200   4.187   2.244
 6709SOL    HW121026   2.160   4.250   2.177
 6709SOL    HW221027   2.173   4.093   2.221
 6710SOL     OW21028   4.970   2.206   1.905
 6710SOL    HW121029   5.042   2.270   1.876
 6710SOL    HW221030   4.897   2.206   1.837
 6711SOL     OW21031   4.284   5.128   6.542
 6711SOL    HW121032   4.216   5.059   6.567
 6711SOL    HW221033   4.353   5.135   6.614
 6712SOL     OW21034   5.844   3.395   0.953
 6712SOL    HW121035   5.756   3.377   0.911
 6712SOL    HW221036   5.896   3.459   0.897
 6713SOL     OW21037   2.263   5.093   4.550
 6713SOL    HW121038   2.360   5.099   4.526
 6713SOL    HW221039   2.253   5.049   4.639
 6714SOL     OW21040   6.273   0.986   2.973
 6714SOL    HW121041   6.334   1.020   2.902
 6714SOL    HW221042   6.270   0.886   2.970
 6715SOL     OW21043   0.419   6.679   5.023
 6715SOL    HW121044   0.337   6.703   5.074
 6715SOL    HW221045   0.398   6.672   4.926
 6716SOL     OW21046   1.707   4.410   1.818
 6716SOL    HW121047   1.627   4.461   1.849
 6716SOL    HW221048   1.752   4.367   1.897
 6717SOL     OW21049   6.228   2.899   5.525
 6717SOL    HW121050   6.270   2.865   5.609
 6717SOL    HW221051   6.233   2.999   5.523
 6718SOL     OW21052   4.753   1.986   0.964
 6718SOL    HW121053   4.742   2.057   0.895
 6718SOL    HW221054   4.686   1.913   0.948
 6719SOL     OW21055   1.282   6.961   0.391
 6719SOL    HW121056   1.225   0.022   0.410
 6719SOL    HW221057   1.280   6.942   0.293
 6720SOL     OW21058   1.882   1.701   4.942
 6720SOL    HW121059   1.892   1.690   4.844
 6720SOL    HW221060   1.969   1.732   4.982
 6721SOL     OW21061   6.402   6.599   0.713
 6721SOL    HW121062   6.377   6.568   0.621
 6721SOL    HW221063   6.322   6.641   0.756
 6722SOL     OW21064   6.985   3.642   1.487
 6722SOL    HW121065   6.921   3.571   1.458
 6722SOL    HW221066   0.009   3.683   1.406
 6723SOL     OW21067   2.104   3.586   4.004
 6723SOL    HW121068   2.054   3.633   3.931
 6723SOL    HW221069   2.147   3.504   3.967
 6724SOL     OW21070   2.327   3.421   5.220
 6724SOL    HW121071   2.298   3.401   5.127
 6724SOL    HW221072   2.276   3.500   5.255
 6725SOL     OW21073   4.754   2.638   3.346
 6725SOL    HW121074   4.755   2.550   3.299
 6725SOL    HW221075   4.698   2.631   3.428
 6726SOL     OW21076   0.236   1.627   0.553
 6726SOL    HW121077   0.326   1.648   0.590
 6726SOL    HW221078   0.192   1.557   0.609
 6727SOL     OW21079   0.839   5.842   5.557
 6727SOL    HW121080   0.781   5.799   5.487
 6727SOL    HW221081   0.914   5.780   5.581
 6728SOL     OW21082   3.495   1.816   5.651
 6728SOL    HW121083   3.505   1.900   5.598
 6728SOL    HW221084   3.546   1.823   5.736
 6729SOL     OW21085   4.419   1.375   2.624
 6729SOL    HW121086   4.386   1.310   2.556
 6729SOL    HW221087   4.346   1.397   2.688
 6730SOL     OW21088   6.821   2.072   1.488
 6730SOL    HW121089   6.803   1.977   1.512
 6730SOL    HW221090   6.910   2.078   1.442
 6731SOL     OW21091   3.871   0.528   5.526
 6731SOL    HW121092   3.948   0.592   5.527
 6731SOL    HW221093   3.906   0.435   5.539
 6732SOL     OW21094   6.615   4.322   6.241
 6732SOL    HW121095   6.607   4.326   6.341
 6732SOL    HW221096   6.525   4.304   6.202
 6733SOL     OW21097   5.890   4.862   6.037
 6733SOL    HW121098   5.902   4.773   6.081
 6733SOL    HW221099   5.893   4.851   5.938
 6734SOL     OW21100   5.711   2.177   5.057
 6734SOL    HW121101   5.665   2.089   5.045
 6734SOL    HW221102   5.644   2.251   5.062
 6735SOL     OW21103   5.494   2.470   4.859
 6735SOL    HW121104   5.443   2.554   4.876
 6735SOL    HW221105   5.531   2.435   4.946
 6736SOL     OW21106   4.205   3.337   0.758
 6736SOL    HW121107   4.110   3.309   0.774
 6736SOL    HW221108   4.209   3.437   0.749
 6737SOL     OW21109   5.920   2.662   1.749
 6737SOL    HW121110   5.968   2.593   1.694
 6737SOL    HW221111   5.835   2.622   1.784
 6738SOL     OW21112   1.708   6.778   3.089
 6738SOL    HW121113   1.773   6.767   3.014
 6738SOL    HW221114   1.757   6.773   3.176
 6739SOL     OW21115   0.083   0.390   5.786
 6739SOL    HW121116   0.143   0.371   5.864
 6739SOL    HW221117   0.056   0.486   5.788
 6740SOL     OW21118   0.560   6.634   1.515
 6740SOL    HW121119   0.619   6.689   1.575
 6740SOL    HW221120   0.537   6.687   1.433
 6741SOL     OW21121   3.046   2.142   0.202
 6741SOL    HW121122   2.967   2.202   0.207
 6741SOL    HW221123   3.017   2.047   0.215
 6742SOL     OW21124   6.426   4.805   2.573
 6742SOL    HW121125   6.385   4.896   2.570
 6742SOL    HW221126   6.517   4.811   2.612
 6743SOL     OW21127   3.970   4.522   0.026
 6743SOL    HW121128   4.014   4.480   0.106
 6743SOL    HW221129   4.038   4.535   6.973
 6744SOL     OW21130   6.537   6.964   5.528
 6744SOL    HW121131   6.615   7.015   5.565
 6744SOL    HW221132   6.459   0.007   5.519
 6745SOL     OW21133   5.687   3.244   5.011
 6745SOL    HW121134   5.692   3.336   5.049
 6745SOL    HW221135   5.638   3.247   4.923
 6746SOL     OW21136   1.617   2.404   2.850
 6746SOL    HW121137   1.645   2.475   2.915
 6746SOL    HW221138   1.661   2.420   2.762
 6747SOL     OW21139   0.621   6.326   4.978
 6747SOL    HW121140   0.661   6.362   4.893
 6747SOL    HW221141   0.669   6.242   5.004
 6748SOL     OW21142   1.585   2.232   3.948
 6748SOL    HW121143   1.571   2.202   3.854
 6748SOL    HW221144   1.648   2.169   3.994
 6749SOL     OW21145   2.966   5.180   1.978
 6749SOL    HW121146   3.061   5.151   1.980
 6749SOL    HW221147   2.960   5.277   1.950
 6750SOL     OW21148   3.581   0.372   5.293
 6750SOL    HW121149   3.669   0.415   5.273
 6750SOL    HW221150   3.591   0.273   5.294
 6751SOL     OW21151   4.275   1.670   4.424
 6751SOL    HW121152   4.187   1.714   4.438
 6751SOL    HW221153   4.341   1.738   4.391
 6752SOL     OW21154   2.362   5.105   2.625
 6752SOL    HW121155   2.377   5.053   2.540
 6752SOL    HW221156   2.315   5.190   2.603
 6753SOL     OW21157   3.519   4.177   6.856
 6753SOL    HW121158   3.436   4.205   6.808
 6753SOL    HW221159   3.515   4.078   6.874
 6754SOL     OW21160   5.816   0.332   0.010
 6754SOL    HW121161   5.759   0.364   0.085
 6754SOL    HW221162   5.860   0.246   0.035
 6755SOL     OW21163   3.689   5.698   5.378
 6755SOL    HW121164   3.600   5.724   5.414
 6755SOL    HW221165   3.701   5.737   5.286
 6756SOL     OW21166   4.407   3.102   5.369
 6756SOL    HW121167   4.398   3.078   5.466
 6756SOL    HW221168   4.445   3.194   5.361
 6757SOL     OW21169   3.762   0.157   1.801
 6757SOL    HW121170   3.816   0.238   1.824
 6757SOL    HW221171   3.799   0.115   1.717
 6758SOL     OW21172   4.937   2.734   3.519
 6758SOL    HW121173   4.885   2.694   3.445
 6758SOL    HW221174   4.892   2.817   3.551
 6759SOL     OW21175   1.678   2.136   1.863
 6759SOL    HW121176   1.588   2.100   1.837
 6759SOL    HW221177   1.716   2.083   1.938
 6760SOL     OW21178   5.349   1.864   5.582
 6760SOL    HW121179   5.351   1.870   5.682
 6760SOL    HW221180   5.382   1.774   5.554
 6761SOL     OW21181   2.708   0.103   4.851
 6761SOL    HW121182   2.633   0.165   4.870
 6761SOL    HW221183   2.744   0.067   4.937
 6762SOL     OW21184   5.340   4.947   4.738
 6762SOL    HW121185   5.357   5.004   4.657
 6762SOL    HW221186   5.321   5.006   4.817
 6763SOL     OW21187   5.448   5.980   3.886
 6763SOL    HW121188   5.509   5.976   3.965
 6763SOL    HW221189   5.376   5.911   3.897
 6764SOL     OW21190   1.299   4.778   2.384
 6764SOL    HW121191   1.255   4.692   2.356
 6764SOL    HW221192   1.311   4.837   2.304
 6765SOL     OW21193   0.279   4.471   2.411
 6765SOL    HW121194   0.298   4.393   2.351
 6765SOL    HW221195   0.295   4.444   2.506
 6766SOL     OW21196   6.066   0.210   1.564
 6766SOL    HW121197   6.154   0.188   1.606
 6766SOL    HW221198   6.082   0.252   1.475
 6767SOL     OW21199   2.649   0.377   1.275
 6767SOL    HW121200   2.605   0.394   1.363
 6767SOL    HW221201   2.729   0.437   1.266
 6768SOL     OW21202   2.130   0.454   6.023
 6768SOL    HW121203   2.213   0.481   6.072
 6768SOL    HW221204   2.075   0.394   6.080
 6769SOL     OW21205   5.602   2.692   1.364
 6769SOL    HW121206   5.628   2.759   1.434
 6769SOL    HW221207   5.567   2.610   1.408
 6770SOL     OW21208   0.099   1.596   1.581
 6770SOL    HW121209   0.081   1.678   1.636
 6770SOL    HW221210   0.042   1.597   1.499
 6771SOL     OW21211   4.482   0.868   3.961
 6771SOL    HW121212   4.563   0.921   3.984
 6771SOL    HW221213   4.424   0.921   3.899
 6772SOL     OW21214   3.085   1.286   5.380
 6772SOL    HW121215   3.081   1.208   5.319
 6772SOL    HW221216   3.165   1.342   5.359
 6773SOL     OW21217   6.991   3.166   2.783
 6773SOL    HW121218   7.004   3.073   2.748
 6773SOL    HW221219   0.031   3.229   2.732
 6774SOL     OW21220   1.165   1.457   5.933
 6774SOL    HW121221   1.231   1.383   5.923
 6774SOL    HW221222   1.115   1.447   6.019
 6775SOL     OW21223   0.423   3.201   0.508
 6775SOL    HW121224   0.405   3.286   0.459
 6775SOL    HW221225   0.489   3.217   0.582
 6776SOL     OW21226   6.503   6.322   5.855
 6776SOL    HW121227   6.510   6.337   5.757
 6776SOL    HW221228   6.591   6.291   5.890
 6777SOL     OW21229   4.224   4.739   0.129
 6777SOL    HW121230   4.218   4.740   0.229
 6777SOL    HW221231   4.222   4.645   0.096
 6778SOL     OW21232   6.696   5.133   3.542
 6778SOL    HW121233   6.718   5.213   3.598
 6778SOL    HW221234   6.761   5.060   3.561
 6779SOL     OW21235   5.480   3.506   6.333
 6779SOL    HW121236   5.434   3.490   6.245
 6779SOL    HW221237   5.472   3.424   6.390
 6780SOL     OW21238   1.372   2.324   1.607
 6780SOL    HW121239   1.410   2.398   1.662
 6780SOL    HW221240   1.416   2.324   1.517
 6781SOL     OW21241   6.026   4.563   5.196
 6781SOL    HW121242   6.019   4.571   5.295
 6781SOL    HW221243   6.033   4.466   5.171
 6782SOL     OW21244   6.382   1.881   3.751
 6782SOL    HW121245   6.437   1.835   3.681
 6782SOL    HW221246   6.298   1.828   3.767
 6783SOL     OW21247   0.987   5.375   0.099
 6783SOL    HW121248   0.985   5.464   0.053
 6783SOL    HW221249   0.895   5.354   0.134
 6784SOL     OW21250   3.841   3.424   0.356
 6784SOL    HW121251   3.917   3.379   0.402
 6784SOL    HW221252   3.871   3.514   0.323
 6785SOL     OW21253   5.109   6.368   1.506
 6785SOL    HW121254   5.049   6.410   1.574
 6785SOL    HW221255   5.201   6.405   1.514
 6786SOL     OW21256   1.961   3.350   5.176
 6786SOL    HW121257   1.982   3.442   5.144
 6786SOL    HW221258   2.037   3.289   5.153
 6787SOL     OW21259   0.757   4.387   2.677
 6787SOL    HW121260   0.793   4.340   2.597
 6787SOL    HW221261   0.833   4.417   2.736
 6788SOL     OW21262   2.689   3.805   0.972
 6788SOL    HW121263   2.624   3.730   0.984
 6788SOL    HW221264   2.681   3.869   1.048
 6789SOL     OW21265   1.949   4.820   3.258
 6789SOL    HW121266   1.997   4.873   3.189
 6789SOL    HW221267   1.976   4.851   3.349
 6790SOL     OW21268   1.266   3.341   1.182
 6790SOL    HW121269   1.174   3.329   1.219
 6790SOL    HW221270   1.334   3.322   1.254
 6791SOL     OW21271   3.558   3.914   5.747
 6791SOL    HW121272   3.541   4.006   5.781
 6791SOL    HW221273   3.483   3.887   5.687
 6792SOL     OW21274   0.774   5.246   0.774
 6792SOL    HW121275   0.682   5.222   0.806
 6792SOL    HW221276   0.826   5.285   0.850
 6793SOL     OW21277   5.820   0.804   0.531
 6793SOL    HW121278   5.736   0.751   0.531
 6793SOL    HW221279   5.896   0.747   0.563
 6794SOL     OW21280   3.131   1.574   5.447
 6794SOL    HW121281   3.086   1.535   5.527
 6794SOL    HW221282   3.087   1.660   5.422
 6795SOL     OW21283   4.139   6.075   7.015
 6795SOL    HW121284   4.199   6.047   6.940
 6795SOL    HW221285   4.151   6.172   0.015
 6796SOL     OW21286   3.883   2.138   2.320
 6796SOL    HW121287   3.977   2.139   2.353
 6796SOL    HW221288   3.880   2.099   2.228
 6797SOL     OW21289   6.653   2.501   2.966
 6797SOL    HW121290   6.615   2.552   2.889
 6797SOL    HW221291   6.680   2.565   3.038
 6798SOL     OW21292   6.352   0.113   2.143
 6798SOL    HW121293   6.314   0.151   2.059
 6798SOL    HW221294   6.446   0.084   2.128
 6799SOL     OW21295   4.808   5.802   2.178
 6799SOL    HW121296   4.816   5.719   2.123
 6799SOL    HW221297   4.739   5.789   2.249
 6800SOL     OW21298   3.388   3.608   6.320
 6800SOL    HW121299   3.430   3.529   6.276
 6800SOL    HW221300   3.376   3.590   6.417
 6801SOL     OW21301   0.176   2.967   3.255
 6801SOL    HW121302   0.188   3.033   3.329
 6801SOL    HW221303   0.202   2.876   3.286
 6802SOL     OW21304   3.399   4.886   2.560
 6802SOL    HW121305   3.395   4.893   2.461
 6802SOL    HW221306   3.323   4.831   2.594
 6803SOL     OW21307   4.380   2.221   0.028
 6803SOL    HW121308   4.376   2.249   0.124
 6803SOL    HW221309   4.464   2.168   0.012
 6804SOL     OW21310   1.549   6.133   3.342
 6804SOL    HW121311   1.555   6.170   3.435
 6804SOL    HW221312   1.620   6.064   3.328
 6805SOL     OW21313   6.422   1.742   5.585
 6805SOL    HW121314   6.381   1.656   5.554
 6805SOL    HW221315   6.514   1.750   5.546
 6806SOL     OW21316   4.854   5.528   5.389
 6806SOL    HW121317   4.757   5.528   5.366
 6806SOL    HW221318   4.891   5.621   5.381
 6807SOL     OW21319   4.260   3.589   6.842
 6807SOL    HW121320   4.276   3.682   6.809
 6807SOL    HW221321   4.347   3.545   6.864
 6808SOL     OW21322   2.543   4.711   3.990
 6808SOL    HW121323   2.454   4.735   4.029
 6808SOL    HW221324   2.569   4.780   3.922
 6809SOL     OW21325   1.263   3.559   6.638
 6809SOL    HW121326   1.317   3.616   6.576
 6809SOL    HW221327   1.190   3.514   6.586
 6810SOL     OW21328   6.008   1.725   3.429
 6810SOL    HW121329   5.973   1.734   3.336
 6810SOL    HW221330   6.108   1.723   3.428
 6811SOL     OW21331   5.047   6.238   2.819
 6811SOL    HW121332   5.136   6.270   2.788
 6811SOL    HW221333   5.050   6.139   2.835
 6812SOL     OW21334   3.745   2.990   2.996
 6812SOL    HW121335   3.657   2.960   2.958
 6812SOL    HW221336   3.819   2.957   2.938
 6813SOL     OW21337   5.470   3.627   0.994
 6813SOL    HW121338   5.498   3.615   0.899
 6813SOL    HW221339   5.392   3.568   1.014
 6814SOL     OW21340   2.322   2.798   0.489
 6814SOL    HW121341   2.263   2.878   0.480
 6814SOL    HW221342   2.285   2.723   0.433
 6815SOL     OW21343   1.470   6.757   6.920
 6815SOL    HW121344   1.472   6.839   6.978
 6815SOL    HW221345   1.563   6.734   6.890
 6816SOL     OW21346   5.271   4.507   1.145
 6816SOL    HW121347   5.293   4.578   1.212
 6816SOL    HW221348   5.223   4.432   1.190
 6817SOL     OW21349   1.802   1.701   6.175
 6817SOL    HW121350   1.765   1.657   6.093
 6817SOL    HW221351   1.888   1.748   6.153
 6818SOL     OW21352   4.348   5.396   0.902
 6818SOL    HW121353   4.258   5.402   0.946
 6818SOL    HW221354   4.336   5.369   0.807
 6819SOL     OW21355   2.871   1.040   3.844
 6819SOL    HW121356   2.807   1.113   3.821
 6819SOL    HW221357   2.939   1.032   3.771
 6820SOL     OW21358   1.752   5.134   4.542
 6820SOL    HW121359   1.792   5.044   4.558
 6820SOL    HW221360   1.653   5.131   4.558
 6821SOL     OW21361   2.112   2.142   4.017
 6821SOL    HW121362   2.085   2.156   4.112
 6821SOL    HW221363   2.033   2.112   3.963
 6822SOL     OW21364   5.607   1.146   5.537
 6822SOL    HW121365   5.583   1.234   5.497
 6822SOL    HW221366   5.538   1.120   5.604
 6823SOL     OW21367   4.027   3.745   2.120
 6823SOL    HW121368   3.975   3.811   2.174
 6823SOL    HW221369   4.080   3.687   2.183
 6824SOL     OW21370   0.797   5.584   4.876
 6824SOL    HW121371   0.856   5.519   4.827
 6824SOL    HW221372   0.719   5.607   4.819
 6825SOL     OW21373   5.920   0.462   4.361
 6825SOL    HW121374   5.832   0.491   4.399
 6825SOL    HW221375   5.941   0.369   4.394
 6826SOL     OW21376   1.227   2.827   3.444
 6826SOL    HW121377   1.163   2.872   3.506
 6826SOL    HW221378   1.213   2.728   3.448
 6827SOL     OW21379   4.029   5.548   5.242
 6827SOL    HW121380   4.117   5.523   5.201
 6827SOL    HW221381   3.955   5.500   5.194
 6828SOL     OW21382   2.107   2.359   0.727
 6828SOL    HW121383   2.082   2.427   0.658
 6828SOL    HW221384   2.170   2.401   0.793
 6829SOL     OW21385   5.950   4.819   3.925
 6829SOL    HW121386   5.874   4.880   3.903
 6829SOL    HW221387   5.929   4.768   4.008
 6830SOL     OW21388   4.836   1.467   3.428
 6830SOL    HW121389   4.839   1.491   3.525
 6830SOL    HW221390   4.811   1.371   3.418
 6831SOL     OW21391   0.506   1.917   6.264
 6831SOL    HW121392   0.605   1.903   6.268
 6831SOL    HW221393   0.487   2.013   6.241
 6832SOL     OW21394   2.529   4.985   1.589
 6832SOL    HW121395   2.629   4.984   1.588
 6832SOL    HW221396   2.496   4.928   1.664
 6833SOL     OW21397   4.406   6.191   6.578
 6833SOL    HW121398   4.420   6.226   6.671
 6833SOL    HW221399   4.494   6.185   6.531
 6834SOL     OW21400   2.765   4.666   2.614
 6834SOL    HW121401   2.744   4.663   2.712
 6834SOL    HW221402   2.760   4.574   2.576
 6835SOL     OW21403   3.777   6.378   4.264
 6835SOL    HW121404   3.820   6.451   4.316
 6835SOL    HW221405   3.797   6.290   4.307
 6836SOL     OW21406   3.868   5.484   0.440
 6836SOL    HW121407   3.923   5.502   0.358
 6836SOL    HW221408   3.797   5.554   0.448
 6837SOL     OW21409   0.774   3.674   2.774
 6837SOL    HW121410   0.758   3.603   2.706
 6837SOL    HW221411   0.709   3.748   2.760
 6838SOL     OW21412   2.601   2.562   0.392
 6838SOL    HW121413   2.637   2.654   0.376
 6838SOL    HW221414   2.560   2.559   0.483
 6839SOL     OW21415   3.433   1.327   1.845
 6839SOL    HW121416   3.517   1.325   1.899
 6839SOL    HW221417   3.367   1.263   1.883
 6840SOL     OW21418   0.821   0.755   5.614
 6840SOL    HW121419   0.910   0.766   5.570
 6840SOL    HW221420   0.805   0.658   5.633
 6841SOL     OW21421   6.942   3.288   5.736
 6841SOL    HW121422   6.852   3.249   5.713
 6841SOL    HW221423   6.931   3.352   5.812
 6842SOL     OW21424   2.619   4.699   2.873
 6842SOL    HW121425   2.540   4.715   2.814
 6842SOL    HW221426   2.587   4.668   2.962
 6843SOL     OW21427   4.052   6.326   1.430
 6843SOL    HW121428   3.998   6.267   1.370
 6843SOL    HW221429   4.114   6.271   1.485
 6844SOL     OW21430   5.861   0.334   5.595
 6844SOL    HW121431   5.914   0.398   5.650
 6844SOL    HW221432   5.768   0.369   5.583
 6845SOL     OW21433   5.693   2.518   2.754
 6845SOL    HW121434   5.664   2.454   2.683
 6845SOL    HW221435   5.780   2.560   2.728
 6846SOL     OW21436   1.483   3.212   0.443
 6846SOL    HW121437   1.472   3.118   0.412
 6846SOL    HW221438   1.439   3.224   0.531
 6847SOL     OW21439   0.075   2.168   3.682
 6847SOL    HW121440   7.011   2.113   3.689
 6847SOL    HW221441   0.060   2.242   3.617
 6848SOL     OW21442   6.791   4.335   4.415
 6848SOL    HW121443   6.784   4.336   4.316
 6848SOL    HW221444   6.715   4.387   4.455
 6849SOL     OW21445   3.059   4.155   5.464
 6849SOL    HW121446   3.083   4.064   5.429
 6849SOL    HW221447   3.088   4.224   5.398
 6850SOL     OW21448   5.742   0.751   4.470
 6850SOL    HW121449   5.709   0.833   4.515
 6850SOL    HW221450   5.809   0.776   4.399
 6851SOL     OW21451   1.954   4.227   3.709
 6851SOL    HW121452   2.053   4.238   3.705
 6851SOL    HW221453   1.928   4.190   3.798
 6852SOL     OW21454   4.619   2.955   0.499
 6852SOL    HW121455   4.584   2.890   0.432
 6852SOL    HW221456   4.542   3.007   0.538
 6853SOL     OW21457   4.784   5.324   5.870
 6853SOL    HW121458   4.767   5.409   5.919
 6853SOL    HW221459   4.801   5.344   5.773
 6854SOL     OW21460   5.286   6.037   5.331
 6854SOL    HW121461   5.349   6.030   5.408
 6854SOL    HW221462   5.293   6.129   5.292
 6855SOL     OW21463   4.095   5.849   2.758
 6855SOL    HW121464   4.062   5.884   2.671
 6855SOL    HW221465   4.034   5.879   2.832
 6856SOL     OW21466   6.374   2.419   1.045
 6856SOL    HW121467   6.314   2.400   1.122
 6856SOL    HW221468   6.469   2.420   1.075
 6857SOL     OW21469   1.531   4.701   5.851
 6857SOL    HW121470   1.465   4.687   5.925
 6857SOL    HW221471   1.523   4.628   5.783
 6858SOL     OW21472   1.323   3.451   1.647
 6858SOL    HW121473   1.256   3.466   1.720
 6858SOL    HW221474   1.300   3.368   1.597
 6859SOL     OW21475   2.955   2.369   0.804
 6859SOL    HW121476   2.929   2.379   0.708
 6859SOL    HW221477   3.012   2.447   0.831
 6860SOL     OW21478   0.528   0.313   6.787
 6860SOL    HW121479   0.568   0.301   6.878
 6860SOL    HW221480   0.558   0.239   6.727
 6861SOL     OW21481   5.924   3.250   0.099
 6861SOL    HW121482   5.939   3.189   0.176
 6861SOL    HW221483   6.006   3.254   0.043
 6862SOL     OW21484   0.733   5.394   3.070
 6862SOL    HW121485   0.779   5.422   2.985
 6862SOL    HW221486   0.783   5.431   3.148
 6863SOL     OW21487   5.008   0.887   5.761
 6863SOL    HW121488   4.933   0.869   5.825
 6863SOL    HW221489   4.974   0.943   5.684
 6864SOL     OW21490   2.093   3.368   6.410
 6864SOL    HW121491   2.127   3.286   6.363
 6864SOL    HW221492   2.159   3.395   6.480
 6865SOL     OW21493   1.558   0.791   2.860
 6865SOL    HW121494   1.499   0.762   2.936
 6865SOL    HW221495   1.510   0.779   2.774
 6866SOL     OW21496   1.799   4.513   6.414
 6866SOL    HW121497   1.883   4.518   6.467
 6866SOL    HW221498   1.724   4.480   6.472
 6867SOL     OW21499   1.773   2.077   6.567
 6867SOL    HW121500   1.714   2.152   6.598
 6867SOL    HW221501   1.869   2.102   6.581
 6868SOL     OW21502   3.810   5.190   4.024
 6868SOL    HW121503   3.798   5.091   4.019
 6868SOL    HW221504   3.839   5.224   3.934
 6869SOL     OW21505   1.360   0.359   5.744
 6869SOL    HW121506   1.290   0.315   5.688
 6869SOL    HW221507   1.446   0.362   5.693
 6870SOL     OW21508   6.323   2.751   6.482
 6870SOL    HW121509   6.252   2.821   6.480
 6870SOL    HW221510   6.346   2.730   6.577
 6871SOL     OW21511   5.892   2.301   3.438
 6871SOL    HW121512   5.924   2.312   3.532
 6871SOL    HW221513   5.889   2.390   3.393
 6872SOL     OW21514   1.726   5.038   0.951
 6872SOL    HW121515   1.803   5.055   1.012
 6872SOL    HW221516   1.754   4.977   0.877
 6873SOL     OW21517   0.544   3.839   2.676
 6873SOL    HW121518   0.579   3.826   2.583
 6873SOL    HW221519   0.524   3.936   2.691
 6874SOL     OW21520   3.986   6.006   1.741
 6874SOL    HW121521   4.030   5.952   1.669
 6874SOL    HW221522   3.914   5.951   1.784
 6875SOL     OW21523   2.673   0.390   6.255
 6875SOL    HW121524   2.743   0.448   6.212
 6875SOL    HW221525   2.667   0.412   6.352
 6876SOL     OW21526   5.815   5.782   3.408
 6876SOL    HW121527   5.902   5.765   3.453
 6876SOL    HW221528   5.828   5.845   3.331
 6877SOL     OW21529   1.319   4.224   1.332
 6877SOL    HW121530   1.226   4.260   1.328
 6877SOL    HW221531   1.330   4.170   1.415
 6878SOL     OW21532   1.696   0.108   3.663
 6878SOL    HW121533   1.689   0.180   3.594
 6878SOL    HW221534   1.786   0.065   3.658
 6879SOL     OW21535   1.538   1.233   1.226
 6879SOL    HW121536   1.586   1.212   1.310
 6879SOL    HW221537   1.600   1.223   1.148
 6880SOL     OW21538   1.757   6.568   0.051
 6880SOL    HW121539   1.765   6.635   6.996
 6880SOL    HW221540   1.682   6.506   0.031
 6881SOL     OW21541   6.731   3.511   1.397
 6881SOL    HW121542   6.658   3.444   1.407
 6881SOL    HW221543   6.769   3.506   1.304
 6882SOL     OW21544   2.543   6.713   6.871
 6882SOL    HW121545   2.566   6.744   6.779
 6882SOL    HW221546   2.444   6.698   6.877
 6883SOL     OW21547   4.541   0.047   1.260
 6883SOL    HW121548   4.575   0.117   1.197
 6883SOL    HW221549   4.608   6.992   1.268
 6884SOL     OW21550   1.672   5.444   3.442
 6884SOL    HW121551   1.755   5.409   3.486
 6884SOL    HW221552   1.592   5.411   3.492
 6885SOL     OW21553   5.537   4.644   4.286
 6885SOL    HW121554   5.443   4.674   4.268
 6885SOL    HW221555   5.599   4.694   4.225
 6886SOL     OW21556   5.765   3.554   0.611
 6886SOL    HW121557   5.717   3.558   0.523
 6886SOL    HW221558   5.814   3.640   0.626
 6887SOL     OW21559   5.264   6.484   5.426
 6887SOL    HW121560   5.313   6.545   5.489
 6887SOL    HW221561   5.188   6.534   5.384
 6888SOL     OW21562   0.199   4.168   1.565
 6888SOL    HW121563   0.187   4.221   1.650
 6888SOL    HW221564   0.133   4.093   1.564
 6889SOL     OW21565   0.660   2.895   5.605
 6889SOL    HW121566   0.753   2.902   5.569
 6889SOL    HW221567   0.624   2.804   5.584
 6890SOL     OW21568   4.585   4.354   3.887
 6890SOL    HW121569   4.657   4.408   3.930
 6890SOL    HW221570   4.501   4.362   3.940
 6891SOL     OW21571   1.433   1.475   0.077
 6891SOL    HW121572   1.496   1.491   0.001
 6891SOL    HW221573   1.483   1.437   0.155
 6892SOL     OW21574   1.504   0.665   5.523
 6892SOL    HW121575   1.549   0.721   5.453
 6892SOL    HW221576   1.504   0.714   5.610
 6893SOL     OW21577   5.956   2.886   0.912
 6893SOL    HW121578   6.051   2.875   0.942
 6893SOL    HW221579   5.913   2.961   0.962
 6894SOL     OW21580   5.428   5.124   6.732
 6894SOL    HW121581   5.401   5.028   6.740
 6894SOL    HW221582   5.505   5.132   6.669
 6895SOL     OW21583   1.394   5.479   3.023
 6895SOL    HW121584   1.436   5.452   2.936
 6895SOL    HW221585   1.448   5.553   3.064
 6896SOL     OW21586   4.893   0.976   6.022
 6896SOL    HW121587   4.926   1.058   6.068
 6896SOL    HW221588   4.808   0.946   6.065
 6897SOL     OW21589   4.204   2.158   4.924
 6897SOL    HW121590   4.192   2.249   4.963
 6897SOL    HW221591   4.166   2.090   4.987
 6898SOL     OW21592   2.001   6.462   1.323
 6898SOL    HW121593   1.909   6.499   1.335
 6898SOL    HW221594   2.001   6.398   1.246
 6899SOL     OW21595   5.899   5.262   3.155
 6899SOL    HW121596   5.823   5.323   3.176
 6899SOL    HW221597   5.909   5.254   3.056
 6900SOL     OW21598   0.540   4.503   4.588
 6900SOL    HW121599   0.485   4.586   4.596
 6900SOL    HW221600   0.587   4.503   4.500
 6901SOL     OW21601   5.108   3.958   6.393
 6901SOL    HW121602   5.156   3.879   6.431
 6901SOL    HW221603   5.036   3.926   6.332
 6902SOL     OW21604   0.149   5.905   5.437
 6902SOL    HW121605   0.226   5.937   5.381
 6902SOL    HW221606   0.140   5.806   5.426
 6903SOL     OW21607   0.591   6.509   5.158
 6903SOL    HW121608   0.549   6.586   5.109
 6903SOL    HW221609   0.600   6.432   5.096
 6904SOL     OW21610   0.920   0.052   6.287
 6904SOL    HW121611   0.936   0.138   6.240
 6904SOL    HW221612   0.957   0.057   6.380
 6905SOL     OW21613   4.723   6.113   5.214
 6905SOL    HW121614   4.683   6.182   5.154
 6905SOL    HW221615   4.651   6.070   5.268
 6906SOL     OW21616   2.712   2.007   3.644
 6906SOL    HW121617   2.763   2.089   3.619
 6906SOL    HW221618   2.775   1.939   3.680
 6907SOL     OW21619   5.515   3.027   0.438
 6907SOL    HW121620   5.425   2.994   0.466
 6907SOL    HW221621   5.572   3.041   0.520
 6908SOL     OW21622   3.314   5.470   0.945
 6908SOL    HW121623   3.336   5.464   0.848
 6908SOL    HW221624   3.221   5.435   0.961
 6909SOL     OW21625   5.907   5.097   2.917
 6909SOL    HW121626   5.915   5.157   2.837
 6909SOL    HW221627   5.811   5.070   2.927
 6910SOL     OW21628   1.492   2.500   2.204
 6910SOL    HW121629   1.406   2.550   2.190
 6910SOL    HW221630   1.569   2.557   2.174
 6911SOL     OW21631   2.188   6.636   5.226
 6911SOL    HW121632   2.200   6.644   5.127
 6911SOL    HW221633   2.124   6.706   5.257
 6912SOL     OW21634   2.365   4.066   6.462
 6912SOL    HW121635   2.333   4.127   6.535
 6912SOL    HW221636   2.464   4.061   6.464
 6913SOL     OW21637   4.369   5.894   5.990
 6913SOL    HW121638   4.324   5.875   6.077
 6913SOL    HW221639   4.387   5.808   5.942
 6914SOL     OW21640   1.029   2.101   2.049
 6914SOL    HW121641   0.986   2.185   2.081
 6914SOL    HW221642   1.110   2.081   2.104
 6915SOL     OW21643   6.340   3.450   4.173
 6915SOL    HW121644   6.416   3.510   4.198
 6915SOL    HW221645   6.255   3.486   4.210
 6916SOL     OW21646   4.489   5.956   5.274
 6916SOL    HW121647   4.561   5.891   5.246
 6916SOL    HW221648   4.447   5.925   5.359
 6917SOL     OW21649   3.459   5.549   1.923
 6917SOL    HW121650   3.366   5.513   1.912
 6917SOL    HW221651   3.459   5.647   1.907
 6918SOL     OW21652   1.642   3.659   6.643
 6918SOL    HW121653   1.675   3.600   6.716
 6918SOL    HW221654   1.719   3.702   6.596
 6919SOL     OW21655   6.216   6.066   3.629
 6919SOL    HW121656   6.185   6.108   3.715
 6919SOL    HW221657   6.297   6.113   3.596
 6920SOL     OW21658   0.673   3.083   5.354
 6920SOL    HW121659   0.739   3.139   5.403
 6920SOL    HW221660   0.609   3.042   5.419
 6921SOL     OW21661   3.394   0.538   5.433
 6921SOL    HW121662   3.428   0.484   5.356
 6921SOL    HW221663   3.382   0.633   5.404
 6922SOL     OW21664   2.935   4.222   6.576
 6922SOL    HW121665   2.952   4.319   6.564
 6922SOL    HW221666   3.021   4.172   6.575
 6923SOL     OW21667   5.109   6.865   2.970
 6923SOL    HW121668   5.121   6.766   2.980
 6923SOL    HW221669   5.040   6.897   3.036
 6924SOL     OW21670   2.799   4.979   1.563
 6924SOL    HW121671   2.810   5.006   1.658
 6924SOL    HW221672   2.833   4.886   1.551
 6925SOL     OW21673   6.232   0.013   4.549
 6925SOL    HW121674   6.295   0.063   4.489
 6925SOL    HW221675   6.245   0.045   4.643
 6926SOL     OW21676   2.732   2.823   0.298
 6926SOL    HW121677   2.824   2.825   0.260
 6926SOL    HW221678   2.667   2.852   0.227
 6927SOL     OW21679   3.135   6.515   5.460
 6927SOL    HW121680   3.120   6.554   5.551
 6927SOL    HW221681   3.110   6.582   5.391
 6928SOL     OW21682   4.082   5.593   0.790
 6928SOL    HW121683   4.025   5.673   0.774
 6928SOL    HW221684   4.049   5.517   0.733
 6929SOL     OW21685   4.747   5.895   3.793
 6929SOL    HW121686   4.745   5.973   3.732
 6929SOL    HW221687   4.728   5.925   3.887
 6930SOL     OW21688   0.366   6.272   2.234
 6930SOL    HW121689   0.284   6.289   2.289
 6930SOL    HW221690   0.399   6.359   2.196
 6931SOL     OW21691   4.174   3.098   0.024
 6931SOL    HW121692   4.106   3.165   0.052
 6931SOL    HW221693   4.175   3.021   0.088
 6932SOL     OW21694   3.572   0.742   6.986
 6932SOL    HW121695   3.671   0.746   6.970
 6932SOL    HW221696   3.539   0.650   6.968
 6933SOL     OW21697   3.900   6.214   5.960
 6933SOL    HW121698   3.899   6.300   5.910
 6933SOL    HW221699   3.898   6.233   6.059
 6934SOL     OW21700   4.604   5.483   0.023
 6934SOL    HW121701   4.538   5.485   6.967
 6934SOL    HW221702   4.654   5.569   0.027
 6935SOL     OW21703   4.258   5.374   2.088
 6935SOL    HW121704   4.273   5.460   2.039
 6935SOL    HW221705   4.263   5.391   2.186
 6936SOL     OW21706   1.203   1.307   6.992
 6936SOL    HW121707   1.227   1.338   6.900
 6936SOL    HW221708   1.158   1.382   0.023
 6937SOL     OW21709   6.733   4.192   0.026
 6937SOL    HW121710   6.709   4.157   6.955
 6937SOL    HW221711   6.652   4.231   0.070
 6938SOL     OW21712   2.878   6.953   5.398
 6938SOL    HW121713   2.871   6.984   5.303
 6938SOL    HW221714   2.787   6.935   5.435
 6939SOL     OW21715   6.218   3.067   3.127
 6939SOL    HW121716   6.232   2.976   3.166
 6939SOL    HW221717   6.237   3.136   3.196
 6940SOL     OW21718   0.736   6.750   1.137
 6940SOL    HW121719   0.645   6.718   1.164
 6940SOL    HW221720   0.795   6.672   1.117
 6941SOL     OW21721   4.144   3.540   2.292
 6941SOL    HW121722   4.119   3.548   2.388
 6941SOL    HW221723   4.240   3.515   2.284
 6942SOL     OW21724   0.229   5.433   2.629
 6942SOL    HW121725   0.313   5.386   2.656
 6942SOL    HW221726   0.168   5.440   2.708
 6943SOL     OW21727   3.305   5.451   5.280
 6943SOL    HW121728   3.397   5.450   5.243
 6943SOL    HW221729   3.302   5.398   5.365
 6944SOL     OW21730   1.099   5.380   5.872
 6944SOL    HW121731   1.123   5.335   5.958
 6944SOL    HW221732   1.117   5.318   5.796
 6945SOL     OW21733   3.873   1.835   0.718
 6945SOL    HW121734   3.906   1.799   0.631
 6945SOL    HW221735   3.889   1.768   0.791
 6946SOL     OW21736   5.536   5.125   3.903
 6946SOL    HW121737   5.614   5.076   3.863
 6946SOL    HW221738   5.559   5.155   3.996
 6947SOL     OW21739   6.340   3.408   5.372
 6947SOL    HW121740   6.403   3.421   5.295
 6947SOL    HW221741   6.337   3.492   5.427
 6948SOL     OW21742   0.239   5.246   6.229
 6948SOL    HW121743   0.196   5.315   6.172
 6948SOL    HW221744   0.186   5.234   6.313
 6949SOL     OW21745   1.825   1.348   3.266
 6949SOL    HW121746   1.876   1.343   3.351
 6949SOL    HW221747   1.798   1.255   3.237
 6950SOL     OW21748   1.649   1.125   4.536
 6950SOL    HW121749   1.645   1.127   4.437
 6950SOL    HW221750   1.558   1.107   4.573
 6951SOL     OW21751   1.163   3.240   0.182
 6951SOL    HW121752   1.116   3.297   0.115
 6951SOL    HW221753   1.110   3.157   0.198
 6952SOL     OW21754   4.305   4.914   3.702
 6952SOL    HW121755   4.247   4.987   3.666
 6952SOL    HW221756   4.280   4.895   3.796
 6953SOL     OW21757   0.710   0.627   1.605
 6953SOL    HW121758   0.784   0.596   1.665
 6953SOL    HW221759   0.625   0.636   1.657
 6954SOL     OW21760   6.503   5.087   5.889
 6954SOL    HW121761   6.520   5.066   5.985
 6954SOL    HW221762   6.586   5.069   5.835
 6955SOL     OW21763   3.837   5.363   3.139
 6955SOL    HW121764   3.894   5.430   3.091
 6955SOL    HW221765   3.766   5.330   3.078
 6956SOL     OW21766   6.591   4.233   2.683
 6956SOL    HW121767   6.547   4.192   2.603
 6956SOL    HW221768   6.651   4.307   2.654
 6957SOL     OW21769   5.355   4.102   5.443
 6957SOL    HW121770   5.380   4.171   5.511
 6957SOL    HW221771   5.311   4.146   5.365
 6958SOL     OW21772   3.534   3.856   1.581
 6958SOL    HW121773   3.446   3.901   1.598
 6958SOL    HW221774   3.522   3.787   1.510
 6959SOL     OW21775   0.399   3.339   3.245
 6959SOL    HW121776   0.339   3.325   3.324
 6959SOL    HW221777   0.399   3.435   3.219
 6960SOL     OW21778   5.170   4.453   0.707
 6960SOL    HW121779   5.249   4.473   0.765
 6960SOL    HW221780   5.142   4.536   0.659
 6961SOL     OW21781   4.596   2.559   4.450
 6961SOL    HW121782   4.633   2.650   4.433
 6961SOL    HW221783   4.614   2.533   4.545
 6962SOL     OW21784   2.585   6.645   0.868
 6962SOL    HW121785   2.669   6.610   0.910
 6962SOL    HW221786   2.544   6.714   0.927
 6963SOL     OW21787   0.800   0.161   6.936
 6963SOL    HW121788   0.743   0.182   7.016
 6963SOL    HW221789   0.891   0.132   6.966
 6964SOL     OW21790   2.312   1.355   5.868
 6964SOL    HW121791   2.294   1.257   5.881
 6964SOL    HW221792   2.226   1.403   5.853
 6965SOL     OW21793   1.622   1.258   0.254
 6965SOL    HW121794   1.650   1.340   0.303
 6965SOL    HW221795   1.686   1.240   0.179
 6966SOL     OW21796   1.225   6.342   0.887
 6966SOL    HW121797   1.136   6.335   0.842
 6966SOL    HW221798   1.275   6.257   0.873
 6967SOL     OW21799   4.068   6.865   6.547
 6967SOL    HW121800   4.059   6.841   6.643
 6967SOL    HW221801   4.078   6.782   6.492
 6968SOL     OW21802   4.390   0.353   2.229
 6968SOL    HW121803   4.408   0.414   2.151
 6968SOL    HW221804   4.408   0.402   2.314
 6969SOL     OW21805   1.548   3.243   2.683
 6969SOL    HW121806   1.551   3.154   2.637
 6969SOL    HW221807   1.454   3.264   2.708
 6970SOL     OW21808   3.634   5.931   5.940
 6970SOL    HW121809   3.596   5.839   5.946
 6970SOL    HW221810   3.656   5.952   5.844
 6971SOL     OW21811   0.362   3.884   0.364
 6971SOL    HW121812   0.438   3.875   0.299
 6971SOL    HW221813   0.394   3.860   0.456
 6972SOL     OW21814   5.756   3.656   1.071
 6972SOL    HW121815   5.839   3.702   1.040
 6972SOL    HW221816   5.763   3.558   1.050
 6973SOL     OW21817   0.980   0.867   3.013
 6973SOL    HW121818   0.980   0.903   3.107
 6973SOL    HW221819   1.043   0.789   3.008
 6974SOL     OW21820   3.840   4.002   2.991
 6974SOL    HW121821   3.801   4.075   3.047
 6974SOL    HW221822   3.850   4.034   2.896
 6975SOL     OW21823   3.315   5.313   5.509
 6975SOL    HW121824   3.277   5.221   5.507
 6975SOL    HW221825   3.382   5.319   5.583
 6976SOL     OW21826   5.115   4.856   5.633
 6976SOL    HW121827   5.168   4.789   5.685
 6976SOL    HW221828   5.069   4.919   5.696
 6977SOL     OW21829   4.156   4.700   2.388
 6977SOL    HW121830   4.198   4.776   2.338
 6977SOL    HW221831   4.062   4.687   2.356
 6978SOL     OW21832   0.611   3.184   1.213
 6978SOL    HW121833   0.517   3.211   1.233
 6978SOL    HW221834   0.634   3.211   1.119
 6979SOL     OW21835   0.959   4.421   2.873
 6979SOL    HW121836   1.006   4.333   2.870
 6979SOL    HW221837   1.006   4.481   2.938
 6980SOL     OW21838   2.920   4.917   2.920
 6980SOL    HW121839   2.863   4.846   2.878
 6980SOL    HW221840   2.968   4.968   2.848
 6981SOL     OW21841   4.247   2.735   6.715
 6981SOL    HW121842   4.286   2.725   6.624
 6981SOL    HW221843   4.156   2.776   6.708
 6982SOL     OW21844   6.610   6.421   1.874
 6982SOL    HW121845   6.692   6.441   1.926
 6982SOL    HW221846   6.605   6.322   1.856
 6983SOL     OW21847   6.508   0.590   4.055
 6983SOL    HW121848   6.426   0.643   4.032
 6983SOL    HW221849   6.560   0.638   4.126
 6984SOL     OW21850   1.431   4.412   3.383
 6984SOL    HW121851   1.477   4.323   3.393
 6984SOL    HW221852   1.386   4.436   3.468
 6985SOL     OW21853   5.095   3.153   0.944
 6985SOL    HW121854   5.038   3.144   1.026
 6985SOL    HW221855   5.062   3.091   0.873
 6986SOL     OW21856   4.782   6.224   4.796
 6986SOL    HW121857   4.704   6.287   4.788
 6986SOL    HW221858   4.859   6.261   4.744
 6987SOL     OW21859   0.131   1.550   6.932
 6987SOL    HW121860   0.150   1.619   7.001
 6987SOL    HW221861   0.116   1.594   6.843
 6988SOL     OW21862   1.259   0.263   6.480
 6988SOL    HW121863   1.189   0.333   6.492
 6988SOL    HW221864   1.284   0.258   6.383
 6989SOL     OW21865   0.474   3.119   2.370
 6989SOL    HW121866   0.435   3.210   2.358
 6989SOL    HW221867   0.568   3.118   2.337
 6990SOL     OW21868   3.452   5.207   6.726
 6990SOL    HW121869   3.512   5.232   6.802
 6990SOL    HW221870   3.360   5.187   6.760
 6991SOL     OW21871   5.298   4.054   4.082
 6991SOL    HW121872   5.243   4.117   4.028
 6991SOL    HW221873   5.358   4.002   4.022
 6992SOL     OW21874   1.531   5.045   6.144
 6992SOL    HW121875   1.546   5.122   6.206
 6992SOL    HW221876   1.561   4.960   6.187
 6993SOL     OW21877   4.119   2.147   1.863
 6993SOL    HW121878   4.105   2.058   1.907
 6993SOL    HW221879   4.214   2.175   1.873
 6994SOL     OW21880   2.555   1.091   3.123
 6994SOL    HW121881   2.654   1.093   3.136
 6994SOL    HW221882   2.519   1.184   3.123
 6995SOL     OW21883   6.953   5.094   0.413
 6995SOL    HW121884   6.877   5.030   0.424
 6995SOL    HW221885   0.005   5.052   0.357
 6996SOL     OW21886   1.439   0.880   6.782
 6996SOL    HW121887   1.358   0.822   6.788
 6996SOL    HW221888   1.419   0.970   6.820
 6997SOL     OW21889   6.250   5.837   6.229
 6997SOL    HW121890   6.282   5.931   6.241
 6997SOL    HW221891   6.177   5.835   6.160
 6998SOL     OW21892   0.314   1.258   6.195
 6998SOL    HW121893   0.263   1.172   6.202
 6998SOL    HW221894   0.256   1.328   6.152
 6999SOL     OW21895   0.533   2.755   6.870
 6999SOL    HW121896   0.453   2.697   6.852
 6999SOL    HW221897   0.593   2.710   6.936
 7000SOL     OW21898   0.521   4.968   2.536
 7000SOL    HW121899   0.607   5.017   2.518
 7000SOL    HW221900   0.460   4.979   2.458
 7001SOL     OW21901   0.949   1.226   4.015
 7001SOL    HW121902   1.001   1.142   4.030
 7001SOL    HW221903   0.855   1.213   4.047
 7002SOL     OW21904   1.540   4.822   3.054
 7002SOL    HW121905   1.468   4.873   3.007
 7002SOL    HW221906   1.574   4.750   2.994
 7003SOL     OW21907   0.282   5.082   6.006
 7003SOL    HW121908   0.192   5.090   5.963
 7003SOL    HW221909   0.282   5.129   6.094
 7004SOL     OW21910   1.063   0.619   0.082
 7004SOL    HW121911   0.979   0.628   0.135
 7004SOL    HW221912   1.041   0.583   7.010
 7005SOL     OW21913   1.432   5.065   0.409
 7005SOL    HW121914   1.495   5.023   0.474
 7005SOL    HW221915   1.388   4.993   0.354
 7006SOL     OW21916   1.140   0.319   3.382
 7006SOL    HW121917   1.189   0.358   3.459
 7006SOL    HW221918   1.193   0.331   3.298
 7007SOL     OW21919   1.902   6.300   6.416
 7007SOL    HW121920   1.933   6.375   6.357
 7007SOL    HW221921   1.833   6.246   6.369
 7008SOL     OW21922   6.240   2.750   2.781
 7008SOL    HW121923   6.325   2.705   2.753
 7008SOL    HW221924   6.256   2.847   2.797
 7009SOL     OW21925   5.627   5.401   2.309
 7009SOL    HW121926   5.602   5.348   2.229
 7009SOL    HW221927   5.620   5.344   2.391
 7010SOL     OW21928   5.178   2.660   2.774
 7010SOL    HW121929   5.262   2.614   2.745
 7010SOL    HW221930   5.138   2.708   2.696
 7011SOL     OW21931   1.583   5.556   6.795
 7011SOL    HW121932   1.620   5.593   6.710
 7011SOL    HW221933   1.541   5.629   6.849
 7012SOL     OW21934   0.731   3.752   0.323
 7012SOL    HW121935   0.788   3.670   0.317
 7012SOL    HW221936   0.719   3.777   0.419
 7013SOL     OW21937   2.622   2.597   0.100
 7013SOL    HW121938   2.620   2.574   0.198
 7013SOL    HW221939   2.608   2.695   0.088
 7014SOL     OW21940   0.305   3.791   0.886
 7014SOL    HW121941   0.280   3.789   0.983
 7014SOL    HW221942   0.224   3.769   0.831
 7015SOL     OW21943   5.721   6.254   1.644
 7015SOL    HW121944   5.708   6.304   1.730
 7015SOL    HW221945   5.808   6.280   1.603
 7016SOL     OW21946   2.772   5.036   0.923
 7016SOL    HW121947   2.760   5.066   0.829
 7016SOL    HW221948   2.831   4.955   0.925
 7017SOL     OW21949   6.012   3.599   6.871
 7017SOL    HW121950   6.003   3.629   6.966
 7017SOL    HW221951   6.005   3.679   6.810
 7018SOL     OW21952   6.244   2.596   4.234
 7018SOL    HW121953   6.265   2.593   4.332
 7018SOL    HW221954   6.326   2.623   4.183
 7019SOL     OW21955   3.075   6.584   2.564
 7019SOL    HW121956   3.036   6.494   2.545
 7019SOL    HW221957   3.059   6.645   2.486
 7020SOL     OW21958   6.447   1.759   0.939
 7020SOL    HW121959   6.539   1.790   0.967
 7020SOL    HW221960   6.400   1.719   1.018
 7021SOL     OW21961   0.788   2.326   4.673
 7021SOL    HW121962   0.710   2.282   4.628
 7021SOL    HW221963   0.797   2.420   4.639
 7022SOL     OW21964   2.161   3.880   1.297
 7022SOL    HW121965   2.066   3.847   1.296
 7022SOL    HW221966   2.219   3.811   1.342
 7023SOL     OW21967   6.676   1.860   1.030
 7023SOL    HW121968   6.753   1.918   1.002
 7023SOL    HW221969   6.617   1.911   1.092
 7024SOL     OW21970   3.693   4.384   5.231
 7024SOL    HW121971   3.644   4.402   5.145
 7024SOL    HW221972   3.756   4.308   5.218
 7025SOL     OW21973   3.536   0.700   0.998
 7025SOL    HW121974   3.525   0.755   1.081
 7025SOL    HW221975   3.470   0.625   0.999
 7026SOL     OW21976   2.839   2.422   1.477
 7026SOL    HW121977   2.826   2.504   1.533
 7026SOL    HW221978   2.887   2.352   1.530
 7027SOL     OW21979   2.729   4.069   0.405
 7027SOL    HW121980   2.651   4.105   0.455
 7027SOL    HW221981   2.718   4.090   0.308
 7028SOL     OW21982   3.150   0.820   1.983
 7028SOL    HW121983   3.109   0.894   1.929
 7028SOL    HW221984   3.110   0.821   2.075
 7029SOL     OW21985   3.428   4.070   3.351
 7029SOL    HW121986   3.389   4.074   3.259
 7029SOL    HW221987   3.528   4.068   3.344
 7030SOL     OW21988   5.709   0.304   4.665
 7030SOL    HW121989   5.672   0.352   4.585
 7030SOL    HW221990   5.763   0.226   4.635
 7031SOL     OW21991   5.763   4.349   0.546
 7031SOL    HW121992   5.817   4.266   0.530
 7031SOL    HW221993   5.787   4.418   0.478
 7032SOL     OW21994   3.792   4.900   4.080
 7032SOL    HW121995   3.786   4.903   4.180
 7032SOL    HW221996   3.703   4.877   4.042
 7033SOL     OW21997   2.321   1.591   5.424
 7033SOL    HW121998   2.361   1.509   5.465
 7033SOL    HW221999   2.224   1.595   5.444
 7034SOL     OW22000   6.576   2.585   2.483
 7034SOL    HW122001   6.529   2.641   2.416
 7034SOL    HW222002   6.515   2.513   2.516
 7035SOL     OW22003   3.785   2.315   0.922
 7035SOL    HW122004   3.788   2.386   0.992
 7035SOL    HW222005   3.877   2.298   0.887
 7036SOL     OW22006   6.599   1.697   1.927
 7036SOL    HW122007   6.572   1.776   1.872
 7036SOL    HW222008   6.547   1.617   1.899
 7037SOL     OW22009   0.435   1.666   5.396
 7037SOL    HW122010   0.431   1.713   5.484
 7037SOL    HW222011   0.524   1.683   5.353
 7038SOL     OW22012   1.358   3.961   0.143
 7038SOL    HW122013   1.341   4.060   0.137
 7038SOL    HW222014   1.276   3.912   0.114
 7039SOL     OW22015   6.283   0.435   1.616
 7039SOL    HW122016   6.259   0.525   1.651
 7039SOL    HW222017   6.296   0.372   1.693
 7040SOL     OW22018   4.993   3.183   4.880
 7040SOL    HW122019   4.912   3.126   4.898
 7040SOL    HW222020   5.071   3.147   4.931
 7041SOL     OW22021   1.023   6.796   2.689
 7041SOL    HW122022   1.038   6.709   2.736
 7041SOL    HW222023   0.924   6.813   2.681
 7042SOL     OW22024   4.553   5.168   5.292
 7042SOL    HW122025   4.466   5.202   5.257
 7042SOL    HW222026   4.591   5.102   5.227
 7043SOL     OW22027   2.457   5.893   0.216
 7043SOL    HW122028   2.476   5.959   0.289
 7043SOL    HW222029   2.448   5.802   0.256
 7044SOL     OW22030   4.779   6.474   5.326
 7044SOL    HW122031   4.872   6.484   5.360
 7044SOL    HW222032   4.714   6.492   5.401
 7045SOL     OW22033   5.636   0.871   1.508
 7045SOL    HW122034   5.600   0.959   1.539
 7045SOL    HW222035   5.669   0.881   1.414
 7046SOL     OW22036   2.913   1.100   2.409
 7046SOL    HW122037   2.838   1.037   2.433
 7046SOL    HW222038   2.876   1.191   2.392
 7047SOL     OW22039   1.162   6.835   1.047
 7047SOL    HW122040   1.232   6.882   1.100
 7047SOL    HW222041   1.125   6.898   0.978
 7048SOL     OW22042   0.544   5.532   4.813
 7048SOL    HW122043   0.510   5.449   4.857
 7048SOL    HW222044   0.473   5.602   4.816
 7049SOL     OW22045   2.084   1.288   5.160
 7049SOL    HW122046   2.008   1.230   5.189
 7049SOL    HW222047   2.065   1.383   5.183
 7050SOL     OW22048   4.155   4.691   0.403
 7050SOL    HW122049   4.122   4.756   0.471
 7050SOL    HW222050   4.221   4.630   0.446
 7051SOL     OW22051   2.075   0.843   2.095
 7051SOL    HW122052   2.079   0.761   2.038
 7051SOL    HW222053   2.147   0.840   2.164
 7052SOL     OW22054   5.480   2.194   2.619
 7052SOL    HW122055   5.548   2.248   2.570
 7052SOL    HW222056   5.438   2.129   2.556
 7053SOL     OW22057   0.841   4.714   3.504
 7053SOL    HW122058   0.932   4.752   3.521
 7053SOL    HW222059   0.850   4.623   3.464
 7054SOL     OW22060   5.395   6.780   1.081
 7054SOL    HW122061   5.362   6.873   1.097
 7054SOL    HW222062   5.451   6.779   0.998
 7055SOL     OW22063   2.439   0.113   6.984
 7055SOL    HW122064   2.342   0.137   6.988
 7055SOL    HW222065   2.459   0.071   6.895
 7056SOL     OW22066   0.516   5.451   1.604
 7056SOL    HW122067   0.481   5.514   1.535
 7056SOL    HW222068   0.440   5.395   1.639
 7057SOL     OW22069   3.126   5.755   5.132
 7057SOL    HW122070   3.068   5.757   5.213
 7057SOL    HW222071   3.130   5.661   5.096
 7058SOL     OW22072   6.124   2.666   5.416
 7058SOL    HW122073   6.162   2.740   5.471
 7058SOL    HW222074   6.172   2.661   5.328
 7059SOL     OW22075   1.538   1.001   4.242
 7059SOL    HW122076   1.600   0.966   4.173
 7059SOL    HW222077   1.471   0.931   4.266
 7060SOL     OW22078   2.902   2.483   1.225
 7060SOL    HW122079   2.887   2.470   1.323
 7060SOL    HW222080   2.972   2.419   1.193
 7061SOL     OW22081   1.444   6.537   1.250
 7061SOL    HW122082   1.448   6.614   1.186
 7061SOL    HW222083   1.397   6.460   1.207
 7062SOL     OW22084   3.686   0.833   5.408
 7062SOL    HW122085   3.636   0.783   5.479
 7062SOL    HW222086   3.629   0.840   5.326
 7063SOL     OW22087   6.931   1.223   1.304
 7063SOL    HW122088   7.007   1.264   1.254
 7063SOL    HW222089   6.966   1.157   1.371
 7064SOL     OW22090   2.600   1.607   5.707
 7064SOL    HW122091   2.523   1.664   5.736
 7064SOL    HW222092   2.566   1.533   5.649
 7065SOL     OW22093   3.225   0.236   2.888
 7065SOL    HW122094   3.211   0.286   2.974
 7065SOL    HW222095   3.174   0.150   2.891
 7066SOL     OW22096   4.371   0.985   1.927
 7066SOL    HW122097   4.420   0.960   1.843
 7066SOL    HW222098   4.276   0.956   1.919
 7067SOL     OW22099   2.969   4.513   6.122
 7067SOL    HW122100   2.958   4.543   6.217
 7067SOL    HW222101   2.879   4.493   6.083
 7068SOL     OW22102   4.369   4.563   2.490
 7068SOL    HW122103   4.300   4.619   2.445
 7068SOL    HW222104   4.351   4.560   2.588
 7069SOL     OW22105   3.192   1.654   5.729
 7069SOL    HW122106   3.107   1.677   5.777
 7069SOL    HW222107   3.257   1.729   5.737
 7070SOL     OW22108   0.501   2.035   5.405
 7070SOL    HW122109   0.486   1.962   5.472
 7070SOL    HW222110   0.414   2.061   5.363
 7071SOL     OW22111   4.712   5.232   7.015
 7071SOL    HW122112   4.709   5.153   0.058
 7071SOL    HW222113   4.676   5.312   0.044
 7072SOL     OW22114   1.622   3.861   5.475
 7072SOL    HW122115   1.613   3.924   5.398
 7072SOL    HW222116   1.575   3.775   5.453
 7073SOL     OW22117   4.191   0.979   4.828
 7073SOL    HW122118   4.261   1.003   4.895
 7073SOL    HW222119   4.234   0.955   4.741
 7074SOL     OW22120   5.708   3.098   2.372
 7074SOL    HW122121   5.772   3.175   2.379
 7074SOL    HW222122   5.729   3.030   2.443
 7075SOL     OW22123   2.123   4.795   2.554
 7075SOL    HW122124   2.061   4.852   2.607
 7075SOL    HW222125   2.133   4.706   2.599
 7076SOL     OW22126   6.244   2.027   0.970
 7076SOL    HW122127   6.213   2.073   0.887
 7076SOL    HW222128   6.318   1.963   0.946
 7077SOL     OW22129   3.496   6.226   2.238
 7077SOL    HW122130   3.429   6.280   2.186
 7077SOL    HW222131   3.567   6.193   2.177
 7078SOL     OW22132   7.016   1.632   0.298
 7078SOL    HW122133   0.057   1.555   0.318
 7078SOL    HW222134   7.001   1.639   0.200
 7079SOL     OW22135   2.957   5.393   5.543
 7079SOL    HW122136   2.927   5.371   5.450
 7079SOL    HW222137   2.894   5.352   5.609
 7080SOL     OW22138   3.880   1.647   6.760
 7080SOL    HW122139   3.904   1.742   6.778
 7080SOL    HW222140   3.781   1.637   6.761
 7081SOL     OW22141   3.162   6.316   6.243
 7081SOL    HW122142   3.113   6.240   6.200
 7081SOL    HW222143   3.166   6.394   6.180
 7082SOL     OW22144   1.627   5.086   2.394
 7082SOL    HW122145   1.536   5.128   2.391
 7082SOL    HW222146   1.680   5.116   2.315
 7083SOL     OW22147   5.829   2.928   3.069
 7083SOL    HW122148   5.731   2.926   3.049
 7083SOL    HW222149   5.842   2.938   3.168
 7084SOL     OW22150   1.084   5.096   0.401
 7084SOL    HW122151   1.092   5.066   0.306
 7084SOL    HW222152   1.149   5.169   0.419
 7085SOL     OW22153   0.075   3.262   2.127
 7085SOL    HW122154   0.144   3.287   2.059
 7085SOL    HW222155   7.003   3.265   2.086
 7086SOL     OW22156   3.965   0.910   3.823
 7086SOL    HW122157   3.999   0.991   3.775
 7086SOL    HW222158   3.876   0.931   3.864
 7087SOL     OW22159   6.167   2.826   3.823
 7087SOL    HW122160   6.095   2.896   3.821
 7087SOL    HW222161   6.126   2.736   3.813
 7088SOL     OW22162   6.203   1.789   5.420
 7088SOL    HW122163   6.198   1.855   5.346
 7088SOL    HW222164   6.297   1.779   5.451
 7089SOL     OW22165   3.784   6.539   1.900
 7089SOL    HW122166   3.685   6.543   1.911
 7089SOL    HW222167   3.811   6.445   1.881
 7090SOL     OW22168   5.629   3.279   1.777
 7090SOL    HW122169   5.635   3.378   1.766
 7090SOL    HW222170   5.567   3.241   1.710
 7091SOL     OW22171   5.671   0.553   6.205
 7091SOL    HW122172   5.603   0.554   6.131
 7091SOL    HW222173   5.701   0.459   6.220
 7092SOL     OW22174   4.193   0.305   6.059
 7092SOL    HW122175   4.183   0.217   6.107
 7092SOL    HW222176   4.118   0.315   5.993
 7093SOL     OW22177   4.111   3.536   0.572
 7093SOL    HW122178   4.146   3.564   0.482
 7093SOL    HW222179   4.098   3.437   0.573
 7094SOL     OW22180   4.385   0.816   5.124
 7094SOL    HW122181   4.373   0.909   5.088
 7094SOL    HW222182   4.325   0.804   5.203
 7095SOL     OW22183   2.656   5.288   3.497
 7095SOL    HW122184   2.659   5.291   3.397
 7095SOL    HW222185   2.564   5.311   3.528
 7096SOL     OW22186   0.217   5.330   0.368
 7096SOL    HW122187   0.191   5.310   0.273
 7096SOL    HW222188   0.276   5.258   0.402
 7097SOL     OW22189   4.965   1.931   2.949
 7097SOL    HW122190   4.870   1.939   2.918
 7097SOL    HW222191   4.967   1.912   3.047
 7098SOL     OW22192   1.008   1.377   2.025
 7098SOL    HW122193   1.037   1.297   2.076
 7098SOL    HW222194   0.909   1.390   2.036
 7099SOL     OW22195   2.888   1.261   5.189
 7099SOL    HW122196   2.877   1.183   5.128
 7099SOL    HW222197   2.821   1.332   5.166
 7100SOL     OW22198   0.587   4.340   1.225
 7100SOL    HW122199   0.501   4.379   1.191
 7100SOL    HW222200   0.571   4.246   1.255
 7101SOL     OW22201   2.634   6.679   4.543
 7101SOL    HW122202   2.603   6.721   4.628
 7101SOL    HW222203   2.718   6.723   4.512
 7102SOL     OW22204   5.398   2.001   2.446
 7102SOL    HW122205   5.333   1.987   2.371
 7102SOL    HW222206   5.477   1.941   2.432
 7103SOL     OW22207   6.772   3.866   4.996
 7103SOL    HW122208   6.724   3.921   4.927
 7103SOL    HW222209   6.849   3.819   4.954
 7104SOL     OW22210   4.369   2.375   4.317
 7104SOL    HW122211   4.322   2.460   4.296
 7104SOL    HW222212   4.463   2.380   4.283
 7105SOL     OW22213   3.020   3.600   1.815
 7105SOL    HW122214   3.117   3.583   1.796
 7105SOL    HW222215   2.977   3.643   1.735
 7106SOL     OW22216   2.485   2.121   2.787
 7106SOL    HW122217   2.531   2.205   2.817
 7106SOL    HW222218   2.387   2.138   2.778
 7107SOL     OW22219   3.880   0.394   0.633
 7107SOL    HW122220   3.912   0.307   0.669
 7107SOL    HW222221   3.786   0.411   0.664
 7108SOL     OW22222   2.847   6.706   1.656
 7108SOL    HW122223   2.753   6.671   1.653
 7108SOL    HW222224   2.909   6.642   1.611
 7109SOL     OW22225   2.139   5.089   6.283
 7109SOL    HW122226   2.049   5.064   6.318
 7109SOL    HW222227   2.155   5.044   6.196
 7110SOL     OW22228   2.529   5.301   5.724
 7110SOL    HW122229   2.474   5.373   5.766
 7110SOL    HW222230   2.522   5.308   5.624
 7111SOL     OW22231   6.319   2.074   4.113
 7111SOL    HW122232   6.310   2.165   4.073
 7111SOL    HW222233   6.397   2.027   4.072
 7112SOL     OW22234   6.615   4.902   4.495
 7112SOL    HW122235   6.658   4.880   4.407
 7112SOL    HW222236   6.530   4.850   4.504
 7113SOL     OW22237   3.359   6.829   5.335
 7113SOL    HW122238   3.278   6.810   5.390
 7113SOL    HW222239   3.331   6.873   5.250
 7114SOL     OW22240   6.168   3.464   0.644
 7114SOL    HW122241   6.136   3.546   0.690
 7114SOL    HW222242   6.268   3.457   0.652
 7115SOL     OW22243   4.964   3.115   5.967
 7115SOL    HW122244   4.896   3.098   5.896
 7115SOL    HW222245   5.049   3.148   5.925
 7116SOL     OW22246   6.442   5.069   4.868
 7116SOL    HW122247   6.491   5.070   4.780
 7116SOL    HW222248   6.344   5.059   4.851
 7117SOL     OW22249   3.009   0.913   2.759
 7117SOL    HW122250   2.951   0.831   2.764
 7117SOL    HW222251   3.072   0.904   2.682
 7118SOL     OW22252   5.556   4.832   5.705
 7118SOL    HW122253   5.632   4.894   5.723
 7118SOL    HW222254   5.471   4.873   5.738
 7119SOL     OW22255   2.536   6.475   3.914
 7119SOL    HW122256   2.564   6.425   3.832
 7119SOL    HW222257   2.437   6.466   3.926
 7120SOL     OW22258   4.518   1.963   2.272
 7120SOL    HW122259   4.552   1.992   2.361
 7120SOL    HW222260   4.449   2.029   2.240
 7121SOL     OW22261   2.070   5.762   1.819
 7121SOL    HW122262   2.007   5.686   1.832
 7121SOL    HW222263   2.080   5.781   1.721
 7122SOL     OW22264   2.951   2.140   6.621
 7122SOL    HW122265   2.854   2.163   6.631
 7122SOL    HW222266   2.999   2.217   6.577
 7123SOL     OW22267   5.072   3.261   6.277
 7123SOL    HW122268   5.007   3.331   6.307
 7123SOL    HW222269   5.156   3.305   6.246
 7124SOL     OW22270   3.356   2.670   6.030
 7124SOL    HW122271   3.329   2.627   6.116
 7124SOL    HW222272   3.333   2.610   5.953
 7125SOL     OW22273   1.067   6.016   1.552
 7125SOL    HW122274   1.111   6.105   1.542
 7125SOL    HW222275   1.128   5.944   1.520
 7126SOL     OW22276   3.740   4.920   0.433
 7126SOL    HW122277   3.805   4.985   0.393
 7126SOL    HW222278   3.733   4.936   0.532
 7127SOL     OW22279   2.157   6.999   5.051
 7127SOL    HW122280   2.194   0.016   5.136
 7127SOL    HW222281   2.192   0.034   4.974
 7128SOL     OW22282   4.193   3.867   0.329
 7128SOL    HW122283   4.171   3.912   0.415
 7128SOL    HW222284   4.275   3.811   0.341
 7129SOL     OW22285   6.895   1.610   0.661
 7129SOL    HW122286   6.970   1.549   0.684
 7129SOL    HW222287   6.931   1.700   0.635
 7130SOL     OW22288   3.403   6.870   3.657
 7130SOL    HW122289   3.405   6.813   3.739
 7130SOL    HW222290   3.348   6.825   3.587
 7131SOL     OW22291   2.404   1.669   2.873
 7131SOL    HW122292   2.448   1.673   2.784
 7131SOL    HW222293   2.421   1.579   2.915
 7132SOL     OW22294   5.534   5.035   2.708
 7132SOL    HW122295   5.518   4.951   2.656
 7132SOL    HW222296   5.523   5.016   2.806
 7133SOL     OW22297   3.820   6.410   2.212
 7133SOL    HW122298   3.824   6.405   2.112
 7133SOL    HW222299   3.788   6.501   2.239
 7134SOL     OW22300   5.856   4.634   6.421
 7134SOL    HW122301   5.773   4.604   6.468
 7134SOL    HW222302   5.906   4.698   6.479
 7135SOL     OW22303   2.457   5.640   0.331
 7135SOL    HW122304   2.539   5.587   0.350
 7135SOL    HW222305   2.382   5.607   0.387
 7136SOL     OW22306   1.201   2.909   2.846
 7136SOL    HW122307   1.104   2.898   2.823
 7136SOL    HW222308   1.239   2.821   2.873
 7137SOL     OW22309   1.225   6.945   1.635
 7137SOL    HW122310   1.201   6.942   1.732
 7137SOL    HW222311   1.325   6.942   1.626
 7138SOL     OW22312   6.547   4.044   0.946
 7138SOL    HW122313   6.480   4.024   0.874
 7138SOL    HW222314   6.622   4.098   0.909
 7139SOL     OW22315   5.577   5.474   0.590
 7139SOL    HW122316   5.600   5.526   0.508
 7139SOL    HW222317   5.477   5.472   0.601
 7140SOL     OW22318   6.369   3.803   0.336
 7140SOL    HW122319   6.357   3.873   0.266
 7140SOL    HW222320   6.379   3.714   0.292
 7141SOL     OW22321   2.380   2.458   0.133
 7141SOL    HW122322   2.345   2.412   0.052
 7141SOL    HW222323   2.472   2.492   0.116
 7142SOL     OW22324   3.922   6.412   5.742
 7142SOL    HW122325   3.907   6.476   5.666
 7142SOL    HW222326   4.019   6.386   5.745
 7143SOL     OW22327   2.856   3.143   5.820
 7143SOL    HW122328   2.814   3.208   5.884
 7143SOL    HW222329   2.862   3.185   5.729
 7144SOL     OW22330   6.237   1.694   6.516
 7144SOL    HW122331   6.152   1.733   6.479
 7144SOL    HW222332   6.282   1.762   6.573
 7145SOL     OW22333   0.177   3.328   0.058
 7145SOL    HW122334   0.145   3.391   0.128
 7145SOL    HW222335   0.209   3.243   0.101
 7146SOL     OW22336   6.952   1.539   4.422
 7146SOL    HW122337   6.942   1.511   4.518
 7146SOL    HW222338   7.016   1.616   4.416
 7147SOL     OW22339   6.638   0.671   6.972
 7147SOL    HW122340   6.643   0.725   0.037
 7147SOL    HW222341   6.578   0.592   6.987
 7148SOL     OW22342   5.612   6.521   0.472
 7148SOL    HW122343   5.533   6.482   0.424
 7148SOL    HW222344   5.671   6.568   0.406
 7149SOL     OW22345   6.780   3.824   0.311
 7149SOL    HW122346   6.856   3.869   0.357
 7149SOL    HW222347   6.764   3.734   0.352
 7150SOL     OW22348   2.425   2.116   6.990
 7150SOL    HW122349   2.474   2.147   0.053
 7150SOL    HW222350   2.350   2.056   7.017
 7151SOL     OW22351   5.653   2.337   6.927
 7151SOL    HW122352   5.588   2.396   6.880
 7151SOL    HW222353   5.642   2.243   6.894
 7152SOL     OW22354   5.901   0.792   4.759
 7152SOL    HW122355   5.892   0.695   4.739
 7152SOL    HW222356   5.865   0.846   4.682
 7153SOL     OW22357   5.059   5.912   0.065
 7153SOL    HW122358   5.078   5.886   0.160
 7153SOL    HW222359   5.030   5.831   0.014
 7154SOL     OW22360   5.233   6.592   2.121
 7154SOL    HW122361   5.320   6.544   2.106
 7154SOL    HW222362   5.221   6.609   2.219
 7155SOL     OW22363   1.181   6.788   1.417
 7155SOL    HW122364   1.229   6.854   1.360
 7155SOL    HW222365   1.174   6.823   1.510
 7156SOL     OW22366   6.802   3.177   5.324
 7156SOL    HW122367   6.749   3.102   5.365
 7156SOL    HW222368   6.899   3.165   5.345
 7157SOL     OW22369   0.200   4.203   6.034
 7157SOL    HW122370   0.164   4.161   5.951
 7157SOL    HW222371   0.128   4.212   6.102
 7158SOL     OW22372   4.796   6.738   3.895
 7158SOL    HW122373   4.883   6.717   3.850
 7158SOL    HW222374   4.813   6.796   3.975
 7159SOL     OW22375   0.656   6.595   3.382
 7159SOL    HW122376   0.616   6.682   3.353
 7159SOL    HW222377   0.588   6.523   3.375
 7160SOL     OW22378   5.978   5.928   2.219
 7160SOL    HW122379   6.049   5.870   2.179
 7160SOL    HW222380   5.985   5.925   2.319
 7161SOL     OW22381   3.961   3.165   1.659
 7161SOL    HW122382   3.895   3.133   1.591
 7161SOL    HW222383   3.955   3.265   1.667
 7162SOL     OW22384   0.835   6.364   0.259
 7162SOL    HW122385   0.844   6.461   0.237
 7162SOL    HW222386   0.860   6.309   0.179
 7163SOL     OW22387   6.947   5.846   0.093
 7163SOL    HW122388   0.014   5.897   0.088
 7163SOL    HW222389   6.964   5.759   0.139
 7164SOL     OW22390   1.171   6.516   6.648
 7164SOL    HW122391   1.237   6.481   6.581
 7164SOL    HW222392   1.189   6.474   6.737
 7165SOL     OW22393   4.244   2.957   5.905
 7165SOL    HW122394   4.264   2.885   5.838
 7165SOL    HW222395   4.326   2.974   5.960
 7166SOL     OW22396   0.088   6.111   5.946
 7166SOL    HW122397   0.081   6.071   6.037
 7166SOL    HW222398   0.066   6.042   5.877
 7167SOL     OW22399   1.109   3.707   5.809
 7167SOL    HW122400   1.123   3.762   5.891
 7167SOL    HW222401   1.105   3.767   5.729
 7168SOL     OW22402   6.986   0.229   2.214
 7168SOL    HW122403   0.066   0.215   2.218
 7168SOL    HW222404   6.942   0.179   2.289
 7169SOL     OW22405   1.803   4.886   5.543
 7169SOL    HW122406   1.842   4.800   5.512
 7169SOL    HW222407   1.870   4.959   5.533
 7170SOL     OW22408   4.336   2.299   1.905
 7170SOL    HW122409   4.345   2.375   1.841
 7170SOL    HW222410   4.386   2.321   1.989
 7171SOL     OW22411   6.934   5.880   1.672
 7171SOL    HW122412   6.891   5.940   1.605
 7171SOL    HW222413   0.015   5.891   1.668
 7172SOL     OW22414   1.214   2.556   3.430
 7172SOL    HW122415   1.179   2.464   3.444
 7172SOL    HW222416   1.261   2.560   3.341
 7173SOL     OW22417   3.579   5.404   4.586
 7173SOL    HW122418   3.539   5.396   4.677
 7173SOL    HW222419   3.673   5.437   4.593
 7174SOL     OW22420   6.575   3.582   2.876
 7174SOL    HW122421   6.477   3.564   2.881
 7174SOL    HW222422   6.615   3.572   2.967
 7175SOL     OW22423   5.719   2.624   5.774
 7175SOL    HW122424   5.638   2.581   5.735
 7175SOL    HW222425   5.739   2.709   5.725
 7176SOL     OW22426   6.540   1.867   6.258
 7176SOL    HW122427   6.635   1.864   6.289
 7176SOL    HW222428   6.488   1.932   6.314
 7177SOL     OW22429   1.548   5.372   3.802
 7177SOL    HW122430   1.638   5.329   3.800
 7177SOL    HW222431   1.552   5.455   3.856
 7178SOL     OW22432   0.437   6.274   5.472
 7178SOL    HW122433   0.458   6.232   5.560
 7178SOL    HW222434   0.508   6.251   5.406
 7179SOL     OW22435   5.161   4.407   5.538
 7179SOL    HW122436   5.145   4.489   5.483
 7179SOL    HW222437   5.147   4.326   5.482
 7180SOL     OW22438   6.568   2.214   2.486
 7180SOL    HW122439   6.506   2.273   2.537
 7180SOL    HW222440   6.646   2.267   2.454
 7181SOL     OW22441   4.077   0.386   0.212
 7181SOL    HW122442   4.019   0.347   0.283
 7181SOL    HW222443   4.046   0.478   0.190
 7182SOL     OW22444   2.116   0.741   2.506
 7182SOL    HW122445   2.143   0.827   2.550
 7182SOL    HW222446   2.037   0.703   2.554
 7183SOL     OW22447   1.781   6.850   1.067
 7183SOL    HW122448   1.741   6.882   1.153
 7183SOL    HW222449   1.839   6.921   1.028
 7184SOL     OW22450   6.968   1.415   2.893
 7184SOL    HW122451   6.997   1.381   2.982
 7184SOL    HW222452   6.869   1.431   2.894
 7185SOL     OW22453   3.714   6.998   3.955
 7185SOL    HW122454   3.670   0.037   3.887
 7185SOL    HW222455   3.770   0.036   4.016
 7186SOL     OW22456   6.443   2.603   0.615
 7186SOL    HW122457   6.426   2.590   0.713
 7186SOL    HW222458   6.357   2.622   0.568
 7187SOL     OW22459   2.894   3.595   3.823
 7187SOL    HW122460   2.898   3.515   3.884
 7187SOL    HW222461   2.895   3.678   3.879
 7188SOL     OW22462   4.799   4.944   6.728
 7188SOL    HW122463   4.894   4.956   6.698
 7188SOL    HW222464   4.738   4.998   6.670
 7189SOL     OW22465   6.850   1.926   6.070
 7189SOL    HW122466   6.887   1.975   5.991
 7189SOL    HW222467   6.764   1.969   6.098
 7190SOL     OW22468   5.327   5.509   0.695
 7190SOL    HW122469   5.239   5.531   0.654
 7190SOL    HW222470   5.354   5.583   0.757
 7191SOL     OW22471   0.094   5.019   2.520
 7191SOL    HW122472   0.014   5.062   2.478
 7191SOL    HW222473   0.126   5.075   2.597
 7192SOL     OW22474   3.499   4.139   5.916
 7192SOL    HW122475   3.548   4.115   5.999
 7192SOL    HW222476   3.406   4.166   5.938
 7193SOL     OW22477   3.803   1.325   4.472
 7193SOL    HW122478   3.804   1.425   4.464
 7193SOL    HW222479   3.896   1.292   4.486
 7194SOL     OW22480   3.736   2.512   5.283
 7194SOL    HW122481   3.678   2.559   5.216
 7194SOL    HW222482   3.681   2.445   5.333
 7195SOL     OW22483   6.563   3.772   5.455
 7195SOL    HW122484   6.648   3.806   5.414
 7195SOL    HW222485   6.584   3.704   5.525
 7196SOL     OW22486   2.993   4.365   1.271
 7196SOL    HW122487   3.008   4.271   1.240
 7196SOL    HW222488   2.901   4.374   1.307
 7197SOL     OW22489   3.327   4.426   6.542
 7197SOL    HW122490   3.386   4.358   6.500
 7197SOL    HW222491   3.320   4.408   6.640
 7198SOL     OW22492   1.760   6.516   2.068
 7198SOL    HW122493   1.826   6.591   2.057
 7198SOL    HW222494   1.674   6.553   2.104
 7199SOL     OW22495   6.100   1.200   3.787
 7199SOL    HW122496   6.006   1.177   3.814
 7199SOL    HW222497   6.099   1.287   3.738
 7200SOL     OW22498   0.638   4.060   6.238
 7200SOL    HW122499   0.643   3.976   6.184
 7200SOL    HW222500   0.549   4.103   6.224
 7201SOL     OW22501   5.370   5.503   5.038
 7201SOL    HW122502   5.302   5.571   5.065
 7201SOL    HW222503   5.453   5.549   5.007
 7202SOL     OW22504   4.211   6.556   5.901
 7202SOL    HW122505   4.227   6.467   5.859
 7202SOL    HW222506   4.197   6.624   5.829
 7203SOL     OW22507   1.084   1.732   0.767
 7203SOL    HW122508   1.157   1.793   0.734
 7203SOL    HW222509   0.998   1.757   0.723
 7204SOL     OW22510   5.203   0.891   2.843
 7204SOL    HW122511   5.143   0.869   2.920
 7204SOL    HW222512   5.206   0.990   2.831
 7205SOL     OW22513   3.373   1.037   3.990
 7205SOL    HW122514   3.384   1.113   3.926
 7205SOL    HW222515   3.372   0.951   3.938
 7206SOL     OW22516   1.650   2.610   6.543
 7206SOL    HW122517   1.668   2.688   6.483
 7206SOL    HW222518   1.574   2.632   6.604
 7207SOL     OW22519   1.824   2.376   3.358
 7207SOL    HW122520   1.808   2.281   3.330
 7207SOL    HW222521   1.870   2.377   3.447
 7208SOL     OW22522   2.872   0.368   3.476
 7208SOL    HW122523   2.786   0.396   3.518
 7208SOL    HW222524   2.852   0.314   3.394
 7209SOL     OW22525   4.374   1.403   3.086
 7209SOL    HW122526   4.364   1.426   3.183
 7209SOL    HW222527   4.317   1.325   3.064
 7210SOL     OW22528   3.229   1.145   5.021
 7210SOL    HW122529   3.322   1.172   5.048
 7210SOL    HW222530   3.178   1.225   4.991
 7211SOL     OW22531   4.830   5.962   6.220
 7211SOL    HW122532   4.920   5.955   6.177
 7211SOL    HW222533   4.834   5.923   6.312
 7212SOL     OW22534   0.142   5.646   4.284
 7212SOL    HW122535   0.204   5.716   4.249
 7212SOL    HW222536   0.179   5.556   4.263
 7213SOL     OW22537   5.348   2.754   0.456
 7213SOL    HW122538   5.384   2.773   0.547
 7213SOL    HW222539   5.317   2.659   0.452
 7214SOL     OW22540   6.136   1.586   5.740
 7214SOL    HW122541   6.129   1.683   5.715
 7214SOL    HW222542   6.223   1.571   5.787
 7215SOL     OW22543   6.446   1.400   2.872
 7215SOL    HW122544   6.432   1.334   2.798
 7215SOL    HW222545   6.437   1.493   2.835
 7216SOL     OW22546   5.417   6.617   3.720
 7216SOL    HW122547   5.441   6.706   3.682
 7216SOL    HW222548   5.467   6.545   3.672
 7217SOL     OW22549   1.306   3.243   3.100
 7217SOL    HW122550   1.251   3.274   3.022
 7217SOL    HW222551   1.335   3.149   3.085
 7218SOL     OW22552   0.047   3.029   5.348
 7218SOL    HW122553   0.089   3.101   5.293
 7218SOL    HW222554   0.086   2.940   5.322
 7219SOL     OW22555   3.752   6.150   1.086
 7219SOL    HW122556   3.699   6.227   1.120
 7219SOL    HW222557   3.696   6.097   1.022
 7220SOL     OW22558   0.524   4.058   4.035
 7220SOL    HW122559   0.512   4.104   4.123
 7220SOL    HW222560   0.434   4.032   3.999
 7221SOL     OW22561   4.869   4.798   3.902
 7221SOL    HW122562   4.845   4.799   3.804
 7221SOL    HW222563   4.819   4.872   3.948
 7222SOL     OW22564   6.290   5.699   4.126
 7222SOL    HW122565   6.371   5.700   4.184
 7222SOL    HW222566   6.259   5.605   4.113
 7223SOL     OW22567   6.250   5.220   1.410
 7223SOL    HW122568   6.239   5.149   1.340
 7223SOL    HW222569   6.304   5.184   1.486
 7224SOL     OW22570   5.976   2.679   2.781
 7224SOL    HW122571   6.075   2.667   2.779
 7224SOL    HW222572   5.944   2.682   2.875
 7225SOL     OW22573   0.841   5.152   0.509
 7225SOL    HW122574   0.851   5.215   0.586
 7225SOL    HW222575   0.931   5.115   0.485
 7226SOL     OW22576   6.112   6.497   0.298
 7226SOL    HW122577   6.142   6.414   0.252
 7226SOL    HW222578   6.082   6.565   0.231
 7227SOL     OW22579   2.006   0.601   1.970
 7227SOL    HW122580   2.067   0.532   1.930
 7227SOL    HW222581   1.991   0.674   1.903
 7228SOL     OW22582   6.898   3.630   3.245
 7228SOL    HW122583   6.940   3.704   3.297
 7228SOL    HW222584   6.922   3.542   3.286
 7229SOL     OW22585   5.427   6.776   5.225
 7229SOL    HW122586   5.493   6.722   5.278
 7229SOL    HW222587   5.434   6.753   5.128
 7230SOL     OW22588   2.731   4.782   6.122
 7230SOL    HW122589   2.827   4.807   6.134
 7230SOL    HW222590   2.722   4.721   6.042
 7231SOL     OW22591   3.705   2.781   6.843
 7231SOL    HW122592   3.642   2.858   6.834
 7231SOL    HW222593   3.778   2.806   6.906
 7232SOL     OW22594   4.177   5.528   3.477
 7232SOL    HW122595   4.141   5.621   3.474
 7232SOL    HW222596   4.270   5.529   3.512
 7233SOL     OW22597   0.664   1.861   6.947
 7233SOL    HW122598   0.573   1.828   6.972
 7233SOL    HW222599   0.704   1.800   6.879
 7234SOL     OW22600   5.216   5.401   3.554
 7234SOL    HW122601   5.267   5.370   3.473
 7234SOL    HW222602   5.226   5.334   3.627
 7235SOL     OW22603   0.148   0.150   1.096
 7235SOL    HW122604   0.071   0.088   1.113
 7235SOL    HW222605   0.114   0.238   1.063
 7236SOL     OW22606   0.784   4.360   3.090
 7236SOL    HW122607   0.780   4.260   3.082
 7236SOL    HW222608   0.856   4.396   3.030
 7237SOL     OW22609   4.676   1.322   6.388
 7237SOL    HW122610   4.646   1.329   6.483
 7237SOL    HW222611   4.767   1.281   6.385
 7238SOL     OW22612   4.475   3.523   0.224
 7238SOL    HW122613   4.481   3.619   0.196
 7238SOL    HW222614   4.475   3.464   0.143
 7239SOL     OW22615   6.325   2.896   2.157
 7239SOL    HW122616   6.325   2.905   2.257
 7239SOL    HW222617   6.335   2.800   2.133
 7240SOL     OW22618   0.552   2.077   0.832
 7240SOL    HW122619   0.570   2.161   0.882
 7240SOL    HW222620   0.459   2.080   0.794
 7241SOL     OW22621   2.464   0.264   3.042
 7241SOL    HW122622   2.458   0.355   3.083
 7241SOL    HW222623   2.511   0.202   3.106
 7242SOL     OW22624   6.664   3.797   5.884
 7242SOL    HW122625   6.754   3.760   5.907
 7242SOL    HW222626   6.642   3.873   5.946
 7243SOL     OW22627   6.597   4.398   6.507
 7243SOL    HW122628   6.511   4.352   6.529
 7243SOL    HW222629   6.672   4.354   6.556
 7244SOL     OW22630   6.777   5.917   0.537
 7244SOL    HW122631   6.713   5.899   0.611
 7244SOL    HW222632   6.837   5.839   0.524
 7245SOL     OW22633   1.861   2.361   6.809
 7245SOL    HW122634   1.945   2.321   6.772
 7245SOL    HW222635   1.785   2.298   6.795
 7246SOL     OW22636   4.563   0.058   4.492
 7246SOL    HW122637   4.559   6.984   4.453
 7246SOL    HW222638   4.551   0.053   4.591
 7247SOL     OW22639   3.690   4.141   4.167
 7247SOL    HW122640   3.649   4.224   4.131
 7247SOL    HW222641   3.690   4.070   4.096
 7248SOL     OW22642   2.737   2.340   5.302
 7248SOL    HW122643   2.682   2.405   5.355
 7248SOL    HW222644   2.740   2.369   5.207
 7249SOL     OW22645   3.656   5.978   3.043
 7249SOL    HW122646   3.638   6.062   3.094
 7249SOL    HW222647   3.680   5.905   3.108
 7250SOL     OW22648   4.631   4.994   5.105
 7250SOL    HW122649   4.664   4.912   5.151
 7250SOL    HW222650   4.679   5.005   5.018
 7251SOL     OW22651   0.165   5.697   3.895
 7251SOL    HW122652   0.183   5.748   3.979
 7251SOL    HW222653   0.139   5.604   3.918
 7252SOL     OW22654   3.898   4.341   1.729
 7252SOL    HW122655   3.812   4.360   1.776
 7252SOL    HW222656   3.930   4.424   1.683
 7253SOL     OW22657   1.150   5.159   5.689
 7253SOL    HW122658   1.207   5.143   5.608
 7253SOL    HW222659   1.054   5.149   5.665
 7254SOL     OW22660   0.568   3.859   3.763
 7254SOL    HW122661   0.621   3.796   3.706
 7254SOL    HW222662   0.625   3.938   3.786
 7255SOL     OW22663   4.885   3.983   0.930
 7255SOL    HW122664   4.839   4.024   0.851
 7255SOL    HW222665   4.954   3.918   0.898
 7256SOL     OW22666   3.230   6.766   4.061
 7256SOL    HW122667   3.174   6.842   4.028
 7256SOL    HW222668   3.262   6.786   4.153
 7257SOL     OW22669   1.049   1.006   4.927
 7257SOL    HW122670   1.117   1.024   4.998
 7257SOL    HW222671   1.094   0.969   4.846
 7258SOL     OW22672   0.460   1.605   2.897
 7258SOL    HW122673   0.363   1.630   2.892
 7258SOL    HW222674   0.516   1.679   2.859
 7259SOL     OW22675   1.398   3.887   2.270
 7259SOL    HW122676   1.355   3.977   2.265
 7259SOL    HW222677   1.412   3.861   2.366
 7260SOL     OW22678   6.065   2.428   0.953
 7260SOL    HW122679   6.095   2.348   0.901
 7260SOL    HW222680   6.128   2.504   0.937
 7261SOL     OW22681   0.125   4.570   6.847
 7261SOL    HW122682   0.147   4.588   6.943
 7261SOL    HW222683   0.091   4.477   6.837
 7262SOL     OW22684   2.789   0.313   5.139
 7262SOL    HW122685   2.708   0.257   5.121
 7262SOL    HW222686   2.783   0.399   5.088
 7263SOL     OW22687   6.394   4.669   6.053
 7263SOL    HW122688   6.427   4.698   6.143
 7263SOL    HW222689   6.323   4.732   6.022
 7264SOL     OW22690   4.841   2.071   1.516
 7264SOL    HW122691   4.799   2.060   1.426
 7264SOL    HW222692   4.863   1.981   1.553
 7265SOL     OW22693   3.310   0.037   5.551
 7265SOL    HW122694   3.324   6.999   5.470
 7265SOL    HW222695   3.226   0.090   5.540
 7266SOL     OW22696   6.926   0.888   2.667
 7266SOL    HW122697   7.008   0.931   2.628
 7266SOL    HW222698   6.880   0.833   2.597
 7267SOL     OW22699   0.189   3.922   5.598
 7267SOL    HW122700   0.115   3.928   5.531
 7267SOL    HW222701   0.205   3.826   5.621
 7268SOL     OW22702   5.263   6.188   4.363
 7268SOL    HW122703   5.298   6.218   4.274
 7268SOL    HW222704   5.259   6.089   4.366
 7269SOL     OW22705   2.823   5.771   4.669
 7269SOL    HW122706   2.861   5.719   4.593
 7269SOL    HW222707   2.728   5.745   4.683
 7270SOL     OW22708   0.409   1.823   4.476
 7270SOL    HW122709   0.388   1.901   4.417
 7270SOL    HW222710   0.506   1.824   4.499
 7271SOL     OW22711   0.928   5.855   3.092
 7271SOL    HW122712   0.866   5.840   3.169
 7271SOL    HW222713   0.989   5.776   3.084
 7272SOL     OW22714   6.661   4.162   1.842
 7272SOL    HW122715   6.593   4.182   1.912
 7272SOL    HW222716   6.623   4.181   1.752
 7273SOL     OW22717   0.499   1.510   4.703
 7273SOL    HW122718   0.412   1.558   4.692
 7273SOL    HW222719   0.513   1.489   4.800
 7274SOL     OW22720   0.171   5.659   6.671
 7274SOL    HW122721   0.257   5.643   6.721
 7274SOL    HW222722   0.148   5.577   6.618
 7275SOL     OW22723   0.438   5.552   3.292
 7275SOL    HW122724   0.441   5.543   3.193
 7275SOL    HW222725   0.401   5.469   3.332
 7276SOL     OW22726   4.965   6.378   3.668
 7276SOL    HW122727   5.009   6.462   3.698
 7276SOL    HW222728   4.968   6.372   3.568
 7277SOL     OW22729   4.994   0.922   6.975
 7277SOL    HW122730   5.072   0.910   6.913
 7277SOL    HW222731   4.944   1.004   6.950
 7278SOL     OW22732   4.019   3.067   2.203
 7278SOL    HW122733   4.113   3.070   2.168
 7278SOL    HW222734   3.956   3.052   2.127
 7279SOL     OW22735   3.591   6.494   6.209
 7279SOL    HW122736   3.596   6.460   6.115
 7279SOL    HW222737   3.586   6.594   6.208
 7280SOL     OW22738   4.361   0.021   5.375
 7280SOL    HW122739   4.398   0.087   5.310
 7280SOL    HW222740   4.376   6.947   5.341
 7281SOL     OW22741   5.688   0.947   6.449
 7281SOL    HW122742   5.632   0.986   6.377
 7281SOL    HW222743   5.730   0.862   6.417
 7282SOL     OW22744   6.212   5.785   3.627
 7282SOL    HW122745   6.195   5.827   3.538
 7282SOL    HW222746   6.254   5.852   3.688
 7283SOL     OW22747   2.232   1.280   3.048
 7283SOL    HW122748   2.218   1.208   3.116
 7283SOL    HW222749   2.152   1.341   3.047
 7284SOL     OW22750   0.953   1.247   4.725
 7284SOL    HW122751   1.025   1.277   4.663
 7284SOL    HW222752   0.956   1.148   4.735
 7285SOL     OW22753   6.041   5.022   1.984
 7285SOL    HW122754   6.028   5.051   1.890
 7285SOL    HW222755   6.053   4.922   1.987
 7286SOL     OW22756   1.431   3.908   0.560
 7286SOL    HW122757   1.349   3.864   0.597
 7286SOL    HW222758   1.486   3.840   0.511
 7287SOL     OW22759   6.188   2.102   6.050
 7287SOL    HW122760   6.251   2.117   6.126
 7287SOL    HW222761   6.187   2.005   6.026
 7288SOL     OW22762   2.462   7.002   6.744
 7288SOL    HW122763   2.541   6.944   6.730
 7288SOL    HW222764   2.456   0.050   6.670
 7289SOL     OW22765   3.950   1.191   3.266
 7289SOL    HW122766   4.041   1.223   3.292
 7289SOL    HW222767   3.935   1.208   3.168
 7290SOL     OW22768   2.529   5.885   4.219
 7290SOL    HW122769   2.473   5.897   4.137
 7290SOL    HW222770   2.498   5.948   4.290
 7291SOL     OW22771   3.887   4.898   1.456
 7291SOL    HW122772   3.865   4.993   1.433
 7291SOL    HW222773   3.899   4.890   1.555
 7292SOL     OW22774   3.784   0.202   4.756
 7292SOL    HW122775   3.831   0.214   4.668
 7292SOL    HW222776   3.717   0.128   4.748
 7293SOL     OW22777   2.384   1.128   6.069
 7293SOL    HW122778   2.339   1.048   6.029
 7293SOL    HW222779   2.473   1.140   6.025
 7294SOL     OW22780   5.678   5.471   6.498
 7294SOL    HW122781   5.767   5.512   6.483
 7294SOL    HW222782   5.622   5.482   6.415
 7295SOL     OW22783   4.330   6.561   1.742
 7295SOL    HW122784   4.250   6.597   1.792
 7295SOL    HW222785   4.358   6.474   1.783
 7296SOL     OW22786   4.207   5.452   0.424
 7296SOL    HW122787   4.194   5.549   0.442
 7296SOL    HW222788   4.203   5.436   0.325
 7297SOL     OW22789   4.857   6.346   2.653
 7297SOL    HW122790   4.832   6.288   2.575
 7297SOL    HW222791   4.942   6.311   2.694
 7298SOL     OW22792   5.552   2.699   4.560
 7298SOL    HW122793   5.649   2.713   4.579
 7298SOL    HW222794   5.535   2.712   4.462
 7299SOL     OW22795   5.289   3.483   0.252
 7299SOL    HW122796   5.342   3.546   0.308
 7299SOL    HW222797   5.300   3.390   0.286
 7300SOL     OW22798   4.559   5.201   0.798
 7300SOL    HW122799   4.464   5.230   0.809
 7300SOL    HW222800   4.613   5.278   0.762
 7301SOL     OW22801   6.462   1.753   6.739
 7301SOL    HW122802   6.539   1.796   6.692
 7301SOL    HW222803   6.461   1.655   6.717
 7302SOL     OW22804   6.825   1.213   6.673
 7302SOL    HW122805   6.822   1.114   6.685
 7302SOL    HW222806   6.782   1.237   6.586
 7303SOL     OW22807   4.933   0.354   1.551
 7303SOL    HW122808   4.960   0.258   1.551
 7303SOL    HW222809   4.883   0.375   1.635
 7304SOL     OW22810   4.050   3.316   4.324
 7304SOL    HW122811   4.021   3.382   4.394
 7304SOL    HW222812   4.043   3.223   4.362
 7305SOL     OW22813   5.686   2.505   0.171
 7305SOL    HW122814   5.722   2.594   0.144
 7305SOL    HW222815   5.713   2.436   0.105
 7306SOL     OW22816   4.738   4.790   1.648
 7306SOL    HW122817   4.778   4.738   1.572
 7306SOL    HW222818   4.810   4.809   1.715
 7307SOL     OW22819   4.309   6.540   2.316
 7307SOL    HW122820   4.313   6.634   2.282
 7307SOL    HW222821   4.247   6.536   2.394
 7308SOL     OW22822   5.332   0.648   3.864
 7308SOL    HW122823   5.322   0.596   3.949
 7308SOL    HW222824   5.330   0.746   3.885
 7309SOL     OW22825   4.440   4.523   0.235
 7309SOL    HW122826   4.401   4.509   0.326
 7309SOL    HW222827   4.511   4.593   0.240
 7310SOL     OW22828   1.880   5.582   1.971
 7310SOL    HW122829   1.886   5.668   2.021
 7310SOL    HW222830   1.838   5.512   2.029
 7311SOL     OW22831   3.179   2.074   2.272
 7311SOL    HW122832   3.169   2.010   2.196
 7311SOL    HW222833   3.274   2.106   2.276
 7312SOL     OW22834   7.005   2.600   6.830
 7312SOL    HW122835   6.933   2.597   6.760
 7312SOL    HW222836   6.993   2.523   6.893
 7313SOL     OW22837   4.355   2.647   6.426
 7313SOL    HW122838   4.424   2.718   6.412
 7313SOL    HW222839   4.286   2.652   6.353
 7314SOL     OW22840   1.064   2.073   4.613
 7314SOL    HW122841   1.066   2.156   4.559
 7314SOL    HW222842   0.983   2.019   4.589
 7315SOL     OW22843   6.689   1.447   5.742
 7315SOL    HW122844   6.706   1.359   5.786
 7315SOL    HW222845   6.655   1.512   5.809
 7316SOL     OW22846   4.122   3.429   3.596
 7316SOL    HW122847   4.212   3.390   3.613
 7316SOL    HW222848   4.131   3.518   3.552
 7317SOL     OW22849   3.176   0.521   4.312
 7317SOL    HW122850   3.228   0.593   4.267
 7317SOL    HW222851   3.094   0.561   4.353
 7318SOL     OW22852   2.013   0.574   1.220
 7318SOL    HW122853   1.956   0.647   1.182
 7318SOL    HW222854   2.109   0.600   1.211
 7319SOL     OW22855   0.082   4.197   6.565
 7319SOL    HW122856   0.180   4.180   6.559
 7319SOL    HW222857   0.040   4.185   6.475
 7320SOL     OW22858   0.709   1.542   2.458
 7320SOL    HW122859   0.700   1.460   2.401
 7320SOL    HW222860   0.619   1.574   2.485
 7321SOL     OW22861   4.197   1.542   3.853
 7321SOL    HW122862   4.288   1.517   3.820
 7321SOL    HW222863   4.198   1.549   3.953
 7322SOL     OW22864   1.248   2.879   1.510
 7322SOL    HW122865   1.214   2.787   1.527
 7322SOL    HW222866   1.208   2.916   1.427
 7323SOL     OW22867   2.534   4.546   3.353
 7323SOL    HW122868   2.441   4.576   3.371
 7323SOL    HW222869   2.534   4.450   3.327
 7324SOL     OW22870   4.825   5.467   3.246
 7324SOL    HW122871   4.742   5.517   3.218
 7324SOL    HW222872   4.799   5.391   3.305
 7325SOL     OW22873   2.844   6.333   0.623
 7325SOL    HW122874   2.795   6.403   0.571
 7325SOL    HW222875   2.814   6.242   0.594
 7326SOL     OW22876   2.578   0.960   4.014
 7326SOL    HW122877   2.666   0.997   3.986
 7326SOL    HW222878   2.547   1.007   4.097
 7327SOL     OW22879   1.588   3.071   5.985
 7327SOL    HW122880   1.684   3.055   5.962
 7327SOL    HW222881   1.547   2.985   6.016
 7328SOL     OW22882   2.231   6.560   0.502
 7328SOL    HW122883   2.262   6.479   0.453
 7328SOL    HW222884   2.187   6.532   0.587
 7329SOL     OW22885   4.631   3.839   1.688
 7329SOL    HW122886   4.607   3.829   1.591
 7329SOL    HW222887   4.548   3.843   1.743
 7330SOL     OW22888   4.079   2.193   0.927
 7330SOL    HW122889   4.100   2.161   1.020
 7330SOL    HW222890   4.115   2.285   0.915
 7331SOL     OW22891   6.545   1.462   1.143
 7331SOL    HW122892   6.495   1.530   1.196
 7331SOL    HW222893   6.481   1.401   1.096
 7332SOL     OW22894   3.707   6.825   0.134
 7332SOL    HW122895   3.799   6.815   0.097
 7332SOL    HW222896   3.702   6.781   0.224
 7333SOL     OW22897   6.990   4.760   2.272
 7333SOL    HW122898   6.892   4.751   2.251
 7333SOL    HW222899   7.002   4.771   2.371
 7334SOL     OW22900   3.178   0.195   3.754
 7334SOL    HW122901   3.262   0.216   3.803
 7334SOL    HW222902   3.199   0.158   3.664
 7335SOL     OW22903   1.845   3.067   3.232
 7335SOL    HW122904   1.844   3.071   3.132
 7335SOL    HW222905   1.860   2.973   3.261
 7336SOL     OW22906   1.229   6.005   4.393
 7336SOL    HW122907   1.281   5.961   4.467
 7336SOL    HW222908   1.139   6.033   4.427
 7337SOL     OW22909   5.220   2.295   1.544
 7337SOL    HW122910   5.149   2.341   1.490
 7337SOL    HW222911   5.201   2.197   1.548
 7338SOL     OW22912   0.631   3.759   0.609
 7338SOL    HW122913   0.713   3.798   0.652
 7338SOL    HW222914   0.562   3.831   0.599
 7339SOL     OW22915   1.793   5.407   5.128
 7339SOL    HW122916   1.799   5.405   5.029
 7339SOL    HW222917   1.729   5.479   5.156
 7340SOL     OW22918   3.144   6.580   6.401
 7340SOL    HW122919   3.172   6.488   6.371
 7340SOL    HW222920   3.226   6.635   6.419
 7341SOL     OW22921   5.760   2.246   0.354
 7341SOL    HW122922   5.856   2.231   0.329
 7341SOL    HW222923   5.722   2.321   0.301
 7342SOL     OW22924   0.137   6.249   1.723
 7342SOL    HW122925   0.237   6.241   1.727
 7342SOL    HW222926   0.107   6.231   1.629
 7343SOL     OW22927   6.630   3.027   0.639
 7343SOL    HW122928   6.641   2.972   0.556
 7343SOL    HW222929   6.694   3.104   0.638
 7344SOL     OW22930   2.689   0.600   5.798
 7344SOL    HW122931   2.741   0.682   5.822
 7344SOL    HW222932   2.751   0.523   5.786
 7345SOL     OW22933   3.875   5.710   6.598
 7345SOL    HW122934   3.890   5.738   6.693
 7345SOL    HW222935   3.954   5.735   6.543
 7346SOL     OW22936   4.403   5.000   1.973
 7346SOL    HW122937   4.386   5.098   1.965
 7346SOL    HW222938   4.501   4.982   1.965
 7347SOL     OW22939   4.852   0.676   6.120
 7347SOL    HW122940   4.867   0.596   6.062
 7347SOL    HW222941   4.940   0.723   6.136
 7348SOL     OW22942   0.220   5.894   0.443
 7348SOL    HW122943   0.132   5.908   0.488
 7348SOL    HW222944   0.229   5.956   0.365
 7349SOL     OW22945   4.735   1.242   1.186
 7349SOL    HW122946   4.807   1.195   1.238
 7349SOL    HW222947   4.752   1.340   1.188
 7350SOL     OW22948   3.354   1.421   5.341
 7350SOL    HW122949   3.390   1.440   5.249
 7350SOL    HW222950   3.292   1.494   5.368
 7351SOL     OW22951   2.495   5.038   4.939
 7351SOL    HW122952   2.571   5.067   4.997
 7351SOL    HW222953   2.409   5.072   4.976
 7352SOL     OW22954   6.185   2.947   4.251
 7352SOL    HW122955   6.214   2.852   4.235
 7352SOL    HW222956   6.246   2.990   4.317
 7353SOL     OW22957   6.785   2.349   5.935
 7353SOL    HW122958   6.862   2.295   5.902
 7353SOL    HW222959   6.703   2.325   5.883
 7354SOL     OW22960   0.734   2.141   2.878
 7354SOL    HW122961   0.732   2.100   2.969
 7354SOL    HW222962   0.807   2.209   2.873
 7355SOL     OW22963   3.746   1.633   0.331
 7355SOL    HW122964   3.705   1.639   0.240
 7355SOL    HW222965   3.819   1.700   0.339
 7356SOL     OW22966   3.836   4.929   6.164
 7356SOL    HW122967   3.869   5.022   6.152
 7356SOL    HW222968   3.889   4.867   6.107
 7357SOL     OW22969   4.833   6.567   2.411
 7357SOL    HW122970   4.877   6.484   2.376
 7357SOL    HW222971   4.790   6.547   2.499
 7358SOL     OW22972   4.610   0.274   2.888
 7358SOL    HW122973   4.627   0.363   2.845
 7358SOL    HW222974   4.556   0.286   2.972
 7359SOL     OW22975   3.738   0.087   2.273
 7359SOL    HW122976   3.700   0.154   2.337
 7359SOL    HW222977   3.780   0.012   2.324
 7360SOL     OW22978   2.615   3.947   6.351
 7360SOL    HW122979   2.557   3.944   6.270
 7360SOL    HW222980   2.698   3.894   6.336
 7361SOL     OW22981   5.916   0.649   3.775
 7361SOL    HW122982   5.960   0.725   3.822
 7361SOL    HW222983   5.978   0.571   3.772
 7362SOL     OW22984   3.652   5.673   0.625
 7362SOL    HW122985   3.694   5.727   0.698
 7362SOL    HW222986   3.590   5.606   0.664
 7363SOL     OW22987   4.753   0.563   1.309
 7363SOL    HW122988   4.775   0.542   1.213
 7363SOL    HW222989   4.670   0.514   1.335
 7364SOL     OW22990   5.459   5.675   1.657
 7364SOL    HW122991   5.390   5.688   1.586
 7364SOL    HW222992   5.521   5.753   1.659
 7365SOL     OW22993   4.866   3.592   2.028
 7365SOL    HW122994   4.848   3.687   2.004
 7365SOL    HW222995   4.810   3.532   1.970
 7366SOL     OW22996   2.257   6.406   3.458
 7366SOL    HW122997   2.328   6.344   3.491
 7366SOL    HW222998   2.292   6.463   3.384
 7367SOL     OW22999   4.615   1.283   0.312
 7367SOL    HW123000   4.558   1.329   0.245
 7367SOL    HW223001   4.573   1.197   0.339
 7368SOL     OW23002   3.174   3.882   3.133
 7368SOL    HW123003   3.224   3.802   3.165
 7368SOL    HW223004   3.085   3.855   3.098
 7369SOL     OW23005   5.518   3.583   6.997
 7369SOL    HW123006   5.555   3.491   7.006
 7369SOL    HW223007   5.442   3.582   6.932
 7370SOL     OW23008   2.287   0.885   4.094
 7370SOL    HW123009   2.349   0.948   4.141
 7370SOL    HW223010   2.326   0.793   4.092
 7371SOL     OW23011   4.175   0.422   3.716
 7371SOL    HW123012   4.134   0.359   3.650
 7371SOL    HW223013   4.105   0.454   3.779
 7372SOL     OW23014   3.688   1.585   5.606
 7372SOL    HW123015   3.602   1.633   5.625
 7372SOL    HW223016   3.671   1.512   5.539
 7373SOL     OW23017   6.577   2.844   4.269
 7373SOL    HW123018   6.646   2.879   4.205
 7373SOL    HW223019   6.593   2.747   4.286
 7374SOL     OW23020   6.686   3.450   6.191
 7374SOL    HW123021   6.720   3.368   6.237
 7374SOL    HW223022   6.697   3.440   6.092
 7375SOL     OW23023   1.864   1.984   1.444
 7375SOL    HW123024   1.795   2.022   1.382
 7375SOL    HW223025   1.936   1.940   1.391
 7376SOL     OW23026   6.281   5.143   0.265
 7376SOL    HW123027   6.377   5.136   0.239
 7376SOL    HW223028   6.256   5.239   0.274
 7377SOL     OW23029   2.667   5.941   0.963
 7377SOL    HW123030   2.642   5.874   1.033
 7377SOL    HW223031   2.584   5.972   0.917
 7378SOL     OW23032   2.338   4.844   5.822
 7378SOL    HW123033   2.293   4.784   5.757
 7378SOL    HW223034   2.413   4.892   5.776
 7379SOL     OW23035   5.365   2.509   2.666
 7379SOL    HW123036   5.359   2.447   2.744
 7379SOL    HW223037   5.335   2.462   2.583
 7380SOL     OW23038   5.185   3.453   1.363
 7380SOL    HW123039   5.226   3.463   1.454
 7380SOL    HW223040   5.086   3.460   1.369
 7381SOL     OW23041   3.642   0.236   1.464
 7381SOL    HW123042   3.549   0.214   1.494
 7381SOL    HW223043   3.701   0.157   1.476
 7382SOL     OW23044   0.310   2.820   0.018
 7382SOL    HW123045   0.285   2.730   0.054
 7382SOL    HW223046   0.401   2.814   6.995
 7383SOL     OW23047   2.387   6.749   1.053
 7383SOL    HW123048   2.287   6.757   1.060
 7383SOL    HW223049   2.427   6.747   1.144
 7384SOL     OW23050   0.281   0.587   6.968
 7384SOL    HW123051   0.284   0.552   0.042
 7384SOL    HW223052   0.213   0.660   6.962
 7385SOL     OW23053   6.789   4.543   2.872
 7385SOL    HW123054   6.809   4.596   2.790
 7385SOL    HW223055   6.691   4.544   2.890
 7386SOL     OW23056   6.178   3.800   0.592
 7386SOL    HW123057   6.244   3.814   0.518
 7386SOL    HW223058   6.225   3.765   0.673
 7387SOL     OW23059   0.221   5.342   3.749
 7387SOL    HW123060   0.147   5.274   3.751
 7387SOL    HW223061   0.240   5.373   3.842
 7388SOL     OW23062   2.363   4.527   2.984
 7388SOL    HW123063   2.290   4.508   3.050
 7388SOL    HW223064   2.326   4.586   2.912
 7389SOL     OW23065   0.442   2.629   1.157
 7389SOL    HW123066   0.444   2.668   1.065
 7389SOL    HW223067   0.531   2.587   1.177
 7390SOL     OW23068   4.295   2.139   4.182
 7390SOL    HW123069   4.215   2.081   4.195
 7390SOL    HW223070   4.273   2.233   4.209
 7391SOL     OW23071   3.142   3.693   2.432
 7391SOL    HW123072   3.190   3.608   2.409
 7391SOL    HW223073   3.046   3.672   2.453
 7392SOL     OW23074   3.734   6.744   0.392
 7392SOL    HW123075   3.807   6.765   0.456
 7392SOL    HW223076   3.647   6.736   0.441
 7393SOL     OW23077   4.609   5.621   3.101
 7393SOL    HW123078   4.611   5.697   3.166
 7393SOL    HW223079   4.517   5.582   3.098
 7394SOL     OW23080   1.650   1.248   6.474
 7394SOL    HW123081   1.550   1.245   6.467
 7394SOL    HW223082   1.682   1.341   6.460
 7395SOL     OW23083   2.602   5.682   1.059
 7395SOL    HW123084   2.677   5.681   1.126
 7395SOL    HW223085   2.534   5.613   1.084
 7396SOL     OW23086   1.078   5.356   2.400
 7396SOL    HW123087   1.159   5.402   2.437
 7396SOL    HW223088   1.065   5.383   2.304
 7397SOL     OW23089   6.074   5.219   4.881
 7397SOL    HW123090   6.098   5.151   4.811
 7397SOL    HW223091   5.987   5.194   4.923
 7398SOL     OW23092   3.110   5.633   2.256
 7398SOL    HW123093   3.059   5.565   2.309
 7398SOL    HW223094   3.204   5.602   2.244
 7399SOL     OW23095   6.338   2.851   5.266
 7399SOL    HW123096   6.405   2.780   5.289
 7399SOL    HW223097   6.284   2.873   5.348
 7400SOL     OW23098   3.974   3.529   5.450
 7400SOL    HW123099   3.935   3.474   5.524
 7400SOL    HW223100   4.060   3.488   5.420
 7401SOL     OW23101   2.679   1.964   4.579
 7401SOL    HW123102   2.689   2.060   4.552
 7401SOL    HW223103   2.739   1.944   4.656
 7402SOL     OW23104   3.363   5.024   4.517
 7402SOL    HW123105   3.388   5.120   4.505
 7402SOL    HW223106   3.427   4.967   4.466
 7403SOL     OW23107   1.909   5.218   4.238
 7403SOL    HW123108   1.857   5.134   4.256
 7403SOL    HW223109   2.007   5.196   4.239
 7404SOL     OW23110   1.860   2.787   1.277
 7404SOL    HW123111   1.878   2.856   1.347
 7404SOL    HW223112   1.946   2.746   1.247
 7405SOL     OW23113   2.842   6.529   5.707
 7405SOL    HW123114   2.840   6.429   5.715
 7405SOL    HW223115   2.936   6.561   5.710
 7406SOL     OW23116   0.691   2.874   4.541
 7406SOL    HW123117   0.771   2.886   4.600
 7406SOL    HW223118   0.721   2.854   4.448
 7407SOL     OW23119   0.945   6.251   4.491
 7407SOL    HW123120   0.938   6.153   4.472
 7407SOL    HW223121   0.999   6.265   4.573
 7408SOL     OW23122   4.139   5.134   5.539
 7408SOL    HW123123   4.130   5.185   5.624
 7408SOL    HW223124   4.067   5.161   5.475
 7409SOL     OW23125   6.158   4.777   1.108
 7409SOL    HW123126   6.148   4.701   1.044
 7409SOL    HW223127   6.252   4.779   1.143
 7410SOL     OW23128   6.102   1.034   0.320
 7410SOL    HW123129   6.127   1.092   0.242
 7410SOL    HW223130   6.029   1.078   0.372
 7411SOL     OW23131   3.299   1.772   5.980
 7411SOL    HW123132   3.250   1.829   5.914
 7411SOL    HW223133   3.277   1.676   5.963
 7412SOL     OW23134   4.408   6.832   6.327
 7412SOL    HW123135   4.471   6.877   6.390
 7412SOL    HW223136   4.459   6.786   6.255
 7413SOL     OW23137   4.801   0.989   3.806
 7413SOL    HW123138   4.767   1.025   3.893
 7413SOL    HW223139   4.731   0.928   3.767
 7414SOL     OW23140   3.136   0.953   4.483
 7414SOL    HW123141   3.056   0.968   4.426
 7414SOL    HW223142   3.216   0.994   4.439
 7415SOL     OW23143   4.362   0.660   5.712
 7415SOL    HW123144   4.366   0.561   5.729
 7415SOL    HW223145   4.453   0.699   5.725
 7416SOL     OW23146   0.145   0.133   1.855
 7416SOL    HW123147   0.221   0.145   1.919
 7416SOL    HW223148   0.129   0.218   1.804
 7417SOL     OW23149   6.912   0.454   2.066
 7417SOL    HW123150   6.932   0.377   2.126
 7417SOL    HW223151   6.997   0.491   2.029
 7418SOL     OW23152   1.931   3.585   6.316
 7418SOL    HW123153   1.989   3.505   6.327
 7418SOL    HW223154   1.982   3.656   6.267
 7419SOL     OW23155   6.595   2.778   4.626
 7419SOL    HW123156   6.644   2.831   4.556
 7419SOL    HW223157   6.513   2.828   4.654
 7420SOL     OW23158   6.568   6.982   0.072
 7420SOL    HW123159   6.633   6.980   0.148
 7420SOL    HW223160   6.607   0.016   7.015
 7421SOL     OW23161   0.001   3.837   0.890
 7421SOL    HW123162   6.965   3.859   0.971
 7421SOL    HW223163   6.967   3.859   0.807
 7422SOL     OW23164   6.571   3.359   1.923
 7422SOL    HW123165   6.556   3.303   2.005
 7422SOL    HW223166   6.583   3.455   1.949
 7423SOL     OW23167   4.136   2.275   6.155
 7423SOL    HW123168   4.162   2.190   6.111
 7423SOL    HW223169   4.051   2.262   6.206
 7424SOL     OW23170   0.644   2.081   4.347
 7424SOL    HW123171   0.625   2.094   4.444
 7424SOL    HW223172   0.660   1.984   4.328
 7425SOL     OW23173   5.608   0.545   0.765
 7425SOL    HW123174   5.523   0.554   0.816
 7425SOL    HW223175   5.685   0.567   0.825
 7426SOL     OW23176   3.749   3.690   5.387
 7426SOL    HW123177   3.822   3.633   5.425
 7426SOL    HW223178   3.733   3.768   5.447
 7427SOL     OW23179   2.706   0.669   1.778
 7427SOL    HW123180   2.752   0.674   1.867
 7427SOL    HW223181   2.739   0.742   1.719
 7428SOL     OW23182   0.955   6.593   5.226
 7428SOL    HW123183   0.897   6.657   5.276
 7428SOL    HW223184   1.019   6.643   5.169
 7429SOL     OW23185   0.960   0.492   2.144
 7429SOL    HW123186   0.881   0.539   2.104
 7429SOL    HW223187   0.945   0.393   2.140
 7430SOL     OW23188   6.615   3.708   2.271
 7430SOL    HW123189   6.643   3.643   2.342
 7430SOL    HW223190   6.696   3.753   2.233
 7431SOL     OW23191   1.092   2.557   4.637
 7431SOL    HW123192   1.133   2.647   4.656
 7431SOL    HW223193   1.015   2.542   4.699
 7432SOL     OW23194   1.271   0.913   2.780
 7432SOL    HW123195   1.266   0.959   2.691
 7432SOL    HW223196   1.263   0.980   2.853
 7433SOL     OW23197   3.751   0.191   6.007
 7433SOL    HW123198   3.738   0.272   6.065
 7433SOL    HW223199   3.846   0.186   5.977
 7434SOL     OW23200   4.073   0.074   3.650
 7434SOL    HW123201   3.992   0.024   3.622
 7434SOL    HW223202   4.151   0.011   3.657
 7435SOL     OW23203   5.485   4.710   3.063
 7435SOL    HW123204   5.467   4.806   3.045
 7435SOL    HW223205   5.530   4.700   3.152
 7436SOL     OW23206   4.305   2.961   6.393
 7436SOL    HW123207   4.343   2.982   6.483
 7436SOL    HW223208   4.312   3.042   6.335
 7437SOL     OW23209   3.778   0.436   1.614
 7437SOL    HW123210   3.705   0.378   1.576
 7437SOL    HW223211   3.790   0.517   1.558
 7438SOL     OW23212   1.836   0.996   6.633
 7438SOL    HW123213   1.870   1.068   6.694
 7438SOL    HW223214   1.872   1.010   6.541
 7439SOL     OW23215   1.636   4.331   5.980
 7439SOL    HW123216   1.656   4.238   5.951
 7439SOL    HW223217   1.670   4.395   5.911
 7440SOL     OW23218   5.899   2.440   4.551
 7440SOL    HW123219   5.907   2.438   4.650
 7440SOL    HW223220   5.859   2.354   4.518
 7441SOL     OW23221   4.409   6.969   0.431
 7441SOL    HW123222   4.400   6.905   0.507
 7441SOL    HW223223   4.466   6.929   0.360
 7442SOL     OW23224   6.875   1.539   6.358
 7442SOL    HW123225   6.853   1.444   6.380
 7442SOL    HW223226   6.974   1.550   6.355
 7443SOL     OW23227   6.840   6.734   0.328
 7443SOL    HW123228   6.799   6.671   0.394
 7443SOL    HW223229   6.910   6.686   0.275
 7444SOL     OW23230   1.009   6.143   6.412
 7444SOL    HW123231   1.032   6.176   6.503
 7444SOL    HW223232   1.024   6.216   6.345
 7445SOL     OW23233   3.887   6.173   2.438
 7445SOL    HW123234   3.798   6.138   2.408
 7445SOL    HW223235   3.879   6.270   2.459
 7446SOL     OW23236   6.589   4.946   0.315
 7446SOL    HW123237   6.604   4.928   0.218
 7446SOL    HW223238   6.503   4.902   0.343
 7447SOL     OW23239   0.172   5.573   1.153
 7447SOL    HW123240   0.160   5.645   1.084
 7447SOL    HW223241   0.133   5.487   1.119
 7448SOL     OW23242   5.050   4.978   6.944
 7448SOL    HW123243   5.101   4.897   6.972
 7448SOL    HW223244   5.051   4.985   6.844
 7449SOL     OW23245   6.452   3.503   6.314
 7449SOL    HW123246   6.443   3.417   6.364
 7449SOL    HW223247   6.520   3.492   6.242
 7450SOL     OW23248   5.396   3.747   0.502
 7450SOL    HW123249   5.339   3.826   0.524
 7450SOL    HW223250   5.426   3.753   0.407
 7451SOL     OW23251   4.350   5.030   3.068
 7451SOL    HW123252   4.262   5.054   3.028
 7451SOL    HW223253   4.397   5.112   3.099
 7452SOL     OW23254   6.663   6.172   6.808
 7452SOL    HW123255   6.643   6.264   6.775
 7452SOL    HW223256   6.760   6.152   6.796
 7453SOL     OW23257   4.444   4.867   6.452
 7453SOL    HW123258   4.396   4.914   6.378
 7453SOL    HW223259   4.378   4.812   6.504
 7454SOL     OW23260   4.030   1.953   1.412
 7454SOL    HW123261   4.100   1.982   1.477
 7454SOL    HW223262   3.940   1.975   1.447
 7455SOL     OW23263   6.746   0.515   2.724
 7455SOL    HW123264   6.666   0.455   2.734
 7455SOL    HW223265   6.777   0.514   2.629
 7456SOL     OW23266   2.882   0.797   5.709
 7456SOL    HW123267   2.906   0.892   5.691
 7456SOL    HW223268   2.872   0.747   5.623
 7457SOL     OW23269   1.207   1.744   2.563
 7457SOL    HW123270   1.229   1.664   2.507
 7457SOL    HW223271   1.107   1.750   2.573
 7458SOL     OW23272   0.096   6.114   5.146
 7458SOL    HW123273   0.040   6.032   5.155
 7458SOL    HW223274   0.037   6.195   5.148
 7459SOL     OW23275   5.736   6.717   3.016
 7459SOL    HW123276   5.662   6.731   3.082
 7459SOL    HW223277   5.779   6.805   2.996
 7460SOL     OW23278   0.445   0.453   1.227
 7460SOL    HW123279   0.510   0.509   1.279
 7460SOL    HW223280   0.493   0.409   1.151
 7461SOL     OW23281   1.876   4.663   5.408
 7461SOL    HW123282   1.834   4.574   5.426
 7461SOL    HW223283   1.975   4.653   5.409
 7462SOL     OW23284   1.634   4.432   0.011
 7462SOL    HW123285   1.663   4.373   6.955
 7462SOL    HW223286   1.598   4.377   0.086
 7463SOL     OW23287   4.824   4.607   0.486
 7463SOL    HW123288   4.798   4.512   0.475
 7463SOL    HW223289   4.803   4.637   0.579
 7464SOL     OW23290   4.994   5.046   5.363
 7464SOL    HW123291   4.993   5.128   5.306
 7464SOL    HW223292   5.076   5.045   5.420
 7465SOL     OW23293   1.537   3.657   6.370
 7465SOL    HW123294   1.578   3.580   6.419
 7465SOL    HW223295   1.564   3.743   6.413
 7466SOL     OW23296   0.380   0.059   5.657
 7466SOL    HW123297   0.447   7.008   5.632
 7466SOL    HW223298   0.298   0.048   5.602
 7467SOL     OW23299   1.065   3.441   3.783
 7467SOL    HW123300   1.123   3.367   3.817
 7467SOL    HW223301   1.040   3.423   3.688
 7468SOL     OW23302   6.217   2.644   4.750
 7468SOL    HW123303   6.292   2.600   4.800
 7468SOL    HW223304   6.163   2.699   4.813
 7469SOL     OW23305   6.954   1.933   0.074
 7469SOL    HW123306   6.922   2.004   0.137
 7469SOL    HW223307   6.965   1.972   7.002
 7470SOL     OW23308   5.061   3.320   3.883
 7470SOL    HW123309   5.044   3.245   3.946
 7470SOL    HW223310   5.145   3.367   3.909
 7471SOL     OW23311   3.469   6.752   6.055
 7471SOL    HW123312   3.377   6.788   6.047
 7471SOL    HW223313   3.535   6.820   6.023
 7472SOL     OW23314   6.861   0.140   5.326
 7472SOL    HW123315   6.834   0.117   5.419
 7472SOL    HW223316   6.817   0.226   5.298
 7473SOL     OW23317   4.538   6.964   3.119
 7473SOL    HW123318   4.464   6.935   3.180
 7473SOL    HW223319   4.501   6.979   3.027
 7474SOL     OW23320   6.119   2.342   1.892
 7474SOL    HW123321   6.103   2.384   1.981
 7474SOL    HW223322   6.081   2.401   1.820
 7475SOL     OW23323   5.174   2.984   1.275
 7475SOL    HW123324   5.242   2.955   1.209
 7475SOL    HW223325   5.101   3.035   1.228
 7476SOL     OW23326   2.587   1.540   2.689
 7476SOL    HW123327   2.641   1.522   2.606
 7476SOL    HW223328   2.490   1.522   2.670
 7477SOL     OW23329   2.521   3.817   5.914
 7477SOL    HW123330   2.482   3.727   5.895
 7477SOL    HW223331   2.586   3.842   5.842
 7478SOL     OW23332   0.588   2.634   6.597
 7478SOL    HW123333   0.582   2.713   6.657
 7478SOL    HW223334   0.516   2.568   6.620
 7479SOL     OW23335   5.492   2.722   1.896
 7479SOL    HW123336   5.488   2.650   1.965
 7479SOL    HW223337   5.576   2.775   1.907
 7480SOL     OW23338   3.968   6.075   2.151
 7480SOL    HW123339   3.927   6.130   2.224
 7480SOL    HW223340   4.044   6.126   2.110
 7481SOL     OW23341   0.547   4.375   7.011
 7481SOL    HW123342   0.554   4.461   0.042
 7481SOL    HW223343   0.530   4.393   6.914
 7482SOL     OW23344   3.816   1.618   4.911
 7482SOL    HW123345   3.894   1.641   4.854
 7482SOL    HW223346   3.842   1.624   5.007
 7483SOL     OW23347   5.885   1.481   5.790
 7483SOL    HW123348   5.971   1.525   5.766
 7483SOL    HW223349   5.886   1.386   5.758
 7484SOL     OW23350   2.253   6.705   4.955
 7484SOL    HW123351   2.188   6.698   4.880
 7484SOL    HW223352   2.253   6.799   4.990
 7485SOL     OW23353   3.985   0.329   6.875
 7485SOL    HW123354   4.042   0.287   6.804
 7485SOL    HW223355   4.012   0.294   6.964
 7486SOL     OW23356   4.316   6.172   0.693
 7486SOL    HW123357   4.395   6.232   0.705
 7486SOL    HW223358   4.316   6.135   0.600
 7487SOL     OW23359   3.483   6.156   4.782
 7487SOL    HW123360   3.399   6.102   4.795
 7487SOL    HW223361   3.498   6.170   4.684
 7488SOL     OW23362   2.176   5.865   3.708
 7488SOL    HW123363   2.213   5.957   3.701
 7488SOL    HW223364   2.076   5.869   3.710
 7489SOL     OW23365   4.851   3.462   5.826
 7489SOL    HW123366   4.949   3.455   5.809
 7489SOL    HW223367   4.802   3.396   5.770
 7490SOL     OW23368   2.093   2.168   1.256
 7490SOL    HW123369   2.190   2.154   1.235
 7490SOL    HW223370   2.058   2.088   1.304
 7491SOL     OW23371   4.553   3.946   6.560
 7491SOL    HW123372   4.473   3.998   6.591
 7491SOL    HW223373   4.598   3.903   6.638
 7492SOL     OW23374   1.621   1.226   2.961
 7492SOL    HW123375   1.546   1.260   2.903
 7492SOL    HW223376   1.667   1.304   3.004
 7493SOL     OW23377   6.059   4.625   4.678
 7493SOL    HW123378   6.080   4.723   4.676
 7493SOL    HW223379   5.963   4.611   4.654
 7494SOL     OW23380   5.689   1.224   2.175
 7494SOL    HW123381   5.646   1.257   2.260
 7494SOL    HW223382   5.753   1.293   2.141
 7495SOL     OW23383   1.696   3.432   4.126
 7495SOL    HW123384   1.793   3.430   4.151
 7495SOL    HW223385   1.640   3.432   4.208
 7496SOL     OW23386   5.848   3.000   3.366
 7496SOL    HW123387   5.887   2.915   3.400
 7496SOL    HW223388   5.748   2.998   3.379
 7497SOL     OW23389   6.052   0.579   0.951
 7497SOL    HW123390   6.122   0.627   1.003
 7497SOL    HW223391   6.081   0.484   0.936
 7498SOL     OW23392   2.230   6.163   2.881
 7498SOL    HW123393   2.233   6.106   2.963
 7498SOL    HW223394   2.270   6.113   2.805
 7499SOL     OW23395   2.822   1.367   3.268
 7499SOL    HW123396   2.902   1.412   3.308
 7499SOL    HW223397   2.748   1.433   3.260
 7500SOL     OW23398   3.525   1.507   5.092
 7500SOL    HW123399   3.618   1.541   5.107
 7500SOL    HW223400   3.477   1.568   5.030
 7501SOL     OW23401   5.938   2.207   4.322
 7501SOL    HW123402   5.943   2.230   4.224
 7501SOL    HW223403   5.847   2.232   4.356
 7502SOL     OW23404   3.858   1.188   4.187
 7502SOL    HW123405   3.768   1.228   4.175
 7502SOL    HW223406   3.920   1.223   4.116
 7503SOL     OW23407   1.031   5.809   1.128
 7503SOL    HW123408   0.934   5.803   1.154
 7503SOL    HW223409   1.068   5.897   1.156
 7504SOL     OW23410   5.741   6.266   5.092
 7504SOL    HW123411   5.831   6.262   5.134
 7504SOL    HW223412   5.703   6.358   5.102
 7505SOL     OW23413   0.373   6.939   6.653
 7505SOL    HW123414   0.341   6.949   6.747
 7505SOL    HW223415   0.396   6.844   6.636
 7506SOL     OW23416   3.802   1.992   4.368
 7506SOL    HW123417   3.748   1.914   4.337
 7506SOL    HW223418   3.745   2.051   4.425
 7507SOL     OW23419   6.841   3.661   6.234
 7507SOL    HW123420   6.779   3.588   6.206
 7507SOL    HW223421   6.828   3.682   6.331
 7508SOL     OW23422   3.939   6.643   0.092
 7508SOL    HW123423   3.908   6.584   0.166
 7508SOL    HW223424   3.947   6.589   0.008
 7509SOL     OW23425   5.562   4.446   3.536
 7509SOL    HW123426   5.482   4.497   3.506
 7509SOL    HW223427   5.566   4.359   3.487
 7510SOL     OW23428   3.695   4.834   1.243
 7510SOL    HW123429   3.766   4.846   1.311
 7510SOL    HW223430   3.635   4.914   1.242
 7511SOL     OW23431   4.874   6.219   4.064
 7511SOL    HW123432   4.949   6.184   4.007
 7511SOL    HW223433   4.807   6.147   4.080
 7512SOL     OW23434   3.801   5.803   0.837
 7512SOL    HW123435   3.887   5.802   0.889
 7512SOL    HW223436   3.742   5.876   0.871
 7513SOL     OW23437   0.195   0.711   2.805
 7513SOL    HW123438   0.165   0.616   2.807
 7513SOL    HW223439   0.132   0.768   2.857
 7514SOL     OW23440   0.135   0.488   0.462
 7514SOL    HW123441   0.074   0.436   0.403
 7514SOL    HW223442   0.102   0.582   0.470
 7515SOL     OW23443   0.448   4.902   5.139
 7515SOL    HW123444   0.362   4.898   5.189
 7515SOL    HW223445   0.454   4.824   5.077
 7516SOL     OW23446   2.286   5.657   4.540
 7516SOL    HW123447   2.338   5.735   4.507
 7516SOL    HW223448   2.334   5.572   4.518
 7517SOL     OW23449   0.372   2.726   0.551
 7517SOL    HW123450   0.403   2.634   0.527
 7517SOL    HW223451   0.417   2.793   0.492
 7518SOL     OW23452   3.895   2.098   4.900
 7518SOL    HW123453   3.916   2.123   4.994
 7518SOL    HW223454   3.977   2.108   4.844
 7519SOL     OW23455   2.983   6.385   4.752
 7519SOL    HW123456   3.002   6.477   4.718
 7519SOL    HW223457   2.983   6.386   4.852
 7520SOL     OW23458   1.888   0.713   0.874
 7520SOL    HW123459   1.968   0.653   0.872
 7520SOL    HW223460   1.825   0.682   0.945
 7521SOL     OW23461   4.497   1.479   5.497
 7521SOL    HW123462   4.503   1.567   5.450
 7521SOL    HW223463   4.406   1.440   5.484
 7522SOL     OW23464   1.485   6.640   4.185
 7522SOL    HW123465   1.579   6.658   4.212
 7522SOL    HW223466   1.474   6.657   4.087
 7523SOL     OW23467   5.459   1.845   6.810
 7523SOL    HW123468   5.523   1.803   6.746
 7523SOL    HW223469   5.368   1.805   6.798
 7524SOL     OW23470   0.064   4.068   4.934
 7524SOL    HW123471   0.156   4.053   4.898
 7524SOL    HW223472   0.069   4.117   5.021
 7525SOL     OW23473   2.799   4.696   5.835
 7525SOL    HW123474   2.784   4.617   5.775
 7525SOL    HW223475   2.739   4.771   5.807
 7526SOL     OW23476   1.109   3.712   0.942
 7526SOL    HW123477   1.025   3.744   0.986
 7526SOL    HW223478   1.174   3.683   1.011
 7527SOL     OW23479   3.033   5.298   2.647
 7527SOL    HW123480   3.117   5.260   2.608
 7527SOL    HW223481   2.963   5.227   2.650
 7528SOL     OW23482   6.567   2.583   0.161
 7528SOL    HW123483   6.610   2.580   0.071
 7528SOL    HW223484   6.475   2.623   0.153
 7529SOL     OW23485   5.981   2.886   4.691
 7529SOL    HW123486   5.922   2.965   4.676
 7529SOL    HW223487   5.949   2.809   4.637
 7530SOL     OW23488   1.862   1.934   3.182
 7530SOL    HW123489   1.778   1.967   3.140
 7530SOL    HW223490   1.860   1.954   3.280
 7531SOL     OW23491   4.547   1.757   3.957
 7531SOL    HW123492   4.539   1.765   3.858
 7531SOL    HW223493   4.528   1.846   3.999
 7532SOL     OW23494   4.327   4.587   6.592
 7532SOL    HW123495   4.282   4.534   6.664
 7532SOL    HW223496   4.405   4.637   6.632
 7533SOL     OW23497   4.444   4.456   0.948
 7533SOL    HW123498   4.449   4.435   1.046
 7533SOL    HW223499   4.507   4.396   0.899
 7534SOL     OW23500   4.420   6.205   4.925
 7534SOL    HW123501   4.476   6.269   4.977
 7534SOL    HW223502   4.376   6.140   4.987
 7535SOL     OW23503   0.155   6.693   4.713
 7535SOL    HW123504   0.185   6.635   4.637
 7535SOL    HW223505   0.074   6.744   4.686
 7536SOL     OW23506   6.104   7.004   2.750
 7536SOL    HW123507   6.041   0.060   2.769
 7536SOL    HW223508   6.159   6.985   2.831
 7537SOL     OW23509   2.443   0.473   2.030
 7537SOL    HW123510   2.361   0.459   1.975
 7537SOL    HW223511   2.521   0.426   1.987
 7538SOL     OW23512   0.127   4.575   0.096
 7538SOL    HW123513   0.084   4.486   0.084
 7538SOL    HW223514   0.189   4.573   0.174
 7539SOL     OW23515   6.576   0.177   4.589
 7539SOL    HW123516   6.661   0.186   4.538
 7539SOL    HW223517   6.500   0.168   4.525
 7540SOL     OW23518   5.355   3.777   3.761
 7540SOL    HW123519   5.363   3.730   3.673
 7540SOL    HW223520   5.262   3.813   3.771
 7541SOL     OW23521   2.145   3.746   0.009
 7541SOL    HW123522   2.063   3.688   0.004
 7541SOL    HW223523   2.177   3.767   6.936
 7542SOL     OW23524   6.272   6.303   4.757
 7542SOL    HW123525   6.216   6.289   4.675
 7542SOL    HW223526   6.367   6.322   4.730
 7543SOL     OW23527   2.123   0.495   0.571
 7543SOL    HW123528   2.090   0.583   0.538
 7543SOL    HW223529   2.223   0.496   0.575
 7544SOL     OW23530   6.029   1.703   4.964
 7544SOL    HW123531   6.056   1.705   4.867
 7544SOL    HW223532   6.107   1.726   5.021
 7545SOL     OW23533   1.048   5.671   4.972
 7545SOL    HW123534   0.968   5.626   4.933
 7545SOL    HW223535   1.116   5.602   4.996
 7546SOL     OW23536   2.390   3.071   1.628
 7546SOL    HW123537   2.367   2.991   1.573
 7546SOL    HW223538   2.490   3.077   1.638
 7547SOL     OW23539   3.875   0.420   1.854
 7547SOL    HW123540   3.963   0.468   1.855
 7547SOL    HW223541   3.833   0.428   1.764
 7548SOL     OW23542   2.526   2.294   6.504
 7548SOL    HW123543   2.560   2.242   6.426
 7548SOL    HW223544   2.443   2.343   6.477
 7549SOL     OW23545   5.018   0.421   5.217
 7549SOL    HW123546   5.014   0.510   5.172
 7549SOL    HW223547   4.964   0.355   5.164
 7550SOL     OW23548   2.731   5.912   4.985
 7550SOL    HW123549   2.749   5.895   5.082
 7550SOL    HW223550   2.699   5.828   4.942
 7551SOL     OW23551   6.133   2.975   6.375
 7551SOL    HW123552   6.112   3.063   6.332
 7551SOL    HW223553   6.077   2.964   6.458
 7552SOL     OW23554   2.821   6.548   4.139
 7552SOL    HW123555   2.819   6.620   4.208
 7552SOL    HW223556   2.907   6.553   4.088
 7553SOL     OW23557   6.321   0.108   5.441
 7553SOL    HW123558   6.302   0.196   5.485
 7553SOL    HW223559   6.286   0.109   5.347
 7554SOL     OW23560   4.943   1.728   1.834
 7554SOL    HW123561   4.878   1.667   1.880
 7554SOL    HW223562   5.036   1.707   1.866
 7555SOL     OW23563   4.926   5.726   4.000
 7555SOL    HW123564   4.991   5.802   4.008
 7555SOL    HW223565   4.950   5.670   3.921
 7556SOL     OW23566   0.713   6.026   0.749
 7556SOL    HW123567   0.764   6.063   0.671
 7556SOL    HW223568   0.723   6.087   0.827
 7557SOL     OW23569   4.190   5.992   0.231
 7557SOL    HW123570   4.166   6.030   0.142
 7557SOL    HW223571   4.224   5.899   0.220
 7558SOL     OW23572   1.193   1.547   4.004
 7558SOL    HW123573   1.158   1.533   4.096
 7558SOL    HW223574   1.284   1.586   4.008
 7559SOL     OW23575   1.200   6.551   4.949
 7559SOL    HW123576   1.201   6.575   5.046
 7559SOL    HW223577   1.294   6.536   4.917
 7560SOL     OW23578   1.042   0.833   5.471
 7560SOL    HW123579   1.047   0.853   5.373
 7560SOL    HW223580   1.094   0.901   5.522
 7561SOL     OW23581   5.194   1.469   5.630
 7561SOL    HW123582   5.235   1.401   5.691
 7561SOL    HW223583   5.175   1.426   5.542
 7562SOL     OW23584   1.763   5.664   3.686
 7562SOL    HW123585   1.805   5.743   3.731
 7562SOL    HW223586   1.664   5.669   3.693
 7563SOL     OW23587   2.587   6.351   3.347
 7563SOL    HW123588   2.669   6.393   3.386
 7563SOL    HW223589   2.569   6.390   3.257
 7564SOL     OW23590   5.492   3.757   5.945
 7564SOL    HW123591   5.469   3.779   5.850
 7564SOL    HW223592   5.588   3.730   5.951
 7565SOL     OW23593   6.599   3.620   5.705
 7565SOL    HW123594   6.620   3.705   5.753
 7565SOL    HW223595   6.528   3.570   5.754
 7566SOL     OW23596   4.942   4.416   1.602
 7566SOL    HW123597   4.930   4.337   1.543
 7566SOL    HW223598   4.892   4.402   1.688
 7567SOL     OW23599   1.379   0.477   2.665
 7567SOL    HW123600   1.399   0.564   2.620
 7567SOL    HW223601   1.464   0.425   2.676
 7568SOL     OW23602   0.349   4.246   1.354
 7568SOL    HW123603   0.402   4.163   1.340
 7568SOL    HW223604   0.281   4.231   1.425
 7569SOL     OW23605   4.613   3.829   1.416
 7569SOL    HW123606   4.574   3.918   1.393
 7569SOL    HW223607   4.627   3.776   1.332
 7570SOL     OW23608   1.034   2.524   1.770
 7570SOL    HW123609   1.000   2.430   1.775
 7570SOL    HW223610   1.089   2.535   1.687
 7571SOL     OW23611   5.141   1.782   3.631
 7571SOL    HW123612   5.176   1.763   3.539
 7571SOL    HW223613   5.158   1.702   3.689
 7572SOL     OW23614   4.728   6.821   2.655
 7572SOL    HW123615   4.794   6.893   2.677
 7572SOL    HW223616   4.760   6.734   2.692
 7573SOL     OW23617   3.545   0.031   6.084
 7573SOL    HW123618   3.606   0.103   6.054
 7573SOL    HW223619   3.452   0.068   6.096
 7574SOL     OW23620   1.118   3.355   2.889
 7574SOL    HW123621   1.111   3.438   2.834
 7574SOL    HW223622   1.031   3.305   2.886
 7575SOL     OW23623   6.976   0.032   6.992
 7575SOL    HW123624   6.893   0.083   7.010
 7575SOL    HW223625   6.955   6.972   6.934
 7576SOL     OW23626   4.833   3.145   6.921
 7576SOL    HW123627   4.848   3.239   6.953
 7576SOL    HW223628   4.803   3.089   6.998
 7577SOL     OW23629   6.911   0.094   5.810
 7577SOL    HW123630   7.001   0.052   5.827
 7577SOL    HW223631   6.897   0.169   5.875
 7578SOL     OW23632   6.041   5.512   2.284
 7578SOL    HW123633   6.047   5.588   2.219
 7578SOL    HW223634   6.009   5.430   2.236
 7579SOL     OW23635   1.272   1.617   6.588
 7579SOL    HW123636   1.255   1.601   6.491
 7579SOL    HW223637   1.282   1.715   6.604
 7580SOL     OW23638   2.489   4.831   2.321
 7580SOL    HW123639   2.552   4.863   2.250
 7580SOL    HW223640   2.484   4.731   2.318
 7581SOL     OW23641   0.647   0.063   0.970
 7581SOL    HW123642   0.715   0.008   1.018
 7581SOL    HW223643   0.693   0.137   0.921
 7582SOL     OW23644   1.646   0.246   5.811
 7582SOL    HW123645   1.562   0.213   5.854
 7582SOL    HW223646   1.723   0.233   5.873
 7583SOL     OW23647   5.637   4.071   2.459
 7583SOL    HW123648   5.688   4.117   2.386
 7583SOL    HW223649   5.576   4.003   2.420
 7584SOL     OW23650   0.284   0.882   3.640
 7584SOL    HW123651   0.187   0.871   3.657
 7584SOL    HW223652   0.308   0.979   3.643
 7585SOL     OW23653   0.645   0.970   5.702
 7585SOL    HW123654   0.695   0.893   5.663
 7585SOL    HW223655   0.662   0.975   5.800
 7586SOL     OW23656   1.994   6.590   4.059
 7586SOL    HW123657   1.963   6.603   3.965
 7586SOL    HW223658   2.048   6.670   4.088
 7587SOL     OW23659   5.739   0.555   2.320
 7587SOL    HW123660   5.654   0.606   2.336
 7587SOL    HW223661   5.749   0.537   2.222
 7588SOL     OW23662   2.124   3.448   4.551
 7588SOL    HW123663   2.127   3.434   4.649
 7588SOL    HW223664   2.141   3.545   4.531
 7589SOL     OW23665   6.622   6.766   2.232
 7589SOL    HW123666   6.610   6.680   2.283
 7589SOL    HW223667   6.655   6.745   2.140
 7590SOL     OW23668   6.052   1.031   7.001
 7590SOL    HW123669   5.986   1.073   6.939
 7590SOL    HW223670   6.008   0.955   0.030
 7591SOL     OW23671   3.565   4.053   5.110
 7591SOL    HW123672   3.527   3.966   5.078
 7591SOL    HW223673   3.560   4.121   5.038
 7592SOL     OW23674   0.185   6.552   3.283
 7592SOL    HW123675   0.107   6.606   3.249
 7592SOL    HW223676   0.270   6.592   3.249
 7593SOL     OW23677   6.598   2.041   6.023
 7593SOL    HW123678   6.623   2.082   5.936
 7593SOL    HW223679   6.592   2.112   6.093
 7594SOL     OW23680   6.513   4.017   6.205
 7594SOL    HW123681   6.549   4.068   6.284
 7594SOL    HW223682   6.421   4.049   6.184
 7595SOL     OW23683   0.413   3.430   0.310
 7595SOL    HW123684   0.378   3.508   0.257
 7595SOL    HW223685   0.490   3.460   0.366
 7596SOL     OW23686   3.126   1.692   6.501
 7596SOL    HW123687   3.047   1.740   6.464
 7596SOL    HW223688   3.104   1.656   6.592
 7597SOL     OW23689   2.766   4.521   0.584
 7597SOL    HW123690   2.710   4.537   0.665
 7597SOL    HW223691   2.832   4.596   0.574
 7598SOL     OW23692   4.750   0.559   2.488
 7598SOL    HW123693   4.749   0.575   2.389
 7598SOL    HW223694   4.841   0.528   2.516
 7599SOL     OW23695   2.960   3.134   0.376
 7599SOL    HW123696   2.890   3.115   0.445
 7599SOL    HW223697   2.916   3.138   0.286
 7600SOL     OW23698   0.609   6.839   3.862
 7600SOL    HW123699   0.656   6.790   3.936
 7600SOL    HW223700   0.636   6.935   3.863
 7601SOL     OW23701   2.987   6.184   1.145
 7601SOL    HW123702   2.948   6.118   1.210
 7601SOL    HW223703   3.000   6.139   1.056
 7602SOL     OW23704   0.256   0.915   1.458
 7602SOL    HW123705   0.259   0.817   1.473
 7602SOL    HW223706   0.161   0.946   1.455
 7603SOL     OW23707   4.430   1.119   6.788
 7603SOL    HW123708   4.489   1.077   6.719
 7603SOL    HW223709   4.390   1.048   6.846
 7604SOL     OW23710   2.425   2.007   5.579
 7604SOL    HW123711   2.467   1.994   5.490
 7604SOL    HW223712   2.336   2.051   5.568
 7605SOL     OW23713   2.808   6.167   6.611
 7605SOL    HW123714   2.886   6.223   6.583
 7605SOL    HW223715   2.751   6.147   6.531
 7606SOL     OW23716   6.453   0.986   3.589
 7606SOL    HW123717   6.515   1.008   3.514
 7606SOL    HW223718   6.363   1.025   3.570
 7607SOL     OW23719   1.833   5.628   5.506
 7607SOL    HW123720   1.810   5.542   5.551
 7607SOL    HW223721   1.882   5.610   5.421
 7608SOL     OW23722   0.620   2.898   6.331
 7608SOL    HW123723   0.630   2.974   6.395
 7608SOL    HW223724   0.586   2.931   6.244
 7609SOL     OW23725   2.953   7.009   4.993
 7609SOL    HW123726   2.961   0.034   4.903
 7609SOL    HW223727   2.924   6.914   4.981
 7610SOL     OW23728   4.229   5.775   4.439
 7610SOL    HW123729   4.176   5.695   4.467
 7610SOL    HW223730   4.268   5.761   4.349
 7611SOL     OW23731   4.382   2.219   0.371
 7611SOL    HW123732   4.457   2.161   0.403
 7611SOL    HW223733   4.420   2.300   0.327
 7612SOL     OW23734   4.906   3.156   2.198
 7612SOL    HW123735   4.859   3.114   2.121
 7612SOL    HW223736   4.889   3.103   2.281
 7613SOL     OW23737   0.067   0.644   6.681
 7613SOL    HW123738   0.002   0.633   6.606
 7613SOL    HW223739   0.019   0.677   6.763
 7614SOL     OW23740   5.913   5.038   6.634
 7614SOL    HW123741   5.838   5.040   6.699
 7614SOL    HW223742   5.900   5.111   6.567
 7615SOL     OW23743   5.017   3.196   6.605
 7615SOL    HW123744   4.961   3.213   6.524
 7615SOL    HW223745   5.057   3.104   6.599
 7616SOL     OW23746   6.444   6.788   1.899
 7616SOL    HW123747   6.390   6.764   1.979
 7616SOL    HW223748   6.407   6.870   1.857
 7617SOL     OW23749   5.836   4.744   3.123
 7617SOL    HW123750   5.929   4.777   3.105
 7617SOL    HW223751   5.773   4.783   3.056
 7618SOL     OW23752   2.844   2.323   0.209
 7618SOL    HW123753   2.870   2.420   0.214
 7618SOL    HW223754   2.821   2.300   0.114
 7619SOL     OW23755   0.465   0.379   4.818
 7619SOL    HW123756   0.419   0.430   4.891
 7619SOL    HW223757   0.485   0.441   4.742
 7620SOL     OW23758   3.275   3.913   0.403
 7620SOL    HW123759   3.302   3.824   0.439
 7620SOL    HW223760   3.233   3.901   0.313
 7621SOL     OW23761   5.700   4.775   0.804
 7621SOL    HW123762   5.646   4.855   0.777
 7621SOL    HW223763   5.689   4.758   0.902
 7622SOL     OW23764   2.398   3.669   0.615
 7622SOL    HW123765   2.313   3.713   0.641
 7622SOL    HW223766   2.435   3.713   0.533
 7623SOL     OW23767   5.225   5.040   3.184
 7623SOL    HW123768   5.292   5.042   3.258
 7623SOL    HW223769   5.152   4.975   3.207
 7624SOL     OW23770   6.670   2.909   2.778
 7624SOL    HW123771   6.683   2.939   2.872
 7624SOL    HW223772   6.692   2.984   2.716
 7625SOL     OW23773   5.087   0.582   2.324
 7625SOL    HW123774   5.037   0.495   2.328
 7625SOL    HW223775   5.083   0.617   2.230
 7626SOL     OW23776   4.553   6.469   0.366
 7626SOL    HW123777   4.593   6.554   0.400
 7626SOL    HW223778   4.507   6.421   0.441
 7627SOL     OW23779   4.395   2.747   5.552
 7627SOL    HW123780   4.367   2.813   5.482
 7627SOL    HW223781   4.334   2.754   5.631
 7628SOL     OW23782   3.762   2.684   1.021
 7628SOL    HW123783   3.818   2.639   1.090
 7628SOL    HW223784   3.666   2.659   1.033
 7629SOL     OW23785   5.886   2.878   4.107
 7629SOL    HW123786   5.946   2.798   4.111
 7629SOL    HW223787   5.896   2.922   4.018
 7630SOL     OW23788   1.354   6.058   3.584
 7630SOL    HW123789   1.300   6.047   3.501
 7630SOL    HW223790   1.301   6.109   3.652
 7631SOL     OW23791   1.290   1.134   6.597
 7631SOL    HW123792   1.335   1.165   6.513
 7631SOL    HW223793   1.214   1.074   6.575
 7632SOL     OW23794   4.151   5.592   1.253
 7632SOL    HW123795   4.090   5.602   1.331
 7632SOL    HW223796   4.228   5.532   1.278
 7633SOL     OW23797   4.940   0.308   2.271
 7633SOL    HW123798   4.845   0.322   2.299
 7633SOL    HW223799   4.970   0.216   2.298
 7634SOL     OW23800   0.401   2.160   6.889
 7634SOL    HW123801   0.436   2.153   6.982
 7634SOL    HW223802   0.362   2.073   6.861
 7635SOL     OW23803   1.861   3.005   5.945
 7635SOL    HW123804   1.920   2.931   5.915
 7635SOL    HW223805   1.881   3.088   5.893
 7636SOL     OW23806   6.949   2.855   3.457
 7636SOL    HW123807   6.897   2.928   3.413
 7636SOL    HW223808   6.961   2.779   3.393
 7637SOL     OW23809   1.803   4.000   4.680
 7637SOL    HW123810   1.820   3.903   4.670
 7637SOL    HW223811   1.722   4.025   4.627
 7638SOL     OW23812   0.286   6.645   0.769
 7638SOL    HW123813   0.282   6.655   0.670
 7638SOL    HW223814   0.220   6.707   0.811
 7639SOL     OW23815   2.294   5.833   0.523
 7639SOL    HW123816   2.377   5.889   0.522
 7639SOL    HW223817   2.313   5.745   0.568
 7640SOL     OW23818   3.461   0.413   0.929
 7640SOL    HW123819   3.423   0.320   0.927
 7640SOL    HW223820   3.519   0.423   1.010
 7641SOL     OW23821   6.259   4.131   5.433
 7641SOL    HW123822   6.174   4.092   5.470
 7641SOL    HW223823   6.332   4.124   5.502
 7642SOL     OW23824   5.805   1.296   3.881
 7642SOL    HW123825   5.758   1.324   3.964
 7642SOL    HW223826   5.835   1.377   3.830
 7643SOL     OW23827   5.252   2.127   3.926
 7643SOL    HW123828   5.159   2.103   3.953
 7643SOL    HW223829   5.287   2.058   3.862
 7644SOL     OW23830   5.182   3.984   0.257
 7644SOL    HW123831   5.189   3.975   0.356
 7644SOL    HW223832   5.272   4.001   0.218
 7645SOL     OW23833   5.389   4.503   6.419
 7645SOL    HW123834   5.411   4.459   6.332
 7645SOL    HW223835   5.469   4.504   6.477
 7646SOL     OW23836   6.535   1.257   2.476
 7646SOL    HW123837   6.545   1.158   2.466
 7646SOL    HW223838   6.617   1.295   2.520
 7647SOL     OW23839   6.954   1.840   3.971
 7647SOL    HW123840   7.009   1.906   3.920
 7647SOL    HW223841   6.960   1.751   3.927
 7648SOL     OW23842   1.755   2.443   0.789
 7648SOL    HW123843   1.757   2.373   0.718
 7648SOL    HW223844   1.667   2.439   0.837
 7649SOL     OW23845   4.335   0.659   0.513
 7649SOL    HW123846   4.256   0.611   0.551
 7649SOL    HW223847   4.353   0.741   0.566
 7650SOL     OW23848   3.564   2.878   0.367
 7650SOL    HW123849   3.526   2.826   0.442
 7650SOL    HW223850   3.630   2.822   0.317
 7651SOL     OW23851   3.983   5.486   6.132
 7651SOL    HW123852   3.916   5.446   6.193
 7651SOL    HW223853   3.954   5.579   6.106
 7652SOL     OW23854   0.554   0.933   4.987
 7652SOL    HW123855   0.646   0.969   4.999
 7652SOL    HW223856   0.513   0.915   5.077
 7653SOL     OW23857   2.033   6.709   6.092
 7653SOL    HW123858   1.960   6.754   6.040
 7653SOL    HW223859   2.096   6.665   6.029
 7654SOL     OW23860   6.645   2.731   5.763
 7654SOL    HW123861   6.711   2.801   5.792
 7654SOL    HW223862   6.679   2.685   5.682
 7655SOL     OW23863   2.568   1.945   5.345
 7655SOL    HW123864   2.664   1.972   5.356
 7655SOL    HW223865   2.547   1.937   5.247
 7656SOL     OW23866   6.254   3.304   0.230
 7656SOL    HW123867   6.165   3.322   0.272
 7656SOL    HW223868   6.309   3.249   0.293
 7657SOL     OW23869   1.299   4.095   4.604
 7657SOL    HW123870   1.326   4.009   4.560
 7657SOL    HW223871   1.363   4.116   4.678
 7658SOL     OW23872   2.972   0.322   1.080
 7658SOL    HW123873   2.892   0.265   1.098
 7658SOL    HW223874   3.055   0.265   1.084
 7659SOL     OW23875   5.169   4.265   5.288
 7659SOL    HW123876   5.177   4.283   5.190
 7659SOL    HW223877   5.108   4.187   5.302
 7660SOL     OW23878   0.065   6.238   4.769
 7660SOL    HW123879   0.119   6.173   4.823
 7660SOL    HW223880   0.075   6.329   4.808
 7661SOL     OW23881   1.764   0.462   4.914
 7661SOL    HW123882   1.831   0.412   4.968
 7661SOL    HW223883   1.672   0.427   4.933
 7662SOL     OW23884   6.534   6.686   1.605
 7662SOL    HW123885   6.612   6.654   1.658
 7662SOL    HW223886   6.500   6.611   1.548
 7663SOL     OW23887   1.527   5.838   3.618
 7663SOL    HW123888   1.610   5.863   3.568
 7663SOL    HW223889   1.458   5.909   3.605
 7664SOL     OW23890   5.623   2.410   3.110
 7664SOL    HW123891   5.582   2.462   3.035
 7664SOL    HW223892   5.584   2.318   3.112
 7665SOL     OW23893   1.534   6.746   5.164
 7665SOL    HW123894   1.595   6.693   5.223
 7665SOL    HW223895   1.580   6.830   5.136
 7666SOL     OW23896   6.408   5.175   4.319
 7666SOL    HW123897   6.407   5.080   4.350
 7666SOL    HW223898   6.449   5.180   4.228
 7667SOL     OW23899   4.354   5.443   1.320
 7667SOL    HW123900   4.385   5.437   1.415
 7667SOL    HW223901   4.411   5.383   1.263
 7668SOL     OW23902   1.619   5.383   0.584
 7668SOL    HW123903   1.611   5.473   0.626
 7668SOL    HW223904   1.707   5.343   0.609
 7669SOL     OW23905   3.945   2.845   6.632
 7669SOL    HW123906   3.978   2.880   6.544
 7669SOL    HW223907   3.878   2.772   6.616
 7670SOL     OW23908   1.134   0.287   0.678
 7670SOL    HW123909   1.093   0.378   0.683
 7670SOL    HW223910   1.150   0.251   0.770
 7671SOL     OW23911   3.662   1.047   1.980
 7671SOL    HW123912   3.739   1.027   1.920
 7671SOL    HW223913   3.694   1.099   2.059
 7672SOL     OW23914   6.023   2.947   2.856
 7672SOL    HW123915   5.941   2.953   2.913
 7672SOL    HW223916   6.010   2.877   2.786
 7673SOL     OW23917   1.770   6.522   5.065
 7673SOL    HW123918   1.766   6.533   5.165
 7673SOL    HW223919   1.788   6.426   5.043
 7674SOL     OW23920   3.431   5.320   3.977
 7674SOL    HW123921   3.452   5.416   3.958
 7674SOL    HW223922   3.485   5.261   3.917
 7675SOL     OW23923   3.793   6.764   3.421
 7675SOL    HW123924   3.803   6.768   3.322
 7675SOL    HW223925   3.842   6.684   3.456
 7676SOL     OW23926   3.242   2.983   4.589
 7676SOL    HW123927   3.269   2.922   4.663
 7676SOL    HW223928   3.319   3.042   4.565
 7677SOL     OW23929   0.136   6.415   0.564
 7677SOL    HW123930   0.067   6.361   0.612
 7677SOL    HW223931   0.118   6.512   0.580
 7678SOL     OW23932   3.398   1.123   5.458
 7678SOL    HW123933   3.496   1.109   5.442
 7678SOL    HW223934   3.380   1.219   5.477
 7679SOL     OW23935   3.339   5.809   3.871
 7679SOL    HW123936   3.398   5.885   3.898
 7679SOL    HW223937   3.316   5.816   3.774
 7680SOL     OW23938   1.037   6.382   4.209
 7680SOL    HW123939   1.134   6.393   4.227
 7680SOL    HW223940   0.989   6.356   4.293
 7681SOL     OW23941   2.026   1.763   5.761
 7681SOL    HW123942   2.078   1.828   5.816
 7681SOL    HW223943   1.970   1.813   5.694
 7682SOL     OW23944   3.278   0.158   1.829
 7682SOL    HW123945   3.371   0.192   1.815
 7682SOL    HW223946   3.225   0.227   1.879
 7683SOL     OW23947   1.506   4.312   4.399
 7683SOL    HW123948   1.548   4.354   4.318
 7683SOL    HW223949   1.420   4.268   4.372
 7684SOL     OW23950   4.984   3.544   1.667
 7684SOL    HW123951   4.934   3.605   1.606
 7684SOL    HW223952   4.919   3.498   1.729
 7685SOL     OW23953   2.185   0.196   6.969
 7685SOL    HW123954   2.160   0.292   6.957
 7685SOL    HW223955   2.103   0.142   6.990
 7686SOL     OW23956   6.280   0.960   4.568
 7686SOL    HW123957   6.207   0.957   4.500
 7686SOL    HW223958   6.259   0.897   4.643
 7687SOL     OW23959   5.801   3.754   5.508
 7687SOL    HW123960   5.731   3.821   5.485
 7687SOL    HW223961   5.892   3.796   5.502
 7688SOL     OW23962   6.790   3.216   0.569
 7688SOL    HW123963   6.721   3.271   0.523
 7688SOL    HW223964   6.881   3.244   0.537
 7689SOL     OW23965   5.326   7.004   2.887
 7689SOL    HW123966   5.386   7.005   2.967
 7689SOL    HW223967   5.247   6.946   2.906
 7690SOL     OW23968   6.442   4.272   2.293
 7690SOL    HW123969   6.396   4.304   2.375
 7690SOL    HW223970   6.510   4.203   2.317
 7691SOL     OW23971   5.158   3.120   4.434
 7691SOL    HW123972   5.106   3.050   4.482
 7691SOL    HW223973   5.191   3.082   4.347
 7692SOL     OW23974   2.292   6.376   2.346
 7692SOL    HW123975   2.233   6.422   2.413
 7692SOL    HW223976   2.334   6.444   2.286
 7693SOL     OW23977   2.366   2.417   0.875
 7693SOL    HW123978   2.388   2.496   0.932
 7693SOL    HW223979   2.449   2.385   0.828
 7694SOL     OW23980   4.282   2.589   1.366
 7694SOL    HW123981   4.215   2.526   1.327
 7694SOL    HW223982   4.241   2.638   1.443
 7695SOL     OW23983   5.148   6.613   4.138
 7695SOL    HW123984   5.077   6.611   4.208
 7695SOL    HW223985   5.170   6.520   4.110
 7696SOL     OW23986   2.337   1.102   5.542
 7696SOL    HW123987   2.323   1.058   5.453
 7696SOL    HW223988   2.249   1.119   5.585
 7697SOL     OW23989   5.866   6.963   2.971
 7697SOL    HW123990   5.907   6.904   3.040
 7697SOL    HW223991   5.884   0.040   2.994
 7698SOL     OW23992   5.822   1.947   1.418
 7698SOL    HW123993   5.819   1.861   1.367
 7698SOL    HW223994   5.758   2.012   1.376
 7699SOL     OW23995   3.961   5.809   6.290
 7699SOL    HW123996   3.968   5.774   6.196
 7699SOL    HW223997   3.875   5.859   6.300
 7700SOL     OW23998   6.095   4.823   1.639
 7700SOL    HW123999   6.007   4.867   1.620
 7700SOL    HW224000   6.166   4.892   1.648
 7701SOL     OW24001   3.354   1.987   6.531
 7701SOL    HW124002   3.322   1.895   6.555
 7701SOL    HW224003   3.283   2.035   6.480
 7702SOL     OW24004   6.155   6.290   5.824
 7702SOL    HW124005   6.074   6.264   5.771
 7702SOL    HW224006   6.141   6.382   5.862
 7703SOL     OW24007   0.318   6.073   0.235
 7703SOL    HW124008   0.416   6.068   0.251
 7703SOL    HW224009   0.285   6.165   0.258
 7704SOL     OW24010   1.537   2.711   4.859
 7704SOL    HW124011   1.564   2.644   4.790
 7704SOL    HW224012   1.471   2.669   4.921
 7705SOL     OW24013   0.838   4.364   0.257
 7705SOL    HW124014   0.814   4.268   0.268
 7705SOL    HW224015   0.895   4.394   0.334
 7706SOL     OW24016   3.440   3.839   2.220
 7706SOL    HW124017   3.385   3.768   2.263
 7706SOL    HW224018   3.517   3.862   2.280
 7707SOL     OW24019   6.864   5.425   5.528
 7707SOL    HW124020   6.872   5.360   5.603
 7707SOL    HW224021   6.780   5.407   5.477
 7708SOL     OW24022   0.890   0.211   3.642
 7708SOL    HW124023   0.968   0.212   3.704
 7708SOL    HW224024   0.882   0.299   3.596
 7709SOL     OW24025   6.586   4.554   1.325
 7709SOL    HW124026   6.643   4.535   1.245
 7709SOL    HW224027   6.624   4.508   1.405
 7710SOL     OW24028   6.119   3.514   2.657
 7710SOL    HW124029   6.022   3.499   2.675
 7710SOL    HW224030   6.144   3.606   2.685
 7711SOL     OW24031   1.300   4.802   3.200
 7711SOL    HW124032   1.392   4.766   3.183
 7711SOL    HW224033   1.243   4.788   3.120
 7712SOL     OW24034   1.038   4.509   4.449
 7712SOL    HW124035   0.944   4.538   4.431
 7712SOL    HW224036   1.092   4.586   4.484
 7713SOL     OW24037   0.580   5.993   6.947
 7713SOL    HW124038   0.588   6.005   0.027
 7713SOL    HW224039   0.670   6.007   6.904
 7714SOL     OW24040   5.770   1.747   4.609
 7714SOL    HW124041   5.803   1.673   4.551
 7714SOL    HW224042   5.847   1.803   4.640
 7715SOL     OW24043   3.823   3.565   6.470
 7715SOL    HW124044   3.818   3.529   6.563
 7715SOL    HW224045   3.766   3.646   6.462
 7716SOL     OW24046   1.846   1.053   0.248
 7716SOL    HW124047   1.763   1.039   0.302
 7716SOL    HW224048   1.821   1.071   0.153
 7717SOL     OW24049   0.611   1.833   5.825
 7717SOL    HW124050   0.700   1.788   5.820
 7717SOL    HW224051   0.544   1.770   5.866
 7718SOL     OW24052   0.698   3.659   3.645
 7718SOL    HW124053   0.789   3.658   3.685
 7718SOL    HW224054   0.702   3.694   3.552
 7719SOL     OW24055   2.125   6.415   4.799
 7719SOL    HW124056   2.152   6.359   4.878
 7719SOL    HW224057   2.203   6.427   4.738
 7720SOL     OW24058   4.527   1.126   6.272
 7720SOL    HW124059   4.579   1.203   6.310
 7720SOL    HW224060   4.550   1.043   6.323
 7721SOL     OW24061   5.873   5.569   2.493
 7721SOL    HW124062   5.927   5.542   2.414
 7721SOL    HW224063   5.830   5.658   2.475
 7722SOL     OW24064   0.089   6.220   4.489
 7722SOL    HW124065   0.050   6.229   4.580
 7722SOL    HW224066   0.177   6.172   4.494
 7723SOL     OW24067   3.785   4.554   6.334
 7723SOL    HW124068   3.801   4.466   6.379
 7723SOL    HW224069   3.693   4.555   6.296
 7724SOL     OW24070   1.205   4.213   0.111
 7724SOL    HW124071   1.132   4.192   0.046
 7724SOL    HW224072   1.195   4.307   0.143
 7725SOL     OW24073   5.493   3.302   4.791
 7725SOL    HW124074   5.440   3.286   4.708
 7725SOL    HW224075   5.431   3.317   4.868
 7726SOL     OW24076   1.698   2.965   0.765
 7726SOL    HW124077   1.710   2.902   0.842
 7726SOL    HW224078   1.773   3.031   0.764
 7727SOL     OW24079   5.821   0.379   3.250
 7727SOL    HW124080   5.724   0.356   3.247
 7727SOL    HW224081   5.832   0.471   3.288
 7728SOL     OW24082   2.180   3.105   5.398
 7728SOL    HW124083   2.278   3.114   5.380
 7728SOL    HW224084   2.164   3.105   5.497
 7729SOL     OW24085   0.275   0.988   2.803
 7729SOL    HW124086   0.234   0.911   2.754
 7729SOL    HW224087   0.373   0.971   2.817
 7730SOL     OW24088   5.897   3.189   6.457
 7730SOL    HW124089   5.906   3.093   6.481
 7730SOL    HW224090   5.937   3.205   6.367
 7731SOL     OW24091   7.007   0.643   5.792
 7731SOL    HW124092   6.997   0.683   5.883
 7731SOL    HW224093   6.918   0.643   5.745
 7732SOL     OW24094   3.983   1.210   0.517
 7732SOL    HW124095   3.900   1.158   0.537
 7732SOL    HW224096   3.976   1.252   0.427
 7733SOL     OW24097   5.504   6.106   1.644
 7733SOL    HW124098   5.482   6.100   1.742
 7733SOL    HW224099   5.586   6.162   1.632
 7734SOL     OW24100   3.480   3.893   3.616
 7734SOL    HW124101   3.405   3.884   3.550
 7734SOL    HW224102   3.497   3.989   3.635
 7735SOL     OW24103   0.524   5.686   0.835
 7735SOL    HW124104   0.459   5.711   0.763
 7735SOL    HW224105   0.589   5.620   0.799
 7736SOL     OW24106   2.007   1.605   0.710
 7736SOL    HW124107   2.105   1.595   0.731
 7736SOL    HW224108   1.954   1.550   0.774
 7737SOL     OW24109   4.759   4.377   6.303
 7737SOL    HW124110   4.719   4.429   6.228
 7737SOL    HW224111   4.702   4.297   6.323
 7738SOL     OW24112   1.754   0.964   5.562
 7738SOL    HW124113   1.702   0.968   5.647
 7738SOL    HW224114   1.794   0.873   5.553
 7739SOL     OW24115   0.915   2.868   6.296
 7739SOL    HW124116   0.856   2.854   6.217
 7739SOL    HW224117   0.864   2.851   6.380
 7740SOL     OW24118   2.311   0.614   4.038
 7740SOL    HW124119   2.370   0.555   4.094
 7740SOL    HW224120   2.217   0.582   4.045
 7741SOL     OW24121   6.092   4.292   6.210
 7741SOL    HW124122   6.092   4.192   6.220
 7741SOL    HW224123   6.177   4.320   6.165
 7742SOL     OW24124   4.731   2.844   3.971
 7742SOL    HW124125   4.749   2.881   3.880
 7742SOL    HW224126   4.648   2.788   3.969
 7743SOL     OW24127   3.458   1.019   5.905
 7743SOL    HW124128   3.469   0.942   5.968
 7743SOL    HW224129   3.406   0.989   5.825
 7744SOL     OW24130   6.895   6.015   4.782
 7744SOL    HW124131   6.851   6.039   4.869
 7744SOL    HW224132   6.893   6.094   4.721
 7745SOL     OW24133   2.653   0.178   0.421
 7745SOL    HW124134   2.695   0.212   0.505
 7745SOL    HW224135   2.580   0.114   0.443
 7746SOL     OW24136   6.852   6.234   1.054
 7746SOL    HW124137   6.936   6.285   1.035
 7746SOL    HW224138   6.784   6.255   0.984
 7747SOL     OW24139   6.624   5.798   0.740
 7747SOL    HW124140   6.551   5.779   0.806
 7747SOL    HW224141   6.696   5.730   0.748
 7748SOL     OW24142   4.678   1.039   5.535
 7748SOL    HW124143   4.650   0.945   5.519
 7748SOL    HW224144   4.692   1.055   5.633
 7749SOL     OW24145   2.916   3.738   2.677
 7749SOL    HW124146   2.921   3.674   2.754
 7749SOL    HW224147   2.897   3.688   2.593
 7750SOL     OW24148   5.288   4.105   6.070
 7750SOL    HW124149   5.206   4.079   6.020
 7750SOL    HW224150   5.316   4.030   6.130
 7751SOL     OW24151   0.519   1.574   4.394
 7751SOL    HW124152   0.455   1.539   4.325
 7751SOL    HW224153   0.473   1.643   4.451
 7752SOL     OW24154   5.443   4.298   6.223
 7752SOL    HW124155   5.383   4.233   6.176
 7752SOL    HW224156   5.502   4.248   6.287
 7753SOL     OW24157   2.283   1.050   4.930
 7753SOL    HW124158   2.247   1.104   4.854
 7753SOL    HW224159   2.225   1.062   5.011
 7754SOL     OW24160   6.449   1.502   0.750
 7754SOL    HW124161   6.438   1.577   0.814
 7754SOL    HW224162   6.539   1.459   0.763
 7755SOL     OW24163   1.529   6.284   5.344
 7755SOL    HW124164   1.441   6.330   5.329
 7755SOL    HW224165   1.573   6.323   5.425
 7756SOL     OW24166   3.573   6.365   2.874
 7756SOL    HW124167   3.627   6.315   2.808
 7756SOL    HW224168   3.494   6.406   2.829
 7757SOL     OW24169   3.629   1.423   5.386
 7757SOL    HW124170   3.684   1.460   5.312
 7757SOL    HW224171   3.532   1.444   5.370
 7758SOL     OW24172   2.783   1.294   6.096
 7758SOL    HW124173   2.875   1.255   6.088
 7758SOL    HW224174   2.764   1.353   6.018
 7759SOL     OW24175   2.330   0.027   4.573
 7759SOL    HW124176   2.238   7.019   4.603
 7759SOL    HW224177   2.367   6.976   4.512
 7760SOL     OW24178   5.542   1.643   2.682
 7760SOL    HW124179   5.451   1.603   2.670
 7760SOL    HW224180   5.597   1.624   2.601
 7761SOL     OW24181   4.727   0.827   6.860
 7761SOL    HW124182   4.766   0.739   6.887
 7761SOL    HW224183   4.794   0.900   6.876
 7762SOL     OW24184   1.862   2.032   0.501
 7762SOL    HW124185   1.795   2.094   0.544
 7762SOL    HW224186   1.942   2.024   0.560
 7763SOL     OW24187   1.932   2.818   0.437
 7763SOL    HW124188   1.998   2.891   0.454
 7763SOL    HW224189   1.957   2.737   0.492
 7764SOL     OW24190   3.668   3.502   2.074
 7764SOL    HW124191   3.601   3.473   2.142
 7764SOL    HW224192   3.760   3.496   2.112
 7765SOL     OW24193   0.569   1.663   2.146
 7765SOL    HW124194   0.591   1.758   2.166
 7765SOL    HW224195   0.505   1.659   2.069
 7766SOL     OW24196   6.735   3.555   0.388
 7766SOL    HW124197   6.669   3.483   0.407
 7766SOL    HW224198   6.823   3.514   0.366
 7767SOL     OW24199   6.168   3.997   4.903
 7767SOL    HW124200   6.253   4.050   4.903
 7767SOL    HW224201   6.182   3.912   4.956
 7768SOL     OW24202   4.244   5.172   1.406
 7768SOL    HW124203   4.239   5.226   1.322
 7768SOL    HW224204   4.154   5.171   1.450
 7769SOL     OW24205   4.786   1.561   3.696
 7769SOL    HW124206   4.812   1.504   3.774
 7769SOL    HW224207   4.712   1.623   3.723
 7770SOL     OW24208   2.960   6.505   1.506
 7770SOL    HW124209   2.964   6.423   1.562
 7770SOL    HW224210   2.919   6.483   1.417
 7771SOL     OW24211   2.044   0.666   4.591
 7771SOL    HW124212   2.038   0.740   4.524
 7771SOL    HW224213   1.952   0.646   4.626
 7772SOL     OW24214   5.458   0.635   5.728
 7772SOL    HW124215   5.507   0.721   5.739
 7772SOL    HW224216   5.359   0.651   5.734
 7773SOL     OW24217   4.209   4.518   6.129
 7773SOL    HW124218   4.113   4.491   6.116
 7773SOL    HW224219   4.267   4.466   6.066
 7774SOL     OW24220   4.067   1.461   0.217
 7774SOL    HW124221   4.103   1.517   0.291
 7774SOL    HW224222   4.116   1.374   0.214
 7775SOL     OW24223   1.102   6.520   1.765
 7775SOL    HW124224   1.128   6.429   1.797
 7775SOL    HW224225   1.167   6.550   1.695
 7776SOL     OW24226   3.155   4.330   0.944
 7776SOL    HW124227   3.098   4.412   0.951
 7776SOL    HW224228   3.114   4.264   0.882
 7777SOL     OW24229   0.512   0.736   6.960
 7777SOL    HW124230   0.438   0.673   6.937
 7777SOL    HW224231   0.544   0.783   6.878
 7778SOL     OW24232   5.186   2.097   2.259
 7778SOL    HW124233   5.127   2.079   2.338
 7778SOL    HW224234   5.134   2.081   2.175
 7779SOL     OW24235   4.430   3.179   0.595
 7779SOL    HW124236   4.467   3.218   0.679
 7779SOL    HW224237   4.332   3.166   0.605
 7780SOL     OW24238   1.685   0.659   4.188
 7780SOL    HW124239   1.595   0.662   4.144
 7780SOL    HW224240   1.689   0.726   4.261
 7781SOL     OW24241   2.362   4.082   5.469
 7781SOL    HW124242   2.317   3.997   5.442
 7781SOL    HW224243   2.392   4.131   5.386
 7782SOL     OW24244   5.136   4.722   6.961
 7782SOL    HW124245   5.108   4.683   0.030
 7782SOL    HW224246   5.107   4.663   6.886
 7783SOL     OW24247   3.389   5.971   6.673
 7783SOL    HW124248   3.338   5.904   6.620
 7783SOL    HW224249   3.486   5.965   6.651
 7784SOL     OW24250   6.435   3.102   0.369
 7784SOL    HW124251   6.473   3.049   0.293
 7784SOL    HW224252   6.442   3.050   0.454
 7785SOL     OW24253   1.463   6.285   6.106
 7785SOL    HW124254   1.409   6.242   6.178
 7785SOL    HW224255   1.492   6.376   6.135
 7786SOL     OW24256   3.866   4.192   5.102
 7786SOL    HW124257   3.823   4.181   5.012
 7786SOL    HW224258   3.866   4.104   5.150
 7787SOL     OW24259   3.241   1.994   5.555
 7787SOL    HW124260   3.269   2.075   5.504
 7787SOL    HW224261   3.259   1.912   5.500
 7788SOL     OW24262   6.886   2.636   1.188
 7788SOL    HW124263   6.803   2.691   1.181
 7788SOL    HW224264   6.921   2.639   1.281
 7789SOL     OW24265   0.760   0.338   1.880
 7789SOL    HW124266   0.809   0.254   1.855
 7789SOL    HW224267   0.818   0.417   1.860
 7790SOL     OW24268   6.902   3.504   2.766
 7790SOL    HW124269   6.931   3.557   2.846
 7790SOL    HW224270   6.806   3.522   2.747
 7791SOL     OW24271   6.721   5.685   5.954
 7791SOL    HW124272   6.642   5.721   6.003
 7791SOL    HW224273   6.804   5.705   6.006
 7792SOL     OW24274   1.409   5.744   6.467
 7792SOL    HW124275   1.490   5.736   6.525
 7792SOL    HW224276   1.338   5.794   6.515
 7793SOL     OW24277   2.739   0.122   6.423
 7793SOL    HW124278   2.692   0.128   6.335
 7793SOL    HW224279   2.674   0.138   6.497
 7794SOL     OW24280   5.155   4.814   2.824
 7794SOL    HW124281   5.073   4.828   2.880
 7794SOL    HW224282   5.169   4.717   2.808
 7795SOL     OW24283   2.057   3.800   6.245
 7795SOL    HW124284   2.118   3.841   6.312
 7795SOL    HW224285   2.063   3.850   6.159
 7796SOL     OW24286   4.101   3.637   3.878
 7796SOL    HW124287   4.014   3.685   3.876
 7796SOL    HW224288   4.098   3.559   3.816
 7797SOL     OW24289   1.442   6.102   3.966
 7797SOL    HW124290   1.513   6.051   3.919
 7797SOL    HW224291   1.461   6.200   3.958
 7798SOL     OW24292   4.955   5.245   6.086
 7798SOL    HW124293   4.942   5.235   5.987
 7798SOL    HW224294   4.880   5.299   6.124
 7799SOL     OW24295   5.669   5.714   1.349
 7799SOL    HW124296   5.656   5.753   1.441
 7799SOL    HW224297   5.717   5.627   1.356
 7800SOL     OW24298   0.795   6.301   2.717
 7800SOL    HW124299   0.891   6.299   2.745
 7800SOL    HW224300   0.787   6.337   2.624
 7801SOL     OW24301   4.259   2.502   5.513
 7801SOL    HW124302   4.244   2.461   5.603
 7801SOL    HW224303   4.316   2.583   5.522
 7802SOL     OW24304   5.796   2.308   6.493
 7802SOL    HW124305   5.864   2.314   6.420
 7802SOL    HW224306   5.820   2.371   6.567
 7803SOL     OW24307   3.168   3.095   5.963
 7803SOL    HW124308   3.246   3.032   5.966
 7803SOL    HW224309   3.180   3.159   5.887
 7804SOL     OW24310   4.762   0.688   5.652
 7804SOL    HW124311   4.672   0.726   5.633
 7804SOL    HW224312   4.769   0.664   5.749
 7805SOL     OW24313   5.402   3.220   1.945
 7805SOL    HW124314   5.370   3.303   1.898
 7805SOL    HW224315   5.482   3.183   1.896
 7806SOL     OW24316   5.202   2.519   0.539
 7806SOL    HW124317   5.236   2.497   0.631
 7806SOL    HW224318   5.244   2.457   0.473
 7807SOL     OW24319   1.069   4.177   6.678
 7807SOL    HW124320   1.073   4.092   6.626
 7807SOL    HW224321   1.059   4.254   6.615
 7808SOL     OW24322   0.185   1.765   4.709
 7808SOL    HW124323   0.263   1.827   4.698
 7808SOL    HW224324   0.208   1.676   4.670
 7809SOL     OW24325   1.024   5.893   5.794
 7809SOL    HW124326   1.088   5.822   5.823
 7809SOL    HW224327   0.933   5.872   5.830
 7810SOL     OW24328   3.227   1.256   0.144
 7810SOL    HW124329   3.212   1.220   0.236
 7810SOL    HW224330   3.315   1.224   0.110
 7811SOL     OW24331   6.455   4.499   5.098
 7811SOL    HW124332   6.374   4.445   5.073
 7811SOL    HW224333   6.441   4.595   5.072
 7812SOL     OW24334   0.843   1.831   3.733
 7812SOL    HW124335   0.832   1.831   3.634
 7812SOL    HW224336   0.824   1.739   3.768
 7813SOL     OW24337   5.632   1.201   1.410
 7813SOL    HW124338   5.575   1.144   1.469
 7813SOL    HW224339   5.577   1.242   1.337
 7814SOL     OW24340   1.977   3.020   3.666
 7814SOL    HW124341   1.923   3.068   3.597
 7814SOL    HW224342   1.952   3.053   3.757
 7815SOL     OW24343   6.831   2.225   5.155
 7815SOL    HW124344   6.908   2.288   5.161
 7815SOL    HW224345   6.817   2.180   5.244
 7816SOL     OW24346   0.399   4.479   5.092
 7816SOL    HW124347   0.301   4.484   5.077
 7816SOL    HW224348   0.419   4.478   5.190
 7817SOL     OW24349   5.509   2.939   5.515
 7817SOL    HW124350   5.547   2.981   5.432
 7817SOL    HW224351   5.429   2.885   5.492
 7818SOL     OW24352   5.953   2.746   3.441
 7818SOL    HW124353   5.962   2.704   3.532
 7818SOL    HW224354   6.002   2.690   3.374
 7819SOL     OW24355   1.101   1.247   0.685
 7819SOL    HW124356   1.050   1.329   0.712
 7819SOL    HW224357   1.173   1.229   0.751
 7820SOL     OW24358   2.559   6.535   5.622
 7820SOL    HW124359   2.530   6.485   5.703
 7820SOL    HW224360   2.659   6.545   5.623
 7821SOL     OW24361   3.216   6.004   1.363
 7821SOL    HW124362   3.164   5.919   1.362
 7821SOL    HW224363   3.177   6.067   1.431
 7822SOL     OW24364   0.510   6.630   4.748
 7822SOL    HW124365   0.446   6.558   4.722
 7822SOL    HW224366   0.586   6.590   4.799
 7823SOL     OW24367   2.147   3.462   5.583
 7823SOL    HW124368   2.148   3.381   5.525
 7823SOL    HW224369   2.092   3.533   5.540
 7824SOL     OW24370   1.093   3.350   5.461
 7824SOL    HW124371   1.121   3.355   5.365
 7824SOL    HW224372   1.172   3.326   5.517
 7825SOL     OW24373   2.122   1.004   0.325
 7825SOL    HW124374   2.025   1.004   0.299
 7825SOL    HW224375   2.172   0.944   0.262
 7826SOL     OW24376   0.588   4.088   5.870
 7826SOL    HW124377   0.550   3.998   5.847
 7826SOL    HW224378   0.659   4.078   5.939
 7827SOL     OW24379   6.058   5.045   3.575
 7827SOL    HW124380   6.103   5.124   3.532
 7827SOL    HW224381   6.126   4.984   3.615
 7828SOL     OW24382   1.130   6.336   5.619
 7828SOL    HW124383   1.162   6.390   5.698
 7828SOL    HW224384   1.101   6.246   5.650
 7829SOL     OW24385   4.494   4.883   1.037
 7829SOL    HW124386   4.508   4.947   1.112
 7829SOL    HW224387   4.439   4.806   1.069
 7830SOL     OW24388   1.570   5.530   4.216
 7830SOL    HW124389   1.564   5.615   4.268
 7830SOL    HW224390   1.622   5.463   4.269
 7831SOL     OW24391   1.544   0.174   6.848
 7831SOL    HW124392   1.641   0.168   6.872
 7831SOL    HW224393   1.514   0.269   6.856
 7832SOL     OW24394   0.196   0.995   5.154
 7832SOL    HW124395   0.120   1.009   5.217
 7832SOL    HW224396   0.281   0.985   5.205
 7833SOL     OW24397   0.877   0.619   2.725
 7833SOL    HW124398   0.867   0.638   2.628
 7833SOL    HW224399   0.964   0.572   2.741
 7834SOL     OW24400   0.693   3.361   4.706
 7834SOL    HW124401   0.654   3.438   4.656
 7834SOL    HW224402   0.749   3.394   4.782
 7835SOL     OW24403   3.112   2.861   5.641
 7835SOL    HW124404   3.061   2.843   5.725
 7835SOL    HW224405   3.091   2.953   5.608
 7836SOL     OW24406   2.883   3.656   4.902
 7836SOL    HW124407   2.977   3.638   4.874
 7836SOL    HW224408   2.865   3.615   4.991
 7837SOL     OW24409   0.318   5.704   0.275
 7837SOL    HW124410   0.286   5.756   0.354
 7837SOL    HW224411   0.407   5.740   0.246
 7838SOL     OW24412   4.050   4.861   0.975
 7838SOL    HW124413   4.016   4.896   1.062
 7838SOL    HW224414   4.140   4.900   0.956
 7839SOL     OW24415   5.856   3.826   4.231
 7839SOL    HW124416   5.842   3.820   4.329
 7839SOL    HW224417   5.849   3.734   4.191
 7840SOL     OW24418   2.247   2.014   3.526
 7840SOL    HW124419   2.271   2.104   3.491
 7840SOL    HW224420   2.272   1.943   3.460
 7841SOL     OW24421   4.301   2.453   6.013
 7841SOL    HW124422   4.360   2.515   6.065
 7841SOL    HW224423   4.270   2.379   6.072
 7842SOL     OW24424   0.876   0.401   0.951
 7842SOL    HW124425   0.971   0.422   0.974
 7842SOL    HW224426   0.826   0.377   1.035
 7843SOL     OW24427   6.509   6.124   1.944
 7843SOL    HW124428   6.541   6.067   2.020
 7843SOL    HW224429   6.462   6.204   1.980
 7844SOL     OW24430   3.050   6.715   2.352
 7844SOL    HW124431   3.131   6.773   2.340
 7844SOL    HW224432   3.039   6.657   2.271
 7845SOL     OW24433   6.831   3.477   2.092
 7845SOL    HW124434   6.808   3.381   2.080
 7845SOL    HW224435   6.877   3.490   2.180
 7846SOL     OW24436   0.661   1.977   0.314
 7846SOL    HW124437   0.590   2.031   0.360
 7846SOL    HW224438   0.742   2.033   0.301
 7847SOL     OW24439   5.451   3.793   5.670
 7847SOL    HW124440   5.369   3.850   5.665
 7847SOL    HW224441   5.485   3.777   5.577
 7848SOL     OW24442   5.013   5.191   0.117
 7848SOL    HW124443   5.023   5.139   0.033
 7848SOL    HW224444   5.044   5.137   0.194
 7849SOL     OW24445   4.882   5.252   6.579
 7849SOL    HW124446   4.963   5.226   6.526
 7849SOL    HW224447   4.886   5.349   6.602
 7850SOL     OW24448   6.875   0.774   3.397
 7850SOL    HW124449   6.880   0.718   3.481
 7850SOL    HW224450   6.906   0.720   3.319
 7851SOL     OW24451   1.052   3.900   0.463
 7851SOL    HW124452   1.094   3.815   0.432
 7851SOL    HW224453   1.116   3.976   0.452
 7852SOL     OW24454   1.718   3.447   5.526
 7852SOL    HW124455   1.705   3.482   5.618
 7852SOL    HW224456   1.706   3.348   5.526
 7853SOL     OW24457   4.446   3.182   1.708
 7853SOL    HW124458   4.502   3.125   1.767
 7853SOL    HW224459   4.349   3.164   1.727
 7854SOL     OW24460   4.118   1.143   1.456
 7854SOL    HW124461   4.083   1.202   1.529
 7854SOL    HW224462   4.058   1.063   1.447
 7855SOL     OW24463   4.916   6.096   3.433
 7855SOL    HW124464   4.967   6.051   3.360
 7855SOL    HW224465   4.899   6.191   3.408
 7856SOL     OW24466   2.015   6.230   6.661
 7856SOL    HW124467   1.997   6.245   6.564
 7856SOL    HW224468   1.977   6.142   6.688
 7857SOL     OW24469   0.185   4.921   0.273
 7857SOL    HW124470   0.113   4.876   0.325
 7857SOL    HW224471   0.274   4.893   0.308
 7858SOL     OW24472   0.348   4.187   6.470
 7858SOL    HW124473   0.344   4.142   6.381
 7858SOL    HW224474   0.365   4.285   6.458
 7859SOL     OW24475   4.802   2.478   1.687
 7859SOL    HW124476   4.778   2.513   1.778
 7859SOL    HW224477   4.788   2.379   1.685
 7860SOL     OW24478   2.683   1.814   3.227
 7860SOL    HW124479   2.650   1.871   3.302
 7860SOL    HW224480   2.654   1.853   3.140
 7861SOL     OW24481   1.608   5.696   0.576
 7861SOL    HW124482   1.689   5.751   0.597
 7861SOL    HW224483   1.595   5.693   0.477
 7862SOL     OW24484   0.820   0.418   6.858
 7862SOL    HW124485   0.764   0.459   6.929
 7862SOL    HW224486   0.843   0.324   6.883
 7863SOL     OW24487   0.846   4.645   3.837
 7863SOL    HW124488   0.786   4.707   3.786
 7863SOL    HW224489   0.814   4.637   3.931
 7864SOL     OW24490   2.855   5.558   4.907
 7864SOL    HW124491   2.928   5.494   4.928
 7864SOL    HW224492   2.862   5.588   4.812
 7865SOL     OW24493   6.577   5.627   3.862
 7865SOL    HW124494   6.555   5.531   3.844
 7865SOL    HW224495   6.494   5.675   3.891
 7866SOL     OW24496   0.859   1.242   5.381
 7866SOL    HW124497   0.864   1.186   5.298
 7866SOL    HW224498   0.835   1.184   5.459
 7867SOL     OW24499   4.639   6.104   2.459
 7867SOL    HW124500   4.546   6.068   2.461
 7867SOL    HW224501   4.680   6.086   2.370
 7868SOL     OW24502   4.352   6.365   1.330
 7868SOL    HW124503   4.302   6.452   1.333
 7868SOL    HW224504   4.291   6.292   1.300
 7869SOL     OW24505   5.805   5.140   0.231
 7869SOL    HW124506   5.765   5.191   0.307
 7869SOL    HW224507   5.791   5.042   0.245
 7870SOL     OW24508   6.792   0.449   3.185
 7870SOL    HW124509   6.694   0.458   3.201
 7870SOL    HW224510   6.820   0.355   3.202
 7871SOL     OW24511   4.898   0.545   0.698
 7871SOL    HW124512   4.896   0.496   0.611
 7871SOL    HW224513   4.814   0.600   0.707
 7872SOL     OW24514   6.818   5.532   3.950
 7872SOL    HW124515   6.781   5.441   3.932
 7872SOL    HW224516   6.763   5.600   3.903
 7873SOL     OW24517   4.929   2.119   6.507
 7873SOL    HW124518   4.929   2.100   6.605
 7873SOL    HW224519   4.881   2.206   6.490
 7874SOL     OW24520   6.084   2.223   0.756
 7874SOL    HW124521   5.999   2.187   0.716
 7874SOL    HW224522   6.117   2.299   0.702
 7875SOL     OW24523   6.403   4.808   0.031
 7875SOL    HW124524   6.365   4.820   0.123
 7875SOL    HW224525   6.355   4.867   6.986
 7876SOL     OW24526   1.073   6.683   2.398
 7876SOL    HW124527   0.976   6.709   2.395
 7876SOL    HW224528   1.127   6.761   2.430
 7877SOL     OW24529   0.921   3.215   2.315
 7877SOL    HW124530   0.999   3.155   2.299
 7877SOL    HW224531   0.941   3.307   2.279
 7878SOL     OW24532   3.893   0.385   2.458
 7878SOL    HW124533   3.887   0.437   2.543
 7878SOL    HW224534   3.808   0.335   2.443
 7879SOL     OW24535   2.735   5.744   1.803
 7879SOL    HW124536   2.677   5.822   1.781
 7879SOL    HW224537   2.709   5.707   1.892
 7880SOL     OW24538   1.600   5.132   2.810
 7880SOL    HW124539   1.615   5.113   2.907
 7880SOL    HW224540   1.672   5.089   2.756
 7881SOL     OW24541   4.714   2.807   2.914
 7881SOL    HW124542   4.687   2.858   2.996
 7881SOL    HW224543   4.795   2.752   2.934
 7882SOL     OW24544   6.856   2.792   0.019
 7882SOL    HW124545   6.822   2.745   6.956
 7882SOL    HW224546   6.945   2.835   7.017
 7883SOL     OW24547   0.259   0.179   4.880
 7883SOL    HW124548   0.304   0.090   4.888
 7883SOL    HW224549   0.321   0.244   4.835
 7884SOL     OW24550   1.600   2.549   3.828
 7884SOL    HW124551   1.615   2.520   3.923
 7884SOL    HW224552   1.634   2.642   3.816
 7885SOL     OW24553   6.589   6.218   0.087
 7885SOL    HW124554   6.596   6.215   7.006
 7885SOL    HW224555   6.651   6.150   0.126
 7886SOL     OW24556   4.524   3.258   0.361
 7886SOL    HW124557   4.501   3.354   0.346
 7886SOL    HW224558   4.498   3.232   0.454
 7887SOL     OW24559   4.575   1.957   6.324
 7887SOL    HW124560   4.590   1.975   6.421
 7887SOL    HW224561   4.638   2.014   6.270
 7888SOL     OW24562   4.287   6.049   4.127
 7888SOL    HW124563   4.343   6.054   4.045
 7888SOL    HW224564   4.329   6.104   4.200
 7889SOL     OW24565   6.443   4.529   3.624
 7889SOL    HW124566   6.520   4.589   3.650
 7889SOL    HW224567   6.364   4.585   3.601
 7890SOL     OW24568   2.261   4.077   3.227
 7890SOL    HW124569   2.249   4.007   3.157
 7890SOL    HW224570   2.176   4.130   3.235
 7891SOL     OW24571   0.229   4.298   2.977
 7891SOL    HW124572   0.273   4.388   2.973
 7891SOL    HW224573   0.150   4.297   2.915
 7892SOL     OW24574   2.281   2.471   4.459
 7892SOL    HW124575   2.208   2.403   4.464
 7892SOL    HW224576   2.241   2.562   4.454
 7893SOL     OW24577   5.058   6.090   1.433
 7893SOL    HW124578   5.141   6.036   1.450
 7893SOL    HW224579   5.076   6.186   1.457
 7894SOL     OW24580   3.112   0.095   0.875
 7894SOL    HW124581   3.084   0.026   0.942
 7894SOL    HW224582   3.041   0.106   0.806
 7895SOL     OW24583   1.181   1.802   4.637
 7895SOL    HW124584   1.161   1.899   4.647
 7895SOL    HW224585   1.192   1.780   4.540
 7896SOL     OW24586   3.715   2.051   6.660
 7896SOL    HW124587   3.773   2.026   6.582
 7896SOL    HW224588   3.765   2.114   6.720
 7897SOL     OW24589   3.351   3.684   0.536
 7897SOL    HW124590   3.275   3.651   0.591
 7897SOL    HW224591   3.424   3.716   0.595
 7898SOL     OW24592   5.179   0.990   4.338
 7898SOL    HW124593   5.172   1.078   4.385
 7898SOL    HW224594   5.098   0.935   4.359
 7899SOL     OW24595   4.439   0.545   1.665
 7899SOL    HW124596   4.384   0.588   1.736
 7899SOL    HW224597   4.531   0.584   1.666
 7900SOL     OW24598   0.146   5.652   1.475
 7900SOL    HW124599   0.049   5.656   1.451
 7900SOL    HW224600   0.162   5.705   1.558
 7901SOL     OW24601   5.659   4.722   1.076
 7901SOL    HW124602   5.750   4.685   1.092
 7901SOL    HW224603   5.607   4.723   1.161
 7902SOL     OW24604   4.595   5.053   6.576
 7902SOL    HW124605   4.608   5.140   6.529
 7902SOL    HW224606   4.555   4.987   6.512
 7903SOL     OW24607   0.903   2.594   2.158
 7903SOL    HW124608   0.973   2.652   2.199
 7903SOL    HW224609   0.880   2.629   2.067
 7904SOL     OW24610   5.313   1.669   3.402
 7904SOL    HW124611   5.313   1.750   3.342
 7904SOL    HW224612   5.406   1.652   3.434
 7905SOL     OW24613   2.362   2.397   1.572
 7905SOL    HW124614   2.414   2.352   1.499
 7905SOL    HW224615   2.329   2.328   1.637
 7906SOL     OW24616   1.305   4.365   6.895
 7906SOL    HW124617   1.209   4.338   6.904
 7906SOL    HW224618   1.360   4.315   6.961
 7907SOL     OW24619   0.553   2.725   3.254
 7907SOL    HW124620   0.558   2.815   3.210
 7907SOL    HW224621   0.503   2.662   3.194
 7908SOL     OW24622   0.728   1.102   3.393
 7908SOL    HW124623   0.655   1.105   3.325
 7908SOL    HW224624   0.718   1.020   3.450
 7909SOL     OW24625   4.101   5.834   5.154
 7909SOL    HW124626   4.045   5.807   5.076
 7909SOL    HW224627   4.115   5.755   5.214
 7910SOL     OW24628   6.102   3.048   5.854
 7910SOL    HW124629   6.078   3.038   5.950
 7910SOL    HW224630   6.199   3.071   5.846
 7911SOL     OW24631   6.779   5.909   6.429
 7911SOL    HW124632   6.688   5.872   6.449
 7911SOL    HW224633   6.849   5.840   6.450
 7912SOL     OW24634   6.591   5.458   5.030
 7912SOL    HW124635   6.510   5.508   5.063
 7912SOL    HW224636   6.601   5.472   4.932
 7913SOL     OW24637   1.700   6.138   0.066
 7913SOL    HW124638   1.789   6.133   0.019
 7913SOL    HW224639   1.691   6.227   0.110
 7914SOL     OW24640   5.964   4.155   0.552
 7914SOL    HW124641   6.048   4.149   0.607
 7914SOL    HW224642   5.987   4.155   0.455
 7915SOL     OW24643   2.862   1.640   3.050
 7915SOL    HW124644   2.828   1.549   3.024
 7915SOL    HW224645   2.807   1.676   3.125
 7916SOL     OW24646   3.686   3.733   4.781
 7916SOL    HW124647   3.692   3.826   4.818
 7916SOL    HW224648   3.728   3.669   4.846
 7917SOL     OW24649   3.601   4.147   3.629
 7917SOL    HW124650   3.615   4.149   3.728
 7917SOL    HW224651   3.531   4.214   3.604
 7918SOL     OW24652   6.528   1.873   1.731
 7918SOL    HW124653   6.458   1.837   1.670
 7918SOL    HW224654   6.564   1.958   1.694
 7919SOL     OW24655   5.497   3.499   2.597
 7919SOL    HW124656   5.492   3.449   2.684
 7919SOL    HW224657   5.407   3.538   2.576
 7920SOL     OW24658   6.784   6.609   0.573
 7920SOL    HW124659   6.726   6.660   0.635
 7920SOL    HW224660   6.766   6.511   0.583
 7921SOL     OW24661   3.231   5.075   1.969
 7921SOL    HW124662   3.256   4.988   2.011
 7921SOL    HW224663   3.310   5.113   1.921
 7922SOL     OW24664   1.214   3.834   4.457
 7922SOL    HW124665   1.171   3.744   4.462
 7922SOL    HW224666   1.312   3.824   4.473
 7923SOL     OW24667   1.770   2.945   2.332
 7923SOL    HW124668   1.747   2.848   2.347
 7923SOL    HW224669   1.834   2.975   2.403
 7924SOL     OW24670   2.393   1.906   3.767
 7924SOL    HW124671   2.351   1.942   3.684
 7924SOL    HW224672   2.458   1.973   3.804
 7925SOL     OW24673   1.244   1.683   0.088
 7925SOL    HW124674   1.164   1.676   0.028
 7925SOL    HW224675   1.305   1.606   0.071
 7926SOL     OW24676   3.200   0.602   1.812
 7926SOL    HW124677   3.189   0.679   1.876
 7926SOL    HW224678   3.122   0.600   1.750
 7927SOL     OW24679   4.572   4.787   4.650
 7927SOL    HW124680   4.552   4.695   4.616
 7927SOL    HW224681   4.501   4.850   4.619
 7928SOL     OW24682   0.634   3.855   1.187
 7928SOL    HW124683   0.623   3.842   1.089
 7928SOL    HW224684   0.715   3.806   1.219
 7929SOL     OW24685   3.742   4.190   4.789
 7929SOL    HW124686   3.830   4.220   4.752
 7929SOL    HW224687   3.747   4.093   4.814
 7930SOL     OW24688   3.641   6.997   1.985
 7930SOL    HW124689   3.664   0.007   2.078
 7930SOL    HW224690   3.684   0.041   1.920
 7931SOL     OW24691   2.356   3.112   5.875
 7931SOL    HW124692   2.401   3.201   5.886
 7931SOL    HW224693   2.333   3.098   5.779
 7932SOL     OW24694   3.016   1.681   0.957
 7932SOL    HW124695   2.985   1.689   0.862
 7932SOL    HW224696   2.958   1.736   1.016
 7933SOL     OW24697   1.788   1.032   6.099
 7933SOL    HW124698   1.810   0.938   6.124
 7933SOL    HW224699   1.809   1.092   6.176
 7934SOL     OW24700   4.271   2.375   5.760
 7934SOL    HW124701   4.227   2.286   5.753
 7934SOL    HW224702   4.259   2.411   5.853
 7935SOL     OW24703   4.584   5.165   2.700
 7935SOL    HW124704   4.493   5.207   2.707
 7935SOL    HW224705   4.642   5.199   2.775
 7936SOL     OW24706   4.238   5.860   1.928
 7936SOL    HW124707   4.148   5.898   1.952
 7936SOL    HW224708   4.306   5.892   1.994
 7937SOL     OW24709   5.732   1.830   6.339
 7937SOL    HW124710   5.777   1.884   6.410
 7937SOL    HW224711   5.775   1.848   6.250
 7938SOL     OW24712   6.122   4.738   4.387
 7938SOL    HW124713   6.057   4.803   4.347
 7938SOL    HW224714   6.073   4.655   4.413
 7939SOL     OW24715   6.183   6.041   3.948
 7939SOL    HW124716   6.181   6.076   4.042
 7939SOL    HW224717   6.090   6.038   3.912
 7940SOL     OW24718   1.794   5.846   0.333
 7940SOL    HW124719   1.880   5.810   0.367
 7940SOL    HW224720   1.800   5.946   0.325
 7941SOL     OW24721   0.939   0.548   1.280
 7941SOL    HW124722   0.945   0.642   1.314
 7941SOL    HW224723   0.993   0.540   1.196
 7942SOL     OW24724   0.578   6.454   1.184
 7942SOL    HW124725   0.556   6.446   1.087
 7942SOL    HW224726   0.661   6.508   1.195
 7943SOL     OW24727   6.015   2.374   5.999
 7943SOL    HW124728   5.962   2.365   5.914
 7943SOL    HW224729   6.027   2.284   6.041
 7944SOL     OW24730   6.364   3.745   1.829
 7944SOL    HW124731   6.393   3.829   1.874
 7944SOL    HW224732   6.443   3.685   1.817
 7945SOL     OW24733   5.999   6.255   0.127
 7945SOL    HW124734   5.955   6.186   0.185
 7945SOL    HW224735   5.932   6.326   0.104
 7946SOL     OW24736   2.060   1.578   5.482
 7946SOL    HW124737   2.030   1.532   5.399
 7946SOL    HW224738   1.983   1.626   5.524
 7947SOL     OW24739   3.765   5.488   6.302
 7947SOL    HW124740   3.765   5.505   6.401
 7947SOL    HW224741   3.738   5.571   6.254
 7948SOL     OW24742   1.476   5.114   4.578
 7948SOL    HW124743   1.463   5.019   4.549
 7948SOL    HW224744   1.418   5.132   4.658
 7949SOL     OW24745   0.041   3.657   4.060
 7949SOL    HW124746   6.965   3.686   4.070
 7949SOL    HW224747   0.097   3.701   4.130
 7950SOL     OW24748   2.579   5.852   3.207
 7950SOL    HW124749   2.498   5.891   3.251
 7950SOL    HW224750   2.635   5.805   3.274
 7951SOL     OW24751   2.486   3.277   0.924
 7951SOL    HW124752   2.471   3.205   0.992
 7951SOL    HW224753   2.503   3.235   0.835
 7952SOL     OW24754   6.432   3.484   0.670
 7952SOL    HW124755   6.515   3.473   0.726
 7952SOL    HW224756   6.431   3.575   0.629
 7953SOL     OW24757   1.894   4.389   1.457
 7953SOL    HW124758   1.807   4.355   1.493
 7953SOL    HW224759   1.963   4.385   1.529
 7954SOL     OW24760   6.028   5.554   4.050
 7954SOL    HW124761   5.938   5.546   4.007
 7954SOL    HW224762   6.036   5.643   4.094
 7955SOL     OW24763   1.615   6.277   6.579
 7955SOL    HW124764   1.606   6.244   6.484
 7955SOL    HW224765   1.687   6.226   6.625
 7956SOL     OW24766   5.301   6.029   3.503
 7956SOL    HW124767   5.310   6.001   3.408
 7956SOL    HW224768   5.221   5.985   3.544
 7957SOL     OW24769   1.461   3.039   1.379
 7957SOL    HW124770   1.497   2.977   1.310
 7957SOL    HW224771   1.376   3.003   1.416
 7958SOL     OW24772   2.157   5.981   3.374
 7958SOL    HW124773   2.071   5.940   3.406
 7958SOL    HW224774   2.201   6.029   3.450
 7959SOL     OW24775   4.295   4.708   1.136
 7959SOL    HW124776   4.216   4.769   1.135
 7959SOL    HW224777   4.270   4.620   1.096
 7960SOL     OW24778   1.859   2.335   1.205
 7960SOL    HW124779   1.795   2.265   1.238
 7960SOL    HW224780   1.952   2.298   1.207
 7961SOL     OW24781   1.266   6.285   0.168
 7961SOL    HW124782   1.252   6.381   0.193
 7961SOL    HW224783   1.357   6.257   0.198
 7962SOL     OW24784   1.749   6.816   2.542
 7962SOL    HW124785   1.791   6.727   2.561
 7962SOL    HW224786   1.675   6.832   2.607
 7963SOL     OW24787   0.093   6.003   6.191
 7963SOL    HW124788   0.031   6.037   6.261
 7963SOL    HW224789   0.188   6.016   6.220
 7964SOL     OW24790   6.184   5.347   3.838
 7964SOL    HW124791   6.281   5.324   3.824
 7964SOL    HW224792   6.169   5.370   3.934
 7965SOL     OW24793   3.945   1.711   0.948
 7965SOL    HW124794   4.009   1.636   0.934
 7965SOL    HW224795   3.870   1.680   1.007
 7966SOL     OW24796   0.158   1.734   4.380
 7966SOL    HW124797   0.249   1.771   4.396
 7966SOL    HW224798   0.104   1.799   4.326
 7967SOL     OW24799   1.907   0.430   4.279
 7967SOL    HW124800   1.838   0.501   4.266
 7967SOL    HW224801   1.872   0.343   4.247
 7968SOL     OW24802   2.076   1.109   6.765
 7968SOL    HW124803   2.101   1.130   6.859
 7968SOL    HW224804   2.148   1.142   6.704
 7969SOL     OW24805   4.235   2.138   3.323
 7969SOL    HW124806   4.201   2.063   3.381
 7969SOL    HW224807   4.253   2.103   3.231
 7970SOL     OW24808   0.670   4.843   2.938
 7970SOL    HW124809   0.693   4.931   2.980
 7970SOL    HW224810   0.651   4.776   3.010
 7971SOL     OW24811   3.729   1.745   2.989
 7971SOL    HW124812   3.681   1.760   2.903
 7971SOL    HW224813   3.666   1.761   3.065
 7972SOL     OW24814   5.420   5.617   0.925
 7972SOL    HW124815   5.385   5.556   0.995
 7972SOL    HW224816   5.497   5.669   0.961
 7973SOL     OW24817   5.712   1.794   2.827
 7973SOL    HW124818   5.705   1.889   2.855
 7973SOL    HW224819   5.624   1.763   2.790
 7974SOL     OW24820   4.459   6.166   4.634
 7974SOL    HW124821   4.451   6.067   4.636
 7974SOL    HW224822   4.437   6.204   4.724
 7975SOL     OW24823   1.987   1.572   2.254
 7975SOL    HW124824   2.010   1.661   2.215
 7975SOL    HW224825   2.020   1.500   2.194
 7976SOL     OW24826   0.208   6.433   6.357
 7976SOL    HW124827   0.161   6.478   6.281
 7976SOL    HW224828   0.253   6.502   6.413
 7977SOL     OW24829   5.394   6.186   1.250
 7977SOL    HW124830   5.399   6.256   1.321
 7977SOL    HW224831   5.324   6.211   1.183
 7978SOL     OW24832   3.013   1.494   6.145
 7978SOL    HW124833   2.959   1.510   6.062
 7978SOL    HW224834   2.974   1.546   6.221
 7979SOL     OW24835   4.883   5.584   3.770
 7979SOL    HW124836   4.846   5.556   3.681
 7979SOL    HW224837   4.818   5.563   3.842
 7980SOL     OW24838   2.834   1.090   1.329
 7980SOL    HW124839   2.762   1.039   1.283
 7980SOL    HW224840   2.899   1.026   1.370
 7981SOL     OW24841   0.076   6.030   2.457
 7981SOL    HW124842   0.047   5.990   2.543
 7981SOL    HW224843   0.140   5.969   2.411
 7982SOL     OW24844   0.390   2.813   1.343
 7982SOL    HW124845   0.427   2.761   1.265
 7982SOL    HW224846   0.410   2.763   1.428
 7983SOL     OW24847   5.393   2.041   0.839
 7983SOL    HW124848   5.464   2.082   0.896
 7983SOL    HW224849   5.326   2.111   0.814
 7984SOL     OW24850   6.008   0.783   0.135
 7984SOL    HW124851   6.071   0.838   0.189
 7984SOL    HW224852   5.936   0.748   0.195
 7985SOL     OW24853   0.696   1.325   0.716
 7985SOL    HW124854   0.743   1.330   0.628
 7985SOL    HW224855   0.729   1.245   0.767
 7986SOL     OW24856   5.034   3.620   0.995
 7986SOL    HW124857   5.049   3.690   0.926
 7986SOL    HW224858   4.984   3.543   0.955
 7987SOL     OW24859   1.289   3.646   5.416
 7987SOL    HW124860   1.382   3.633   5.383
 7987SOL    HW224861   1.225   3.596   5.357
 7988SOL     OW24862   2.365   1.141   5.206
 7988SOL    HW124863   2.442   1.194   5.241
 7988SOL    HW224864   2.281   1.196   5.210
 7989SOL     OW24865   3.000   3.318   0.110
 7989SOL    HW124866   2.958   3.299   0.022
 7989SOL    HW224867   3.078   3.256   0.124
 7990SOL     OW24868   2.257   2.758   4.524
 7990SOL    HW124869   2.267   2.753   4.623
 7990SOL    HW224870   2.169   2.801   4.501
 7991SOL     OW24871   2.343   3.251   6.353
 7991SOL    HW124872   2.350   3.347   6.325
 7991SOL    HW224873   2.273   3.205   6.298
 7992SOL     OW24874   3.112   1.181   6.927
 7992SOL    HW124875   3.067   1.249   6.868
 7992SOL    HW224876   3.131   1.221   7.016
 7993SOL     OW24877   3.371   5.912   6.257
 7993SOL    HW124878   3.404   6.005   6.273
 7993SOL    HW224879   3.305   5.912   6.182
 7994SOL     OW24880   5.536   0.391   4.853
 7994SOL    HW124881   5.571   0.341   4.774
 7994SOL    HW224882   5.564   0.487   4.847
 7995SOL     OW24883   4.248   4.938   2.257
 7995SOL    HW124884   4.173   5.005   2.256
 7995SOL    HW224885   4.280   4.923   2.164
 7996SOL     OW24886   4.312   1.922   5.603
 7996SOL    HW124887   4.354   1.997   5.554
 7996SOL    HW224888   4.383   1.865   5.644
 7997SOL     OW24889   5.330   3.331   0.930
 7997SOL    HW124890   5.266   3.280   0.873
 7997SOL    HW224891   5.280   3.393   0.990
 7998SOL     OW24892   7.007   5.508   6.375
 7998SOL    HW124893   6.913   5.528   6.348
 7998SOL    HW224894   7.016   5.409   6.389
 7999SOL     OW24895   3.068   2.375   6.094
 7999SOL    HW124896   3.142   2.395   6.030
 7999SOL    HW224897   3.011   2.302   6.057
 8000SOL     OW24898   5.203   0.688   5.368
 8000SOL    HW124899   5.106   0.694   5.393
 8000SOL    HW224900   5.236   0.595   5.386
 8001SOL     OW24901   2.726   5.013   1.309
 8001SOL    HW124902   2.716   4.998   1.407
 8001SOL    HW224903   2.757   4.929   1.265
 8002SOL     OW24904   4.163   2.124   5.736
 8002SOL    HW124905   4.142   2.097   5.830
 8002SOL    HW224906   4.171   2.042   5.679
 8003SOL     OW24907   5.089   5.401   2.856
 8003SOL    HW124908   5.059   5.466   2.925
 8003SOL    HW224909   5.022   5.328   2.847
 8004SOL     OW24910   1.553   5.038   3.484
 8004SOL    HW124911   1.615   5.077   3.415
 8004SOL    HW224912   1.583   5.065   3.575
 8005SOL     OW24913   2.636   1.065   2.699
 8005SOL    HW124914   2.546   1.100   2.676
 8005SOL    HW224915   2.670   1.007   2.625
 8006SOL     OW24916   4.765   5.567   2.745
 8006SOL    HW124917   4.831   5.526   2.808
 8006SOL    HW224918   4.812   5.632   2.686
 8007SOL     OW24919   0.587   1.351   3.706
 8007SOL    HW124920   0.530   1.404   3.643
 8007SOL    HW224921   0.532   1.325   3.786
 8008SOL     OW24922   6.443   4.690   1.133
 8008SOL    HW124923   6.490   4.778   1.132
 8008SOL    HW224924   6.493   4.625   1.190
 8009SOL     OW24925   6.876   6.255   3.251
 8009SOL    HW124926   6.846   6.347   3.276
 8009SOL    HW224927   6.971   6.242   3.279
 8010SOL     OW24928   2.136   1.903   6.850
 8010SOL    HW124929   2.159   1.907   6.947
 8010SOL    HW224930   2.219   1.884   6.797
 8011SOL     OW24931   1.682   3.220   0.146
 8011SOL    HW124932   1.755   3.268   0.096
 8011SOL    HW224933   1.593   3.250   0.111
 8012SOL     OW24934   1.752   5.978   3.509
 8012SOL    HW124935   1.726   5.951   3.416
 8012SOL    HW224936   1.756   6.078   3.515
 8013SOL     OW24937   6.698   5.776   4.235
 8013SOL    HW124938   6.784   5.770   4.185
 8013SOL    HW224939   6.641   5.848   4.194
 8014SOL     OW24940   2.382   0.455   6.191
 8014SOL    HW124941   2.347   0.375   6.240
 8014SOL    HW224942   2.482   0.458   6.200
 8015SOL     OW24943   1.906   1.336   0.862
 8015SOL    HW124944   1.999   1.313   0.890
 8015SOL    HW224945   1.905   1.355   0.764
 8016SOL     OW24946   4.789   5.199   1.879
 8016SOL    HW124947   4.753   5.204   1.785
 8016SOL    HW224948   4.756   5.278   1.931
 8017SOL     OW24949   6.645   4.007   4.806
 8017SOL    HW124950   6.576   4.066   4.848
 8017SOL    HW224951   6.611   3.975   4.718
 8018SOL     OW24952   4.997   3.023   3.760
 8018SOL    HW124953   5.075   3.072   3.722
 8018SOL    HW224954   4.926   3.013   3.690
 8019SOL     OW24955   3.502   5.096   1.096
 8019SOL    HW124956   3.514   5.161   1.021
 8019SOL    HW224957   3.463   5.143   1.175
 8020SOL     OW24958   5.286   6.656   6.981
 8020SOL    HW124959   5.246   6.672   0.053
 8020SOL    HW224960   5.215   6.626   6.918
 8021SOL     OW24961   6.531   1.130   2.192
 8021SOL    HW124962   6.513   1.093   2.283
 8021SOL    HW224963   6.592   1.209   2.199
 8022SOL     OW24964   5.880   4.927   4.351
 8022SOL    HW124965   5.820   4.975   4.287
 8022SOL    HW224966   5.832   4.847   4.388
 8023SOL     OW24967   0.086   5.473   3.516
 8023SOL    HW124968   0.144   5.446   3.593
 8023SOL    HW224969   0.117   5.561   3.480
 8024SOL     OW24970   4.446   5.821   3.806
 8024SOL    HW124971   4.525   5.863   3.761
 8024SOL    HW224972   4.470   5.729   3.837
 8025SOL     OW24973   2.553   6.051   7.017
 8025SOL    HW124974   2.540   5.975   0.062
 8025SOL    HW224975   2.471   6.062   6.961
 8026SOL     OW24976   3.000   1.863   6.838
 8026SOL    HW124977   2.981   1.961   6.841
 8026SOL    HW224978   3.099   1.847   6.838
 8027SOL     OW24979   4.118   3.706   5.663
 8027SOL    HW124980   4.024   3.683   5.686
 8027SOL    HW224981   4.131   3.697   5.564
 8028SOL     OW24982   6.125   4.632   0.832
 8028SOL    HW124983   6.108   4.535   0.848
 8028SOL    HW224984   6.074   4.663   0.752
 8029SOL     OW24985   3.591   4.476   5.989
 8029SOL    HW124986   3.498   4.479   5.952
 8029SOL    HW224987   3.640   4.398   5.950
 8030SOL     OW24988   0.255   3.556   2.141
 8030SOL    HW124989   0.264   3.481   2.075
 8030SOL    HW224990   0.339   3.611   2.142
 8031SOL     OW24991   3.817   6.500   0.276
 8031SOL    HW124992   3.739   6.557   0.302
 8031SOL    HW224993   3.845   6.445   0.354
 8032SOL     OW24994   4.521   3.370   5.343
 8032SOL    HW124995   4.562   3.377   5.434
 8032SOL    HW224996   4.573   3.425   5.278
 8033SOL     OW24997   5.951   1.211   2.327
 8033SOL    HW124998   5.856   1.198   2.299
 8033SOL    HW224999   6.011   1.190   2.250
 8034SOL     OW25000   6.392   2.773   5.724
 8034SOL    HW125001   6.346   2.753   5.810
 8034SOL    HW225002   6.490   2.758   5.733
 8035SOL     OW25003   5.924   5.926   6.081
 8035SOL    HW125004   5.867   6.002   6.048
 8035SOL    HW225005   5.972   5.884   6.004
 8036SOL     OW25006   1.424   3.711   1.649
 8036SOL    HW125007   1.390   3.617   1.657
 8036SOL    HW225008   1.499   3.713   1.583
 8037SOL     OW25009   2.181   2.926   1.750
 8037SOL    HW125010   2.205   3.006   1.695
 8037SOL    HW225011   2.159   2.850   1.689
 8038SOL     OW25012   5.677   0.687   3.614
 8038SOL    HW125013   5.763   0.691   3.664
 8038SOL    HW225014   5.609   0.744   3.659
 8039SOL     OW25015   2.193   5.633   3.358
 8039SOL    HW125016   2.104   5.661   3.395
 8039SOL    HW225017   2.256   5.615   3.434
 8040SOL     OW25018   5.938   6.312   6.219
 8040SOL    HW125019   5.841   6.304   6.243
 8040SOL    HW225020   5.957   6.404   6.186
 8041SOL     OW25021   3.091   2.765   1.209
 8041SOL    HW125022   3.101   2.738   1.305
 8041SOL    HW225023   3.007   2.818   1.198
 8042SOL     OW25024   1.566   4.688   6.950
 8042SOL    HW125025   1.612   4.610   6.992
 8042SOL    HW225026   1.483   4.658   6.904
 8043SOL     OW25027   3.206   0.732   0.992
 8043SOL    HW125028   3.236   0.729   1.088
 8043SOL    HW225029   3.123   0.788   0.985
 8044SOL     OW25030   3.229   2.732   1.767
 8044SOL    HW125031   3.301   2.776   1.713
 8044SOL    HW225032   3.221   2.777   1.856
 8045SOL     OW25033   5.330   2.869   3.964
 8045SOL    HW125034   5.259   2.808   3.930
 8045SOL    HW225035   5.398   2.885   3.892
 8046SOL     OW25036   6.109   5.456   4.993
 8046SOL    HW125037   6.189   5.430   4.939
 8046SOL    HW225038   6.056   5.373   5.015
 8047SOL     OW25039   2.913   6.795   4.308
 8047SOL    HW125040   2.988   6.755   4.361
 8047SOL    HW225041   2.888   6.883   4.347
 8048SOL     OW25042   5.277   0.419   5.344
 8048SOL    HW125043   5.308   0.325   5.356
 8048SOL    HW225044   5.197   0.420   5.284
 8049SOL     OW25045   2.337   6.303   6.266
 8049SOL    HW125046   2.333   6.398   6.297
 8049SOL    HW225047   2.255   6.255   6.296
 8050SOL     OW25048   0.492   3.699   2.094
 8050SOL    HW125049   0.583   3.664   2.118
 8050SOL    HW225050   0.479   3.693   1.995
 8051SOL     OW25051   2.472   2.569   4.296
 8051SOL    HW125052   2.497   2.522   4.211
 8051SOL    HW225053   2.403   2.517   4.345
 8052SOL     OW25054   4.217   1.187   3.048
 8052SOL    HW125055   4.209   1.096   3.006
 8052SOL    HW225056   4.127   1.220   3.074
 8053SOL     OW25057   4.914   3.794   1.510
 8053SOL    HW125058   4.915   3.780   1.411
 8053SOL    HW225059   4.823   3.777   1.546
 8054SOL     OW25060   4.960   6.325   4.585
 8054SOL    HW125061   5.056   6.343   4.565
 8054SOL    HW225062   4.916   6.410   4.614
 8055SOL     OW25063   1.381   6.977   5.002
 8055SOL    HW125064   1.426   6.889   4.986
 8055SOL    HW225065   1.353   7.016   4.915
 8056SOL     OW25066   4.794   1.182   2.908
 8056SOL    HW125067   4.706   1.222   2.882
 8056SOL    HW225068   4.827   1.225   2.991
 8057SOL     OW25069   3.597   0.044   3.718
 8057SOL    HW125070   3.518   7.005   3.697
 8057SOL    HW225071   3.619   0.101   3.638
 8058SOL     OW25072   1.934   0.414   2.968
 8058SOL    HW125073   2.016   0.420   2.912
 8058SOL    HW225074   1.960   0.405   3.064
 8059SOL     OW25075   1.529   1.299   4.196
 8059SOL    HW125076   1.537   1.199   4.193
 8059SOL    HW225077   1.597   1.340   4.136
 8060SOL     OW25078   0.978   2.852   5.291
 8060SOL    HW125079   0.933   2.914   5.227
 8060SOL    HW225080   0.947   2.759   5.274
 8061SOL     OW25081   5.367   6.537   3.315
 8061SOL    HW125082   5.335   6.457   3.364
 8061SOL    HW225083   5.310   6.616   3.337
 8062SOL     OW25084   1.671   1.638   1.135
 8062SOL    HW125085   1.680   1.642   1.235
 8062SOL    HW225086   1.587   1.589   1.111
 8063SOL     OW25087   2.927   2.173   5.973
 8063SOL    HW125088   2.962   2.149   5.882
 8063SOL    HW225089   2.831   2.199   5.965
 8064SOL     OW25090   5.327   2.015   6.098
 8064SOL    HW125091   5.357   1.953   6.170
 8064SOL    HW225092   5.316   2.107   6.135
 8065SOL     OW25093   4.400   0.718   6.638
 8065SOL    HW125094   4.476   0.660   6.609
 8065SOL    HW225095   4.424   0.765   6.722
 8066SOL     OW25096   0.509   0.387   1.787
 8066SOL    HW125097   0.485   0.303   1.739
 8066SOL    HW225098   0.605   0.383   1.814
 8067SOL     OW25099   4.455   1.764   2.766
 8067SOL    HW125100   4.464   1.718   2.677
 8067SOL    HW225101   4.382   1.832   2.760
 8068SOL     OW25102   6.835   4.284   3.383
 8068SOL    HW125103   6.914   4.279   3.323
 8068SOL    HW225104   6.762   4.336   3.338
 8069SOL     OW25105   6.832   5.796   2.490
 8069SOL    HW125106   6.921   5.807   2.446
 8069SOL    HW225107   6.773   5.738   2.434
 8070SOL     OW25108   4.024   0.704   2.784
 8070SOL    HW125109   4.089   0.764   2.738
 8070SOL    HW225110   4.074   0.629   2.828
 8071SOL     OW25111   5.774   4.779   0.115
 8071SOL    HW125112   5.694   4.829   0.083
 8071SOL    HW225113   5.856   4.813   0.069
 8072SOL     OW25114   3.594   0.178   3.490
 8072SOL    HW125115   3.662   0.136   3.430
 8072SOL    HW225116   3.515   0.208   3.435
 8073SOL     OW25117   5.314   0.439   6.417
 8073SOL    HW125118   5.324   0.373   6.343
 8073SOL    HW225119   5.217   0.443   6.444
 8074SOL     OW25120   2.968   4.538   0.264
 8074SOL    HW125121   2.907   4.460   0.281
 8074SOL    HW225122   3.049   4.507   0.214
 8075SOL     OW25123   6.633   1.592   3.848
 8075SOL    HW125124   6.565   1.604   3.921
 8075SOL    HW225125   6.680   1.505   3.860
 8076SOL     OW25126   4.748   2.360   6.841
 8076SOL    HW125127   4.706   2.363   6.750
 8076SOL    HW225128   4.740   2.450   6.883
 8077SOL     OW25129   0.705   0.547   0.043
 8077SOL    HW125130   0.748   0.618   0.098
 8077SOL    HW225131   0.629   0.587   7.010
 8078SOL     OW25132   6.442   4.252   1.139
 8078SOL    HW125133   6.396   4.203   1.212
 8078SOL    HW225134   6.481   4.187   1.074
 8079SOL     OW25135   1.523   2.969   0.294
 8079SOL    HW125136   1.571   3.043   0.246
 8079SOL    HW225137   1.590   2.915   0.346
 8080SOL     OW25138   3.536   4.728   0.121
 8080SOL    HW125139   3.503   4.716   0.027
 8080SOL    HW225140   3.466   4.694   0.185
 8081SOL     OW25141   5.314   2.598   4.485
 8081SOL    HW125142   5.407   2.616   4.518
 8081SOL    HW225143   5.320   2.546   4.399
 8082SOL     OW25144   6.969   3.556   5.126
 8082SOL    HW125145   6.957   3.630   5.060
 8082SOL    HW225146   6.942   3.469   5.084
 8083SOL     OW25147   6.668   1.774   4.954
 8083SOL    HW125148   6.573   1.743   4.962
 8083SOL    HW225149   6.676   1.835   4.875
 8084SOL     OW25150   5.884   0.061   6.768
 8084SOL    HW125151   5.964   0.120   6.755
 8084SOL    HW225152   5.844   0.039   6.678
 8085SOL     OW25153   5.219   2.646   1.819
 8085SOL    HW125154   5.160   2.712   1.772
 8085SOL    HW225155   5.310   2.686   1.832
 8086SOL     OW25156   3.465   4.931   6.435
 8086SOL    HW125157   3.407   4.860   6.475
 8086SOL    HW225158   3.412   5.015   6.425
 8087SOL     OW25159   1.787   3.832   0.905
 8087SOL    HW125160   1.855   3.887   0.953
 8087SOL    HW225161   1.802   3.840   0.806
 8088SOL     OW25162   4.937   0.647   3.002
 8088SOL    HW125163   4.852   0.641   3.055
 8088SOL    HW225164   4.957   0.558   2.961
 8089SOL     OW25165   6.836   2.473   0.185
 8089SOL    HW125166   6.803   2.429   0.269
 8089SOL    HW225167   6.763   2.528   0.145
 8090SOL     OW25168   5.454   1.420   4.848
 8090SOL    HW125169   5.360   1.385   4.850
 8090SOL    HW225170   5.475   1.466   4.934
 8091SOL     OW25171   1.868   3.708   5.100
 8091SOL    HW125172   1.879   3.758   5.186
 8091SOL    HW225173   1.935   3.741   5.034
 8092SOL     OW25174   6.001   2.257   4.062
 8092SOL    HW125175   6.017   2.183   3.997
 8092SOL    HW225176   6.088   2.304   4.081
 8093SOL     OW25177   5.925   4.705   0.653
 8093SOL    HW125178   5.948   4.786   0.599
 8093SOL    HW225179   5.843   4.724   0.708
 8094SOL     OW25180   0.823   3.358   4.195
 8094SOL    HW125181   0.785   3.349   4.103
 8094SOL    HW225182   0.911   3.311   4.200
 8095SOL     OW25183   6.523   3.481   5.188
 8095SOL    HW125184   6.525   3.566   5.137
 8095SOL    HW225185   6.616   3.460   5.221
 8096SOL     OW25186   3.915   0.110   0.686
 8096SOL    HW125187   4.008   0.094   0.651
 8096SOL    HW225188   3.875   0.022   0.713
 8097SOL     OW25189   5.352   1.947   3.735
 8097SOL    HW125190   5.413   1.948   3.655
 8097SOL    HW225191   5.282   1.877   3.722
 8098SOL     OW25192   2.269   2.353   3.858
 8098SOL    HW125193   2.237   2.433   3.808
 8098SOL    HW225194   2.193   2.291   3.875
 8099SOL     OW25195   4.067   0.157   4.275
 8099SOL    HW125196   4.153   0.196   4.307
 8099SOL    HW225197   4.072   0.057   4.280
 8100SOL     OW25198   5.997   6.271   1.553
 8100SOL    HW125199   6.033   6.179   1.565
 8100SOL    HW225200   6.072   6.335   1.539
 8101SOL     OW25201   1.496   4.779   2.564
 8101SOL    HW125202   1.416   4.808   2.511
 8101SOL    HW225203   1.573   4.764   2.503
 8102SOL     OW25204   6.685   0.382   5.282
 8102SOL    HW125205   6.651   0.373   5.376
 8102SOL    HW225206   6.678   0.478   5.253
 8103SOL     OW25207   2.715   2.304   2.416
 8103SOL    HW125208   2.771   2.237   2.366
 8103SOL    HW225209   2.646   2.341   2.354
 8104SOL     OW25210   2.647   0.072   5.812
 8104SOL    HW125211   2.682   0.104   5.900
 8104SOL    HW225212   2.659   6.992   5.805
 8105SOL     OW25213   2.516   2.439   2.542
 8105SOL    HW125214   2.590   2.373   2.530
 8105SOL    HW225215   2.501   2.455   2.640
 8106SOL     OW25216   0.349   4.463   6.495
 8106SOL    HW125217   0.342   4.522   6.575
 8106SOL    HW225218   0.416   4.499   6.431
 8107SOL     OW25219   0.669   5.082   6.341
 8107SOL    HW125220   0.652   5.067   6.438
 8107SOL    HW225221   0.708   5.174   6.328
 8108SOL     OW25222   1.849   2.113   6.193
 8108SOL    HW125223   1.883   2.035   6.142
 8108SOL    HW225224   1.766   2.087   6.242
 8109SOL     OW25225   0.261   5.656   5.133
 8109SOL    HW125226   0.163   5.642   5.146
 8109SOL    HW225227   0.312   5.599   5.198
 8110SOL     OW25228   0.985   4.695   0.222
 8110SOL    HW125229   0.965   4.623   0.155
 8110SOL    HW225230   1.076   4.680   0.261
 8111SOL     OW25231   3.394   6.463   4.653
 8111SOL    HW125232   3.479   6.459   4.706
 8111SOL    HW225233   3.391   6.549   4.602
 8112SOL     OW25234   4.049   1.845   4.383
 8112SOL    HW125235   4.053   1.920   4.317
 8112SOL    HW225236   3.980   1.865   4.452
 8113SOL     OW25237   3.202   2.129   6.328
 8113SOL    HW125238   3.298   2.143   6.304
 8113SOL    HW225239   3.153   2.215   6.322
 8114SOL     OW25240   2.870   3.730   1.318
 8114SOL    HW125241   2.893   3.768   1.228
 8114SOL    HW225242   2.805   3.655   1.307
 8115SOL     OW25243   4.134   2.937   1.461
 8115SOL    HW125244   4.037   2.958   1.462
 8115SOL    HW225245   4.167   2.927   1.555
 8116SOL     OW25246   5.861   2.055   5.783
 8116SOL    HW125247   5.770   2.013   5.777
 8116SOL    HW225248   5.852   2.152   5.803
 8117SOL     OW25249   3.102   2.801   5.283
 8117SOL    HW125250   3.021   2.772   5.335
 8117SOL    HW225251   3.171   2.729   5.286
 8118SOL     OW25252   1.041   2.175   4.220
 8118SOL    HW125253   0.988   2.215   4.295
 8118SOL    HW225254   1.020   2.078   4.212
 8119SOL     OW25255   1.253   0.366   2.091
 8119SOL    HW125256   1.347   0.372   2.059
 8119SOL    HW225257   1.253   0.346   2.189
 8120SOL     OW25258   4.791   4.065   2.087
 8120SOL    HW125259   4.776   3.983   2.031
 8120SOL    HW225260   4.707   4.120   2.088
 8121SOL     OW25261   6.648   6.164   3.694
 8121SOL    HW125262   6.644   6.262   3.714
 8121SOL    HW225263   6.687   6.150   3.603
 8122SOL     OW25264   0.663   4.828   1.517
 8122SOL    HW125265   0.678   4.763   1.592
 8122SOL    HW225266   0.637   4.917   1.555
 8123SOL     OW25267   1.218   4.886   5.758
 8123SOL    HW125268   1.276   4.967   5.748
 8123SOL    HW225269   1.220   4.855   5.853
 8124SOL     OW25270   1.559   5.934   2.108
 8124SOL    HW125271   1.477   5.968   2.063
 8124SOL    HW225272   1.635   5.933   2.043
 8125SOL     OW25273   4.762   4.859   3.659
 8125SOL    HW125274   4.800   4.951   3.670
 8125SOL    HW225275   4.683   4.863   3.597
 8126SOL     OW25276   0.326   4.397   2.050
 8126SOL    HW125277   0.334   4.351   2.138
 8126SOL    HW225278   0.417   4.425   2.019
 8127SOL     OW25279   4.556   5.321   0.363
 8127SOL    HW125280   4.555   5.347   0.266
 8127SOL    HW225281   4.511   5.233   0.374
 8128SOL     OW25282   3.862   2.230   5.397
 8128SOL    HW125283   3.842   2.198   5.490
 8128SOL    HW225284   3.777   2.240   5.346
 8129SOL     OW25285   5.133   5.091   6.222
 8129SOL    HW125286   5.071   5.153   6.174
 8129SOL    HW225287   5.082   5.014   6.259
 8130SOL     OW25288   0.663   0.254   5.990
 8130SOL    HW125289   0.615   0.236   5.904
 8130SOL    HW225290   0.716   0.173   6.015
 8131SOL     OW25291   2.589   1.787   1.385
 8131SOL    HW125292   2.558   1.697   1.414
 8131SOL    HW225293   2.605   1.845   1.465
 8132SOL     OW25294   5.816   4.557   3.517
 8132SOL    HW125295   5.861   4.563   3.428
 8132SOL    HW225296   5.733   4.502   3.508
 8133SOL     OW25297   0.018   5.340   2.474
 8133SOL    HW125298   6.952   5.325   2.525
 8133SOL    HW225299   0.084   5.387   2.533
 8134SOL     OW25300   3.733   3.338   1.404
 8134SOL    HW125301   3.743   3.397   1.324
 8134SOL    HW225302   3.658   3.371   1.461
 8135SOL     OW25303   4.382   5.992   2.425
 8135SOL    HW125304   4.310   6.019   2.489
 8135SOL    HW225305   4.357   6.020   2.333
 8136SOL     OW25306   2.118   5.338   1.279
 8136SOL    HW125307   2.153   5.356   1.187
 8136SOL    HW225308   2.098   5.240   1.288
 8137SOL     OW25309   3.690   4.374   5.637
 8137SOL    HW125310   3.683   4.474   5.634
 8137SOL    HW225311   3.617   4.334   5.582
 8138SOL     OW25312   4.229   0.614   3.938
 8138SOL    HW125313   4.261   0.640   3.847
 8138SOL    HW225314   4.159   0.678   3.970
 8139SOL     OW25315   2.136   3.120   5.681
 8139SOL    HW125316   2.165   3.030   5.715
 8139SOL    HW225317   2.039   3.132   5.699
 8140SOL     OW25318   5.126   1.684   1.435
 8140SOL    HW125319   5.091   1.680   1.341
 8140SOL    HW225320   5.224   1.664   1.435
 8141SOL     OW25321   6.026   2.098   5.110
 8141SOL    HW125322   5.954   2.028   5.117
 8141SOL    HW225323   6.011   2.153   5.029
 8142SOL     OW25324   3.901   5.774   0.233
 8142SOL    HW125325   3.917   5.865   0.195
 8142SOL    HW225326   3.819   5.776   0.291
 8143SOL     OW25327   5.605   5.037   0.707
 8143SOL    HW125328   5.675   5.082   0.762
 8143SOL    HW225329   5.523   5.094   0.705
 8144SOL     OW25330   1.797   5.467   6.546
 8144SOL    HW125331   1.881   5.432   6.506
 8144SOL    HW225332   1.720   5.409   6.518
 8145SOL     OW25333   4.893   5.394   5.606
 8145SOL    HW125334   4.882   5.467   5.538
 8145SOL    HW225335   4.990   5.385   5.630
 8146SOL     OW25336   6.712   6.185   5.757
 8146SOL    HW125337   6.774   6.262   5.770
 8146SOL    HW225338   6.643   6.208   5.690
 8147SOL     OW25339   2.300   6.480   4.578
 8147SOL    HW125340   2.386   6.432   4.564
 8147SOL    HW225341   2.314   6.578   4.563
 8148SOL     OW25342   4.828   4.930   0.424
 8148SOL    HW125343   4.800   4.995   0.353
 8148SOL    HW225344   4.793   4.839   0.402
 8149SOL     OW25345   1.236   6.311   4.566
 8149SOL    HW125346   1.306   6.382   4.569
 8149SOL    HW225347   1.276   6.223   4.592
 8150SOL     OW25348   0.834   4.095   0.403
 8150SOL    HW125349   0.880   4.020   0.356
 8150SOL    HW225350   0.880   4.114   0.489
 8151SOL     OW25351   6.342   4.145   2.530
 8151SOL    HW125352   6.349   4.074   2.599
 8151SOL    HW225353   6.319   4.104   2.442
 8152SOL     OW25354   5.184   2.009   4.482
 8152SOL    HW125355   5.277   2.039   4.505
 8152SOL    HW225356   5.148   2.066   4.408
 8153SOL     OW25357   0.491   1.642   1.130
 8153SOL    HW125358   0.497   1.725   1.075
 8153SOL    HW225359   0.503   1.561   1.072
 8154SOL     OW25360   0.052   0.160   4.675
 8154SOL    HW125361   0.004   0.242   4.704
 8154SOL    HW225362   0.136   0.150   4.728
 8155SOL     OW25363   1.400   4.650   4.661
 8155SOL    HW125364   1.326   4.699   4.614
 8155SOL    HW225365   1.401   4.676   4.757
 8156SOL     OW25366   1.182   3.688   0.347
 8156SOL    HW125367   1.139   3.718   0.262
 8156SOL    HW225368   1.195   3.589   0.344
 8157SOL     OW25369   6.509   4.545   5.791
 8157SOL    HW125370   6.420   4.504   5.806
 8157SOL    HW225371   6.525   4.618   5.858
 8158SOL     OW25372   6.720   5.017   6.310
 8158SOL    HW125373   6.726   4.928   6.266
 8158SOL    HW225374   6.627   5.053   6.301
 8159SOL     OW25375   2.312   6.199   4.900
 8159SOL    HW125376   2.360   6.118   4.934
 8159SOL    HW225377   2.339   6.278   4.955
 8160SOL     OW25378   4.873   3.197   2.575
 8160SOL    HW125379   4.853   3.101   2.598
 8160SOL    HW225380   4.851   3.254   2.654
 8161SOL     OW25381   0.200   2.179   0.958
 8161SOL    HW125382   0.241   2.206   1.045
 8161SOL    HW225383   0.133   2.247   0.929
 8162SOL     OW25384   6.694   6.053   6.211
 8162SOL    HW125385   6.753   6.023   6.286
 8162SOL    HW225386   6.737   6.030   6.124
 8163SOL     OW25387   3.602   5.411   5.941
 8163SOL    HW125388   3.639   5.358   6.017
 8163SOL    HW225389   3.583   5.504   5.972
 8164SOL     OW25390   5.290   2.105   0.280
 8164SOL    HW125391   5.280   2.062   0.190
 8164SOL    HW225392   5.240   2.052   0.348
 8165SOL     OW25393   1.567   2.139   5.890
 8165SOL    HW125394   1.486   2.189   5.857
 8165SOL    HW225395   1.544   2.092   5.975
 8166SOL     OW25396   3.339   2.080   3.694
 8166SOL    HW125397   3.261   2.048   3.641
 8166SOL    HW225398   3.424   2.051   3.650
 8167SOL     OW25399   1.835   2.068   2.072
 8167SOL    HW125400   1.843   1.998   2.143
 8167SOL    HW225401   1.919   2.069   2.017
 8168SOL     OW25402   1.230   5.955   2.624
 8168SOL    HW125403   1.282   6.041   2.632
 8168SOL    HW225404   1.136   5.976   2.598
 8169SOL     OW25405   5.389   4.844   6.615
 8169SOL    HW125406   5.323   4.820   6.544
 8169SOL    HW225407   5.481   4.846   6.575
 8170SOL     OW25408   0.265   4.953   3.113
 8170SOL    HW125409   0.348   5.008   3.121
 8170SOL    HW225410   0.262   4.910   3.022
 8171SOL     OW25411   1.202   1.472   1.880
 8171SOL    HW125412   1.277   1.406   1.875
 8171SOL    HW225413   1.127   1.433   1.935
 8172SOL     OW25414   1.581   4.499   0.558
 8172SOL    HW125415   1.522   4.544   0.492
 8172SOL    HW225416   1.525   4.455   0.629
 8173SOL     OW25417   5.173   0.443   1.384
 8173SOL    HW125418   5.153   0.345   1.379
 8173SOL    HW225419   5.236   0.460   1.460
 8174SOL     OW25420   2.796   6.271   3.932
 8174SOL    HW125421   2.858   6.198   3.959
 8174SOL    HW225422   2.823   6.306   3.842
 8175SOL     OW25423   0.970   2.529   6.253
 8175SOL    HW125424   0.902   2.563   6.318
 8175SOL    HW225425   0.927   2.519   6.163
 8176SOL     OW25426   2.564   4.501   0.398
 8176SOL    HW125427   2.657   4.495   0.435
 8176SOL    HW225428   2.519   4.583   0.433
 8177SOL     OW25429   3.225   1.529   2.202
 8177SOL    HW125430   3.261   1.545   2.111
 8177SOL    HW225431   3.181   1.439   2.206
 8178SOL     OW25432   2.743   6.363   0.947
 8178SOL    HW125433   2.776   6.282   0.899
 8178SOL    HW225434   2.792   6.444   0.915
 8179SOL     OW25435   6.464   6.431   4.542
 8179SOL    HW125436   6.384   6.490   4.552
 8179SOL    HW225437   6.548   6.484   4.557
 8180SOL     OW25438   3.563   5.326   0.932
 8180SOL    HW125439   3.593   5.332   0.837
 8180SOL    HW225440   3.488   5.392   0.947
 8181SOL     OW25441   6.145   0.894   6.642
 8181SOL    HW125442   6.082   0.852   6.708
 8181SOL    HW225443   6.097   0.914   6.557
 8182SOL     OW25444   3.236   3.536   2.916
 8182SOL    HW125445   3.309   3.592   2.876
 8182SOL    HW225446   3.276   3.449   2.948
 8183SOL     OW25447   0.555   0.340   5.462
 8183SOL    HW125448   0.544   0.328   5.561
 8183SOL    HW225449   0.636   0.290   5.431
 8184SOL     OW25450   0.019   5.538   4.904
 8184SOL    HW125451   0.056   5.630   4.891
 8184SOL    HW225452   0.069   5.473   4.845
 8185SOL     OW25453   6.802   6.226   4.627
 8185SOL    HW125454   6.832   6.320   4.641
 8185SOL    HW225455   6.719   6.209   4.680
 8186SOL     OW25456   0.649   6.262   6.609
 8186SOL    HW125457   0.603   6.240   6.695
 8186SOL    HW225458   0.676   6.177   6.563
 8187SOL     OW25459   0.910   6.579   4.504
 8187SOL    HW125460   0.963   6.653   4.462
 8187SOL    HW225461   0.966   6.534   4.573
 8188SOL     OW25462   1.483   2.395   2.463
 8188SOL    HW125463   1.540   2.457   2.518
 8188SOL    HW225464   1.499   2.411   2.366
 8189SOL     OW25465   6.838   5.248   3.885
 8189SOL    HW125466   6.833   5.152   3.855
 8189SOL    HW225467   6.886   5.253   3.973
 8190SOL     OW25468   5.467   3.827   2.378
 8190SOL    HW125469   5.404   3.804   2.304
 8190SOL    HW225470   5.416   3.832   2.464
 8191SOL     OW25471   4.398   4.979   0.612
 8191SOL    HW125472   4.395   4.994   0.513
 8191SOL    HW225473   4.475   4.920   0.634
 8192SOL     OW25474   6.568   5.496   2.754
 8192SOL    HW125475   6.530   5.535   2.838
 8192SOL    HW225476   6.509   5.518   2.676
 8193SOL     OW25477   0.798   5.245   4.496
 8193SOL    HW125478   0.830   5.250   4.402
 8193SOL    HW225479   0.745   5.161   4.509
 8194SOL     OW25480   5.861   6.751   2.102
 8194SOL    HW125481   5.878   6.680   2.170
 8194SOL    HW225482   5.763   6.774   2.102
 8195SOL     OW25483   6.451   6.643   3.111
 8195SOL    HW125484   6.463   6.602   3.201
 8195SOL    HW225485   6.414   6.574   3.048
 8196SOL     OW25486   5.485   0.087   2.354
 8196SOL    HW125487   5.480   7.014   2.314
 8196SOL    HW225488   5.508   0.080   2.451
 8197SOL     OW25489   3.843   0.477   3.352
 8197SOL    HW125490   3.820   0.510   3.260
 8197SOL    HW225491   3.817   0.547   3.419
 8198SOL     OW25492   1.955   5.179   7.001
 8198SOL    HW125493   1.955   5.091   6.955
 8198SOL    HW225494   1.905   5.246   6.946
 8199SOL     OW25495   5.809   2.770   0.174
 8199SOL    HW125496   5.723   2.771   0.225
 8199SOL    HW225497   5.813   2.851   0.114
 8200SOL     OW25498   5.673   4.539   0.153
 8200SOL    HW125499   5.713   4.630   0.142
 8200SOL    HW225500   5.595   4.530   0.092
 8201SOL     OW25501   5.221   1.659   5.841
 8201SOL    HW125502   5.224   1.580   5.779
 8201SOL    HW225503   5.127   1.671   5.875
 8202SOL     OW25504   6.888   6.083   2.294
 8202SOL    HW125505   6.966   6.042   2.341
 8202SOL    HW225506   6.816   6.104   2.361
 8203SOL     OW25507   0.730   2.881   0.260
 8203SOL    HW125508   0.824   2.877   0.226
 8203SOL    HW225509   0.716   2.967   0.309
 8204SOL     OW25510   1.268   3.517   0.604
 8204SOL    HW125511   1.281   3.493   0.508
 8204SOL    HW225512   1.259   3.616   0.613
 8205SOL     OW25513   6.678   4.057   6.470
 8205SOL    HW125514   6.773   4.057   6.436
 8205SOL    HW225515   6.645   3.962   6.473
 8206SOL     OW25516   3.404   1.397   0.936
 8206SOL    HW125517   3.366   1.444   1.016
 8206SOL    HW225518   3.416   1.300   0.956
 8207SOL     OW25519   3.709   3.371   3.897
 8207SOL    HW125520   3.804   3.396   3.882
 8207SOL    HW225521   3.672   3.328   3.815
 8208SOL     OW25522   3.901   0.224   5.532
 8208SOL    HW125523   3.824   0.163   5.514
 8208SOL    HW225524   3.982   0.191   5.484
 8209SOL     OW25525   5.054   2.703   3.765
 8209SOL    HW125526   5.004   2.772   3.818
 8209SOL    HW225527   5.022   2.704   3.671
 8210SOL     OW25528   1.429   1.550   6.334
 8210SOL    HW125529   1.434   1.581   6.239
 8210SOL    HW225530   1.469   1.619   6.394
 8211SOL     OW25531   3.922   4.642   1.166
 8211SOL    HW125532   3.974   4.638   1.252
 8211SOL    HW225533   3.845   4.706   1.177
 8212SOL     OW25534   1.994   3.373   2.466
 8212SOL    HW125535   1.920   3.376   2.533
 8212SOL    HW225536   2.052   3.453   2.476
 8213SOL     OW25537   6.631   4.510   0.812
 8213SOL    HW125538   6.537   4.474   0.818
 8213SOL    HW225539   6.671   4.483   0.724
 8214SOL     OW25540   4.729   2.865   3.686
 8214SOL    HW125541   4.684   2.776   3.675
 8214SOL    HW225542   4.694   2.928   3.617
 8215SOL     OW25543   3.324   4.088   1.751
 8215SOL    HW125544   3.407   4.131   1.786
 8215SOL    HW225545   3.245   4.143   1.778
 8216SOL     OW25546   5.411   2.744   4.810
 8216SOL    HW125547   5.456   2.819   4.858
 8216SOL    HW225548   5.449   2.736   4.717
 8217SOL     OW25549   2.415   5.588   6.767
 8217SOL    HW125550   2.470   5.617   6.845
 8217SOL    HW225551   2.376   5.497   6.786
 8218SOL     OW25552   4.320   1.862   6.985
 8218SOL    HW125553   4.267   1.778   6.992
 8218SOL    HW225554   4.321   1.895   6.891
 8219SOL     OW25555   5.561   3.107   0.159
 8219SOL    HW125556   5.465   3.134   0.155
 8219SOL    HW225557   5.573   3.038   0.230
 8220SOL     OW25558   4.229   3.519   1.573
 8220SOL    HW125559   4.149   3.525   1.513
 8220SOL    HW225560   4.205   3.467   1.655
 8221SOL     OW25561   5.484   3.639   3.955
 8221SOL    HW125562   5.577   3.619   3.925
 8221SOL    HW225563   5.427   3.659   3.875
 8222SOL     OW25564   5.841   1.283   3.197
 8222SOL    HW125565   5.795   1.362   3.158
 8222SOL    HW225566   5.932   1.308   3.228
 8223SOL     OW25567   1.064   3.481   0.069
 8223SOL    HW125568   1.153   3.522   0.048
 8223SOL    HW225569   0.993   3.530   0.018
 8224SOL     OW25570   1.053   3.629   2.796
 8224SOL    HW125571   1.094   3.675   2.874
 8224SOL    HW225572   0.958   3.660   2.786
 8225SOL     OW25573   4.803   0.278   1.278
 8225SOL    HW125574   4.740   0.265   1.201
 8225SOL    HW225575   4.814   0.376   1.296
 8226SOL     OW25576   4.375   0.598   6.970
 8226SOL    HW125577   4.383   0.593   0.051
 8226SOL    HW225578   4.279   0.594   6.944
 8227SOL     OW25579   5.989   4.536   3.271
 8227SOL    HW125580   5.947   4.589   3.197
 8227SOL    HW225581   6.078   4.575   3.294
 8228SOL     OW25582   7.005   1.073   3.566
 8228SOL    HW125583   7.011   0.984   3.612
 8228SOL    HW225584   7.015   1.059   3.467
 8229SOL     OW25585   5.886   5.224   6.428
 8229SOL    HW125586   5.905   5.320   6.448
 8229SOL    HW225587   5.813   5.218   6.360
 8230SOL     OW25588   4.984   6.907   3.340
 8230SOL    HW125589   4.985   6.981   3.408
 8230SOL    HW225590   4.911   6.923   3.274
 8231SOL     OW25591   3.932   5.847   1.274
 8231SOL    HW125592   3.975   5.860   1.363
 8231SOL    HW225593   3.845   5.800   1.285
 8232SOL     OW25594   2.573   1.140   0.369
 8232SOL    HW125595   2.534   1.229   0.343
 8232SOL    HW225596   2.511   1.092   0.429
 8233SOL     OW25597   0.868   5.644   6.403
 8233SOL    HW125598   0.961   5.674   6.382
 8233SOL    HW225599   0.811   5.652   6.320
 8234SOL     OW25600   1.531   2.970   6.960
 8234SOL    HW125601   1.627   2.946   6.975
 8234SOL    HW225602   1.502   3.034   0.012
 8235SOL     OW25603   4.551   2.665   6.701
 8235SOL    HW125604   4.475   2.601   6.693
 8235SOL    HW225605   4.523   2.754   6.666
 8236SOL     OW25606   6.273   1.705   1.910
 8236SOL    HW125607   6.321   1.625   1.946
 8236SOL    HW225608   6.338   1.781   1.898
 8237SOL     OW25609   3.791   6.151   5.523
 8237SOL    HW125610   3.697   6.152   5.557
 8237SOL    HW225611   3.793   6.105   5.434
 8238SOL     OW25612   0.045   1.089   5.370
 8238SOL    HW125613   6.984   1.093   5.429
 8238SOL    HW225614   0.120   1.142   5.411
 8239SOL     OW25615   4.889   1.557   6.178
 8239SOL    HW125616   4.859   1.477   6.126
 8239SOL    HW225617   4.820   1.629   6.170
 8240SOL     OW25618   3.454   2.868   2.851
 8240SOL    HW125619   3.534   2.851   2.794
 8240SOL    HW225620   3.372   2.865   2.795
 8241SOL     OW25621   4.259   6.403   0.978
 8241SOL    HW125622   4.352   6.435   0.959
 8241SOL    HW225623   4.262   6.334   1.050
 8242SOL     OW25624   1.977   4.349   4.916
 8242SOL    HW125625   2.038   4.274   4.942
 8242SOL    HW225626   1.889   4.311   4.887
 8243SOL     OW25627   6.991   4.276   4.596
 8243SOL    HW125628   6.923   4.296   4.525
 8243SOL    HW225629   6.970   4.188   4.638
 8244SOL     OW25630   3.155   5.530   5.628
 8244SOL    HW125631   3.240   5.489   5.596
 8244SOL    HW225632   3.077   5.487   5.582
 8245SOL     OW25633   4.535   4.120   1.102
 8245SOL    HW125634   4.565   4.172   1.181
 8245SOL    HW225635   4.562   4.168   1.018
 8246SOL     OW25636   5.738   3.103   5.212
 8246SOL    HW125637   5.739   3.166   5.134
 8246SOL    HW225638   5.730   3.155   5.297
 8247SOL     OW25639   0.977   5.929   0.067
 8247SOL    HW125640   1.057   5.977   0.102
 8247SOL    HW225641   0.923   5.990   0.009
 8248SOL     OW25642   6.786   4.011   3.355
 8248SOL    HW125643   6.733   3.971   3.280
 8248SOL    HW225644   6.781   4.111   3.350
 8249SOL     OW25645   1.091   6.026   3.265
 8249SOL    HW125646   1.187   6.026   3.236
 8249SOL    HW225647   1.036   5.975   3.199
 8250SOL     OW25648   3.042   3.033   2.357
 8250SOL    HW125649   3.003   3.100   2.294
 8250SOL    HW225650   3.020   2.941   2.326
 8251SOL     OW25651   5.709   0.656   3.936
 8251SOL    HW125652   5.629   0.701   3.897
 8251SOL    HW225653   5.784   0.658   3.871
 8252SOL     OW25654   0.941   3.929   4.485
 8252SOL    HW125655   1.030   3.890   4.462
 8252SOL    HW225656   0.950   3.985   4.567
 8253SOL     OW25657   2.976   2.883   5.898
 8253SOL    HW125658   3.048   2.950   5.917
 8253SOL    HW225659   2.889   2.930   5.885
 8254SOL     OW25660   4.883   4.860   2.966
 8254SOL    HW125661   4.839   4.835   2.880
 8254SOL    HW225662   4.912   4.777   3.015
 8255SOL     OW25663   3.910   5.290   3.772
 8255SOL    HW125664   3.909   5.190   3.779
 8255SOL    HW225665   3.867   5.318   3.687
 8256SOL     OW25666   5.307   2.273   2.814
 8256SOL    HW125667   5.227   2.215   2.803
 8256SOL    HW225668   5.378   2.245   2.748
 8257SOL     OW25669   6.357   4.576   4.309
 8257SOL    HW125670   6.288   4.648   4.312
 8257SOL    HW225671   6.428   4.594   4.377
 8258SOL     OW25672   5.394   1.788   0.506
 8258SOL    HW125673   5.442   1.702   0.486
 8258SOL    HW225674   5.461   1.859   0.526
 8259SOL     OW25675   4.522   0.392   1.331
 8259SOL    HW125676   4.519   0.310   1.389
 8259SOL    HW225677   4.430   0.413   1.299
 8260SOL     OW25678   3.477   5.457   6.304
 8260SOL    HW125679   3.552   5.519   6.326
 8260SOL    HW225680   3.484   5.376   6.362
 8261SOL     OW25681   4.729   1.330   1.514
 8261SOL    HW125682   4.786   1.381   1.448
 8261SOL    HW225683   4.650   1.386   1.539
 8262SOL     OW25684   6.221   2.749   1.940
 8262SOL    HW125685   6.145   2.786   1.886
 8262SOL    HW225686   6.192   2.740   2.035
 8263SOL     OW25687   5.816   2.082   0.095
 8263SOL    HW125688   5.762   2.039   0.168
 8263SOL    HW225689   5.900   2.120   0.133
 8264SOL     OW25690   1.659   4.309   1.580
 8264SOL    HW125691   1.672   4.358   1.666
 8264SOL    HW225692   1.577   4.253   1.585
 8265SOL     OW25693   2.208   0.525   2.987
 8265SOL    HW125694   2.192   0.510   3.085
 8265SOL    HW225695   2.303   0.554   2.973
 8266SOL     OW25696   3.026   1.141   2.882
 8266SOL    HW125697   2.967   1.213   2.845
 8266SOL    HW225698   3.009   1.055   2.833
 8267SOL     OW25699   7.017   3.187   1.735
 8267SOL    HW125700   0.031   3.281   1.730
 8267SOL    HW225701   0.076   3.125   1.746
 8268SOL     OW25702   2.270   4.328   0.001
 8268SOL    HW125703   2.192   4.278   0.039
 8268SOL    HW225704   2.295   4.402   0.063
 8269SOL     OW25705   5.247   2.472   6.897
 8269SOL    HW125706   5.191   2.550   6.868
 8269SOL    HW225707   5.331   2.507   6.941
 8270SOL     OW25708   2.411   6.118   4.373
 8270SOL    HW125709   2.329   6.140   4.320
 8270SOL    HW225710   2.399   6.149   4.467
 8271SOL     OW25711   0.453   2.241   2.827
 8271SOL    HW125712   0.481   2.262   2.733
 8271SOL    HW225713   0.520   2.180   2.869
 8272SOL     OW25714   3.586   1.198   4.590
 8272SOL    HW125715   3.665   1.245   4.551
 8272SOL    HW225716   3.608   1.166   4.682
 8273SOL     OW25717   2.181   6.685   1.798
 8273SOL    HW125718   2.116   6.610   1.806
 8273SOL    HW225719   2.175   6.743   1.879
 8274SOL     OW25720   5.527   3.440   3.609
 8274SOL    HW125721   5.453   3.485   3.558
 8274SOL    HW225722   5.495   3.353   3.644
 8275SOL     OW25723   6.143   2.571   7.016
 8275SOL    HW125724   6.205   2.493   7.015
 8275SOL    HW225725   6.058   2.546   0.043
 8276SOL     OW25726   1.278   1.654   3.657
 8276SOL    HW125727   1.241   1.691   3.572
 8276SOL    HW225728   1.208   1.600   3.704
 8277SOL     OW25729   0.125   1.176   0.718
 8277SOL    HW125730   0.220   1.191   0.689
 8277SOL    HW225731   0.121   1.097   0.778
 8278SOL     OW25732   0.928   2.636   0.389
 8278SOL    HW125733   0.982   2.718   0.410
 8278SOL    HW225734   0.835   2.648   0.423
 8279SOL     OW25735   0.371   6.498   3.902
 8279SOL    HW125736   0.456   6.474   3.855
 8279SOL    HW225737   0.302   6.527   3.835
 8280SOL     OW25738   3.167   2.557   6.277
 8280SOL    HW125739   3.098   2.493   6.242
 8280SOL    HW225740   3.253   2.508   6.290
 8281SOL     OW25741   3.893   5.081   2.035
 8281SOL    HW125742   3.966   5.114   2.094
 8281SOL    HW225743   3.876   5.147   1.962
 8282SOL     OW25744   6.747   3.187   6.260
 8282SOL    HW125745   6.668   3.178   6.320
 8282SOL    HW225746   6.809   3.109   6.273
 8283SOL     OW25747   2.464   2.686   6.044
 8283SOL    HW125748   2.538   2.625   6.014
 8283SOL    HW225749   2.378   2.655   6.005
 8284SOL     OW25750   6.536   4.843   1.697
 8284SOL    HW125751   6.633   4.851   1.723
 8284SOL    HW225752   6.479   4.857   1.778
 8285SOL     OW25753   3.552   2.886   3.648
 8285SOL    HW125754   3.634   2.936   3.619
 8285SOL    HW225755   3.545   2.890   3.748
 8286SOL     OW25756   0.089   2.964   6.958
 8286SOL    HW125757   0.171   2.912   6.982
 8286SOL    HW225758   0.111   3.031   6.887
 8287SOL     OW25759   1.339   0.061   4.751
 8287SOL    HW125760   1.271   0.059   4.678
 8287SOL    HW225761   1.402   0.138   4.737
 8288SOL     OW25762   2.471   1.429   3.031
 8288SOL    HW125763   2.450   1.476   3.117
 8288SOL    HW225764   2.394   1.370   3.007
 8289SOL     OW25765   0.895   6.633   0.332
 8289SOL    HW125766   0.893   6.656   0.234
 8289SOL    HW225767   0.972   6.680   0.376
 8290SOL     OW25768   6.114   1.563   1.382
 8290SOL    HW125769   6.133   1.551   1.479
 8290SOL    HW225770   6.129   1.476   1.334
 8291SOL     OW25771   4.053   0.657   1.525
 8291SOL    HW125772   4.135   0.642   1.469
 8291SOL    HW225773   3.972   0.632   1.473
 8292SOL     OW25774   2.377   0.827   6.157
 8292SOL    HW125775   2.323   0.744   6.170
 8292SOL    HW225776   2.450   0.809   6.091
 8293SOL     OW25777   6.152   5.451   5.519
 8293SOL    HW125778   6.130   5.405   5.605
 8293SOL    HW225779   6.120   5.394   5.442
 8294SOL     OW25780   6.333   2.743   0.108
 8294SOL    HW125781   6.240   2.708   0.100
 8294SOL    HW225782   6.337   2.836   0.071
 8295SOL     OW25783   5.492   2.231   6.459
 8295SOL    HW125784   5.590   2.219   6.469
 8295SOL    HW225785   5.473   2.278   6.373
 8296SOL     OW25786   0.709   5.221   5.257
 8296SOL    HW125787   0.740   5.133   5.293
 8296SOL    HW225788   0.637   5.258   5.316
 8297SOL     OW25789   1.284   3.507   4.120
 8297SOL    HW125790   1.353   3.456   4.068
 8297SOL    HW225791   1.193   3.481   4.090
 8298SOL     OW25792   4.487   2.349   2.668
 8298SOL    HW125793   4.504   2.440   2.704
 8298SOL    HW225794   4.476   2.353   2.569
 8299SOL     OW25795   5.939   1.184   1.138
 8299SOL    HW125796   5.917   1.149   1.229
 8299SOL    HW225797   5.883   1.265   1.120
 8300SOL     OW25798   1.168   5.517   2.798
 8300SOL    HW125799   1.144   5.614   2.800
 8300SOL    HW225800   1.241   5.499   2.864
 8301SOL     OW25801   3.202   1.224   5.767
 8301SOL    HW125802   3.261   1.292   5.725
 8301SOL    HW225803   3.245   1.187   5.849
 8302SOL     OW25804   6.379   4.818   6.286
 8302SOL    HW125805   6.280   4.824   6.289
 8302SOL    HW225806   6.415   4.805   6.379
 8303SOL     OW25807   0.430   0.051   0.052
 8303SOL    HW125808   0.438   6.970   0.051
 8303SOL    HW225809   0.519   0.091   0.030
 8304SOL     OW25810   6.972   3.463   0.277
 8304SOL    HW125811   6.996   3.366   0.282
 8304SOL    HW225812   6.973   3.492   0.181
 8305SOL     OW25813   3.260   5.715   2.573
 8305SOL    HW125814   3.309   5.720   2.486
 8305SOL    HW225815   3.193   5.641   2.568
 8306SOL     OW25816   1.741   2.034   4.054
 8306SOL    HW125817   1.692   1.955   4.092
 8306SOL    HW225818   1.776   2.010   3.964
 8307SOL     OW25819   3.602   6.358   1.221
 8307SOL    HW125820   3.532   6.403   1.166
 8307SOL    HW225821   3.679   6.421   1.235
 8308SOL     OW25822   2.692   0.922   2.457
 8308SOL    HW125823   2.625   0.932   2.383
 8308SOL    HW225824   2.729   0.829   2.457
 8309SOL     OW25825   5.940   6.265   2.711
 8309SOL    HW125826   5.866   6.317   2.755
 8309SOL    HW225827   5.926   6.167   2.727
 8310SOL     OW25828   5.993   4.834   6.956
 8310SOL    HW125829   6.039   4.904   7.010
 8310SOL    HW225830   5.988   4.863   6.861
 8311SOL     OW25831   6.972   0.867   6.489
 8311SOL    HW125832   7.014   0.785   6.448
 8311SOL    HW225833   0.014   0.945   6.476
 8312SOL     OW25834   4.680   5.916   1.246
 8312SOL    HW125835   4.604   5.959   1.295
 8312SOL    HW225836   4.655   5.907   1.149
 8313SOL     OW25837   4.201   1.939   2.930
 8313SOL    HW125838   4.286   1.979   2.965
 8313SOL    HW225839   4.205   1.840   2.938
 8314SOL     OW25840   6.511   7.016   4.173
 8314SOL    HW125841   6.440   0.003   4.103
 8314SOL    HW225842   6.599   0.024   4.134
 8315SOL     OW25843   5.435   4.500   0.018
 8315SOL    HW125844   5.410   4.591   0.051
 8315SOL    HW225845   5.440   4.437   0.095
 8316SOL     OW25846   2.726   5.555   6.295
 8316SOL    HW125847   2.814   5.560   6.342
 8316SOL    HW225848   2.655   5.596   6.352
 8317SOL     OW25849   2.069   4.961   1.517
 8317SOL    HW125850   2.023   5.011   1.591
 8317SOL    HW225851   2.152   5.009   1.490
 8318SOL     OW25852   3.021   1.034   5.631
 8318SOL    HW125853   3.042   1.076   5.719
 8318SOL    HW225854   3.099   1.046   5.569
 8319SOL     OW25855   2.426   0.557   5.338
 8319SOL    HW125856   2.476   0.615   5.401
 8319SOL    HW225857   2.438   0.590   5.244
 8320SOL     OW25858   3.797   5.045   0.947
 8320SOL    HW125859   3.891   5.026   0.919
 8320SOL    HW225860   3.796   5.121   1.012
 8321SOL     OW25861   6.847   1.178   1.966
 8321SOL    HW125862   6.859   1.213   1.874
 8321SOL    HW225863   6.766   1.119   1.969
 8322SOL     OW25864   5.397   6.519   0.850
 8322SOL    HW125865   5.437   6.611   0.855
 8322SOL    HW225866   5.471   6.451   0.849
 8323SOL     OW25867   1.216   0.716   1.398
 8323SOL    HW125868   1.168   0.774   1.332
 8323SOL    HW225869   1.283   0.659   1.350
 8324SOL     OW25870   6.983   0.822   2.925
 8324SOL    HW125871   6.942   0.850   2.838
 8324SOL    HW225872   6.977   0.723   2.934
 8325SOL     OW25873   3.407   3.845   5.013
 8325SOL    HW125874   3.323   3.899   5.020
 8325SOL    HW225875   3.387   3.757   4.969
 8326SOL     OW25876   4.187   2.964   5.609
 8326SOL    HW125877   4.136   3.048   5.592
 8326SOL    HW225878   4.273   2.987   5.655
 8327SOL     OW25879   4.842   2.570   5.997
 8327SOL    HW125880   4.779   2.614   5.934
 8327SOL    HW225881   4.801   2.566   6.088
 8328SOL     OW25882   1.977   2.477   3.894
 8328SOL    HW125883   2.012   2.394   3.938
 8328SOL    HW225884   1.895   2.508   3.941
 8329SOL     OW25885   1.343   3.901   5.035
 8329SOL    HW125886   1.337   3.997   5.010
 8329SOL    HW225887   1.317   3.890   5.131
 8330SOL     OW25888   2.651   6.821   6.649
 8330SOL    HW125889   2.626   6.821   6.553
 8330SOL    HW225890   2.746   6.849   6.660
 8331SOL     OW25891   2.371   6.962   0.866
 8331SOL    HW125892   2.354   6.905   0.947
 8331SOL    HW225893   2.317   6.929   0.789
 8332SOL     OW25894   4.786   5.959   3.055
 8332SOL    HW125895   4.745   6.037   3.009
 8332SOL    HW225896   4.885   5.964   3.048
 8333SOL     OW25897   2.142   4.591   5.383
 8333SOL    HW125898   2.234   4.552   5.385
 8333SOL    HW225899   2.102   4.577   5.293
 8334SOL     OW25900   6.751   0.188   3.003
 8334SOL    HW125901   6.774   0.174   3.100
 8334SOL    HW225902   6.818   0.141   2.946
 8335SOL     OW25903   6.189   6.126   4.932
 8335SOL    HW125904   6.205   6.204   4.873
 8335SOL    HW225905   6.252   6.052   4.907
 8336SOL     OW25906   1.500   1.635   2.593
 8336SOL    HW125907   1.435   1.578   2.542
 8336SOL    HW225908   1.456   1.719   2.622
 8337SOL     OW25909   6.304   6.475   2.294
 8337SOL    HW125910   6.259   6.564   2.298
 8337SOL    HW225911   6.403   6.488   2.284
 8338SOL     OW25912   2.578   5.686   0.768
 8338SOL    HW125913   2.657   5.727   0.722
 8338SOL    HW225914   2.593   5.689   0.867
 8339SOL     OW25915   5.278   1.235   3.404
 8339SOL    HW125916   5.310   1.281   3.321
 8339SOL    HW225917   5.261   1.303   3.475
 8340SOL     OW25918   4.915   4.101   1.637
 8340SOL    HW125919   4.915   4.003   1.617
 8340SOL    HW225920   4.988   4.122   1.702
 8341SOL     OW25921   1.825   0.345   0.720
 8341SOL    HW125922   1.818   0.350   0.819
 8341SOL    HW225923   1.791   0.430   0.680
 8342SOL     OW25924   5.544   0.405   1.443
 8342SOL    HW125925   5.512   0.412   1.348
 8342SOL    HW225926   5.548   0.496   1.484
 8343SOL     OW25927   6.823   4.553   4.892
 8343SOL    HW125928   6.811   4.611   4.812
 8343SOL    HW225929   6.920   4.536   4.907
 8344SOL     OW25930   3.625   6.989   4.763
 8344SOL    HW125931   3.652   6.893   4.774
 8344SOL    HW225932   3.640   7.016   4.668
 8345SOL     OW25933   5.570   1.517   2.927
 8345SOL    HW125934   5.655   1.518   2.981
 8345SOL    HW225935   5.580   1.578   2.849
 8346SOL     OW25936   3.796   5.307   1.882
 8346SOL    HW125937   3.884   5.349   1.906
 8346SOL    HW225938   3.770   5.333   1.789
 8347SOL     OW25939   2.909   5.248   4.648
 8347SOL    HW125940   2.810   5.254   4.662
 8347SOL    HW225941   2.938   5.153   4.655
 8348SOL     OW25942   2.426   7.009   0.476
 8348SOL    HW125943   2.377   6.922   0.466
 8348SOL    HW225944   2.385   0.059   0.416
 8349SOL     OW25945   5.921   4.765   2.812
 8349SOL    HW125946   5.825   4.793   2.807
 8349SOL    HW225947   5.928   4.667   2.795
 8350SOL     OW25948   6.257   0.932   5.166
 8350SOL    HW125949   6.320   0.857   5.186
 8350SOL    HW225950   6.165   0.907   5.197
 8351SOL     OW25951   2.515   6.941   2.339
 8351SOL    HW125952   2.479   6.906   2.252
 8351SOL    HW225953   2.599   6.892   2.362
 8352SOL     OW25954   5.879   6.170   2.165
 8352SOL    HW125955   5.935   6.235   2.217
 8352SOL    HW225956   5.919   6.078   2.173
 8353SOL     OW25957   2.246   3.808   1.890
 8353SOL    HW125958   2.248   3.730   1.953
 8353SOL    HW225959   2.257   3.776   1.796
 8354SOL     OW25960   3.173   0.247   0.637
 8354SOL    HW125961   3.152   0.234   0.734
 8354SOL    HW225962   3.262   0.207   0.616
 8355SOL     OW25963   2.943   1.950   0.709
 8355SOL    HW125964   2.846   1.970   0.722
 8355SOL    HW225965   2.954   1.852   0.693
 8356SOL     OW25966   2.921   4.763   0.592
 8356SOL    HW125967   2.924   4.862   0.606
 8356SOL    HW225968   2.986   4.738   0.520
 8357SOL     OW25969   3.813   6.628   2.525
 8357SOL    HW125970   3.775   6.637   2.617
 8357SOL    HW225971   3.760   6.560   2.474
 8358SOL     OW25972   2.846   1.867   5.104
 8358SOL    HW125973   2.852   1.826   5.195
 8358SOL    HW225974   2.891   1.956   5.104
 8359SOL     OW25975   3.855   4.954   4.352
 8359SOL    HW125976   3.903   4.897   4.418
 8359SOL    HW225977   3.885   5.049   4.363
 8360SOL     OW25978   4.563   0.920   3.440
 8360SOL    HW125979   4.483   0.861   3.431
 8360SOL    HW225980   4.606   0.932   3.350
 8361SOL     OW25981   1.500   0.368   3.069
 8361SOL    HW125982   1.540   0.446   3.022
 8361SOL    HW225983   1.403   0.361   3.043
 8362SOL     OW25984   3.362   2.857   1.180
 8362SOL    HW125985   3.269   2.832   1.209
 8362SOL    HW225986   3.357   2.913   1.097
 8363SOL     OW25987   0.551   3.303   2.006
 8363SOL    HW125988   0.525   3.314   2.102
 8363SOL    HW225989   0.648   3.328   1.995
 8364SOL     OW25990   0.094   4.854   5.447
 8364SOL    HW125991   0.092   4.932   5.509
 8364SOL    HW225992   0.167   4.792   5.473
 8365SOL     OW25993   1.897   3.924   5.879
 8365SOL    HW125994   1.877   3.867   5.799
 8365SOL    HW225995   1.968   3.880   5.934
 8366SOL     OW25996   2.655   6.565   2.022
 8366SOL    HW125997   2.644   6.660   1.991
 8366SOL    HW225998   2.604   6.504   1.961
 8367SOL     OW25999   5.166   5.582   3.760
 8367SOL    HW126000   5.206   5.521   3.691
 8367SOL    HW226001   5.078   5.617   3.726
 8368SOL     OW26002   2.785   5.407   6.057
 8368SOL    HW126003   2.747   5.477   6.117
 8368SOL    HW226004   2.863   5.444   6.006
 8369SOL     OW26005   2.071   1.208   1.528
 8369SOL    HW126006   2.085   1.128   1.586
 8369SOL    HW226007   2.159   1.250   1.508
 8370SOL     OW26008   2.498   1.201   0.756
 8370SOL    HW126009   2.439   1.262   0.703
 8370SOL    HW226010   2.527   1.125   0.699
 8371SOL     OW26011   1.418   2.415   0.176
 8371SOL    HW126012   1.329   2.437   0.137
 8371SOL    HW226013   1.483   2.394   0.102
 8372SOL     OW26014   5.637   0.661   0.076
 8372SOL    HW126015   5.671   0.734   0.135
 8372SOL    HW226016   5.646   0.573   0.123
 8373SOL     OW26017   1.909   6.919   3.913
 8373SOL    HW126018   1.810   6.909   3.920
 8373SOL    HW226019   1.933   6.964   3.827
 8374SOL     OW26020   6.872   1.945   5.502
 8374SOL    HW126021   6.841   2.033   5.465
 8374SOL    HW226022   6.867   1.947   5.601
 8375SOL     OW26023   3.977   0.777   6.393
 8375SOL    HW126024   3.993   0.694   6.447
 8375SOL    HW226025   4.009   0.762   6.300
 8376SOL     OW26026   4.532   6.925   3.927
 8376SOL    HW126027   4.627   6.924   3.961
 8376SOL    HW226028   4.495   7.017   3.933
 8377SOL     OW26029   4.372   5.078   0.322
 8377SOL    HW126030   4.276   5.104   0.330
 8377SOL    HW226031   4.384   5.017   0.244
 8378SOL     OW26032   5.224   3.116   3.597
 8378SOL    HW126033   5.211   3.152   3.505
 8378SOL    HW226034   5.232   3.016   3.593
 8379SOL     OW26035   5.369   3.064   2.767
 8379SOL    HW126036   5.344   2.976   2.727
 8379SOL    HW226037   5.404   3.125   2.695
 8380SOL     OW26038   5.714   1.323   4.141
 8380SOL    HW126039   5.710   1.260   4.219
 8380SOL    HW226040   5.781   1.395   4.160
 8381SOL     OW26041   1.814   5.419   4.854
 8381SOL    HW126042   1.863   5.459   4.777
 8381SOL    HW226043   1.717   5.409   4.831
 8382SOL     OW26044   0.866   4.813   2.114
 8382SOL    HW126045   0.820   4.803   2.202
 8382SOL    HW226046   0.858   4.908   2.082
 8383SOL     OW26047   2.968   1.362   5.623
 8383SOL    HW126048   3.030   1.356   5.701
 8383SOL    HW226049   3.005   1.309   5.547
 8384SOL     OW26050   0.542   0.163   1.312
 8384SOL    HW126051   0.446   0.155   1.284
 8384SOL    HW226052   0.586   0.235   1.258
 8385SOL     OW26053   4.029   1.741   1.237
 8385SOL    HW126054   4.049   1.816   1.300
 8385SOL    HW226055   3.998   1.778   1.149
 8386SOL     OW26056   0.144   2.668   1.914
 8386SOL    HW126057   0.207   2.712   1.978
 8386SOL    HW226058   0.191   2.594   1.867
 8387SOL     OW26059   0.675   1.924   2.117
 8387SOL    HW126060   0.753   1.907   2.056
 8387SOL    HW226061   0.644   2.019   2.104
 8388SOL     OW26062   1.409   6.707   2.405
 8388SOL    HW126063   1.338   6.778   2.402
 8388SOL    HW226064   1.414   6.670   2.498
 8389SOL     OW26065   6.616   2.960   3.740
 8389SOL    HW126066   6.557   3.032   3.702
 8389SOL    HW226067   6.581   2.933   3.829
 8390SOL     OW26068   6.042   2.253   6.328
 8390SOL    HW126069   6.105   2.329   6.340
 8390SOL    HW226070   6.086   2.168   6.357
 8391SOL     OW26071   6.293   0.764   0.833
 8391SOL    HW126072   6.329   0.682   0.788
 8391SOL    HW226073   6.322   0.765   0.929
 8392SOL     OW26074   3.788   2.999   4.746
 8392SOL    HW126075   3.733   2.972   4.825
 8392SOL    HW226076   3.877   3.032   4.777
 8393SOL     OW26077   5.709   0.249   0.645
 8393SOL    HW126078   5.706   0.221   0.549
 8393SOL    HW226079   5.674   0.343   0.654
 8394SOL     OW26080   4.834   3.266   2.993
 8394SOL    HW126081   4.838   3.365   3.008
 8394SOL    HW226082   4.871   3.245   2.902
 8395SOL     OW26083   1.959   1.379   5.971
 8395SOL    HW126084   1.976   1.281   5.958
 8395SOL    HW226085   1.993   1.429   5.892
 8396SOL     OW26086   4.766   5.016   4.113
 8396SOL    HW126087   4.801   5.109   4.098
 8396SOL    HW226088   4.675   5.008   4.073
 8397SOL     OW26089   5.411   6.589   2.792
 8397SOL    HW126090   5.482   6.659   2.796
 8397SOL    HW226091   5.401   6.547   2.883
 8398SOL     OW26092   6.026   1.790   6.765
 8398SOL    HW126093   5.985   1.855   6.701
 8398SOL    HW226094   5.955   1.732   6.804
 8399SOL     OW26095   0.561   4.034   2.893
 8399SOL    HW126096   0.652   4.059   2.928
 8399SOL    HW226097   0.506   3.996   2.968
 8400SOL     OW26098   1.204   0.874   4.286
 8400SOL    HW126099   1.279   0.819   4.321
 8400SOL    HW226100   1.129   0.873   4.353
 8401SOL     OW26101   1.329   0.261   6.224
 8401SOL    HW126102   1.242   0.310   6.214
 8401SOL    HW226103   1.405   0.325   6.215
 8402SOL     OW26104   2.584   0.698   6.032
 8402SOL    HW126105   2.586   0.667   5.937
 8402SOL    HW226106   2.636   0.635   6.090
 8403SOL     OW26107   5.758   4.328   6.233
 8403SOL    HW126108   5.849   4.336   6.191
 8403SOL    HW226109   5.768   4.322   6.332
 8404SOL     OW26110   1.018   1.093   0.046
 8404SOL    HW126111   0.947   1.071   6.998
 8404SOL    HW226112   1.073   1.170   0.012
 8405SOL     OW26113   3.640   6.397   5.729
 8405SOL    HW126114   3.609   6.329   5.662
 8405SOL    HW226115   3.739   6.407   5.722
 8406SOL     OW26116   6.417   1.296   5.973
 8406SOL    HW126117   6.503   1.263   5.936
 8406SOL    HW226118   6.404   1.392   5.948
 8407SOL     OW26119   4.878   0.682   5.132
 8407SOL    HW126120   4.911   0.775   5.112
 8407SOL    HW226121   4.778   0.683   5.137
 8408SOL     OW26122   3.795   1.996   1.555
 8408SOL    HW126123   3.834   2.037   1.637
 8408SOL    HW226124   3.704   2.033   1.539
 8409SOL     OW26125   4.650   2.656   2.005
 8409SOL    HW126126   4.732   2.675   2.060
 8409SOL    HW226127   4.626   2.738   1.953
 8410SOL     OW26128   0.045   2.093   1.713
 8410SOL    HW126129   0.140   2.116   1.689
 8410SOL    HW226130   7.001   2.144   1.654
 8411SOL     OW26131   0.864   5.597   1.339
 8411SOL    HW126132   0.835   5.668   1.275
 8411SOL    HW226133   0.867   5.635   1.431
 8412SOL     OW26134   2.821   2.184   6.983
 8412SOL    HW126135   2.768   2.100   6.991
 8412SOL    HW226136   2.912   2.163   6.948
 8413SOL     OW26137   3.757   5.800   5.127
 8413SOL    HW126138   3.701   5.807   5.044
 8413SOL    HW226139   3.843   5.756   5.105
 8414SOL     OW26140   1.522   0.111   0.978
 8414SOL    HW126141   1.600   0.109   1.040
 8414SOL    HW226142   1.527   0.034   0.915
 8415SOL     OW26143   3.825   1.390   6.295
 8415SOL    HW126144   3.888   1.324   6.253
 8415SOL    HW226145   3.873   1.440   6.367
 8416SOL     OW26146   0.307   2.248   4.876
 8416SOL    HW126147   0.344   2.323   4.821
 8416SOL    HW226148   0.207   2.256   4.881
 8417SOL     OW26149   1.854   2.896   6.199
 8417SOL    HW126150   1.939   2.844   6.212
 8417SOL    HW226151   1.861   2.951   6.115
 8418SOL     OW26152   6.700   6.205   2.455
 8418SOL    HW126153   6.705   6.281   2.520
 8418SOL    HW226154   6.616   6.213   2.401
 8419SOL     OW26155   3.802   1.457   3.923
 8419SOL    HW126156   3.812   1.556   3.923
 8419SOL    HW226157   3.732   1.430   3.856
 8420SOL     OW26158   4.051   1.259   2.343
 8420SOL    HW126159   3.957   1.289   2.363
 8420SOL    HW226160   4.063   1.252   2.244
 8421SOL     OW26161   4.596   0.240   6.595
 8421SOL    HW126162   4.518   0.263   6.536
 8421SOL    HW226163   4.583   0.284   6.684
 8422SOL     OW26164   5.342   1.598   4.474
 8422SOL    HW126165   5.418   1.608   4.538
 8422SOL    HW226166   5.363   1.526   4.408
 8423SOL     OW26167   6.447   5.599   0.373
 8423SOL    HW126168   6.501   5.608   0.289
 8423SOL    HW226169   6.403   5.686   0.395
 8424SOL     OW26170   2.566   0.010   5.247
 8424SOL    HW126171   2.473   0.040   5.265
 8424SOL    HW226172   2.600   6.976   5.325
 8425SOL     OW26173   3.371   3.014   1.830
 8425SOL    HW126174   3.340   2.953   1.757
 8425SOL    HW226175   3.310   3.008   1.908
 8426SOL     OW26176   3.645   3.383   1.808
 8426SOL    HW126177   3.646   3.290   1.843
 8426SOL    HW226178   3.670   3.447   1.881
 8427SOL     OW26179   3.600   4.078   2.613
 8427SOL    HW126180   3.691   4.051   2.646
 8427SOL    HW226181   3.555   4.133   2.682
 8428SOL     OW26182   4.921   1.133   1.789
 8428SOL    HW126183   4.989   1.196   1.827
 8428SOL    HW226184   4.894   1.164   1.698
 8429SOL     OW26185   3.174   5.981   5.573
 8429SOL    HW126186   3.205   6.063   5.621
 8429SOL    HW226187   3.218   5.977   5.483
 8430SOL     OW26188   5.086   6.718   5.552
 8430SOL    HW126189   5.108   6.779   5.476
 8430SOL    HW226190   5.014   6.760   5.608
 8431SOL     OW26191   2.647   3.103   6.586
 8431SOL    HW126192   2.582   3.049   6.532
 8431SOL    HW226193   2.712   3.147   6.524
 8432SOL     OW26194   6.608   5.077   5.614
 8432SOL    HW126195   6.597   4.978   5.618
 8432SOL    HW226196   6.681   5.105   5.676
 8433SOL     OW26197   4.539   1.839   0.677
 8433SOL    HW126198   4.614   1.844   0.611
 8433SOL    HW226199   4.460   1.793   0.635
 8434SOL     OW26200   2.692   6.266   4.325
 8434SOL    HW126201   2.687   6.170   4.299
 8434SOL    HW226202   2.786   6.288   4.354
 8435SOL     OW26203   6.628   1.436   3.516
 8435SOL    HW126204   6.713   1.391   3.541
 8435SOL    HW226205   6.577   1.378   3.453
 8436SOL     OW26206   2.589   4.862   2.567
 8436SOL    HW126207   2.656   4.787   2.570
 8436SOL    HW226208   2.545   4.862   2.477
 8437SOL     OW26209   1.589   5.597   0.271
 8437SOL    HW126210   1.491   5.611   0.285
 8437SOL    HW226211   1.636   5.685   0.282
 8438SOL     OW26212   0.989   4.542   2.588
 8438SOL    HW126213   0.902   4.497   2.564
 8438SOL    HW226214   0.972   4.613   2.657
 8439SOL     OW26215   5.714   4.336   2.654
 8439SOL    HW126216   5.772   4.254   2.656
 8439SOL    HW226217   5.678   4.353   2.746
 8440SOL     OW26218   1.398   1.893   2.654
 8440SOL    HW126219   1.325   1.838   2.614
 8440SOL    HW226220   1.395   1.986   2.616
 8441SOL     OW26221   6.913   2.900   6.322
 8441SOL    HW126222   6.887   2.816   6.369
 8441SOL    HW226223   6.994   2.884   6.267
 8442SOL     OW26224   3.438   2.475   6.339
 8442SOL    HW126225   3.422   2.427   6.425
 8442SOL    HW226226   3.533   2.460   6.310
 8443SOL     OW26227   2.148   3.991   2.971
 8443SOL    HW126228   2.147   3.933   2.889
 8443SOL    HW226229   2.077   4.062   2.963
 8444SOL     OW26230   5.188   5.690   5.115
 8444SOL    HW126231   5.165   5.781   5.081
 8444SOL    HW226232   5.192   5.692   5.215
 8445SOL     OW26233   4.786   6.617   6.311
 8445SOL    HW126234   4.792   6.687   6.383
 8445SOL    HW226235   4.720   6.547   6.339
 8446SOL     OW26236   6.471   6.191   4.454
 8446SOL    HW126237   6.473   6.285   4.486
 8446SOL    HW226238   6.556   6.170   4.406
 8447SOL     OW26239   3.656   2.102   3.801
 8447SOL    HW126240   3.663   2.007   3.832
 8447SOL    HW226241   3.584   2.149   3.852
 8448SOL     OW26242   3.453   6.815   2.797
 8448SOL    HW126243   3.440   6.790   2.893
 8448SOL    HW226244   3.518   6.891   2.791
 8449SOL     OW26245   0.943   2.603   3.705
 8449SOL    HW126246   0.947   2.685   3.762
 8449SOL    HW226247   1.033   2.559   3.703
 8450SOL     OW26248   6.788   1.600   1.115
 8450SOL    HW126249   6.705   1.546   1.112
 8450SOL    HW226250   6.772   1.688   1.069
 8451SOL     OW26251   4.566   2.813   0.274
 8451SOL    HW126252   4.626   2.754   0.221
 8451SOL    HW226253   4.552   2.899   0.225
 8452SOL     OW26254   5.171   0.669   5.816
 8452SOL    HW126255   5.173   0.604   5.740
 8452SOL    HW226256   5.112   0.746   5.793
 8453SOL     OW26257   0.115   1.007   0.374
 8453SOL    HW126258   0.190   0.945   0.348
 8453SOL    HW226259   0.151   1.098   0.390
 8454SOL     OW26260   6.468   5.903   0.161
 8454SOL    HW126261   6.436   5.950   0.079
 8454SOL    HW226262   6.390   5.866   0.211
 8455SOL     OW26263   6.701   0.815   2.982
 8455SOL    HW126264   6.798   0.835   2.984
 8455SOL    HW226265   6.649   0.900   2.992
 8456SOL     OW26266   6.105   0.211   2.196
 8456SOL    HW126267   6.198   0.174   2.205
 8456SOL    HW226268   6.067   0.226   2.287
 8457SOL     OW26269   6.186   6.803   4.709
 8457SOL    HW126270   6.112   6.739   4.689
 8457SOL    HW226271   6.171   6.888   4.658
 8458SOL     OW26272   1.536   6.528   0.829
 8458SOL    HW126273   1.598   6.542   0.906
 8458SOL    HW226274   1.468   6.601   0.828
 8459SOL     OW26275   0.914   6.541   3.684
 8459SOL    HW126276   0.837   6.481   3.706
 8459SOL    HW226277   0.983   6.535   3.756
 8460SOL     OW26278   4.079   3.362   4.052
 8460SOL    HW126279   4.048   3.301   4.126
 8460SOL    HW226280   4.151   3.422   4.086
 8461SOL     OW26281   6.343   3.858   3.845
 8461SOL    HW126282   6.408   3.919   3.892
 8461SOL    HW226283   6.261   3.846   3.901
 8462SOL     OW26284   2.610   2.328   2.119
 8462SOL    HW126285   2.706   2.310   2.095
 8462SOL    HW226286   2.564   2.370   2.041
 8463SOL     OW26287   6.524   0.247   1.903
 8463SOL    HW126288   6.594   0.314   1.881
 8463SOL    HW226289   6.567   0.160   1.927
 8464SOL     OW26290   6.528   1.468   4.741
 8464SOL    HW126291   6.503   1.424   4.655
 8464SOL    HW226292   6.594   1.412   4.790
 8465SOL     OW26293   2.013   0.697   0.443
 8465SOL    HW126294   1.944   0.755   0.488
 8465SOL    HW226295   1.972   0.656   0.361
 8466SOL     OW26296   1.305   0.243   3.691
 8466SOL    HW126297   1.307   0.329   3.640
 8466SOL    HW226298   1.218   0.235   3.740
 8467SOL     OW26299   3.798   5.145   1.325
 8467SOL    HW126300   3.796   5.176   1.230
 8467SOL    HW226301   3.759   5.215   1.384
 8468SOL     OW26302   4.384   2.682   6.984
 8468SOL    HW126303   4.285   2.681   6.965
 8468SOL    HW226304   4.434   2.666   6.899
 8469SOL     OW26305   5.026   2.412   5.334
 8469SOL    HW126306   4.949   2.445   5.280
 8469SOL    HW226307   5.001   2.328   5.381
 8470SOL     OW26308   1.935   2.678   6.815
 8470SOL    HW126309   1.916   2.581   6.801
 8470SOL    HW226310   2.024   2.689   6.860
 8471SOL     OW26311   3.534   1.574   6.023
 8471SOL    HW126312   3.495   1.512   6.091
 8471SOL    HW226313   3.474   1.654   6.014
 8472SOL     OW26314   1.432   5.917   2.389
 8472SOL    HW126315   1.347   5.938   2.439
 8472SOL    HW226316   1.444   5.982   2.315
 8473SOL     OW26317   6.549   5.474   6.621
 8473SOL    HW126318   6.621   5.539   6.645
 8473SOL    HW226319   6.590   5.391   6.585
 8474SOL     OW26320   4.309   5.936   6.860
 8474SOL    HW126321   4.338   5.931   6.764
 8474SOL    HW226322   4.329   5.849   6.906
 8475SOL     OW26323   5.040   1.452   2.837
 8475SOL    HW126324   5.115   1.472   2.775
 8475SOL    HW226325   4.957   1.497   2.804
 8476SOL     OW26326   5.256   1.113   3.111
 8476SOL    HW126327   5.198   1.194   3.121
 8476SOL    HW226328   5.203   1.031   3.134
 8477SOL     OW26329   2.594   0.996   3.548
 8477SOL    HW126330   2.642   1.081   3.528
 8477SOL    HW226331   2.656   0.931   3.591
 8478SOL     OW26332   1.178   1.706   6.268
 8478SOL    HW126333   1.151   1.616   6.234
 8478SOL    HW226334   1.241   1.748   6.202
 8479SOL     OW26335   5.531   6.682   2.073
 8479SOL    HW126336   5.551   6.595   2.118
 8479SOL    HW226337   5.525   6.668   1.974
 8480SOL     OW26338   2.391   1.169   2.572
 8480SOL    HW126339   2.340   1.255   2.577
 8480SOL    HW226340   2.328   1.092   2.587
 8481SOL     OW26341   4.124   0.196   5.346
 8481SOL    HW126342   4.138   0.294   5.357
 8481SOL    HW226343   4.213   0.150   5.339
 8482SOL     OW26344   6.221   0.516   1.249
 8482SOL    HW126345   6.226   0.416   1.259
 8482SOL    HW226346   6.268   0.560   1.325
 8483SOL     OW26347   4.790   6.169   1.388
 8483SOL    HW126348   4.819   6.206   1.477
 8483SOL    HW226349   4.734   6.237   1.341
 8484SOL     OW26350   6.335   4.401   6.100
 8484SOL    HW126351   6.338   4.359   6.010
 8484SOL    HW226352   6.363   4.496   6.094
 8485SOL     OW26353   2.255   3.181   6.685
 8485SOL    HW126354   2.281   3.268   6.644
 8485SOL    HW226355   2.247   3.111   6.614
 8486SOL     OW26356   4.268   0.146   2.105
 8486SOL    HW126357   4.306   0.221   2.160
 8486SOL    HW226358   4.172   0.166   2.085
 8487SOL     OW26359   4.235   0.434   0.872
 8487SOL    HW126360   4.281   0.346   0.887
 8487SOL    HW226361   4.291   0.508   0.910
 8488SOL     OW26362   0.213   4.454   6.202
 8488SOL    HW126363   0.181   4.359   6.196
 8488SOL    HW226364   0.139   4.511   6.236
 8489SOL     OW26365   3.233   0.053   3.498
 8489SOL    HW126366   3.312   0.004   3.535
 8489SOL    HW226367   3.262   0.105   3.418
 8490SOL     OW26368   3.793   4.912   2.484
 8490SOL    HW126369   3.729   4.878   2.415
 8490SOL    HW226370   3.822   5.005   2.459
 8491SOL     OW26371   0.315   0.871   1.194
 8491SOL    HW126372   0.270   0.782   1.188
 8491SOL    HW226373   0.297   0.910   1.284
 8492SOL     OW26374   6.028   4.148   4.576
 8492SOL    HW126375   5.965   4.166   4.500
 8492SOL    HW226376   6.122   4.155   4.543
 8493SOL     OW26377   4.108   2.950   0.497
 8493SOL    HW126378   4.021   2.998   0.484
 8493SOL    HW226379   4.129   2.943   0.594
 8494SOL     OW26380   3.174   6.051   6.811
 8494SOL    HW126381   3.117   6.013   6.739
 8494SOL    HW226382   3.271   6.041   6.786
 8495SOL     OW26383   0.133   3.473   6.353
 8495SOL    HW126384   0.140   3.392   6.295
 8495SOL    HW226385   0.222   3.491   6.396
 8496SOL     OW26386   1.491   2.005   4.615
 8496SOL    HW126387   1.459   1.930   4.559
 8496SOL    HW226388   1.499   1.975   4.710
 8497SOL     OW26389   5.428   3.704   4.217
 8497SOL    HW126390   5.453   3.698   4.120
 8497SOL    HW226391   5.328   3.703   4.226
 8498SOL     OW26392   6.610   1.004   1.957
 8498SOL    HW126393   6.544   0.995   1.882
 8498SOL    HW226394   6.573   1.068   2.025
 8499SOL     OW26395   6.768   4.187   0.879
 8499SOL    HW126396   6.756   4.199   0.781
 8499SOL    HW226397   6.860   4.214   0.905
 8500SOL     OW26398   1.830   0.693   5.041
 8500SOL    HW126399   1.793   0.612   4.996
 8500SOL    HW226400   1.765   0.727   5.109
 8501SOL     OW26401   3.030   3.429   6.454
 8501SOL    HW126402   3.059   3.449   6.360
 8501SOL    HW226403   2.931   3.437   6.460
 8502SOL     OW26404   0.300   6.523   1.209
 8502SOL    HW126405   0.332   6.518   1.115
 8502SOL    HW226406   0.348   6.455   1.265
 8503SOL     OW26407   3.725   5.800   3.252
 8503SOL    HW126408   3.806   5.795   3.194
 8503SOL    HW226409   3.695   5.708   3.276
 8504SOL     OW26410   2.035   4.961   3.014
 8504SOL    HW126411   2.125   4.973   2.972
 8504SOL    HW226412   1.978   4.902   2.956
 8505SOL     OW26413   4.064   1.935   2.512
 8505SOL    HW126414   3.983   1.909   2.460
 8505SOL    HW226415   4.045   2.018   2.564
 8506SOL     OW26416   0.570   5.258   6.974
 8506SOL    HW126417   0.479   5.230   6.945
 8506SOL    HW226418   0.613   5.183   0.006
 8507SOL     OW26419   2.469   0.407   4.159
 8507SOL    HW126420   2.568   0.409   4.155
 8507SOL    HW226421   2.440   0.380   4.251
 8508SOL     OW26422   1.050   3.531   6.178
 8508SOL    HW126423   1.150   3.532   6.168
 8508SOL    HW226424   1.009   3.503   6.092
 8509SOL     OW26425   6.793   2.917   4.474
 8509SOL    HW126426   6.803   2.850   4.401
 8509SOL    HW226427   6.811   3.009   4.438
 8510SOL     OW26428   5.325   6.453   3.052
 8510SOL    HW126429   5.383   6.373   3.035
 8510SOL    HW226430   5.320   6.470   3.151
 8511SOL     OW26431   6.748   5.351   0.865
 8511SOL    HW126432   6.736   5.324   0.961
 8511SOL    HW226433   6.811   5.287   0.821
 8512SOL     OW26434   4.015   2.965   0.937
 8512SOL    HW126435   3.917   2.978   0.918
 8512SOL    HW226436   4.026   2.907   1.017
 8513SOL     OW26437   0.979   3.488   0.597
 8513SOL    HW126438   1.079   3.479   0.597
 8513SOL    HW226439   0.951   3.541   0.677
 8514SOL     OW26440   2.143   3.141   5.124
 8514SOL    HW126441   2.164   3.117   5.219
 8514SOL    HW226442   2.216   3.109   5.064
 8515SOL     OW26443   3.023   1.288   0.501
 8515SOL    HW126444   2.928   1.313   0.523
 8515SOL    HW226445   3.081   1.368   0.510
 8516SOL     OW26446   6.888   3.653   5.544
 8516SOL    HW126447   6.871   3.564   5.502
 8516SOL    HW226448   6.955   3.704   5.490
 8517SOL     OW26449   1.292   2.278   5.544
 8517SOL    HW126450   1.268   2.229   5.460
 8517SOL    HW226451   1.221   2.345   5.564
 8518SOL     OW26452   5.414   5.241   0.338
 8518SOL    HW126453   5.434   5.301   0.260
 8518SOL    HW226454   5.500   5.211   0.380
 8519SOL     OW26455   1.379   3.903   0.962
 8519SOL    HW126456   1.426   3.924   1.048
 8519SOL    HW226457   1.401   3.810   0.934
 8520SOL     OW26458   3.403   3.895   6.024
 8520SOL    HW126459   3.361   3.820   5.973
 8520SOL    HW226460   3.424   3.970   5.960
 8521SOL     OW26461   1.999   0.177   4.814
 8521SOL    HW126462   2.057   0.238   4.760
 8521SOL    HW226463   1.999   0.206   4.909
 8522SOL     OW26464   0.380   0.979   0.265
 8522SOL    HW126465   0.438   0.902   0.238
 8522SOL    HW226466   0.324   1.007   0.187
 8523SOL     OW26467   4.048   1.901   1.961
 8523SOL    HW126468   4.087   1.866   2.047
 8523SOL    HW226469   3.955   1.864   1.950
 8524SOL     OW26470   2.537   6.105   5.223
 8524SOL    HW126471   2.446   6.085   5.260
 8524SOL    HW226472   2.596   6.026   5.236
 8525SOL     OW26473   6.222   2.768   3.238
 8525SOL    HW126474   6.230   2.776   3.338
 8525SOL    HW226475   6.301   2.719   3.202
 8526SOL     OW26476   0.757   4.667   6.159
 8526SOL    HW126477   0.709   4.629   6.080
 8526SOL    HW226478   0.855   4.653   6.149
 8527SOL     OW26479   1.542   0.676   6.355
 8527SOL    HW126480   1.591   0.700   6.438
 8527SOL    HW226481   1.526   0.759   6.301
 8528SOL     OW26482   5.762   6.835   0.234
 8528SOL    HW126483   5.798   6.921   0.196
 8528SOL    HW226484   5.796   6.824   0.327
 8529SOL     OW26485   0.897   6.249   6.746
 8529SOL    HW126486   0.833   6.287   6.679
 8529SOL    HW226487   0.986   6.236   6.703
 8530SOL     OW26488   3.629   4.156   3.118
 8530SOL    HW126489   3.659   4.113   3.203
 8530SOL    HW226490   3.576   4.238   3.138
 8531SOL     OW26491   6.203   5.833   3.346
 8531SOL    HW126492   6.295   5.853   3.378
 8531SOL    HW226493   6.206   5.762   3.276
 8532SOL     OW26494   3.632   5.538   0.183
 8532SOL    HW126495   3.654   5.451   0.226
 8532SOL    HW226496   3.646   5.612   0.249
 8533SOL     OW26497   2.525   5.684   5.341
 8533SOL    HW126498   2.550   5.599   5.295
 8533SOL    HW226499   2.429   5.680   5.370
 8534SOL     OW26500   2.077   3.319   2.057
 8534SOL    HW126501   2.139   3.274   2.121
 8534SOL    HW226502   2.119   3.403   2.023
 8535SOL     OW26503   5.954   6.555   1.792
 8535SOL    HW126504   5.884   6.577   1.724
 8535SOL    HW226505   5.987   6.639   1.835
 8536SOL     OW26506   2.216   0.756   4.363
 8536SOL    HW126507   2.313   0.771   4.379
 8536SOL    HW226508   2.201   0.735   4.267
 8537SOL     OW26509   5.862   1.081   3.004
 8537SOL    HW126510   5.854   1.161   3.064
 8537SOL    HW226511   5.917   1.010   3.049
 8538SOL     OW26512   0.257   2.620   6.770
 8538SOL    HW126513   0.165   2.633   6.808
 8538SOL    HW226514   0.291   2.530   6.795
 8539SOL     OW26515   5.337   3.854   1.913
 8539SOL    HW126516   5.290   3.942   1.922
 8539SOL    HW226517   5.276   3.780   1.943
 8540SOL     OW26518   4.360   6.993   1.068
 8540SOL    HW126519   4.427   0.009   1.134
 8540SOL    HW226520   4.283   0.038   1.062
 8541SOL     OW26521   1.207   2.972   3.195
 8541SOL    HW126522   1.133   2.938   3.136
 8541SOL    HW226523   1.233   2.901   3.260
 8542SOL     OW26524   2.948   5.402   6.652
 8542SOL    HW126525   3.031   5.352   6.627
 8542SOL    HW226526   2.954   5.430   6.748
 8543SOL     OW26527   4.035   1.956   6.759
 8543SOL    HW126528   3.980   2.033   6.791
 8543SOL    HW226529   4.114   1.991   6.707
 8544SOL     OW26530   5.730   2.211   4.505
 8544SOL    HW126531   5.654   2.237   4.564
 8544SOL    HW226532   5.723   2.114   4.483
 8545SOL     OW26533   4.433   0.251   5.250
 8545SOL    HW126534   4.376   0.297   5.182
 8545SOL    HW226535   4.440   0.309   5.332
 8546SOL     OW26536   4.492   2.239   6.163
 8546SOL    HW126537   4.443   2.152   6.161
 8546SOL    HW226538   4.452   2.298   6.233
 8547SOL     OW26539   1.663   4.824   2.361
 8547SOL    HW126540   1.760   4.818   2.339
 8547SOL    HW226541   1.638   4.920   2.375
 8548SOL     OW26542   6.082   2.625   5.126
 8548SOL    HW126543   6.008   2.564   5.153
 8548SOL    HW226544   6.048   2.691   5.059
 8549SOL     OW26545   4.885   2.538   4.363
 8549SOL    HW126546   4.830   2.588   4.430
 8549SOL    HW226547   4.945   2.602   4.314
 8550SOL     OW26548   1.722   4.866   5.949
 8550SOL    HW126549   1.676   4.952   5.970
 8550SOL    HW226550   1.657   4.804   5.904
 8551SOL     OW26551   2.733   5.103   0.633
 8551SOL    HW126552   2.720   5.197   0.601
 8551SOL    HW226553   2.721   5.040   0.556
 8552SOL     OW26554   2.948   6.697   3.474
 8552SOL    HW126555   3.027   6.674   3.417
 8552SOL    HW226556   2.941   6.797   3.483
 8553SOL     OW26557   6.409   5.599   6.959
 8553SOL    HW126558   6.354   5.672   6.919
 8553SOL    HW226559   6.478   5.638   7.019
 8554SOL     OW26560   5.727   3.762   6.966
 8554SOL    HW126561   5.688   3.814   6.890
 8554SOL    HW226562   5.662   3.692   6.995
 8555SOL     OW26563   2.175   6.178   4.234
 8555SOL    HW126564   2.135   6.088   4.251
 8555SOL    HW226565   2.115   6.231   4.175
 8556SOL     OW26566   5.561   0.602   5.217
 8556SOL    HW126567   5.630   0.588   5.289
 8556SOL    HW226568   5.476   0.556   5.244
 8557SOL     OW26569   0.140   1.870   1.064
 8557SOL    HW126570   0.104   1.945   1.008
 8557SOL    HW226571   0.135   1.785   1.012
 8558SOL     OW26572   1.879   4.539   2.222
 8558SOL    HW126573   1.902   4.474   2.295
 8558SOL    HW226574   1.885   4.632   2.259
 8559SOL     OW26575   1.233   1.114   5.142
 8559SOL    HW126576   1.192   1.040   5.195
 8559SOL    HW226577   1.263   1.187   5.205
 8560SOL     OW26578   6.402   2.981   7.008
 8560SOL    HW126579   6.471   3.003   0.059
 8560SOL    HW226580   6.431   3.019   6.920
 8561SOL     OW26581   5.374   6.339   5.946
 8561SOL    HW126582   5.376   6.239   5.945
 8561SOL    HW226583   5.350   6.373   5.855
 8562SOL     OW26584   3.912   0.960   4.845
 8562SOL    HW126585   3.871   0.871   4.823
 8562SOL    HW226586   4.011   0.955   4.831
 8563SOL     OW26587   2.477   3.017   6.358
 8563SOL    HW126588   2.481   2.997   6.260
 8563SOL    HW226589   2.436   3.107   6.372
 8564SOL     OW26590   0.931   5.435   4.074
 8564SOL    HW126591   0.902   5.524   4.037
 8564SOL    HW226592   1.003   5.398   4.016
 8565SOL     OW26593   3.514   0.668   1.457
 8565SOL    HW126594   3.524   0.758   1.499
 8565SOL    HW226595   3.481   0.603   1.526
 8566SOL     OW26596   1.771   4.598   4.575
 8566SOL    HW126597   1.707   4.526   4.603
 8566SOL    HW226598   1.825   4.566   4.497
 8567SOL     OW26599   5.154   6.718   6.179
 8567SOL    HW126600   5.188   6.625   6.165
 8567SOL    HW226601   5.070   6.732   6.126
 8568SOL     OW26602   5.372   7.017   0.794
 8568SOL    HW126603   5.451   0.058   0.807
 8568SOL    HW226604   5.358   7.002   0.696
 8569SOL     OW26605   2.407   0.901   5.331
 8569SOL    HW126606   2.402   0.976   5.266
 8569SOL    HW226607   2.457   0.931   5.413
 8570SOL     OW26608   6.755   3.940   6.135
 8570SOL    HW126609   6.763   3.851   6.180
 8570SOL    HW226610   6.662   3.975   6.147
 8571SOL     OW26611   0.364   4.611   6.722
 8571SOL    HW126612   0.271   4.589   6.750
 8571SOL    HW226613   0.385   4.706   6.745
 8572SOL     OW26614   2.573   4.501   6.423
 8572SOL    HW126615   2.622   4.539   6.502
 8572SOL    HW226616   2.626   4.518   6.340
 8573SOL     OW26617   3.010   5.898   4.289
 8573SOL    HW126618   3.061   5.847   4.359
 8573SOL    HW226619   3.046   5.874   4.199
 8574SOL     OW26620   1.290   4.186   4.207
 8574SOL    HW126621   1.224   4.260   4.222
 8574SOL    HW226622   1.243   4.098   4.208
 8575SOL     OW26623   2.931   3.335   6.173
 8575SOL    HW126624   2.964   3.427   6.193
 8575SOL    HW226625   2.896   3.331   6.080
 8576SOL     OW26626   1.776   0.597   0.647
 8576SOL    HW126627   1.725   0.662   0.590
 8576SOL    HW226628   1.836   0.648   0.709
 8577SOL     OW26629   6.291   5.860   4.850
 8577SOL    HW126630   6.381   5.817   4.855
 8577SOL    HW226631   6.225   5.802   4.897
 8578SOL     OW26632   4.701   0.526   4.117
 8578SOL    HW126633   4.763   0.591   4.074
 8578SOL    HW226634   4.664   0.564   4.202
 8579SOL     OW26635   6.770   4.869   2.484
 8579SOL    HW126636   6.811   4.953   2.450
 8579SOL    HW226637   6.704   4.834   2.418
 8580SOL     OW26638   1.703   5.857   6.037
 8580SOL    HW126639   1.719   5.953   6.058
 8580SOL    HW226640   1.608   5.844   6.010
 8581SOL     OW26641   3.429   3.104   0.285
 8581SOL    HW126642   3.468   3.023   0.329
 8581SOL    HW226643   3.463   3.186   0.329
 8582SOL     OW26644   2.985   5.956   0.012
 8582SOL    HW126645   3.082   5.976   7.015
 8582SOL    HW226646   2.929   6.017   6.975
 8583SOL     OW26647   5.777   6.976   4.418
 8583SOL    HW126648   5.748   0.029   4.354
 8583SOL    HW226649   5.841   6.914   4.373
 8584SOL     OW26650   0.722   5.669   6.193
 8584SOL    HW126651   0.632   5.706   6.173
 8584SOL    HW226652   0.717   5.569   6.193
 8585SOL     OW26653   1.294   1.032   0.544
 8585SOL    HW126654   1.227   1.039   0.617
 8585SOL    HW226655   1.251   1.059   0.457
 8586SOL     OW26656   3.793   5.230   3.512
 8586SOL    HW126657   3.780   5.134   3.489
 8586SOL    HW226658   3.713   5.283   3.483
 8587SOL     OW26659   0.053   1.405   0.796
 8587SOL    HW126660   0.045   1.396   0.895
 8587SOL    HW226661   0.070   1.316   0.756
 8588SOL     OW26662   3.861   3.082   6.743
 8588SOL    HW126663   3.809   3.110   6.662
 8588SOL    HW226664   3.901   2.992   6.727
 8589SOL     OW26665   3.423   1.393   4.099
 8589SOL    HW126666   3.333   1.403   4.140
 8589SOL    HW226667   3.482   1.341   4.161
 8590SOL     OW26668   5.047   3.748   6.003
 8590SOL    HW126669   4.971   3.797   5.962
 8590SOL    HW226670   5.112   3.721   5.932
 8591SOL     OW26671   0.462   3.243   0.789
 8591SOL    HW126672   0.443   3.219   0.885
 8591SOL    HW226673   0.456   3.342   0.779
 8592SOL     OW26674   6.727   6.001   0.215
 8592SOL    HW126675   6.790   5.924   0.226
 8592SOL    HW226676   6.642   5.969   0.173
 8593SOL     OW26677   0.649   5.316   3.941
 8593SOL    HW126678   0.632   5.223   3.972
 8593SOL    HW226679   0.746   5.338   3.951
 8594SOL     OW26680   3.883   3.844   2.556
 8594SOL    HW126681   3.872   3.818   2.461
 8594SOL    HW226682   3.856   3.768   2.616
 8595SOL     OW26683   1.068   2.770   2.266
 8595SOL    HW126684   1.054   2.866   2.244
 8595SOL    HW226685   1.144   2.734   2.212
 8596SOL     OW26686   6.956   3.960   2.741
 8596SOL    HW126687   6.891   3.949   2.665
 8596SOL    HW226688   6.909   4.000   2.819
 8597SOL     OW26689   1.895   1.908   0.810
 8597SOL    HW126690   1.954   1.957   0.873
 8597SOL    HW226691   1.931   1.816   0.794
 8598SOL     OW26692   6.383   2.799   1.596
 8598SOL    HW126693   6.284   2.813   1.597
 8598SOL    HW226694   6.408   2.730   1.664
 8599SOL     OW26695   0.654   2.310   0.494
 8599SOL    HW126696   0.718   2.234   0.503
 8599SOL    HW226697   0.691   2.391   0.540
 8600SOL     OW26698   0.134   3.087   5.816
 8600SOL    HW126699   0.077   3.161   5.781
 8600SOL    HW226700   0.229   3.101   5.787
 8601SOL     OW26701   0.707   0.338   4.527
 8601SOL    HW126702   0.615   0.299   4.527
 8601SOL    HW226703   0.750   0.320   4.616
 8602SOL     OW26704   0.984   6.156   2.223
 8602SOL    HW126705   0.929   6.233   2.255
 8602SOL    HW226706   1.065   6.190   2.175
 8603SOL     OW26707   4.801   3.851   1.909
 8603SOL    HW126708   4.891   3.836   1.868
 8603SOL    HW226709   4.730   3.827   1.842
 8604SOL     OW26710   6.268   2.120   3.464
 8604SOL    HW126711   6.267   2.210   3.420
 8604SOL    HW226712   6.248   2.131   3.561
 8605SOL     OW26713   2.208   5.481   1.715
 8605SOL    HW126714   2.282   5.474   1.782
 8605SOL    HW226715   2.121   5.460   1.760
 8606SOL     OW26716   4.072   5.576   4.524
 8606SOL    HW126717   4.115   5.506   4.581
 8606SOL    HW226718   3.979   5.548   4.500
 8607SOL     OW26719   3.026   6.437   0.389
 8607SOL    HW126720   3.020   6.343   0.424
 8607SOL    HW226721   2.973   6.498   0.448
 8608SOL     OW26722   5.792   6.521   2.813
 8608SOL    HW126723   5.769   6.582   2.889
 8608SOL    HW226724   5.811   6.576   2.732
 8609SOL     OW26725   5.844   0.062   5.678
 8609SOL    HW126726   5.811   0.150   5.644
 8609SOL    HW226727   5.919   0.029   5.620
 8610SOL     OW26728   0.305   6.910   4.585
 8610SOL    HW126729   0.274   6.820   4.617
 8610SOL    HW226730   0.284   6.920   4.488
 8611SOL     OW26731   1.717   1.853   2.705
 8611SOL    HW126732   1.748   1.759   2.699
 8611SOL    HW226733   1.618   1.855   2.724
 8612SOL     OW26734   5.355   3.250   4.545
 8612SOL    HW126735   5.333   3.337   4.500
 8612SOL    HW226736   5.287   3.181   4.518
 8613SOL     OW26737   1.685   0.639   1.039
 8613SOL    HW126738   1.620   0.571   1.006
 8613SOL    HW226739   1.638   0.705   1.097
 8614SOL     OW26740   1.399   3.037   3.435
 8614SOL    HW126741   1.375   3.111   3.371
 8614SOL    HW226742   1.340   2.959   3.419
 8615SOL     OW26743   4.644   1.924   5.940
 8615SOL    HW126744   4.587   1.868   5.879
 8615SOL    HW226745   4.679   1.867   6.014
 8616SOL     OW26746   0.838   3.347   1.021
 8616SOL    HW126747   0.792   3.280   0.962
 8616SOL    HW226748   0.935   3.350   0.999
 8617SOL     OW26749   6.552   3.331   0.468
 8617SOL    HW126750   6.517   3.244   0.436
 8617SOL    HW226751   6.482   3.376   0.525
 8618SOL     OW26752   3.221   1.416   3.030
 8618SOL    HW126753   3.284   1.440   2.956
 8618SOL    HW226754   3.162   1.494   3.049
 8619SOL     OW26755   3.980   6.458   0.546
 8619SOL    HW126756   4.032   6.526   0.495
 8619SOL    HW226757   4.042   6.407   0.606
 8620SOL     OW26758   5.925   6.016   3.897
 8620SOL    HW126759   5.903   6.112   3.909
 8620SOL    HW226760   5.861   5.975   3.832
 8621SOL     OW26761   5.063   1.374   3.940
 8621SOL    HW126762   4.964   1.364   3.936
 8621SOL    HW226763   5.090   1.405   4.032
 8622SOL     OW26764   5.257   5.080   5.819
 8622SOL    HW126765   5.278   5.005   5.882
 8622SOL    HW226766   5.160   5.078   5.795
 8623SOL     OW26767   5.764   1.832   3.832
 8623SOL    HW126768   5.788   1.856   3.738
 8623SOL    HW226769   5.670   1.863   3.852
 8624SOL     OW26770   6.833   2.796   3.710
 8624SOL    HW126771   6.862   2.790   3.614
 8624SOL    HW226772   6.748   2.848   3.716
 8625SOL     OW26773   3.388   1.374   6.899
 8625SOL    HW126774   3.424   1.314   6.827
 8625SOL    HW226775   3.409   1.335   6.988
 8626SOL     OW26776   2.991   3.919   1.711
 8626SOL    HW126777   2.901   3.961   1.707
 8626SOL    HW226778   3.037   3.945   1.796
 8627SOL     OW26779   3.233   0.400   6.489
 8627SOL    HW126780   3.191   0.316   6.457
 8627SOL    HW226781   3.279   0.383   6.576
 8628SOL     OW26782   6.103   0.615   1.874
 8628SOL    HW126783   6.089   0.711   1.901
 8628SOL    HW226784   6.174   0.574   1.931
 8629SOL     OW26785   1.334   6.101   3.172
 8629SOL    HW126786   1.401   6.086   3.245
 8629SOL    HW226787   1.292   6.191   3.183
 8630SOL     OW26788   5.183   5.018   4.097
 8630SOL    HW126789   5.158   4.932   4.052
 8630SOL    HW226790   5.110   5.044   4.161
 8631SOL     OW26791   3.756   7.017   3.292
 8631SOL    HW126792   3.763   6.941   3.356
 8631SOL    HW226793   3.819   0.071   3.318
 8632SOL     OW26794   2.706   0.853   2.851
 8632SOL    HW126795   2.751   0.792   2.786
 8632SOL    HW226796   2.683   0.939   2.807
 8633SOL     OW26797   5.899   6.365   3.004
 8633SOL    HW126798   5.868   6.434   2.939
 8633SOL    HW226799   5.989   6.331   2.977
 8634SOL     OW26800   5.510   6.927   1.468
 8634SOL    HW126801   5.563   7.000   1.425
 8634SOL    HW226802   5.523   6.842   1.418
 8635SOL     OW26803   6.148   3.772   5.664
 8635SOL    HW126804   6.162   3.813   5.754
 8635SOL    HW226805   6.152   3.673   5.671
 8636SOL     OW26806   5.575   5.011   1.174
 8636SOL    HW126807   5.612   4.924   1.143
 8636SOL    HW226808   5.650   5.076   1.187
 8637SOL     OW26809   0.616   0.346   2.109
 8637SOL    HW126810   0.658   0.343   2.018
 8637SOL    HW226811   0.671   0.292   2.172
 8638SOL     OW26812   6.589   4.795   0.824
 8638SOL    HW126813   6.510   4.793   0.763
 8638SOL    HW226814   6.627   4.703   0.832
 8639SOL     OW26815   5.890   2.707   3.725
 8639SOL    HW126816   5.939   2.667   3.803
 8639SOL    HW226817   5.805   2.657   3.709
 8640SOL     OW26818   5.082   5.817   1.242
 8640SOL    HW126819   5.134   5.739   1.278
 8640SOL    HW226820   5.127   5.851   1.159
 8641SOL     OW26821   4.872   5.245   3.920
 8641SOL    HW126822   4.810   5.288   3.985
 8641SOL    HW226823   4.959   5.295   3.919
 8642SOL     OW26824   4.397   0.588   1.040
 8642SOL    HW126825   4.474   0.538   0.999
 8642SOL    HW226826   4.427   0.632   1.124
 8643SOL     OW26827   4.926   0.052   0.122
 8643SOL    HW126828   4.883   0.027   0.209
 8643SOL    HW226829   5.022   0.024   0.123
 8644SOL     OW26830   6.284   3.175   5.508
 8644SOL    HW126831   6.233   3.207   5.587
 8644SOL    HW226832   6.293   3.249   5.441
 8645SOL     OW26833   6.253   3.586   2.038
 8645SOL    HW126834   6.291   3.636   1.960
 8645SOL    HW226835   6.235   3.649   2.112
 8646SOL     OW26836   4.336   6.584   0.111
 8646SOL    HW126837   4.285   6.667   0.133
 8646SOL    HW226838   4.307   6.511   0.173
 8647SOL     OW26839   4.914   4.863   1.852
 8647SOL    HW126840   5.000   4.913   1.849
 8647SOL    HW226841   4.928   4.774   1.894
 8648SOL     OW26842   6.539   0.732   4.532
 8648SOL    HW126843   6.609   0.719   4.602
 8648SOL    HW226844   6.470   0.796   4.567
 8649SOL     OW26845   6.691   3.161   5.691
 8649SOL    HW126846   6.655   3.238   5.638
 8649SOL    HW226847   6.751   3.106   5.633
 8650SOL     OW26848   0.254   5.562   1.839
 8650SOL    HW126849   0.167   5.566   1.889
 8650SOL    HW226850   0.282   5.467   1.827
 8651SOL     OW26851   4.429   3.552   1.126
 8651SOL    HW126852   4.508   3.609   1.150
 8651SOL    HW226853   4.405   3.493   1.203
 8652SOL     OW26854   0.811   2.584   4.590
 8652SOL    HW126855   0.738   2.590   4.522
 8652SOL    HW226856   0.870   2.664   4.583
 8653SOL     OW26857   5.081   3.596   6.381
 8653SOL    HW126858   5.046   3.589   6.474
 8653SOL    HW226859   5.172   3.636   6.382
 8654SOL     OW26860   1.793   4.724   1.635
 8654SOL    HW126861   1.869   4.671   1.675
 8654SOL    HW226862   1.762   4.678   1.552
 8655SOL     OW26863   5.334   6.258   2.760
 8655SOL    HW126864   5.376   6.254   2.670
 8655SOL    HW226865   5.395   6.304   2.824
 8656SOL     OW26866   6.521   2.144   1.939
 8656SOL    HW126867   6.522   2.163   2.037
 8656SOL    HW226868   6.602   2.090   1.915
 8657SOL     OW26869   2.780   4.972   0.383
 8657SOL    HW126870   2.838   5.052   0.368
 8657SOL    HW226871   2.752   4.934   0.295
 8658SOL     OW26872   1.073   6.229   5.240
 8658SOL    HW126873   1.067   6.153   5.304
 8658SOL    HW226874   1.005   6.298   5.265
 8659SOL     OW26875   3.291   0.153   4.141
 8659SOL    HW126876   3.205   0.152   4.192
 8659SOL    HW226877   3.282   0.094   4.060
 8660SOL     OW26878   4.815   4.351   0.426
 8660SOL    HW126879   4.865   4.291   0.363
 8660SOL    HW226880   4.853   4.340   0.518
 8661SOL     OW26881   6.355   2.618   2.195
 8661SOL    HW126882   6.434   2.558   2.182
 8661SOL    HW226883   6.328   2.618   2.291
 8662SOL     OW26884   0.239   1.266   0.354
 8662SOL    HW126885   0.179   1.309   0.421
 8662SOL    HW226886   0.327   1.312   0.354
 8663SOL     OW26887   3.045   5.466   0.300
 8663SOL    HW126888   2.980   5.528   0.344
 8663SOL    HW226889   3.101   5.517   0.234
 8664SOL     OW26890   4.858   4.186   1.394
 8664SOL    HW126891   4.870   4.158   1.489
 8664SOL    HW226892   4.906   4.122   1.334
 8665SOL     OW26893   5.408   5.148   4.193
 8665SOL    HW126894   5.337   5.100   4.141
 8665SOL    HW226895   5.367   5.225   4.241
 8666SOL     OW26896   6.771   4.784   4.680
 8666SOL    HW126897   6.685   4.786   4.730
 8666SOL    HW226898   6.776   4.864   4.620
 8667SOL     OW26899   5.556   2.992   3.375
 8667SOL    HW126900   5.522   3.078   3.337
 8667SOL    HW226901   5.502   2.916   3.340
 8668SOL     OW26902   3.301   0.696   4.792
 8668SOL    HW126903   3.265   0.678   4.701
 8668SOL    HW226904   3.230   0.736   4.849
 8669SOL     OW26905   3.371   6.183   6.486
 8669SOL    HW126906   3.395   6.118   6.558
 8669SOL    HW226907   3.337   6.268   6.527
 8670SOL     OW26908   4.304   4.735   3.017
 8670SOL    HW126909   4.243   4.729   2.938
 8670SOL    HW226910   4.349   4.824   3.019
 8671SOL     OW26911   6.079   5.334   1.088
 8671SOL    HW126912   6.075   5.383   1.001
 8671SOL    HW226913   6.172   5.300   1.104
 8672SOL     OW26914   3.823   5.533   4.646
 8672SOL    HW126915   3.852   5.484   4.728
 8672SOL    HW226916   3.792   5.624   4.670
 8673SOL     OW26917   4.903   2.140   6.769
 8673SOL    HW126918   4.994   2.151   6.808
 8673SOL    HW226919   4.844   2.214   6.800
 8674SOL     OW26920   0.547   6.888   2.261
 8674SOL    HW126921   0.532   6.907   2.163
 8674SOL    HW226922   0.511   6.797   2.283
 8675SOL     OW26923   2.560   2.057   1.815
 8675SOL    HW126924   2.592   2.006   1.895
 8675SOL    HW226925   2.605   2.147   1.813
 8676SOL     OW26926   5.515   1.655   4.184
 8676SOL    HW126927   5.463   1.626   4.104
 8676SOL    HW226928   5.454   1.703   4.248
 8677SOL     OW26929   2.305   3.623   5.745
 8677SOL    HW126930   2.250   3.703   5.765
 8677SOL    HW226931   2.264   3.571   5.670
 8678SOL     OW26932   0.772   1.234   6.142
 8678SOL    HW126933   0.729   1.297   6.077
 8678SOL    HW226934   0.794   1.282   6.227
 8679SOL     OW26935   6.256   2.563   4.501
 8679SOL    HW126936   6.240   2.465   4.487
 8679SOL    HW226937   6.228   2.589   4.593
 8680SOL     OW26938   0.703   3.197   6.003
 8680SOL    HW126939   0.789   3.169   6.047
 8680SOL    HW226940   0.717   3.205   5.905
 8681SOL     OW26941   4.017   4.082   1.463
 8681SOL    HW126942   4.012   4.056   1.559
 8681SOL    HW226943   4.112   4.075   1.431
 8682SOL     OW26944   1.607   5.902   2.824
 8682SOL    HW126945   1.616   5.907   2.724
 8682SOL    HW226946   1.512   5.921   2.849
 8683SOL     OW26947   4.590   3.766   6.786
 8683SOL    HW126948   4.499   3.769   6.829
 8683SOL    HW226949   4.660   3.767   6.857
 8684SOL     OW26950   6.521   2.342   3.934
 8684SOL    HW126951   6.566   2.253   3.944
 8684SOL    HW226952   6.516   2.365   3.837
 8685SOL     OW26953   0.443   2.494   5.378
 8685SOL    HW126954   0.519   2.433   5.402
 8685SOL    HW226955   0.366   2.439   5.345
 8686SOL     OW26956   6.105   0.995   4.346
 8686SOL    HW126957   6.095   0.897   4.325
 8686SOL    HW226958   6.102   1.047   4.261
 8687SOL     OW26959   3.775   0.977   2.868
 8687SOL    HW126960   3.713   1.043   2.826
 8687SOL    HW226961   3.830   1.022   2.939
 8688SOL     OW26962   6.797   6.632   1.748
 8688SOL    HW126963   6.769   6.538   1.768
 8688SOL    HW226964   6.897   6.635   1.740
 8689SOL     OW26965   4.857   4.635   1.435
 8689SOL    HW126966   4.797   4.579   1.378
 8689SOL    HW226967   4.900   4.577   1.505
 8690SOL     OW26968   1.754   0.330   1.741
 8690SOL    HW126969   1.748   0.413   1.684
 8690SOL    HW226970   1.789   0.354   1.831
 8691SOL     OW26971   5.865   1.274   6.827
 8691SOL    HW126972   5.812   1.196   6.792
 8691SOL    HW226973   5.903   1.325   6.749
 8692SOL     OW26974   1.614   1.266   3.584
 8692SOL    HW126975   1.540   1.308   3.636
 8692SOL    HW226976   1.606   1.293   3.488
 8693SOL     OW26977   4.804   2.766   6.646
 8693SOL    HW126978   4.725   2.720   6.686
 8693SOL    HW226979   4.833   2.717   6.564
 8694SOL     OW26980   3.508   0.391   6.330
 8694SOL    HW126981   3.439   0.339   6.381
 8694SOL    HW226982   3.468   0.477   6.299
 8695SOL     OW26983   4.092   3.757   5.124
 8695SOL    HW126984   4.105   3.810   5.041
 8695SOL    HW226985   4.160   3.783   5.193
 8696SOL     OW26986   2.244   5.382   6.892
 8696SOL    HW126987   2.280   5.294   6.923
 8696SOL    HW226988   2.204   5.431   6.969
 8697SOL     OW26989   5.326   5.621   6.608
 8697SOL    HW126990   5.291   5.540   6.562
 8697SOL    HW226991   5.287   5.628   6.700
 8698SOL     OW26992   6.112   5.898   5.524
 8698SOL    HW126993   6.076   5.853   5.442
 8698SOL    HW226994   6.167   5.833   5.576
 8699SOL     OW26995   1.997   1.348   4.333
 8699SOL    HW126996   1.967   1.443   4.329
 8699SOL    HW226997   2.070   1.333   4.266
 8700SOL     OW26998   2.406   0.449   5.744
 8700SOL    HW126999   2.493   0.498   5.757
 8700SOL    HW227000   2.414   0.357   5.782
 8701SOL     OW27001   0.904   0.414   3.329
 8701SOL    HW127002   0.853   0.452   3.406
 8701SOL    HW227003   0.987   0.371   3.363
 8702SOL     OW27004   4.485   0.216   6.075
 8702SOL    HW127005   4.409   0.280   6.089
 8702SOL    HW227006   4.571   0.261   6.102
 8703SOL     OW27007   1.386   4.291   1.068
 8703SOL    HW127008   1.359   4.250   1.155
 8703SOL    HW227009   1.483   4.275   1.052
 8704SOL     OW27010   1.273   4.485   2.372
 8704SOL    HW127011   1.222   4.443   2.296
 8704SOL    HW227012   1.300   4.414   2.437
 8705SOL     OW27013   4.564   6.396   4.415
 8705SOL    HW127014   4.607   6.306   4.420
 8705SOL    HW227015   4.513   6.404   4.330
 8706SOL     OW27016   5.157   0.248   6.606
 8706SOL    HW127017   5.070   0.239   6.557
 8706SOL    HW227018   5.189   0.158   6.636
 8707SOL     OW27019   3.744   1.545   5.872
 8707SOL    HW127020   3.663   1.531   5.930
 8707SOL    HW227021   3.715   1.577   5.782
 8708SOL     OW27022   3.755   1.600   1.110
 8708SOL    HW127023   3.743   1.606   1.209
 8708SOL    HW227024   3.738   1.506   1.079
 8709SOL     OW27025   5.205   3.525   6.942
 8709SOL    HW127026   5.220   3.451   6.877
 8709SOL    HW227027   5.213   3.490   0.017
 8710SOL     OW27028   6.421   4.032   4.196
 8710SOL    HW127029   6.337   3.987   4.224
 8710SOL    HW227030   6.407   4.079   4.109
 8711SOL     OW27031   1.995   1.662   4.331
 8711SOL    HW127032   1.950   1.654   4.420
 8711SOL    HW227033   2.087   1.699   4.343
 8712SOL     OW27034   3.367   0.259   6.686
 8712SOL    HW127035   3.307   0.214   6.753
 8712SOL    HW227036   3.455   0.211   6.684
 8713SOL     OW27037   6.347   4.937   3.312
 8713SOL    HW127038   6.315   4.851   3.271
 8713SOL    HW227039   6.281   5.009   3.293
 8714SOL     OW27040   2.086   1.448   3.904
 8714SOL    HW127041   2.055   1.354   3.890
 8714SOL    HW227042   2.016   1.511   3.869
 8715SOL     OW27043   5.533   0.740   2.919
 8715SOL    HW127044   5.478   0.741   2.835
 8715SOL    HW227045   5.622   0.781   2.901
 8716SOL     OW27046   1.433   0.761   2.574
 8716SOL    HW127047   1.385   0.849   2.570
 8716SOL    HW227048   1.474   0.742   2.485
 8717SOL     OW27049   4.616   3.882   0.984
 8717SOL    HW127050   4.583   3.957   1.041
 8717SOL    HW227051   4.704   3.907   0.944
 8718SOL     OW27052   6.832   2.543   6.116
 8718SOL    HW127053   6.823   2.463   6.058
 8718SOL    HW227054   6.757   2.606   6.098
 8719SOL     OW27055   6.642   1.018   5.619
 8719SOL    HW127056   6.622   0.922   5.604
 8719SOL    HW227057   6.594   1.073   5.550
 8720SOL     OW27058   5.362   3.020   5.255
 8720SOL    HW127059   5.377   2.922   5.236
 8720SOL    HW227060   5.435   3.073   5.213
 8721SOL     OW27061   6.949   0.422   4.715
 8721SOL    HW127062   6.893   0.430   4.632
 8721SOL    HW227063   6.894   0.446   4.795
 8722SOL     OW27064   3.873   2.580   0.505
 8722SOL    HW127065   3.842   2.632   0.584
 8722SOL    HW227066   3.815   2.500   0.492
 8723SOL     OW27067   0.448   6.039   0.652
 8723SOL    HW127068   0.534   6.042   0.702
 8723SOL    HW227069   0.429   5.945   0.623
 8724SOL     OW27070   4.357   5.954   6.276
 8724SOL    HW127071   4.400   5.868   6.303
 8724SOL    HW227072   4.426   6.017   6.241
 8725SOL     OW27073   2.780   6.584   0.478
 8725SOL    HW127074   2.707   6.594   0.546
 8725SOL    HW227075   2.746   6.613   0.389
 8726SOL     OW27076   0.055   6.691   0.584
 8726SOL    HW127077   0.137   6.723   0.536
 8726SOL    HW227078   6.993   6.729   0.539
 8727SOL     OW27079   5.406   6.302   2.013
 8727SOL    HW127080   5.331   6.284   1.949
 8727SOL    HW227081   5.472   6.227   2.008
 8728SOL     OW27082   2.027   5.445   5.756
 8728SOL    HW127083   2.074   5.502   5.688
 8728SOL    HW227084   2.042   5.482   5.847
 8729SOL     OW27085   4.923   5.675   4.406
 8729SOL    HW127086   4.888   5.625   4.327
 8729SOL    HW227087   4.923   5.773   4.386
 8730SOL     OW27088   6.177   6.438   1.325
 8730SOL    HW127089   6.209   6.373   1.256
 8730SOL    HW227090   6.234   6.429   1.407
 8731SOL     OW27091   0.788   1.769   3.162
 8731SOL    HW127092   0.766   1.866   3.174
 8731SOL    HW227093   0.859   1.760   3.092
 8732SOL     OW27094   6.290   6.289   2.063
 8732SOL    HW127095   6.271   6.355   2.136
 8732SOL    HW227096   6.232   6.309   1.984
 8733SOL     OW27097   6.560   0.807   0.597
 8733SOL    HW127098   6.538   0.711   0.580
 8733SOL    HW227099   6.498   0.865   0.543
 8734SOL     OW27100   6.128   6.896   1.000
 8734SOL    HW127101   6.159   6.988   0.976
 8734SOL    HW227102   6.125   6.886   1.100
 8735SOL     OW27103   0.499   3.068   6.122
 8735SOL    HW127104   0.590   3.098   6.093
 8735SOL    HW227105   0.430   3.133   6.089
 8736SOL     OW27106   0.654   4.966   5.708
 8736SOL    HW127107   0.751   4.947   5.725
 8736SOL    HW227108   0.602   4.955   5.793
 8737SOL     OW27109   3.991   5.517   6.942
 8737SOL    HW127110   3.976   5.613   6.919
 8737SOL    HW227111   3.926   5.460   6.891
 8738SOL     OW27112   1.319   3.922   5.356
 8738SOL    HW127113   1.296   3.826   5.340
 8738SOL    HW227114   1.238   3.971   5.390
 8739SOL     OW27115   1.241   3.341   5.227
 8739SOL    HW127116   1.273   3.422   5.177
 8739SOL    HW227117   1.308   3.267   5.217
 8740SOL     OW27118   1.079   6.175   0.551
 8740SOL    HW127119   1.077   6.263   0.504
 8740SOL    HW227120   1.144   6.114   0.507
 8741SOL     OW27121   1.400   3.632   1.958
 8741SOL    HW127122   1.411   3.722   1.916
 8741SOL    HW227123   1.353   3.572   1.894
 8742SOL     OW27124   4.672   5.103   1.611
 8742SOL    HW127125   4.573   5.111   1.605
 8742SOL    HW227126   4.698   5.008   1.625
 8743SOL     OW27127   3.356   5.432   2.405
 8743SOL    HW127128   3.436   5.479   2.444
 8743SOL    HW227129   3.385   5.372   2.330
 8744SOL     OW27130   3.100   3.641   5.247
 8744SOL    HW127131   3.016   3.592   5.222
 8744SOL    HW227132   3.179   3.594   5.207
 8745SOL     OW27133   5.324   1.922   5.853
 8745SOL    HW127134   5.304   1.966   5.940
 8745SOL    HW227135   5.289   1.828   5.854
 8746SOL     OW27136   5.186   3.447   4.692
 8746SOL    HW127137   5.102   3.500   4.692
 8746SOL    HW227138   5.175   3.367   4.634
 8747SOL     OW27139   1.000   1.865   4.250
 8747SOL    HW127140   0.924   1.807   4.219
 8747SOL    HW227141   1.010   1.856   4.349
 8748SOL     OW27142   3.316   0.640   6.310
 8748SOL    HW127143   3.248   0.572   6.337
 8748SOL    HW227144   3.295   0.673   6.218
 8749SOL     OW27145   3.920   1.394   3.598
 8749SOL    HW127146   3.957   1.482   3.630
 8749SOL    HW227147   3.855   1.411   3.524
 8750SOL     OW27148   2.105   6.951   4.674
 8750SOL    HW127149   2.081   6.870   4.728
 8750SOL    HW227150   2.051   0.010   4.706
 8751SOL     OW27151   1.820   6.264   2.691
 8751SOL    HW127152   1.785   6.225   2.777
 8751SOL    HW227153   1.904   6.314   2.709
 8752SOL     OW27154   2.020   0.682   6.508
 8752SOL    HW127155   2.017   0.734   6.594
 8752SOL    HW227156   2.040   0.743   6.432
 8753SOL     OW27157   5.274   1.854   5.114
 8753SOL    HW127158   5.207   1.790   5.077
 8753SOL    HW227159   5.283   1.932   5.052
 8754SOL     OW27160   1.558   0.929   5.772
 8754SOL    HW127161   1.565   1.002   5.840
 8754SOL    HW227162   1.550   0.841   5.818
 8755SOL     OW27163   1.958   2.378   0.447
 8755SOL    HW127164   1.933   2.471   0.474
 8755SOL    HW227165   1.995   2.329   0.527
 8756SOL     OW27166   3.448   4.900   4.976
 8756SOL    HW127167   3.531   4.912   4.922
 8756SOL    HW227168   3.472   4.856   5.063
 8757SOL     OW27169   3.158   5.451   3.361
 8757SOL    HW127170   3.199   5.497   3.440
 8757SOL    HW227171   3.125   5.361   3.388
 8758SOL     OW27172   5.115   6.586   2.926
 8758SOL    HW127173   5.153   6.604   2.835
 8758SOL    HW227174   5.164   6.508   2.967
 8759SOL     OW27175   5.296   0.130   5.772
 8759SOL    HW127176   5.343   0.162   5.690
 8759SOL    HW227177   5.199   0.118   5.752
 8760SOL     OW27178   1.622   2.608   3.320
 8760SOL    HW127179   1.604   2.663   3.402
 8760SOL    HW227180   1.653   2.517   3.348
 8761SOL     OW27181   4.802   5.833   1.522
 8761SOL    HW127182   4.839   5.902   1.584
 8761SOL    HW227183   4.809   5.743   1.565
 8762SOL     OW27184   1.907   5.026   1.169
 8762SOL    HW127185   1.842   4.965   1.214
 8762SOL    HW227186   1.988   4.974   1.141
 8763SOL     OW27187   6.923   5.876   6.838
 8763SOL    HW127188   7.007   5.842   6.795
 8763SOL    HW227189   6.920   5.847   6.933
 8764SOL     OW27190   2.919   1.878   6.475
 8764SOL    HW127191   2.969   1.896   6.390
 8764SOL    HW227192   2.954   1.938   6.547
 8765SOL     OW27193   5.630   0.650   4.745
 8765SOL    HW127194   5.674   0.665   4.657
 8765SOL    HW227195   5.602   0.737   4.784
 8766SOL     OW27196   2.363   4.339   2.782
 8766SOL    HW127197   2.399   4.392   2.705
 8766SOL    HW227198   2.367   4.394   2.865
 8767SOL     OW27199   3.971   1.023   5.105
 8767SOL    HW127200   4.030   1.099   5.077
 8767SOL    HW227201   3.957   0.961   5.028
 8768SOL     OW27202   0.819   4.435   1.345
 8768SOL    HW127203   0.777   4.376   1.275
 8768SOL    HW227204   0.845   4.522   1.303
 8769SOL     OW27205   1.655   0.460   6.620
 8769SOL    HW127206   1.667   0.531   6.550
 8769SOL    HW227207   1.569   0.475   6.668
 8770SOL     OW27208   5.848   1.808   3.193
 8770SOL    HW127209   5.815   1.898   3.166
 8770SOL    HW227210   5.933   1.788   3.145
 8771SOL     OW27211   2.926   3.215   4.988
 8771SOL    HW127212   2.834   3.188   4.960
 8771SOL    HW227213   2.987   3.214   4.909
 8772SOL     OW27214   0.225   6.970   6.879
 8772SOL    HW127215   0.133   6.952   6.914
 8772SOL    HW227216   0.269   0.020   6.937
 8773SOL     OW27217   2.850   1.598   3.465
 8773SOL    HW127218   2.828   1.621   3.560
 8773SOL    HW227219   2.768   1.605   3.409
 8774SOL     OW27220   1.187   1.350   0.438
 8774SOL    HW127221   1.172   1.307   0.527
 8774SOL    HW227222   1.100   1.384   0.402
 8775SOL     OW27223   5.767   6.312   4.217
 8775SOL    HW127224   5.706   6.241   4.252
 8775SOL    HW227225   5.826   6.273   4.146
 8776SOL     OW27226   3.301   3.447   5.574
 8776SOL    HW127227   3.387   3.495   5.588
 8776SOL    HW227228   3.232   3.510   5.538
 8777SOL     OW27229   6.098   5.678   3.136
 8777SOL    HW127230   6.132   5.590   3.102
 8777SOL    HW227231   6.058   5.665   3.227
 8778SOL     OW27232   0.971   2.867   3.105
 8778SOL    HW127233   0.972   2.793   3.039
 8778SOL    HW227234   0.945   2.831   3.195
 8779SOL     OW27235   2.186   4.794   0.795
 8779SOL    HW127236   2.182   4.704   0.751
 8779SOL    HW227237   2.277   4.834   0.782
 8780SOL     OW27238   2.305   6.043   5.319
 8780SOL    HW127239   2.245   5.964   5.303
 8780SOL    HW227240   2.313   6.058   5.418
 8781SOL     OW27241   0.625   2.694   2.661
 8781SOL    HW127242   0.560   2.752   2.612
 8781SOL    HW227243   0.674   2.748   2.728
 8782SOL     OW27244   5.465   1.107   4.234
 8782SOL    HW127245   5.371   1.079   4.248
 8782SOL    HW227246   5.476   1.142   4.141
 8783SOL     OW27247   5.641   2.335   6.129
 8783SOL    HW127248   5.548   2.352   6.162
 8783SOL    HW227249   5.686   2.423   6.110
 8784SOL     OW27250   4.930   3.901   6.193
 8784SOL    HW127251   4.952   3.842   6.116
 8784SOL    HW227252   4.847   3.869   6.238
 8785SOL     OW27253   5.004   4.107   6.049
 8785SOL    HW127254   4.990   4.034   6.115
 8785SOL    HW227255   4.924   4.114   5.990
 8786SOL     OW27256   1.915   5.825   6.684
 8786SOL    HW127257   1.975   5.783   6.616
 8786SOL    HW227258   1.932   5.784   6.774
 8787SOL     OW27259   0.569   2.398   6.414
 8787SOL    HW127260   0.497   2.392   6.483
 8787SOL    HW227261   0.581   2.494   6.387
 8788SOL     OW27262   1.514   1.625   5.202
 8788SOL    HW127263   1.488   1.664   5.291
 8788SOL    HW227264   1.435   1.579   5.162
 8789SOL     OW27265   6.734   1.528   0.462
 8789SOL    HW127266   6.681   1.453   0.503
 8789SOL    HW227267   6.760   1.593   0.533
 8790SOL     OW27268   4.213   1.229   0.166
 8790SOL    HW127269   4.282   1.172   0.209
 8790SOL    HW227270   4.252   1.273   0.085
 8791SOL     OW27271   5.984   6.160   5.635
 8791SOL    HW127272   5.956   6.203   5.549
 8791SOL    HW227273   6.037   6.077   5.616
 8792SOL     OW27274   5.626   6.570   2.405
 8792SOL    HW127275   5.713   6.563   2.356
 8792SOL    HW227276   5.557   6.515   2.358
 8793SOL     OW27277   1.219   5.254   2.993
 8793SOL    HW127278   1.305   5.231   3.038
 8793SOL    HW227279   1.236   5.279   2.898
 8794SOL     OW27280   2.442   6.812   2.103
 8794SOL    HW127281   2.348   6.786   2.125
 8794SOL    HW227282   2.442   6.883   2.033
 8795SOL     OW27283   3.292   6.995   4.472
 8795SOL    HW127284   3.369   6.998   4.408
 8795SOL    HW227285   3.217   0.032   4.435
 8796SOL     OW27286   4.419   2.108   4.446
 8796SOL    HW127287   4.465   2.019   4.444
 8796SOL    HW227288   4.405   2.141   4.353
 8797SOL     OW27289   6.842   5.488   6.785
 8797SOL    HW127290   6.824   5.578   6.744
 8797SOL    HW227291   6.897   5.434   6.721
 8798SOL     OW27292   3.588   3.489   5.557
 8798SOL    HW127293   3.664   3.427   5.573
 8798SOL    HW227294   3.610   3.550   5.481
 8799SOL     OW27295   3.947   0.857   2.143
 8799SOL    HW127296   3.947   0.759   2.121
 8799SOL    HW227297   4.022   0.877   2.205
 8800SOL     OW27298   4.111   3.898   0.601
 8800SOL    HW127299   4.082   3.811   0.642
 8800SOL    HW227300   4.160   3.952   0.669
 8801SOL     OW27301   3.020   6.283   5.318
 8801SOL    HW127302   3.061   6.373   5.330
 8801SOL    HW227303   2.928   6.292   5.280
 8802SOL     OW27304   1.748   6.595   1.327
 8802SOL    HW127305   1.724   6.578   1.231
 8802SOL    HW227306   1.749   6.693   1.345
 8803SOL     OW27307   3.975   5.808   2.220
 8803SOL    HW127308   3.904   5.751   2.179
 8803SOL    HW227309   3.968   5.901   2.183
 8804SOL     OW27310   3.248   0.738   1.302
 8804SOL    HW127311   3.317   0.762   1.370
 8804SOL    HW227312   3.250   0.640   1.285
 8805SOL     OW27313   6.908   0.479   4.129
 8805SOL    HW127314   6.977   0.412   4.102
 8805SOL    HW227315   6.864   0.449   4.214
 8806SOL     OW27316   2.002   4.959   6.859
 8806SOL    HW127317   2.074   4.957   6.790
 8806SOL    HW227318   2.010   4.878   6.918
 8807SOL     OW27319   1.595   4.804   6.262
 8807SOL    HW127320   1.606   4.813   6.361
 8807SOL    HW227321   1.602   4.707   6.236
 8808SOL     OW27322   6.195   2.394   1.247
 8808SOL    HW127323   6.118   2.353   1.198
 8808SOL    HW227324   6.219   2.335   1.325
 8809SOL     OW27325   5.980   4.127   6.781
 8809SOL    HW127326   5.903   4.187   6.801
 8809SOL    HW227327   6.032   4.111   6.865
 8810SOL     OW27328   5.086   1.712   4.292
 8810SOL    HW127329   5.124   1.682   4.380
 8810SOL    HW227330   5.159   1.745   4.233
 8811SOL     OW27331   0.617   0.957   3.597
 8811SOL    HW127332   0.523   0.990   3.590
 8811SOL    HW227333   0.659   0.994   3.680
 8812SOL     OW27334   2.340   1.064   0.495
 8812SOL    HW127335   2.323   0.988   0.557
 8812SOL    HW227336   2.269   1.067   0.425
 8813SOL     OW27337   0.732   5.560   0.730
 8813SOL    HW127338   0.809   5.614   0.763
 8813SOL    HW227339   0.753   5.463   0.737
 8814SOL     OW27340   5.732   6.686   6.140
 8814SOL    HW127341   5.815   6.630   6.135
 8814SOL    HW227342   5.682   6.664   6.224
 8815SOL     OW27343   6.269   4.666   3.299
 8815SOL    HW127344   6.316   4.578   3.308
 8815SOL    HW227345   6.253   4.704   3.390
 8816SOL     OW27346   0.572   5.862   2.368
 8816SOL    HW127347   0.653   5.877   2.312
 8816SOL    HW227348   0.564   5.764   2.389
 8817SOL     OW27349   1.828   3.986   4.958
 8817SOL    HW127350   1.821   3.972   4.859
 8817SOL    HW227351   1.915   4.030   4.980
 8818SOL     OW27352   6.768   4.644   5.382
 8818SOL    HW127353   6.850   4.588   5.374
 8818SOL    HW227354   6.792   4.732   5.424
 8819SOL     OW27355   0.495   1.256   4.569
 8819SOL    HW127356   0.463   1.351   4.566
 8819SOL    HW227357   0.571   1.248   4.634
 8820SOL     OW27358   1.500   2.296   3.268
 8820SOL    HW127359   1.585   2.273   3.221
 8820SOL    HW227360   1.441   2.215   3.271
 8821SOL     OW27361   1.299   6.406   6.936
 8821SOL    HW127362   1.306   6.343   7.013
 8821SOL    HW227363   1.282   6.499   6.969
 8822SOL     OW27364   1.292   1.981   3.614
 8822SOL    HW127365   1.206   1.972   3.664
 8822SOL    HW227366   1.290   1.924   3.532
 8823SOL     OW27367   2.635   5.452   0.642
 8823SOL    HW127368   2.637   5.486   0.548
 8823SOL    HW227369   2.631   5.530   0.705
 8824SOL     OW27370   5.179   4.645   1.706
 8824SOL    HW127371   5.152   4.630   1.801
 8824SOL    HW227372   5.167   4.560   1.655
 8825SOL     OW27373   2.572   1.875   6.815
 8825SOL    HW127374   2.656   1.822   6.803
 8825SOL    HW227375   2.572   1.917   6.906
 8826SOL     OW27376   5.555   0.631   1.587
 8826SOL    HW127377   5.459   0.624   1.613
 8826SOL    HW227378   5.580   0.727   1.575
 8827SOL     OW27379   6.815   1.238   4.274
 8827SOL    HW127380   6.798   1.248   4.372
 8827SOL    HW227381   6.811   1.328   4.230
 8828SOL     OW27382   1.557   5.721   3.049
 8828SOL    HW127383   1.617   5.717   2.970
 8828SOL    HW227384   1.475   5.773   3.025
 8829SOL     OW27385   0.179   0.661   1.501
 8829SOL    HW127386   0.187   0.590   1.431
 8829SOL    HW227387   0.252   0.651   1.569
 8830SOL     OW27388   1.440   1.479   1.073
 8830SOL    HW127389   1.476   1.403   1.126
 8830SOL    HW227390   1.431   1.452   0.977
 8831SOL     OW27391   0.362   0.033   0.974
 8831SOL    HW127392   0.329   0.110   1.029
 8831SOL    HW227393   0.462   0.035   0.969
 8832SOL     OW27394   6.562   0.736   1.525
 8832SOL    HW127395   6.550   0.677   1.605
 8832SOL    HW227396   6.474   0.773   1.498
 8833SOL     OW27397   6.587   5.410   1.139
 8833SOL    HW127398   6.678   5.387   1.172
 8833SOL    HW227399   6.518   5.367   1.197
 8834SOL     OW27400   6.470   4.599   4.726
 8834SOL    HW127401   6.397   4.557   4.780
 8834SOL    HW227402   6.494   4.688   4.765
 8835SOL     OW27403   0.982   1.461   0.796
 8835SOL    HW127404   1.005   1.558   0.796
 8835SOL    HW227405   0.882   1.450   0.796
 8836SOL     OW27406   4.994   2.333   1.359
 8836SOL    HW127407   4.931   2.408   1.381
 8836SOL    HW227408   4.970   2.252   1.412
 8837SOL     OW27409   0.739   3.020   2.305
 8837SOL    HW127410   0.810   3.089   2.291
 8837SOL    HW227411   0.771   2.952   2.371
 8838SOL     OW27412   1.591   6.370   3.223
 8838SOL    HW127413   1.576   6.274   3.247
 8838SOL    HW227414   1.589   6.381   3.124
 8839SOL     OW27415   5.885   5.258   5.074
 8839SOL    HW127416   5.848   5.172   5.108
 8839SOL    HW227417   5.822   5.332   5.096
 8840SOL     OW27418   4.135   0.528   1.965
 8840SOL    HW127419   4.214   0.473   1.995
 8840SOL    HW227420   4.071   0.539   2.041
 8841SOL     OW27421   4.079   6.925   3.154
 8841SOL    HW127422   4.170   6.906   3.191
 8841SOL    HW227423   4.010   6.905   3.223
 8842SOL     OW27424   1.573   1.538   2.233
 8842SOL    HW127425   1.567   1.623   2.179
 8842SOL    HW227426   1.589   1.461   2.171
 8843SOL     OW27427   0.096   2.862   3.713
 8843SOL    HW127428   0.013   2.817   3.744
 8843SOL    HW227429   0.112   2.841   3.616
 8844SOL     OW27430   5.576   2.106   6.800
 8844SOL    HW127431   5.511   2.031   6.790
 8844SOL    HW227432   5.669   2.070   6.794
 8845SOL     OW27433   5.361   2.804   0.169
 8845SOL    HW127434   5.367   2.903   0.156
 8845SOL    HW227435   5.371   2.782   0.266
 8846SOL     OW27436   2.992   5.040   4.222
 8846SOL    HW127437   3.066   5.105   4.202
 8846SOL    HW227438   3.020   4.979   4.296
 8847SOL     OW27439   1.544   1.737   3.765
 8847SOL    HW127440   1.571   1.690   3.849
 8847SOL    HW227441   1.446   1.724   3.750
 8848SOL     OW27442   0.253   1.292   3.850
 8848SOL    HW127443   0.344   1.266   3.884
 8848SOL    HW227444   0.184   1.266   3.918
 8849SOL     OW27445   2.996   6.896   1.514
 8849SOL    HW127446   2.982   6.901   1.415
 8849SOL    HW227447   2.925   6.838   1.553
 8850SOL     OW27448   3.206   1.839   0.227
 8850SOL    HW127449   3.215   1.740   0.237
 8850SOL    HW227450   3.212   1.864   0.131
 8851SOL     OW27451   2.178   3.715   0.831
 8851SOL    HW127452   2.241   3.788   0.804
 8851SOL    HW227453   2.223   3.626   0.820
 8852SOL     OW27454   0.839   2.631   4.856
 8852SOL    HW127455   0.820   2.591   4.766
 8852SOL    HW227456   0.841   2.730   4.848
 8853SOL     OW27457   4.996   0.326   2.003
 8853SOL    HW127458   5.090   0.359   1.997
 8853SOL    HW227459   4.971   0.316   2.100
 8854SOL     OW27460   6.918   2.736   5.024
 8854SOL    HW127461   7.001   2.757   4.972
 8854SOL    HW227462   6.860   2.674   4.971
 8855SOL     OW27463   5.128   4.838   0.876
 8855SOL    HW127464   5.190   4.760   0.883
 8855SOL    HW227465   5.179   4.923   0.891
 8856SOL     OW27466   6.392   0.678   5.203
 8856SOL    HW127467   6.388   0.666   5.103
 8856SOL    HW227468   6.338   0.606   5.247
 8857SOL     OW27469   6.974   2.390   6.992
 8857SOL    HW127470   6.942   2.422   0.062
 8857SOL    HW227471   0.038   2.335   7.004
 8858SOL     OW27472   0.742   4.939   5.286
 8858SOL    HW127473   0.761   4.858   5.343
 8858SOL    HW227474   0.646   4.939   5.259
 8859SOL     OW27475   0.661   6.113   3.290
 8859SOL    HW127476   0.655   6.077   3.197
 8859SOL    HW227477   0.731   6.185   3.293
 8860SOL     OW27478   0.036   2.721   3.205
 8860SOL    HW127479   0.000   2.813   3.185
 8860SOL    HW227480   0.082   2.686   3.124
 8861SOL     OW27481   3.546   2.534   1.043
 8861SOL    HW127482   3.483   2.584   1.102
 8861SOL    HW227483   3.528   2.436   1.052
 8862SOL     OW27484   4.560   4.640   4.901
 8862SOL    HW127485   4.555   4.685   4.813
 8862SOL    HW227486   4.470   4.607   4.928
 8863SOL     OW27487   1.701   3.752   1.487
 8863SOL    HW127488   1.727   3.677   1.549
 8863SOL    HW227489   1.763   3.752   1.408
 8864SOL     OW27490   6.966   1.852   4.639
 8864SOL    HW127491   0.027   1.806   4.677
 8864SOL    HW227492   6.888   1.841   4.701
 8865SOL     OW27493   2.482   1.496   0.514
 8865SOL    HW127494   2.481   1.570   0.581
 8865SOL    HW227495   2.400   1.440   0.525
 8866SOL     OW27496   6.185   0.887   1.935
 8866SOL    HW127497   6.213   0.944   2.013
 8866SOL    HW227498   6.094   0.916   1.904
 8867SOL     OW27499   5.757   2.413   3.779
 8867SOL    HW127500   5.713   2.330   3.743
 8867SOL    HW227501   5.713   2.494   3.740
 8868SOL     OW27502   0.594   2.744   3.549
 8868SOL    HW127503   0.567   2.738   3.453
 8868SOL    HW227504   0.632   2.656   3.579
 8869SOL     OW27505   4.186   0.363   3.242
 8869SOL    HW127506   4.146   0.454   3.245
 8869SOL    HW227507   4.113   0.295   3.237
 8870SOL     OW27508   1.023   0.847   1.235
 8870SOL    HW127509   0.982   0.841   1.326
 8870SOL    HW227510   0.953   0.833   1.166
 8871SOL     OW27511   6.730   6.973   0.265
 8871SOL    HW127512   6.784   6.889   0.276
 8871SOL    HW227513   6.765   0.024   0.327
 8872SOL     OW27514   6.714   5.381   3.685
 8872SOL    HW127515   6.788   5.327   3.726
 8872SOL    HW227516   6.641   5.394   3.753
 8873SOL     OW27517   1.627   1.084   3.224
 8873SOL    HW127518   1.656   1.100   3.129
 8873SOL    HW227519   1.545   1.026   3.223
 8874SOL     OW27520   2.464   6.270   0.597
 8874SOL    HW127521   2.509   6.344   0.648
 8874SOL    HW227522   2.428   6.306   0.512
 8875SOL     OW27523   6.749   2.604   4.155
 8875SOL    HW127524   6.824   2.638   4.211
 8875SOL    HW227525   6.782   2.532   4.094
 8876SOL     OW27526   4.840   0.022   0.909
 8876SOL    HW127527   4.796   6.999   0.830
 8876SOL    HW227528   4.939   0.005   0.906
 8877SOL     OW27529   1.301   4.475   1.904
 8877SOL    HW127530   1.244   4.553   1.878
 8877SOL    HW227531   1.245   4.392   1.910
 8878SOL     OW27532   4.836   3.860   2.356
 8878SOL    HW127533   4.817   3.903   2.267
 8878SOL    HW227534   4.851   3.762   2.343
 8879SOL     OW27535   6.607   4.813   3.948
 8879SOL    HW127536   6.680   4.751   3.977
 8879SOL    HW227537   6.550   4.836   4.026
 8880SOL     OW27538   4.110   1.696   2.646
 8880SOL    HW127539   4.097   1.723   2.741
 8880SOL    HW227540   4.099   1.775   2.586
 8881SOL     OW27541   3.981   6.222   3.071
 8881SOL    HW127542   3.915   6.287   3.035
 8881SOL    HW227543   3.966   6.210   3.169
 8882SOL     OW27544   3.796   1.462   0.045
 8882SOL    HW127545   3.868   1.441   0.111
 8882SOL    HW227546   3.801   1.398   6.987
 8883SOL     OW27547   0.686   6.636   2.735
 8883SOL    HW127548   0.608   6.579   2.711
 8883SOL    HW227549   0.768   6.601   2.691
 8884SOL     OW27550   4.363   1.637   6.131
 8884SOL    HW127551   4.437   1.623   6.197
 8884SOL    HW227552   4.396   1.614   6.040
 8885SOL     OW27553   5.126   5.599   0.531
 8885SOL    HW127554   5.041   5.646   0.554
 8885SOL    HW227555   5.105   5.507   0.497
 8886SOL     OW27556   4.224   0.034   0.705
 8886SOL    HW127557   4.306   0.028   0.762
 8886SOL    HW227558   4.243   7.015   0.615
 8887SOL     OW27559   4.163   0.802   2.495
 8887SOL    HW127560   4.247   0.749   2.481
 8887SOL    HW227561   4.143   0.855   2.413
 8888SOL     OW27562   3.725   1.594   2.147
 8888SOL    HW127563   3.722   1.557   2.054
 8888SOL    HW227564   3.651   1.661   2.158
 8889SOL     OW27565   1.626   4.463   6.603
 8889SOL    HW127566   1.621   4.403   6.683
 8889SOL    HW227567   1.533   4.482   6.570
 8890SOL     OW27568   1.970   5.649   6.893
 8890SOL    HW127569   1.946   5.552   6.895
 8890SOL    HW227570   1.952   5.689   6.983
 8891SOL     OW27571   5.586   3.922   5.443
 8891SOL    HW127572   5.505   3.976   5.466
 8891SOL    HW227573   5.627   3.959   5.360
 8892SOL     OW27574   2.602   4.961   5.784
 8892SOL    HW127575   2.642   5.006   5.704
 8892SOL    HW227576   2.658   4.981   5.865
 8893SOL     OW27577   1.201   4.426   5.130
 8893SOL    HW127578   1.240   4.514   5.156
 8893SOL    HW227579   1.182   4.372   5.212
 8894SOL     OW27580   6.313   2.177   1.755
 8894SOL    HW127581   6.399   2.164   1.805
 8894SOL    HW227582   6.259   2.248   1.800
 8895SOL     OW27583   0.374   3.353   2.337
 8895SOL    HW127584   0.296   3.411   2.313
 8895SOL    HW227585   0.452   3.412   2.362
 8896SOL     OW27586   0.605   0.691   3.877
 8896SOL    HW127587   0.547   0.687   3.958
 8896SOL    HW227588   0.548   0.690   3.795
 8897SOL     OW27589   1.546   4.863   4.490
 8897SOL    HW127590   1.492   4.801   4.434
 8897SOL    HW227591   1.619   4.812   4.535
 8898SOL     OW27592   6.253   5.092   2.562
 8898SOL    HW127593   6.175   5.033   2.581
 8898SOL    HW227594   6.221   5.178   2.523
 8899SOL     OW27595   1.935   4.819   2.329
 8899SOL    HW127596   1.969   4.889   2.266
 8899SOL    HW227597   1.992   4.819   2.411
 8900SOL     OW27598   4.627   1.948   4.985
 8900SOL    HW127599   4.726   1.946   5.002
 8900SOL    HW227600   4.609   1.922   4.891
 8901SOL     OW27601   1.146   4.828   5.508
 8901SOL    HW127602   1.092   4.908   5.483
 8901SOL    HW227603   1.172   4.834   5.604
 8902SOL     OW27604   1.239   3.763   6.338
 8902SOL    HW127605   1.332   3.798   6.349
 8902SOL    HW227606   1.175   3.827   6.380
 8903SOL     OW27607   0.516   1.274   4.199
 8903SOL    HW127608   0.463   1.205   4.249
 8903SOL    HW227609   0.459   1.353   4.180
 8904SOL     OW27610   6.293   1.055   2.113
 8904SOL    HW127611   6.378   1.095   2.147
 8904SOL    HW227612   6.237   1.025   2.190
 8905SOL     OW27613   1.333   5.334   1.222
 8905SOL    HW127614   1.382   5.284   1.151
 8905SOL    HW227615   1.351   5.293   1.311
 8906SOL     OW27616   6.755   1.276   6.397
 8906SOL    HW127617   6.780   1.205   6.331
 8906SOL    HW227618   6.676   1.327   6.362
 8907SOL     OW27619   2.740   3.045   5.468
 8907SOL    HW127620   2.645   3.035   5.436
 8907SOL    HW227621   2.801   3.042   5.389
 8908SOL     OW27622   1.921   5.997   5.365
 8908SOL    HW127623   1.945   5.957   5.277
 8908SOL    HW227624   1.931   5.929   5.437
 8909SOL     OW27625   2.730   6.044   1.778
 8909SOL    HW127626   2.696   6.103   1.852
 8909SOL    HW227627   2.722   6.092   1.691
 8910SOL     OW27628   0.978   0.869   3.803
 8910SOL    HW127629   0.978   0.833   3.896
 8910SOL    HW227630   0.992   0.968   3.805
 8911SOL     OW27631   4.733   2.828   4.461
 8911SOL    HW127632   4.750   2.894   4.388
 8911SOL    HW227633   4.818   2.780   4.483
 8912SOL     OW27634   3.748   3.362   3.311
 8912SOL    HW127635   3.825   3.403   3.360
 8912SOL    HW227636   3.782   3.293   3.248
 8913SOL     OW27637   4.843   5.622   0.200
 8913SOL    HW127638   4.890   5.625   0.112
 8913SOL    HW227639   4.864   5.536   0.246
 8914SOL     OW27640   5.273   4.680   4.715
 8914SOL    HW127641   5.320   4.768   4.711
 8914SOL    HW227642   5.337   4.607   4.690
 8915SOL     OW27643   2.619   1.558   3.299
 8915SOL    HW127644   2.616   1.654   3.272
 8915SOL    HW227645   2.545   1.540   3.365
 8916SOL     OW27646   6.625   6.969   2.429
 8916SOL    HW127647   6.615   6.894   2.363
 8916SOL    HW227648   6.644   0.035   2.380
 8917SOL     OW27649   5.459   2.608   0.002
 8917SOL    HW127650   5.438   2.658   0.086
 8917SOL    HW227651   5.507   2.523   0.025
 8918SOL     OW27652   1.786   3.103   2.787
 8918SOL    HW127653   1.828   3.085   2.698
 8918SOL    HW227654   1.722   3.179   2.778
 8919SOL     OW27655   6.775   2.310   3.314
 8919SOL    HW127656   6.850   2.247   3.335
 8919SOL    HW227657   6.811   2.403   3.312
 8920SOL     OW27658   1.485   1.787   6.999
 8920SOL    HW127659   1.528   1.697   6.996
 8920SOL    HW227660   1.394   1.779   0.022
 8921SOL     OW27661   1.465   1.851   1.839
 8921SOL    HW127662   1.511   1.813   1.919
 8921SOL    HW227663   1.442   1.947   1.856
 8922SOL     OW27664   3.618   5.445   3.603
 8922SOL    HW127665   3.524   5.472   3.624
 8922SOL    HW227666   3.682   5.506   3.650
 8923SOL     OW27667   2.498   2.241   3.720
 8923SOL    HW127668   2.437   2.303   3.769
 8923SOL    HW227669   2.466   2.231   3.626
 8924SOL     OW27670   6.501   5.228   5.142
 8924SOL    HW127671   6.508   5.153   5.076
 8924SOL    HW227672   6.538   5.312   5.101
 8925SOL     OW27673   0.748   6.357   3.816
 8925SOL    HW127674   0.738   6.394   3.908
 8925SOL    HW227675   0.670   6.298   3.795
 8926SOL     OW27676   5.899   2.415   6.959
 8926SOL    HW127677   5.953   2.339   6.923
 8926SOL    HW227678   5.802   2.399   6.940
 8927SOL     OW27679   1.382   1.308   6.410
 8927SOL    HW127680   1.343   1.277   6.323
 8927SOL    HW227681   1.397   1.406   6.407
 8928SOL     OW27682   6.956   6.842   4.351
 8928SOL    HW127683   6.858   6.825   4.335
 8928SOL    HW227684   6.970   6.866   4.446
 8929SOL     OW27685   0.121   1.561   3.490
 8929SOL    HW127686   0.154   1.613   3.569
 8929SOL    HW227687   0.063   1.486   3.521
 8930SOL     OW27688   2.490   5.575   2.313
 8930SOL    HW127689   2.526   5.500   2.369
 8930SOL    HW227690   2.396   5.554   2.285
 8931SOL     OW27691   4.768   3.493   6.906
 8931SOL    HW127692   4.794   3.459   6.996
 8931SOL    HW227693   4.839   3.555   6.872
 8932SOL     OW27694   0.723   3.497   2.590
 8932SOL    HW127695   0.684   3.409   2.617
 8932SOL    HW227696   0.685   3.526   2.503
 8933SOL     OW27697   4.939   2.708   5.587
 8933SOL    HW127698   4.843   2.710   5.558
 8933SOL    HW227699   4.997   2.747   5.515
 8934SOL     OW27700   2.297   5.743   2.668
 8934SOL    HW127701   2.391   5.775   2.654
 8934SOL    HW227702   2.283   5.721   2.764
 8935SOL     OW27703   7.015   5.753   6.487
 8935SOL    HW127704   0.061   5.754   6.563
 8935SOL    HW227705   0.004   5.667   6.437
 8936SOL     OW27706   4.474   3.838   0.482
 8936SOL    HW127707   4.486   3.739   0.490
 8936SOL    HW227708   4.440   3.874   0.569
 8937SOL     OW27709   0.276   1.754   6.609
 8937SOL    HW127710   0.335   1.712   6.540
 8937SOL    HW227711   0.200   1.692   6.631
 8938SOL     OW27712   5.131   5.035   1.826
 8938SOL    HW127713   5.218   5.065   1.865
 8938SOL    HW227714   5.120   5.073   1.734
 8939SOL     OW27715   6.027   1.943   4.390
 8939SOL    HW127716   6.043   1.933   4.489
 8939SOL    HW227717   6.000   2.037   4.370
 8940SOL     OW27718   5.385   6.838   1.817
 8940SOL    HW127719   5.405   6.936   1.823
 8940SOL    HW227720   5.312   6.815   1.881
 8941SOL     OW27721   4.144   2.060   0.059
 8941SOL    HW127722   4.147   2.153   0.097
 8941SOL    HW227723   4.232   2.038   0.017
 8942SOL     OW27724   0.964   1.958   5.945
 8942SOL    HW127725   0.998   1.864   5.947
 8942SOL    HW227726   1.011   2.009   5.873
 8943SOL     OW27727   4.677   3.340   0.760
 8943SOL    HW127728   4.735   3.402   0.708
 8943SOL    HW227729   4.604   3.393   0.804
 8944SOL     OW27730   4.751   5.382   0.697
 8944SOL    HW127731   4.837   5.355   0.740
 8944SOL    HW227732   4.760   5.474   0.660
 8945SOL     OW27733   2.047   0.620   3.780
 8945SOL    HW127734   2.134   0.660   3.751
 8945SOL    HW227735   2.014   0.557   3.710
 8946SOL     OW27736   3.690   0.064   5.479
 8946SOL    HW127737   3.632   0.027   5.552
 8946SOL    HW227738   3.638   0.065   5.393
 8947SOL     OW27739   3.020   3.653   5.701
 8947SOL    HW127740   2.982   3.619   5.787
 8947SOL    HW227741   3.017   3.753   5.701
 8948SOL     OW27742   5.154   5.018   3.552
 8948SOL    HW127743   5.238   5.039   3.502
 8948SOL    HW227744   5.171   4.940   3.612
 8949SOL     OW27745   1.570   5.325   6.486
 8949SOL    HW127746   1.542   5.229   6.484
 8949SOL    HW227747   1.562   5.363   6.393
 8950SOL     OW27748   4.828   2.535   5.148
 8950SOL    HW127749   4.745   2.499   5.190
 8950SOL    HW227750   4.833   2.634   5.162
 8951SOL     OW27751   2.813   1.141   5.441
 8951SOL    HW127752   2.880   1.115   5.511
 8951SOL    HW227753   2.855   1.204   5.376
 8952SOL     OW27754   5.520   6.893   3.582
 8952SOL    HW127755   5.577   6.926   3.507
 8952SOL    HW227756   5.502   6.968   3.646
 8953SOL     OW27757   1.160   5.068   6.656
 8953SOL    HW127758   1.154   5.140   6.725
 8953SOL    HW227759   1.225   4.998   6.685
 8954SOL     OW27760   2.290   6.551   6.339
 8954SOL    HW127761   2.194   6.533   6.362
 8954SOL    HW227762   2.304   6.650   6.332
 8955SOL     OW27763   0.170   3.275   4.027
 8955SOL    HW127764   0.145   3.310   4.118
 8955SOL    HW227765   0.190   3.352   3.966
 8956SOL     OW27766   1.720   0.437   3.920
 8956SOL    HW127767   1.663   0.488   3.985
 8956SOL    HW227768   1.685   0.451   3.827
 8957SOL     OW27769   3.282   6.074   1.833
 8957SOL    HW127770   3.208   6.133   1.863
 8957SOL    HW227771   3.336   6.121   1.763
 8958SOL     OW27772   2.875   0.353   4.482
 8958SOL    HW127773   2.967   0.321   4.459
 8958SOL    HW227774   2.816   0.274   4.499
 8959SOL     OW27775   3.459   5.207   6.450
 8959SOL    HW127776   3.445   5.175   6.544
 8959SOL    HW227777   3.538   5.161   6.411
 8960SOL     OW27778   4.351   5.691   0.715
 8960SOL    HW127779   4.386   5.637   0.638
 8960SOL    HW227780   4.252   5.683   0.719
 8961SOL     OW27781   0.491   3.181   4.466
 8961SOL    HW127782   0.449   3.093   4.440
 8961SOL    HW227783   0.589   3.177   4.449
 8962SOL     OW27784   4.285   0.759   3.674
 8962SOL    HW127785   4.251   0.851   3.690
 8962SOL    HW227786   4.313   0.749   3.579
 8963SOL     OW27787   1.171   0.378   4.587
 8963SOL    HW127788   1.213   0.373   4.678
 8963SOL    HW227789   1.225   0.324   4.523
 8964SOL     OW27790   0.793   2.274   3.414
 8964SOL    HW127791   0.799   2.222   3.499
 8964SOL    HW227792   0.885   2.300   3.385
 8965SOL     OW27793   1.299   4.856   1.232
 8965SOL    HW127794   1.343   4.921   1.171
 8965SOL    HW227795   1.307   4.764   1.194
 8966SOL     OW27796   3.345   2.129   4.610
 8966SOL    HW127797   3.258   2.082   4.597
 8966SOL    HW227798   3.332   2.227   4.597
 8967SOL     OW27799   5.367   6.900   0.511
 8967SOL    HW127800   5.269   6.883   0.519
 8967SOL    HW227801   5.403   6.856   0.429
 8968SOL     OW27802   6.622   4.054   3.820
 8968SOL    HW127803   6.708   4.082   3.863
 8968SOL    HW227804   6.591   4.125   3.757
 8969SOL     OW27805   6.286   0.047   3.757
 8969SOL    HW127806   6.243   6.983   3.721
 8969SOL    HW227807   6.384   0.046   3.733
 8970SOL     OW27808   3.193   2.997   1.478
 8970SOL    HW127809   3.217   3.022   1.384
 8970SOL    HW227810   3.167   2.900   1.480
 8971SOL     OW27811   3.202   6.811   2.676
 8971SOL    HW127812   3.156   6.724   2.653
 8971SOL    HW227813   3.292   6.792   2.715
 8972SOL     OW27814   5.602   0.453   5.585
 8972SOL    HW127815   5.548   0.513   5.645
 8972SOL    HW227816   5.622   0.502   5.499
 8973SOL     OW27817   1.718   4.288   6.800
 8973SOL    HW127818   1.773   4.210   6.832
 8973SOL    HW227819   1.758   4.323   6.715
 8974SOL     OW27820   0.933   2.619   4.108
 8974SOL    HW127821   0.978   2.610   4.197
 8974SOL    HW227822   0.994   2.668   4.045
 8975SOL     OW27823   3.678   1.164   6.441
 8975SOL    HW127824   3.751   1.096   6.431
 8975SOL    HW227825   3.712   1.254   6.415
 8976SOL     OW27826   1.571   6.277   4.207
 8976SOL    HW127827   1.475   6.297   4.225
 8976SOL    HW227828   1.628   6.343   4.257
 8977SOL     OW27829   5.670   1.888   0.276
 8977SOL    HW127830   5.731   1.810   0.294
 8977SOL    HW227831   5.635   1.923   0.363
 8978SOL     OW27832   5.370   4.581   2.431
 8978SOL    HW127833   5.404   4.489   2.447
 8978SOL    HW227834   5.281   4.592   2.477
 8979SOL     OW27835   0.901   4.569   5.075
 8979SOL    HW127836   0.998   4.593   5.077
 8979SOL    HW227837   0.846   4.652   5.064
 8980SOL     OW27838   3.025   3.115   3.641
 8980SOL    HW127839   3.122   3.092   3.651
 8980SOL    HW227840   2.983   3.125   3.731
 8981SOL     OW27841   3.262   2.255   5.458
 8981SOL    HW127842   3.195   2.281   5.528
 8981SOL    HW227843   3.221   2.264   5.367
 8982SOL     OW27844   2.694   4.878   0.134
 8982SOL    HW127845   2.709   4.951   0.068
 8982SOL    HW227846   2.769   4.813   0.130
 8983SOL     OW27847   4.871   4.288   0.969
 8983SOL    HW127848   4.928   4.370   0.975
 8983SOL    HW227849   4.902   4.220   1.035
 8984SOL     OW27850   1.575   6.364   2.576
 8984SOL    HW127851   1.643   6.307   2.622
 8984SOL    HW227852   1.591   6.363   2.478
 8985SOL     OW27853   3.464   2.875   6.261
 8985SOL    HW127854   3.494   2.906   6.352
 8985SOL    HW227855   3.507   2.933   6.191
 8986SOL     OW27856   2.588   6.162   1.983
 8986SOL    HW127857   2.514   6.229   1.994
 8986SOL    HW227858   2.643   6.159   2.066
 8987SOL     OW27859   5.236   6.527   2.584
 8987SOL    HW127860   5.305   6.561   2.648
 8987SOL    HW227861   5.146   6.563   2.609
 8988SOL     OW27862   0.883   4.261   5.098
 8988SOL    HW127863   0.788   4.282   5.124
 8988SOL    HW227864   0.938   4.344   5.107
 8989SOL     OW27865   2.177   2.641   6.895
 8989SOL    HW127866   2.236   2.704   6.844
 8989SOL    HW227867   2.213   2.549   6.889
 8990SOL     OW27868   0.006   4.886   4.503
 8990SOL    HW127869   6.980   4.799   4.522
 8990SOL    HW227870   0.028   4.890   4.405
 8991SOL     OW27871   1.403   2.021   4.976
 8991SOL    HW127872   1.393   2.085   5.052
 8991SOL    HW227873   1.324   2.029   4.915
 8992SOL     OW27874   6.239   1.087   1.318
 8992SOL    HW127875   6.335   1.078   1.291
 8992SOL    HW227876   6.222   1.179   1.352
 8993SOL     OW27877   4.474   2.487   0.906
 8993SOL    HW127878   4.497   2.399   0.948
 8993SOL    HW227879   4.500   2.561   0.967
 8994SOL     OW27880   2.235   5.347   2.658
 8994SOL    HW127881   2.265   5.443   2.659
 8994SOL    HW227882   2.265   5.302   2.743
 8995SOL     OW27883   0.550   0.379   0.988
 8995SOL    HW127884   0.601   0.298   0.960
 8995SOL    HW227885   0.583   0.459   0.937
 8996SOL     OW27886   4.374   5.781   5.481
 8996SOL    HW127887   4.288   5.730   5.485
 8996SOL    HW227888   4.397   5.814   5.572
 8997SOL     OW27889   5.751   6.752   4.799
 8997SOL    HW127890   5.831   6.784   4.849
 8997SOL    HW227891   5.688   6.829   4.784
 8998SOL     OW27892   0.008   4.112   5.215
 8998SOL    HW127893   0.085   4.048   5.213
 8998SOL    HW227894   6.943   4.065   5.187
 8999SOL     OW27895   4.160   5.661   6.441
 8999SOL    HW127896   4.203   5.601   6.373
 8999SOL    HW227897   4.100   5.726   6.394
 9000SOL     OW27898   1.872   4.024   1.309
 9000SOL    HW127899   1.834   3.942   1.266
 9000SOL    HW227900   1.809   4.101   1.294
 9001SOL     OW27901   1.529   5.263   0.900
 9001SOL    HW127902   1.478   5.196   0.847
 9001SOL    HW227903   1.605   5.218   0.947
 9002SOL     OW27904   6.674   6.446   6.787
 9002SOL    HW127905   6.579   6.477   6.783
 9002SOL    HW227906   6.734   6.523   6.806
 9003SOL     OW27907   4.957   6.696   1.295
 9003SOL    HW127908   5.037   6.666   1.243
 9003SOL    HW227909   4.886   6.726   1.231
 9004SOL     OW27910   6.380   4.934   1.928
 9004SOL    HW127911   6.460   4.971   1.976
 9004SOL    HW227912   6.366   4.839   1.955
 9005SOL     OW27913   4.817   1.217   4.916
 9005SOL    HW127914   4.817   1.308   4.957
 9005SOL    HW227915   4.910   1.193   4.888
 9006SOL     OW27916   3.339   6.349   0.387
 9006SOL    HW127917   3.324   6.321   0.482
 9006SOL    HW227918   3.282   6.293   0.327
 9007SOL     OW27919   0.020   0.720   3.196
 9007SOL    HW127920   6.990   0.710   3.110
 9007SOL    HW227921   0.101   0.777   3.182
 9008SOL     OW27922   6.749   5.128   2.014
 9008SOL    HW127923   6.700   5.139   1.928
 9008SOL    HW227924   6.844   5.157   2.003
 9009SOL     OW27925   3.376   6.599   2.148
 9009SOL    HW127926   3.349   6.588   2.244
 9009SOL    HW227927   3.469   6.635   2.144
 9010SOL     OW27928   1.957   5.202   4.946
 9010SOL    HW127929   1.918   5.119   4.906
 9010SOL    HW227930   1.903   5.281   4.916
 9011SOL     OW27931   2.836   1.801   1.882
 9011SOL    HW127932   2.812   1.780   1.787
 9011SOL    HW227933   2.930   1.771   1.900
 9012SOL     OW27934   2.338   6.305   0.361
 9012SOL    HW127935   2.286   6.220   0.345
 9012SOL    HW227936   2.419   6.306   0.303
 9013SOL     OW27937   1.765   0.543   4.631
 9013SOL    HW127938   1.699   0.479   4.592
 9013SOL    HW227939   1.781   0.521   4.727
 9014SOL     OW27940   5.819   3.414   3.051
 9014SOL    HW127941   5.772   3.342   3.103
 9014SOL    HW227942   5.913   3.386   3.033
 9015SOL     OW27943   3.900   6.332   6.268
 9015SOL    HW127944   3.955   6.255   6.301
 9015SOL    HW227945   3.834   6.358   6.338
 9016SOL     OW27946   4.771   4.130   5.929
 9016SOL    HW127947   4.749   4.224   5.905
 9016SOL    HW227948   4.729   4.107   6.017
 9017SOL     OW27949   2.789   0.269   5.630
 9017SOL    HW127950   2.733   0.295   5.551
 9017SOL    HW227951   2.740   0.201   5.684
 9018SOL     OW27952   3.172   4.907   0.045
 9018SOL    HW127953   3.236   4.894   0.121
 9018SOL    HW227954   3.207   4.978   7.003
 9019SOL     OW27955   0.493   4.284   4.908
 9019SOL    HW127956   0.505   4.320   4.816
 9019SOL    HW227957   0.469   4.358   4.970
 9020SOL     OW27958   5.576   5.465   3.423
 9020SOL    HW127959   5.570   5.538   3.490
 9020SOL    HW227960   5.625   5.387   3.462
 9021SOL     OW27961   0.264   1.560   4.530
 9021SOL    HW127962   0.233   1.633   4.469
 9021SOL    HW227963   0.237   1.471   4.493
 9022SOL     OW27964   4.547   3.289   6.674
 9022SOL    HW127965   4.587   3.370   6.631
 9022SOL    HW227966   4.620   3.228   6.703
 9023SOL     OW27967   0.348   4.441   1.160
 9023SOL    HW127968   0.358   4.372   1.231
 9023SOL    HW227969   0.262   4.490   1.173
 9024SOL     OW27970   1.951   4.529   6.180
 9024SOL    HW127971   1.878   4.546   6.246
 9024SOL    HW227972   1.918   4.546   6.088
 9025SOL     OW27973   0.383   6.053   1.887
 9025SOL    HW127974   0.466   6.009   1.921
 9025SOL    HW227975   0.313   6.052   1.958
 9026SOL     OW27976   5.940   1.435   6.589
 9026SOL    HW127977   6.017   1.488   6.552
 9026SOL    HW227978   5.856   1.461   6.541
 9027SOL     OW27979   0.310   4.569   2.990
 9027SOL    HW127980   0.353   4.554   3.079
 9027SOL    HW227981   0.213   4.586   3.003
 9028SOL     OW27982   3.045   4.734   6.870
 9028SOL    HW127983   3.029   4.799   6.944
 9028SOL    HW227984   3.121   4.673   6.894
 9029SOL     OW27985   4.111   6.264   4.754
 9029SOL    HW127986   4.143   6.306   4.669
 9029SOL    HW227987   4.187   6.262   4.820
 9030SOL     OW27988   2.899   2.152   2.270
 9030SOL    HW127989   2.988   2.111   2.290
 9030SOL    HW227990   2.911   2.225   2.203
 9031SOL     OW27991   5.524   6.899   4.800
 9031SOL    HW127992   5.497   6.978   4.855
 9031SOL    HW227993   5.447   6.869   4.744
 9032SOL     OW27994   4.941   3.100   1.178
 9032SOL    HW127995   4.907   3.066   1.266
 9032SOL    HW227996   4.878   3.170   1.143
 9033SOL     OW27997   1.061   5.925   2.355
 9033SOL    HW127998   1.133   5.877   2.305
 9033SOL    HW227999   1.042   6.013   2.311
 9034SOL     OW28000   4.159   6.696   4.891
 9034SOL    HW128001   4.128   6.771   4.949
 9034SOL    HW228002   4.089   6.625   4.887
 9035SOL     OW28003   2.055   5.630   5.976
 9035SOL    HW128004   2.006   5.570   6.038
 9035SOL    HW228005   2.152   5.629   5.998
 9036SOL     OW28006   0.156   5.080   4.979
 9036SOL    HW128007   0.058   5.067   4.995
 9036SOL    HW228008   0.199   5.116   5.061
 9037SOL     OW28009   6.796   0.798   2.427
 9037SOL    HW128010   6.821   0.878   2.372
 9037SOL    HW228011   6.744   0.733   2.371
 9038SOL     OW28012   3.292   3.719   5.861
 9038SOL    HW128013   3.219   3.650   5.868
 9038SOL    HW228014   3.301   3.746   5.765
 9039SOL     OW28015   4.526   6.500   6.344
 9039SOL    HW128016   4.511   6.548   6.257
 9039SOL    HW228017   4.453   6.434   6.358
 9040SOL     OW28018   2.460   2.256   1.367
 9040SOL    HW128019   2.424   2.164   1.379
 9040SOL    HW228020   2.535   2.253   1.300
 9041SOL     OW28021   6.643   2.724   3.399
 9041SOL    HW128022   6.658   2.752   3.304
 9041SOL    HW228023   6.544   2.720   3.417
 9042SOL     OW28024   6.167   5.022   6.429
 9042SOL    HW128025   6.137   4.997   6.336
 9042SOL    HW228026   6.093   5.003   6.493
 9043SOL     OW28027   3.217   2.857   2.006
 9043SOL    HW128028   3.283   2.835   2.077
 9043SOL    HW228029   3.129   2.880   2.047
 9044SOL     OW28030   1.999   1.289   0.336
 9044SOL    HW128031   1.942   1.213   0.305
 9044SOL    HW228032   2.030   1.341   0.256
 9045SOL     OW28033   3.513   0.554   4.304
 9045SOL    HW128034   3.447   0.482   4.282
 9045SOL    HW228035   3.519   0.619   4.229
 9046SOL     OW28036   4.078   3.782   1.839
 9046SOL    HW128037   4.056   3.770   1.936
 9046SOL    HW228038   4.045   3.871   1.808
 9047SOL     OW28039   0.763   4.010   5.589
 9047SOL    HW128040   0.769   3.992   5.687
 9047SOL    HW228041   0.835   4.076   5.563
 9048SOL     OW28042   0.737   2.674   5.311
 9048SOL    HW128043   0.708   2.738   5.240
 9048SOL    HW228044   0.721   2.580   5.281
 9049SOL     OW28045   0.304   6.348   4.976
 9049SOL    HW128046   0.390   6.297   4.986
 9049SOL    HW228047   0.256   6.352   5.063
 9050SOL     OW28048   1.016   4.281   6.924
 9050SOL    HW128049   1.008   4.236   6.836
 9050SOL    HW228050   0.953   4.359   6.928
 9051SOL     OW28051   1.823   1.297   1.442
 9051SOL    HW128052   1.824   1.279   1.344
 9051SOL    HW228053   1.912   1.272   1.481
 9052SOL     OW28054   2.330   2.806   6.769
 9052SOL    HW128055   2.368   2.798   6.677
 9052SOL    HW228056   2.373   2.883   6.816
 9053SOL     OW28057   0.383   1.288   0.620
 9053SOL    HW128058   0.452   1.217   0.635
 9053SOL    HW228059   0.404   1.338   0.536
 9054SOL     OW28060   1.139   5.465   3.225
 9054SOL    HW128061   1.198   5.421   3.158
 9054SOL    HW228062   1.137   5.564   3.209
 9055SOL     OW28063   0.544   2.635   6.267
 9055SOL    HW128064   0.446   2.645   6.282
 9055SOL    HW228065   0.589   2.724   6.278
 9056SOL     OW28066   4.917   0.940   4.099
 9056SOL    HW128067   4.894   1.011   4.166
 9056SOL    HW228068   5.006   0.960   4.059
 9057SOL     OW28069   4.773   1.384   3.971
 9057SOL    HW128070   4.751   1.288   3.958
 9057SOL    HW228071   4.692   1.433   4.001
 9058SOL     OW28072   1.876   6.455   5.873
 9058SOL    HW128073   1.943   6.473   5.802
 9058SOL    HW228074   1.796   6.513   5.860
 9059SOL     OW28075   2.024   2.111   3.627
 9059SOL    HW128076   2.112   2.071   3.602
 9059SOL    HW228077   2.031   2.211   3.624
 9060SOL     OW28078   5.627   2.152   5.523
 9060SOL    HW128079   5.691   2.117   5.455
 9060SOL    HW228080   5.621   2.251   5.516
 9061SOL     OW28081   2.309   4.806   4.096
 9061SOL    HW128082   2.244   4.800   4.021
 9061SOL    HW228083   2.259   4.806   4.183
 9062SOL     OW28084   1.834   6.747   1.665
 9062SOL    HW128085   1.882   6.660   1.680
 9062SOL    HW228086   1.753   6.731   1.609
 9063SOL     OW28087   2.791   1.730   1.617
 9063SOL    HW128088   2.721   1.800   1.606
 9063SOL    HW228089   2.872   1.756   1.565
 9064SOL     OW28090   3.939   3.680   0.312
 9064SOL    HW128091   4.026   3.728   0.303
 9064SOL    HW228092   3.865   3.747   0.320
 9065SOL     OW28093   2.826   0.927   0.816
 9065SOL    HW128094   2.898   0.906   0.749
 9065SOL    HW228095   2.822   1.026   0.831
 9066SOL     OW28096   4.852   6.577   0.237
 9066SOL    HW128097   4.852   6.485   0.275
 9066SOL    HW228098   4.809   6.575   0.146
 9067SOL     OW28099   0.413   0.512   2.052
 9067SOL    HW128100   0.454   0.603   2.041
 9067SOL    HW228101   0.484   0.446   2.077
 9068SOL     OW28102   0.672   6.156   6.180
 9068SOL    HW128103   0.692   6.097   6.102
 9068SOL    HW228104   0.583   6.200   6.167
 9069SOL     OW28105   1.124   2.491   5.604
 9069SOL    HW128106   1.034   2.530   5.582
 9069SOL    HW228107   1.195   2.544   5.559
 9070SOL     OW28108   1.470   3.828   4.527
 9070SOL    HW128109   1.549   3.847   4.468
 9070SOL    HW228110   1.500   3.828   4.622
 9071SOL     OW28111   4.897   5.381   6.913
 9071SOL    HW128112   4.984   5.332   6.925
 9071SOL    HW228113   4.823   5.325   6.950
 9072SOL     OW28114   5.577   4.287   0.969
 9072SOL    HW128115   5.601   4.376   0.931
 9072SOL    HW228116   5.477   4.278   0.974
 9073SOL     OW28117   1.882   0.078   1.334
 9073SOL    HW128118   1.979   0.060   1.321
 9073SOL    HW228119   1.854   0.046   1.425
 9074SOL     OW28120   0.968   1.112   1.015
 9074SOL    HW128121   0.951   1.049   1.091
 9074SOL    HW228122   0.937   1.203   1.040
 9075SOL     OW28123   6.338   0.190   0.897
 9075SOL    HW128124   6.398   0.250   0.845
 9075SOL    HW228125   6.379   0.171   0.986
 9076SOL     OW28126   1.382   2.837   5.823
 9076SOL    HW128127   1.326   2.783   5.760
 9076SOL    HW228128   1.471   2.793   5.835
 9077SOL     OW28129   5.481   5.558   1.895
 9077SOL    HW128130   5.465   5.604   1.983
 9077SOL    HW228131   5.462   5.622   1.821
 9078SOL     OW28132   4.828   3.070   5.259
 9078SOL    HW128133   4.834   3.164   5.226
 9078SOL    HW228134   4.860   3.008   5.187
 9079SOL     OW28135   1.213   0.618   5.569
 9079SOL    HW128136   1.172   0.707   5.544
 9079SOL    HW228137   1.312   0.625   5.565
 9080SOL     OW28138   4.331   0.874   0.682
 9080SOL    HW128139   4.294   0.934   0.611
 9080SOL    HW228140   4.377   0.929   0.751
 9081SOL     OW28141   5.750   6.720   3.719
 9081SOL    HW128142   5.667   6.694   3.669
 9081SOL    HW228143   5.830   6.704   3.661
 9082SOL     OW28144   1.963   0.143   2.142
 9082SOL    HW128145   1.876   0.117   2.100
 9082SOL    HW228146   2.039   0.103   2.090
 9083SOL     OW28147   4.319   5.255   3.391
 9083SOL    HW128148   4.315   5.331   3.326
 9083SOL    HW228149   4.228   5.241   3.430
 9084SOL     OW28150   3.563   3.642   2.520
 9084SOL    HW128151   3.641   3.646   2.457
 9084SOL    HW228152   3.545   3.733   2.557
 9085SOL     OW28153   1.516   1.860   0.846
 9085SOL    HW128154   1.588   1.915   0.804
 9085SOL    HW228155   1.536   1.763   0.833
 9086SOL     OW28156   6.776   3.434   1.137
 9086SOL    HW128157   6.850   3.446   1.070
 9086SOL    HW228158   6.696   3.486   1.107
 9087SOL     OW28159   5.216   4.387   2.011
 9087SOL    HW128160   5.151   4.460   1.987
 9087SOL    HW228161   5.229   4.385   2.110
 9088SOL     OW28162   6.166   4.862   2.251
 9088SOL    HW128163   6.161   4.780   2.194
 9088SOL    HW228164   6.096   4.858   2.322
 9089SOL     OW28165   4.742   1.046   5.795
 9089SOL    HW128166   4.659   1.073   5.845
 9089SOL    HW228167   4.812   1.018   5.861
 9090SOL     OW28168   0.131   2.521   3.886
 9090SOL    HW128169   0.180   2.439   3.856
 9090SOL    HW228170   0.044   2.528   3.837
 9091SOL     OW28171   4.103   3.229   5.860
 9091SOL    HW128172   4.011   3.245   5.898
 9091SOL    HW228173   4.127   3.133   5.872
 9092SOL     OW28174   6.961   3.996   6.339
 9092SOL    HW128175   6.995   3.915   6.387
 9092SOL    HW228176   6.909   3.969   6.258
 9093SOL     OW28177   2.641   6.093   4.608
 9093SOL    HW128178   2.615   6.154   4.532
 9093SOL    HW228179   2.615   6.135   4.695
 9094SOL     OW28180   1.526   4.136   0.388
 9094SOL    HW128181   1.546   4.220   0.439
 9094SOL    HW228182   1.479   4.071   0.448
 9095SOL     OW28183   0.281   0.324   5.974
 9095SOL    HW128184   0.352   0.293   5.911
 9095SOL    HW228185   0.290   0.276   6.061
 9096SOL     OW28186   6.493   5.359   3.851
 9096SOL    HW128187   6.495   5.324   3.945
 9096SOL    HW228188   6.466   5.285   3.789
 9097SOL     OW28189   0.700   4.331   0.970
 9097SOL    HW128190   0.649   4.334   1.056
 9097SOL    HW228191   0.674   4.249   0.919
 9098SOL     OW28192   1.967   5.516   4.665
 9098SOL    HW128193   1.911   5.569   4.601
 9098SOL    HW228194   2.030   5.458   4.614
 9099SOL     OW28195   1.648   0.780   6.610
 9099SOL    HW128196   1.569   0.809   6.664
 9099SOL    HW228197   1.719   0.851   6.614
 9100SOL     OW28198   1.717   4.994   4.258
 9100SOL    HW128199   1.653   4.992   4.335
 9100SOL    HW228200   1.791   4.928   4.274
 9101SOL     OW28201   6.182   1.989   1.586
 9101SOL    HW128202   6.223   2.037   1.664
 9101SOL    HW228203   6.086   1.971   1.606
 9102SOL     OW28204   3.924   0.794   3.159
 9102SOL    HW128205   3.855   0.728   3.127
 9102SOL    HW228206   3.880   0.863   3.216
 9103SOL     OW28207   5.737   0.833   1.255
 9103SOL    HW128208   5.813   0.768   1.262
 9103SOL    HW228209   5.725   0.860   1.160
 9104SOL     OW28210   5.024   2.732   5.837
 9104SOL    HW128211   4.983   2.663   5.897
 9104SOL    HW228212   4.974   2.735   5.751
 9105SOL     OW28213   2.881   0.732   0.274
 9105SOL    HW128214   2.862   0.703   0.368
 9105SOL    HW228215   2.971   0.774   0.270
 9106SOL     OW28216   2.455   2.952   6.085
 9106SOL    HW128217   2.407   2.994   6.007
 9106SOL    HW228218   2.464   2.854   6.069
 9107SOL     OW28219   3.982   0.445   0.960
 9107SOL    HW128220   4.075   0.465   0.929
 9107SOL    HW228221   3.939   0.529   0.993
 9108SOL     OW28222   6.101   6.883   5.864
 9108SOL    HW128223   6.004   6.901   5.845
 9108SOL    HW228224   6.141   6.834   5.787
 9109SOL     OW28225   5.444   3.734   3.154
 9109SOL    HW128226   5.433   3.769   3.060
 9109SOL    HW228227   5.541   3.738   3.179
 9110SOL     OW28228   0.700   6.166   1.809
 9110SOL    HW128229   0.646   6.140   1.889
 9110SOL    HW228230   0.792   6.128   1.818
 9111SOL     OW28231   5.072   3.468   5.601
 9111SOL    HW128232   5.081   3.517   5.688
 9111SOL    HW228233   5.163   3.438   5.571
 9112SOL     OW28234   0.710   4.639   1.739
 9112SOL    HW128235   0.804   4.624   1.770
 9112SOL    HW228236   0.647   4.603   1.808
 9113SOL     OW28237   5.487   0.133   4.945
 9113SOL    HW128238   5.500   0.223   4.904
 9113SOL    HW228239   5.401   0.133   4.997
 9114SOL     OW28240   6.703   1.541   6.140
 9114SOL    HW128241   6.646   1.460   6.152
 9114SOL    HW228242   6.722   1.582   6.229
 9115SOL     OW28243   5.166   3.732   4.587
 9115SOL    HW128244   5.239   3.676   4.548
 9115SOL    HW228245   5.173   3.826   4.553
 9116SOL     OW28246   0.770   5.462   3.551
 9116SOL    HW128247   0.748   5.455   3.454
 9116SOL    HW228248   0.819   5.380   3.580
 9117SOL     OW28249   1.841   6.493   6.707
 9117SOL    HW128250   1.887   6.459   6.789
 9117SOL    HW228251   1.848   6.424   6.634
 9118SOL     OW28252   0.251   4.730   1.197
 9118SOL    HW128253   0.337   4.737   1.248
 9118SOL    HW228254   0.240   4.811   1.140
 9119SOL     OW28255   3.772   2.046   0.967
 9119SOL    HW128256   3.867   2.030   0.941
 9119SOL    HW228257   3.753   2.144   0.963
 9120SOL     OW28258   6.752   4.781   5.051
 9120SOL    HW128259   6.803   4.716   4.994
 9120SOL    HW228260   6.799   4.791   5.139
 9121SOL     OW28261   4.446   1.328   4.821
 9121SOL    HW128262   4.438   1.339   4.920
 9121SOL    HW228263   4.413   1.410   4.775
 9122SOL     OW28264   0.216   1.641   2.388
 9122SOL    HW128265   0.152   1.701   2.435
 9122SOL    HW228266   0.255   1.687   2.309
 9123SOL     OW28267   0.528   6.068   4.681
 9123SOL    HW128268   0.540   6.059   4.780
 9123SOL    HW228269   0.540   5.979   4.637
 9124SOL     OW28270   2.920   5.603   0.869
 9124SOL    HW128271   2.972   5.521   0.896
 9124SOL    HW228272   2.835   5.575   0.824
 9125SOL     OW28273   4.772   6.591   2.130
 9125SOL    HW128274   4.806   6.609   2.222
 9125SOL    HW228275   4.844   6.549   2.075
 9126SOL     OW28276   3.741   4.995   0.001
 9126SOL    HW128277   3.833   4.965   0.025
 9126SOL    HW228278   3.676   4.922   0.023
 9127SOL     OW28279   6.005   3.990   6.530
 9127SOL    HW128280   6.068   3.986   6.452
 9127SOL    HW228281   6.018   4.077   6.578
 9128SOL     OW28282   5.153   3.091   6.933
 9128SOL    HW128283   5.161   3.017   6.867
 9128SOL    HW228284   5.193   3.174   6.895
 9129SOL     OW28285   0.825   2.394   1.387
 9129SOL    HW128286   0.761   2.325   1.420
 9129SOL    HW228287   0.917   2.374   1.421
 9130SOL     OW28288   3.059   4.005   6.392
 9130SOL    HW128289   3.100   4.070   6.456
 9130SOL    HW228290   3.130   3.968   6.333
 9131SOL     OW28291   6.139   3.051   0.641
 9131SOL    HW128292   6.188   3.127   0.599
 9131SOL    HW228293   6.145   2.970   0.582
 9132SOL     OW28294   1.080   4.546   3.832
 9132SOL    HW128295   0.985   4.576   3.830
 9132SOL    HW228296   1.133   4.608   3.890
 9133SOL     OW28297   5.185   6.671   0.666
 9133SOL    HW128298   5.244   6.616   0.725
 9133SOL    HW228299   5.101   6.621   0.647
 9134SOL     OW28300   4.923   4.120   6.529
 9134SOL    HW128301   4.998   4.070   6.486
 9134SOL    HW228302   4.848   4.131   6.463
 9135SOL     OW28303   6.372   5.037   2.318
 9135SOL    HW128304   6.319   4.971   2.265
 9135SOL    HW228305   6.328   5.051   2.407
 9136SOL     OW28306   0.020   5.295   6.708
 9136SOL    HW128307   0.087   5.312   6.780
 9136SOL    HW228308   6.966   5.237   6.744
 9137SOL     OW28309   5.955   5.504   5.992
 9137SOL    HW128310   6.003   5.546   6.069
 9137SOL    HW228311   5.997   5.416   5.970
 9138SOL     OW28312   1.837   3.779   5.664
 9138SOL    HW128313   1.803   3.693   5.703
 9138SOL    HW228314   1.778   3.807   5.588
 9139SOL     OW28315   0.910   6.992   1.079
 9139SOL    HW128316   0.952   0.001   1.165
 9139SOL    HW228317   0.865   6.903   1.091
 9140SOL     OW28318   0.378   4.454   2.675
 9140SOL    HW128319   0.389   4.540   2.725
 9140SOL    HW228320   0.453   4.392   2.700
 9141SOL     OW28321   7.003   5.371   4.225
 9141SOL    HW128322   6.981   5.277   4.250
 9141SOL    HW228323   6.962   5.434   4.292
 9142SOL     OW28324   1.965   5.476   3.150
 9142SOL    HW128325   2.032   5.549   3.166
 9142SOL    HW228326   1.873   5.511   3.168
 9143SOL     OW28327   5.231   3.428   2.324
 9143SOL    HW128328   5.197   3.480   2.402
 9143SOL    HW228329   5.239   3.331   2.350
 9144SOL     OW28330   2.717   4.724   5.558
 9144SOL    HW128331   2.750   4.633   5.535
 9144SOL    HW228332   2.764   4.792   5.502
 9145SOL     OW28333   2.687   5.392   6.566
 9145SOL    HW128334   2.783   5.366   6.556
 9145SOL    HW228335   2.672   5.482   6.525
 9146SOL     OW28336   5.274   1.244   4.410
 9146SOL    HW128337   5.349   1.305   4.386
 9146SOL    HW228338   5.294   1.199   4.497
 9147SOL     OW28339   3.659   6.758   6.312
 9147SOL    HW128340   3.698   6.825   6.248
 9147SOL    HW228341   3.723   6.740   6.386
 9148SOL     OW28342   3.515   5.810   1.877
 9148SOL    HW128343   3.590   5.847   1.822
 9148SOL    HW228344   3.427   5.841   1.840
 9149SOL     OW28345   0.872   4.014   2.036
 9149SOL    HW128346   0.855   4.112   2.036
 9149SOL    HW228347   0.958   3.995   1.988
 9150SOL     OW28348   3.801   3.585   0.069
 9150SOL    HW128349   3.894   3.595   0.103
 9150SOL    HW228350   3.737   3.627   0.134
 9151SOL     OW28351   2.230   4.256   3.641
 9151SOL    HW128352   2.247   4.330   3.706
 9151SOL    HW228353   2.246   4.289   3.548
 9152SOL     OW28354   1.800   5.367   2.158
 9152SOL    HW128355   1.804   5.274   2.120
 9152SOL    HW228356   1.704   5.393   2.170
 9153SOL     OW28357   0.995   3.319   1.263
 9153SOL    HW128358   0.928   3.280   1.200
 9153SOL    HW228359   0.968   3.300   1.357
 9154SOL     OW28360   4.348   5.332   2.372
 9154SOL    HW128361   4.393   5.243   2.379
 9154SOL    HW228362   4.301   5.353   2.458
 9155SOL     OW28363   0.383   0.193   1.987
 9155SOL    HW128364   0.462   0.151   1.942
 9155SOL    HW228365   0.407   0.285   2.018
 9156SOL     OW28366   6.792   4.491   5.649
 9156SOL    HW128367   6.794   4.414   5.586
 9156SOL    HW228368   6.703   4.537   5.643
 9157SOL     OW28369   2.401   4.714   4.973
 9157SOL    HW128370   2.411   4.808   5.005
 9157SOL    HW228371   2.459   4.654   5.028
 9158SOL     OW28372   6.849   2.529   3.811
 9158SOL    HW128373   6.887   2.519   3.719
 9158SOL    HW228374   6.790   2.609   3.814
 9159SOL     OW28375   1.743   0.388   3.190
 9159SOL    HW128376   1.662   0.373   3.134
 9159SOL    HW228377   1.814   0.321   3.164
 9160SOL     OW28378   0.029   3.434   6.785
 9160SOL    HW128379   0.103   3.369   6.769
 9160SOL    HW228380   0.046   3.483   6.870
 9161SOL     OW28381   6.317   3.025   2.827
 9161SOL    HW128382   6.290   3.021   2.923
 9161SOL    HW228383   6.242   3.063   2.773
 9162SOL     OW28384   5.409   2.198   1.860
 9162SOL    HW128385   5.334   2.260   1.839
 9162SOL    HW228386   5.463   2.181   1.777
 9163SOL     OW28387   1.206   3.924   2.789
 9163SOL    HW128388   1.304   3.944   2.792
 9163SOL    HW228389   1.184   3.856   2.859
 9164SOL     OW28390   4.246   0.823   0.936
 9164SOL    HW128391   4.314   0.755   0.967
 9164SOL    HW228392   4.252   0.832   0.837
 9165SOL     OW28393   6.688   0.365   0.239
 9165SOL    HW128394   6.619   0.292   0.231
 9165SOL    HW228395   6.671   0.434   0.168
 9166SOL     OW28396   4.028   5.430   1.942
 9166SOL    HW128397   4.083   5.420   2.025
 9166SOL    HW228398   4.078   5.391   1.865
 9167SOL     OW28399   0.622   3.146   5.077
 9167SOL    HW128400   0.631   3.169   5.174
 9167SOL    HW228401   0.575   3.220   5.029
 9168SOL     OW28402   6.280   6.845   4.961
 9168SOL    HW128403   6.261   6.811   4.868
 9168SOL    HW228404   6.350   6.917   4.956
 9169SOL     OW28405   5.691   5.858   0.212
 9169SOL    HW128406   5.621   5.902   0.155
 9169SOL    HW228407   5.653   5.835   0.301
 9170SOL     OW28408   1.375   6.742   4.699
 9170SOL    HW128409   1.439   6.679   4.743
 9170SOL    HW228410   1.427   6.810   4.646
 9171SOL     OW28411   4.460   5.463   6.778
 9171SOL    HW128412   4.387   5.462   6.710
 9171SOL    HW228413   4.518   5.383   6.767
 9172SOL     OW28414   5.075   0.388   6.076
 9172SOL    HW128415   5.173   0.380   6.058
 9172SOL    HW228416   5.031   0.434   6.000
 9173SOL     OW28417   5.660   3.973   6.786
 9173SOL    HW128418   5.681   4.036   6.712
 9173SOL    HW228419   5.654   4.024   6.872
 9174SOL     OW28420   5.503   5.203   6.982
 9174SOL    HW128421   5.514   5.178   6.885
 9174SOL    HW228422   5.406   5.220   7.001
 9175SOL     OW28423   2.338   0.809   1.574
 9175SOL    HW128424   2.362   0.712   1.575
 9175SOL    HW228425   2.374   0.851   1.491
 9176SOL     OW28426   1.142   6.826   2.120
 9176SOL    HW128427   1.053   6.786   2.098
 9176SOL    HW228428   1.167   6.802   2.214
 9177SOL     OW28429   0.497   5.795   3.251
 9177SOL    HW128430   0.466   5.704   3.280
 9177SOL    HW228431   0.572   5.824   3.310
 9178SOL     OW28432   0.922   2.656   1.346
 9178SOL    HW128433   0.871   2.708   1.277
 9178SOL    HW228434   0.881   2.566   1.357
 9179SOL     OW28435   3.585   6.246   2.593
 9179SOL    HW128436   3.595   6.325   2.533
 9179SOL    HW228437   3.675   6.220   2.629
 9180SOL     OW28438   0.768   1.469   4.119
 9180SOL    HW128439   0.682   1.460   4.169
 9180SOL    HW228440   0.842   1.432   4.174
 9181SOL     OW28441   3.104   1.963   2.802
 9181SOL    HW128442   3.170   1.985   2.731
 9181SOL    HW228443   3.138   1.886   2.857
 9182SOL     OW28444   6.320   0.667   2.716
 9182SOL    HW128445   6.419   0.684   2.715
 9182SOL    HW228446   6.288   0.663   2.811
 9183SOL     OW28447   2.848   1.611   5.604
 9183SOL    HW128448   2.882   1.518   5.598
 9183SOL    HW228449   2.758   1.611   5.648
 9184SOL     OW28450   2.834   6.459   0.186
 9184SOL    HW128451   2.907   6.461   0.255
 9184SOL    HW228452   2.816   6.551   0.153
 9185SOL     OW28453   0.800   1.065   4.991
 9185SOL    HW128454   0.754   1.103   4.911
 9185SOL    HW228455   0.888   1.025   4.963
 9186SOL     OW28456   4.973   6.496   5.894
 9186SOL    HW128457   4.927   6.419   5.938
 9186SOL    HW228458   4.993   6.474   5.799
 9187SOL     OW28459   4.552   3.061   1.197
 9187SOL    HW128460   4.473   3.009   1.165
 9187SOL    HW228461   4.535   3.094   1.290
 9188SOL     OW28462   1.842   0.929   2.385
 9188SOL    HW128463   1.826   1.018   2.343
 9188SOL    HW228464   1.781   0.918   2.464
 9189SOL     OW28465   3.072   0.248   6.909
 9189SOL    HW128466   3.080   0.330   6.852
 9189SOL    HW228467   3.022   0.270   6.993
 9190SOL     OW28468   3.548   0.836   6.218
 9190SOL    HW128469   3.520   0.740   6.219
 9190SOL    HW228470   3.614   0.851   6.144
 9191SOL     OW28471   5.301   0.519   1.634
 9191SOL    HW128472   5.291   0.420   1.646
 9191SOL    HW228473   5.249   0.567   1.704
 9192SOL     OW28474   4.384   4.652   3.629
 9192SOL    HW128475   4.369   4.632   3.532
 9192SOL    HW228476   4.348   4.743   3.650
 9193SOL     OW28477   3.803   4.039   1.990
 9193SOL    HW128478   3.736   4.110   2.014
 9193SOL    HW228479   3.757   3.967   1.938
 9194SOL     OW28480   2.569   5.516   3.287
 9194SOL    HW128481   2.661   5.554   3.301
 9194SOL    HW228482   2.575   5.431   3.235
 9195SOL     OW28483   0.326   3.546   3.623
 9195SOL    HW128484   0.391   3.470   3.628
 9195SOL    HW228485   0.364   3.619   3.566
 9196SOL     OW28486   5.752   5.498   3.210
 9196SOL    HW128487   5.674   5.483   3.271
 9196SOL    HW228488   5.764   5.597   3.195
 9197SOL     OW28489   4.366   2.459   6.692
 9197SOL    HW128490   4.311   2.515   6.629
 9197SOL    HW228491   4.324   2.369   6.703
 9198SOL     OW28492   6.888   3.342   4.738
 9198SOL    HW128493   6.955   3.410   4.769
 9198SOL    HW228494   6.796   3.372   4.764
 9199SOL     OW28495   0.547   3.453   6.618
 9199SOL    HW128496   0.624   3.388   6.612
 9199SOL    HW228497   0.569   3.524   6.684
 9200SOL     OW28498   4.473   5.956   2.059
 9200SOL    HW128499   4.473   6.047   2.101
 9200SOL    HW228500   4.563   5.936   2.023
 9201SOL     OW28501   0.457   2.921   2.589
 9201SOL    HW128502   0.459   2.976   2.673
 9201SOL    HW228503   0.479   2.979   2.511
 9202SOL     OW28504   1.963   6.321   3.029
 9202SOL    HW128505   1.985   6.397   2.968
 9202SOL    HW228506   1.955   6.356   3.123
 9203SOL     OW28507   5.106   2.461   0.147
 9203SOL    HW128508   5.174   2.425   0.212
 9203SOL    HW228509   5.127   2.428   0.055
 9204SOL     OW28510   5.129   4.169   1.832
 9204SOL    HW128511   5.162   4.246   1.886
 9204SOL    HW228512   5.090   4.100   1.893
 9205SOL     OW28513   4.923   2.615   0.667
 9205SOL    HW128514   4.953   2.642   0.758
 9205SOL    HW228515   4.998   2.625   0.602
 9206SOL     OW28516   6.904   0.388   5.020
 9206SOL    HW128517   6.917   0.467   5.079
 9206SOL    HW228518   6.973   0.319   5.041
 9207SOL     OW28519   5.680   6.385   0.701
 9207SOL    HW128520   5.660   6.448   0.626
 9207SOL    HW228521   5.616   6.309   0.699
 9208SOL     OW28522   6.343   3.786   1.366
 9208SOL    HW128523   6.338   3.778   1.465
 9208SOL    HW228524   6.269   3.734   1.324
 9209SOL     OW28525   5.155   0.615   4.180
 9209SOL    HW128526   5.079   0.634   4.118
 9209SOL    HW228527   5.126   0.549   4.249
 9210SOL     OW28528   1.578   6.642   0.529
 9210SOL    HW128529   1.488   6.671   0.497
 9210SOL    HW228530   1.569   6.599   0.619
 9211SOL     OW28531   5.515   1.107   6.279
 9211SOL    HW128532   5.446   1.054   6.329
 9211SOL    HW228533   5.491   1.107   6.181
 9212SOL     OW28534   5.894   3.451   6.079
 9212SOL    HW128535   5.838   3.433   6.159
 9212SOL    HW228536   5.859   3.400   6.001
 9213SOL     OW28537   0.520   6.356   3.365
 9213SOL    HW128538   0.553   6.262   3.352
 9213SOL    HW228539   0.435   6.353   3.418
 9214SOL     OW28540   1.445   1.023   5.529
 9214SOL    HW128541   1.497   1.003   5.612
 9214SOL    HW228542   1.501   1.078   5.467
 9215SOL     OW28543   6.647   4.451   3.859
 9215SOL    HW128544   6.628   4.368   3.807
 9215SOL    HW228545   6.640   4.530   3.799
 9216SOL     OW28546   1.481   6.913   3.267
 9216SOL    HW128547   1.396   6.866   3.291
 9216SOL    HW228548   1.543   6.849   3.221
 9217SOL     OW28549   4.107   2.299   0.172
 9217SOL    HW128550   4.127   2.329   0.265
 9217SOL    HW228551   4.089   2.379   0.115
 9218SOL     OW28552   5.204   5.718   5.969
 9218SOL    HW128553   5.179   5.627   5.936
 9218SOL    HW228554   5.122   5.774   5.979
 9219SOL     OW28555   3.229   2.596   5.592
 9219SOL    HW128556   3.163   2.671   5.602
 9219SOL    HW228557   3.186   2.511   5.622
 9220SOL     OW28558   0.269   6.702   3.650
 9220SOL    HW128559   0.213   6.754   3.715
 9220SOL    HW228560   0.358   6.745   3.641
 9221SOL     OW28561   2.583   1.260   2.372
 9221SOL    HW128562   2.569   1.359   2.382
 9221SOL    HW228563   2.524   1.211   2.437
 9222SOL     OW28564   2.375   6.070   2.698
 9222SOL    HW128565   2.456   6.011   2.702
 9222SOL    HW228566   2.350   6.085   2.602
 9223SOL     OW28567   5.630   2.907   4.842
 9223SOL    HW128568   5.692   2.967   4.790
 9223SOL    HW228569   5.669   2.815   4.846
 9224SOL     OW28570   2.238   5.641   2.424
 9224SOL    HW128571   2.155   5.691   2.399
 9224SOL    HW228572   2.279   5.683   2.505
 9225SOL     OW28573   6.753   5.910   5.688
 9225SOL    HW128574   6.741   6.009   5.699
 9225SOL    HW228575   6.839   5.881   5.731
 9226SOL     OW28576   0.082   6.495   4.887
 9226SOL    HW128577   0.116   6.562   4.821
 9226SOL    HW228578   0.142   6.493   4.966
 9227SOL     OW28579   4.750   2.893   0.915
 9227SOL    HW128580   4.755   2.918   0.818
 9227SOL    HW228581   4.726   2.973   0.969
 9228SOL     OW28582   3.461   3.785   4.089
 9228SOL    HW128583   3.425   3.868   4.046
 9228SOL    HW228584   3.437   3.784   4.186
 9229SOL     OW28585   0.124   6.097   1.452
 9229SOL    HW128586   0.107   6.033   1.377
 9229SOL    HW228587   0.194   6.164   1.424
 9230SOL     OW28588   3.322   6.340   5.529
 9230SOL    HW128589   3.266   6.418   5.502
 9230SOL    HW228590   3.296   6.312   5.622
 9231SOL     OW28591   4.900   5.566   2.085
 9231SOL    HW128592   4.899   5.498   2.158
 9231SOL    HW228593   4.947   5.529   2.005
 9232SOL     OW28594   1.471   4.915   1.460
 9232SOL    HW128595   1.397   4.906   1.394
 9232SOL    HW228596   1.546   4.966   1.420
 9233SOL     OW28597   0.763   0.994   5.971
 9233SOL    HW128598   0.777   1.075   6.029
 9233SOL    HW228599   0.792   0.912   6.021
 9234SOL     OW28600   2.852   3.875   0.584
 9234SOL    HW128601   2.939   3.874   0.632
 9234SOL    HW228602   2.848   3.955   0.524
 9235SOL     OW28603   1.171   2.354   3.085
 9235SOL    HW128604   1.240   2.422   3.110
 9235SOL    HW228605   1.169   2.343   2.986
 9236SOL     OW28606   2.266   4.136   6.149
 9236SOL    HW128607   2.304   4.154   6.240
 9236SOL    HW228608   2.288   4.212   6.088
 9237SOL     OW28609   6.552   5.777   3.621
 9237SOL    HW128610   6.604   5.756   3.704
 9237SOL    HW228611   6.482   5.845   3.643
 9238SOL     OW28612   2.214   2.429   5.509
 9238SOL    HW128613   2.211   2.515   5.560
 9238SOL    HW228614   2.174   2.443   5.419
 9239SOL     OW28615   1.846   5.963   6.374
 9239SOL    HW128616   1.885   5.879   6.334
 9239SOL    HW228617   1.864   5.964   6.472
 9240SOL     OW28618   3.430   1.690   5.406
 9240SOL    HW128619   3.522   1.705   5.368
 9240SOL    HW228620   3.424   1.735   5.495
 9241SOL     OW28621   5.252   5.611   6.912
 9241SOL    HW128622   5.164   5.601   6.958
 9241SOL    HW228623   5.324   5.620   6.980
 9242SOL     OW28624   1.844   2.912   6.955
 9242SOL    HW128625   1.851   2.865   0.024
 9242SOL    HW228626   1.875   2.852   6.882
 9243SOL     OW28627   1.813   0.236   6.965
 9243SOL    HW128628   1.860   0.265   0.030
 9243SOL    HW228629   1.818   0.308   6.897
 9244SOL     OW28630   3.524   6.203   6.272
 9244SOL    HW128631   3.544   6.301   6.260
 9244SOL    HW228632   3.449   6.193   6.337
 9245SOL     OW28633   0.838   4.375   3.472
 9245SOL    HW128634   0.841   4.276   3.487
 9245SOL    HW228635   0.930   4.410   3.458
 9246SOL     OW28636   5.214   1.730   6.759
 9246SOL    HW128637   5.192   1.635   6.780
 9246SOL    HW228638   5.133   1.787   6.772
 9247SOL     OW28639   2.978   6.305   2.195
 9247SOL    HW128640   3.014   6.258   2.276
 9247SOL    HW228641   3.024   6.270   2.113
 9248SOL     OW28642   2.849   6.986   6.740
 9248SOL    HW128643   2.947   6.981   6.726
 9248SOL    HW228644   2.823   0.061   6.762
 9249SOL     OW28645   2.952   1.681   0.688
 9249SOL    HW128646   3.016   1.628   0.633
 9249SOL    HW228647   2.859   1.649   0.671
 9250SOL     OW28648   1.120   3.977   1.945
 9250SOL    HW128649   1.187   3.932   2.004
 9250SOL    HW228650   1.142   3.956   1.849
 9251SOL     OW28651   4.429   1.393   0.956
 9251SOL    HW128652   4.351   1.346   0.913
 9251SOL    HW228653   4.496   1.418   0.886
 9252SOL     OW28654   5.839   1.523   5.003
 9252SOL    HW128655   5.853   1.467   4.921
 9252SOL    HW228656   5.910   1.594   5.007
 9253SOL     OW28657   2.911   5.289   3.935
 9253SOL    HW128658   2.957   5.296   4.023
 9253SOL    HW228659   2.828   5.234   3.945
 9254SOL     OW28660   6.129   5.756   2.087
 9254SOL    HW128661   6.206   5.810   2.052
 9254SOL    HW228662   6.107   5.685   2.020
 9255SOL     OW28663   0.512   3.076   1.779
 9255SOL    HW128664   0.521   3.129   1.864
 9255SOL    HW228665   0.593   3.090   1.723
 9256SOL     OW28666   1.330   6.344   0.594
 9256SOL    HW128667   1.353   6.426   0.646
 9256SOL    HW228668   1.239   6.353   0.555
 9257SOL     OW28669   6.430   6.789   5.304
 9257SOL    HW128670   6.471   6.837   5.382
 9257SOL    HW228671   6.332   6.778   5.318
 9258SOL     OW28672   5.083   3.681   3.369
 9258SOL    HW128673   5.045   3.774   3.367
 9258SOL    HW228674   5.033   3.626   3.436
 9259SOL     OW28675   1.378   2.736   6.372
 9259SOL    HW128676   1.311   2.789   6.319
 9259SOL    HW228677   1.471   2.764   6.346
 9260SOL     OW28678   5.399   4.649   5.119
 9260SOL    HW128679   5.460   4.726   5.101
 9260SOL    HW228680   5.450   4.577   5.166
 9261SOL     OW28681   1.174   3.103   1.028
 9261SOL    HW128682   1.206   3.196   1.048
 9261SOL    HW228683   1.228   3.066   0.952
 9262SOL     OW28684   6.547   6.340   5.593
 9262SOL    HW128685   6.455   6.307   5.574
 9262SOL    HW228686   6.579   6.396   5.516
 9263SOL     OW28687   1.863   4.366   2.430
 9263SOL    HW128688   1.951   4.344   2.472
 9263SOL    HW228689   1.812   4.281   2.413
 9264SOL     OW28690   6.015   3.969   5.515
 9264SOL    HW128691   5.954   4.041   5.548
 9264SOL    HW228692   6.045   3.912   5.592
 9265SOL     OW28693   3.980   0.582   2.186
 9265SOL    HW128694   3.892   0.542   2.159
 9265SOL    HW228695   4.014   0.536   2.267
 9266SOL     OW28696   0.233   4.940   1.518
 9266SOL    HW128697   0.219   4.923   1.421
 9266SOL    HW228698   0.235   5.038   1.536
 9267SOL     OW28699   6.768   1.205   3.649
 9267SOL    HW128700   6.679   1.160   3.652
 9267SOL    HW228701   6.822   1.166   3.574
 9268SOL     OW28702   7.013   0.105   0.581
 9268SOL    HW128703   6.921   0.100   0.540
 9268SOL    HW228704   7.005   0.103   0.681
 9269SOL     OW28705   3.488   6.640   1.443
 9269SOL    HW128706   3.490   6.738   1.424
 9269SOL    HW228707   3.398   6.615   1.479
 9270SOL     OW28708   1.889   0.707   5.471
 9270SOL    HW128709   1.928   0.624   5.510
 9270SOL    HW228710   1.958   0.753   5.414
 9271SOL     OW28711   1.033   5.652   5.598
 9271SOL    HW128712   1.114   5.656   5.540
 9271SOL    HW228713   1.061   5.646   5.694
 9272SOL     OW28714   6.368   6.918   5.893
 9272SOL    HW128715   6.416   6.849   5.839
 9272SOL    HW228716   6.276   6.887   5.914
 9273SOL     OW28717   5.879   3.984   3.166
 9273SOL    HW128718   5.920   3.953   3.252
 9273SOL    HW228719   5.877   4.084   3.165
 9274SOL     OW28720   6.809   2.963   1.705
 9274SOL    HW128721   6.867   3.041   1.728
 9274SOL    HW228722   6.808   2.950   1.606
 9275SOL     OW28723   4.296   1.596   0.332
 9275SOL    HW128724   4.308   1.694   0.316
 9275SOL    HW228725   4.365   1.545   0.280
 9276SOL     OW28726   1.426   3.654   0.831
 9276SOL    HW128727   1.499   3.621   0.771
 9276SOL    HW228728   1.342   3.663   0.778
 9277SOL     OW28729   3.456   5.712   2.765
 9277SOL    HW128730   3.393   5.749   2.697
 9277SOL    HW228731   3.424   5.621   2.793
 9278SOL     OW28732   1.088   6.764   4.450
 9278SOL    HW128733   1.074   6.787   4.546
 9278SOL    HW228734   1.187   6.762   4.430
 9279SOL     OW28735   4.022   5.931   2.502
 9279SOL    HW128736   3.999   5.892   2.414
 9279SOL    HW228737   3.997   6.028   2.503
 9280SOL     OW28738   1.450   4.365   2.125
 9280SOL    HW128739   1.504   4.434   2.173
 9280SOL    HW228740   1.406   4.407   2.046
 9281SOL     OW28741   1.167   5.555   0.572
 9281SOL    HW128742   1.155   5.613   0.652
 9281SOL    HW228743   1.081   5.549   0.521
 9282SOL     OW28744   1.650   0.502   3.656
 9282SOL    HW128745   1.747   0.498   3.632
 9282SOL    HW228746   1.595   0.513   3.573
 9283SOL     OW28747   5.660   4.841   6.495
 9283SOL    HW128748   5.684   4.937   6.484
 9283SOL    HW228749   5.665   4.795   6.406
 9284SOL     OW28750   3.955   6.128   1.273
 9284SOL    HW128751   3.972   6.033   1.301
 9284SOL    HW228752   3.877   6.130   1.211
 9285SOL     OW28753   6.789   5.784   3.050
 9285SOL    HW128754   6.807   5.839   2.968
 9285SOL    HW228755   6.709   5.727   3.036
 9286SOL     OW28756   5.055   5.608   1.771
 9286SOL    HW128757   5.080   5.703   1.754
 9286SOL    HW228758   5.138   5.554   1.786
 9287SOL     OW28759   4.413   4.251   0.149
 9287SOL    HW128760   4.431   4.344   0.181
 9287SOL    HW228761   4.327   4.218   0.188
 9288SOL     OW28762   3.533   0.806   3.742
 9288SOL    HW128763   3.456   0.794   3.805
 9288SOL    HW228764   3.586   0.886   3.770
 9289SOL     OW28765   4.567   5.753   2.406
 9289SOL    HW128766   4.614   5.763   2.494
 9289SOL    HW228767   4.482   5.805   2.409
 9290SOL     OW28768   5.264   0.140   3.602
 9290SOL    HW128769   5.238   0.233   3.574
 9290SOL    HW228770   5.337   0.145   3.670
 9291SOL     OW28771   0.467   5.294   5.379
 9291SOL    HW128772   0.464   5.245   5.466
 9291SOL    HW228773   0.413   5.378   5.386
 9292SOL     OW28774   1.880   1.649   0.451
 9292SOL    HW128775   1.925   1.616   0.534
 9292SOL    HW228776   1.946   1.652   0.376
 9293SOL     OW28777   4.000   1.247   6.590
 9293SOL    HW128778   3.959   1.165   6.549
 9293SOL    HW228779   3.972   1.328   6.539
 9294SOL     OW28780   5.256   6.458   6.154
 9294SOL    HW128781   5.301   6.400   6.087
 9294SOL    HW228782   5.282   6.430   6.246
 9295SOL     OW28783   6.240   0.715   2.971
 9295SOL    HW128784   6.162   0.681   3.023
 9295SOL    HW228785   6.322   0.712   3.028
 9296SOL     OW28786   2.176   2.689   5.616
 9296SOL    HW128787   2.107   2.741   5.667
 9296SOL    HW228788   2.264   2.736   5.623
 9297SOL     OW28789   0.005   5.292   1.767
 9297SOL    HW128790   0.032   5.270   1.860
 9297SOL    HW228791   6.935   5.338   1.768
 9298SOL     OW28792   6.621   4.040   0.425
 9298SOL    HW128793   6.678   3.972   0.378
 9298SOL    HW228794   6.530   4.041   0.384
 9299SOL     OW28795   3.916   2.122   3.907
 9299SOL    HW128796   3.823   2.134   3.872
 9299SOL    HW228797   3.982   2.141   3.835
 9300SOL     OW28798   2.421   6.384   5.814
 9300SOL    HW128799   2.489   6.343   5.876
 9300SOL    HW228800   2.340   6.325   5.811
 9301SOL     OW28801   0.679   3.801   4.036
 9301SOL    HW128802   0.649   3.721   4.089
 9301SOL    HW228803   0.617   3.814   3.958
 9302SOL     OW28804   3.308   6.211   3.767
 9302SOL    HW128805   3.253   6.258   3.836
 9302SOL    HW228806   3.250   6.185   3.690
 9303SOL     OW28807   2.988   4.215   0.178
 9303SOL    HW128808   2.964   4.236   0.273
 9303SOL    HW228809   2.906   4.187   0.128
 9304SOL     OW28810   5.956   5.627   6.751
 9304SOL    HW128811   5.965   5.606   6.848
 9304SOL    HW228812   5.922   5.721   6.741
 9305SOL     OW28813   2.385   1.903   0.844
 9305SOL    HW128814   2.453   1.918   0.916
 9305SOL    HW228815   2.352   1.992   0.811
 9306SOL     OW28816   6.338   6.300   3.153
 9306SOL    HW128817   6.270   6.233   3.124
 9306SOL    HW228818   6.357   6.363   3.078
 9307SOL     OW28819   2.010   3.492   1.127
 9307SOL    HW128820   2.008   3.510   1.225
 9307SOL    HW228821   2.105   3.490   1.095
 9308SOL     OW28822   2.384   2.868   0.864
 9308SOL    HW128823   2.415   2.932   0.935
 9308SOL    HW228824   2.393   2.912   0.775
 9309SOL     OW28825   3.534   5.080   5.954
 9309SOL    HW128826   3.535   5.138   6.036
 9309SOL    HW228827   3.486   4.995   5.974
 9310SOL     OW28828   6.039   0.194   5.972
 9310SOL    HW128829   6.020   0.292   5.962
 9310SOL    HW228830   5.953   0.144   5.981
 9311SOL     OW28831   5.143   4.234   0.180
 9311SOL    HW128832   5.102   4.157   0.230
 9311SOL    HW228833   5.231   4.256   0.220
 9312SOL     OW28834   6.336   3.305   4.386
 9312SOL    HW128835   6.383   3.217   4.387
 9312SOL    HW228836   6.327   3.338   4.292
 9313SOL     OW28837   6.867   0.112   1.949
 9313SOL    HW128838   6.891   0.108   1.852
 9313SOL    HW228839   6.917   0.186   1.992
 9314SOL     OW28840   5.769   4.579   1.693
 9314SOL    HW128841   5.822   4.663   1.702
 9314SOL    HW228842   5.678   4.600   1.658
 9315SOL     OW28843   5.250   5.267   5.190
 9315SOL    HW128844   5.290   5.323   5.118
 9315SOL    HW228845   5.303   5.182   5.199
 9316SOL     OW28846   5.208   5.886   6.608
 9316SOL    HW128847   5.284   5.843   6.657
 9316SOL    HW228848   5.185   5.831   6.527
 9317SOL     OW28849   2.667   6.688   3.329
 9317SOL    HW128850   2.686   6.781   3.297
 9317SOL    HW228851   2.742   6.658   3.388
 9318SOL     OW28852   3.450   0.242   3.843
 9318SOL    HW128853   3.497   0.162   3.805
 9318SOL    HW228854   3.500   0.276   3.922
 9319SOL     OW28855   4.184   2.470   0.923
 9319SOL    HW128856   4.164   2.545   0.860
 9319SOL    HW228857   4.281   2.448   0.919
 9320SOL     OW28858   6.516   0.422   0.013
 9320SOL    HW128859   6.505   0.376   6.943
 9320SOL    HW228860   6.426   0.451   0.047
 9321SOL     OW28861   1.333   2.382   3.978
 9321SOL    HW128862   1.416   2.328   3.960
 9321SOL    HW228863   1.282   2.391   3.893
 9322SOL     OW28864   5.516   3.578   0.735
 9322SOL    HW128865   5.461   3.626   0.666
 9322SOL    HW228866   5.606   3.556   0.696
 9323SOL     OW28867   0.490   2.908   4.911
 9323SOL    HW128868   0.537   2.991   4.941
 9323SOL    HW228869   0.475   2.913   4.812
 9324SOL     OW28870   1.074   4.022   1.443
 9324SOL    HW128871   1.169   3.994   1.437
 9324SOL    HW228872   1.035   4.027   1.351
 9325SOL     OW28873   0.374   3.576   3.150
 9325SOL    HW128874   0.307   3.596   3.078
 9325SOL    HW228875   0.466   3.599   3.117
 9326SOL     OW28876   3.506   4.730   1.058
 9326SOL    HW128877   3.547   4.780   1.134
 9326SOL    HW228878   3.488   4.793   0.983
 9327SOL     OW28879   1.969   1.702   3.031
 9327SOL    HW128880   1.913   1.751   3.098
 9327SOL    HW228881   2.024   1.767   2.980
 9328SOL     OW28882   0.858   6.992   3.469
 9328SOL    HW128883   0.866   0.055   3.525
 9328SOL    HW228884   0.845   6.912   3.528
 9329SOL     OW28885   1.434   5.099   6.452
 9329SOL    HW128886   1.494   5.021   6.431
 9329SOL    HW228887   1.363   5.069   6.515
 9330SOL     OW28888   0.468   6.140   1.040
 9330SOL    HW128889   0.382   6.165   0.995
 9330SOL    HW228890   0.467   6.172   1.134
 9331SOL     OW28891   2.511   5.730   4.910
 9331SOL    HW128892   2.530   5.644   4.956
 9331SOL    HW228893   2.519   5.718   4.811
 9332SOL     OW28894   6.007   6.249   0.606
 9332SOL    HW128895   6.055   6.264   0.520
 9332SOL    HW228896   5.912   6.225   0.588
 9333SOL     OW28897   0.755   5.802   1.204
 9333SOL    HW128898   0.770   5.878   1.266
 9333SOL    HW228899   0.694   5.831   1.130
 9334SOL     OW28900   6.926   6.245   0.215
 9334SOL    HW128901   6.868   6.325   0.198
 9334SOL    HW228902   6.894   6.168   0.159
 9335SOL     OW28903   0.273   3.371   0.998
 9335SOL    HW128904   0.263   3.415   1.087
 9335SOL    HW228905   0.182   3.355   0.958
 9336SOL     OW28906   5.025   5.646   5.737
 9336SOL    HW128907   5.043   5.744   5.732
 9336SOL    HW228908   5.028   5.607   5.645
 9337SOL     OW28909   2.862   1.571   5.002
 9337SOL    HW128910   2.930   1.537   5.067
 9337SOL    HW228911   2.848   1.669   5.018
 9338SOL     OW28912   4.191   0.262   1.801
 9338SOL    HW128913   4.140   0.223   1.878
 9338SOL    HW228914   4.263   0.321   1.836
 9339SOL     OW28915   0.428   3.816   4.629
 9339SOL    HW128916   0.492   3.792   4.703
 9339SOL    HW228917   0.479   3.858   4.554
 9340SOL     OW28918   3.084   4.824   2.125
 9340SOL    HW128919   3.025   4.748   2.096
 9340SOL    HW228920   3.178   4.806   2.094
 9341SOL     OW28921   4.805   5.596   1.682
 9341SOL    HW128922   4.791   5.505   1.642
 9341SOL    HW228923   4.892   5.598   1.732
 9342SOL     OW28924   2.923   0.844   4.898
 9342SOL    HW128925   2.974   0.893   4.827
 9342SOL    HW228926   2.969   0.855   4.986
 9343SOL     OW28927   5.542   3.900   1.155
 9343SOL    HW128928   5.513   3.984   1.201
 9343SOL    HW228929   5.555   3.919   1.057
 9344SOL     OW28930   5.333   6.431   4.878
 9344SOL    HW128931   5.412   6.423   4.817
 9344SOL    HW228932   5.290   6.341   4.888
 9345SOL     OW28933   0.018   4.831   6.529
 9345SOL    HW128934   0.040   4.734   6.515
 9345SOL    HW228935   0.102   4.885   6.521
 9346SOL     OW28936   5.158   0.853   2.482
 9346SOL    HW128937   5.208   0.771   2.509
 9346SOL    HW228938   5.060   0.840   2.500
 9347SOL     OW28939   5.048   6.711   2.671
 9347SOL    HW128940   5.073   6.808   2.665
 9347SOL    HW228941   4.955   6.703   2.707
 9348SOL     OW28942   2.476   5.191   2.145
 9348SOL    HW128943   2.507   5.274   2.099
 9348SOL    HW228944   2.544   5.118   2.133
 9349SOL     OW28945   1.136   4.731   1.562
 9349SOL    HW128946   1.213   4.689   1.513
 9349SOL    HW228947   1.084   4.788   1.499
 9350SOL     OW28948   6.755   0.948   6.903
 9350SOL    HW128949   6.675   0.922   6.849
 9350SOL    HW228950   6.838   0.915   6.857
 9351SOL     OW28951   4.145   4.034   6.298
 9351SOL    HW128952   4.131   3.986   6.385
 9351SOL    HW228953   4.073   4.103   6.288
 9352SOL     OW28954   2.733   1.717   0.170
 9352SOL    HW128955   2.789   1.665   0.234
 9352SOL    HW228956   2.703   1.657   0.095
 9353SOL     OW28957   1.267   3.150   2.242
 9353SOL    HW128958   1.260   3.128   2.339
 9353SOL    HW228959   1.357   3.189   2.223
 9354SOL     OW28960   5.855   2.141   2.334
 9354SOL    HW128961   5.926   2.158   2.266
 9354SOL    HW228962   5.785   2.080   2.295
 9355SOL     OW28963   0.633   2.260   2.031
 9355SOL    HW128964   0.631   2.354   1.997
 9355SOL    HW228965   0.602   2.198   1.959
 9356SOL     OW28966   4.509   2.356   2.094
 9356SOL    HW128967   4.600   2.323   2.119
 9356SOL    HW228968   4.514   2.453   2.071
 9357SOL     OW28969   1.879   4.089   6.892
 9357SOL    HW128970   1.789   4.062   6.925
 9357SOL    HW228971   1.948   4.069   6.962
 9358SOL     OW28972   5.445   4.829   3.508
 9358SOL    HW128973   5.386   4.908   3.524
 9358SOL    HW228974   5.388   4.747   3.496
 9359SOL     OW28975   4.328   5.429   5.396
 9359SOL    HW128976   4.259   5.361   5.374
 9359SOL    HW228977   4.365   5.411   5.487
 9360SOL     OW28978   0.813   0.250   5.616
 9360SOL    HW128979   0.793   0.242   5.518
 9360SOL    HW228980   0.826   0.347   5.639
 9361SOL     OW28981   1.220   1.324   2.576
 9361SOL    HW128982   1.151   1.360   2.639
 9361SOL    HW228983   1.260   1.400   2.523
 9362SOL     OW28984   1.403   1.854   2.947
 9362SOL    HW128985   1.437   1.884   2.858
 9362SOL    HW228986   1.372   1.759   2.941
 9363SOL     OW28987   0.553   6.682   1.877
 9363SOL    HW128988   0.458   6.677   1.907
 9363SOL    HW228989   0.565   6.763   1.820
 9364SOL     OW28990   5.898   3.782   0.652
 9364SOL    HW128991   5.828   3.853   0.649
 9364SOL    HW228992   5.981   3.815   0.606
 9365SOL     OW28993   2.950   1.044   4.309
 9365SOL    HW128994   2.867   1.044   4.365
 9365SOL    HW228995   2.939   0.979   4.234
 9366SOL     OW28996   2.544   1.711   0.712
 9366SOL    HW128997   2.489   1.784   0.751
 9366SOL    HW228998   2.604   1.748   0.641
 9367SOL     OW28999   5.335   6.795   4.616
 9367SOL    HW129000   5.356   6.859   4.542
 9367SOL    HW229001   5.401   6.720   4.614
 9368SOL     OW29002   5.638   3.005   1.159
 9368SOL    HW129003   5.586   3.022   1.243
 9368SOL    HW229004   5.649   2.907   1.146
 9369SOL     OW29005   0.208   2.668   5.888
 9369SOL    HW129006   0.225   2.569   5.883
 9369SOL    HW229007   0.268   2.715   5.824
 9370SOL     OW29008   5.704   5.453   1.760
 9370SOL    HW129009   5.775   5.482   1.824
 9370SOL    HW229010   5.628   5.519   1.762
 9371SOL     OW29011   2.021   0.069   0.693
 9371SOL    HW129012   2.060   0.152   0.652
 9371SOL    HW229013   2.034   7.011   0.632
 9372SOL     OW29014   5.127   5.829   0.311
 9372SOL    HW129015   5.078   5.744   0.333
 9372SOL    HW229016   5.225   5.813   0.317
 9373SOL     OW29017   4.758   2.743   4.891
 9373SOL    HW129018   4.719   2.814   4.834
 9373SOL    HW229019   4.687   2.678   4.918
 9374SOL     OW29020   5.010   4.293   6.969
 9374SOL    HW129021   5.022   4.236   6.887
 9374SOL    HW229022   5.072   4.261   0.021
 9375SOL     OW29023   6.426   6.396   3.725
 9375SOL    HW129024   6.442   6.336   3.647
 9375SOL    HW229025   6.328   6.416   3.732
 9376SOL     OW29026   2.841   3.370   1.971
 9376SOL    HW129027   2.925   3.415   2.001
 9376SOL    HW229028   2.770   3.438   1.957
 9377SOL     OW29029   0.128   4.372   3.331
 9377SOL    HW129030   0.193   4.427   3.383
 9377SOL    HW229031   0.179   4.309   3.271
 9378SOL     OW29032   4.103   5.864   1.512
 9378SOL    HW129033   4.199   5.865   1.483
 9378SOL    HW229034   4.084   5.780   1.564
 9379SOL     OW29035   4.367   4.710   5.240
 9379SOL    HW129036   4.346   4.642   5.170
 9379SOL    HW229037   4.329   4.799   5.212
 9380SOL     OW29038   0.059   5.591   5.530
 9380SOL    HW129039   7.000   5.529   5.519
 9380SOL    HW229040   0.054   5.635   5.620
 9381SOL     OW29041   0.611   1.213   0.129
 9381SOL    HW129042   0.569   1.178   0.046
 9381SOL    HW229043   0.659   1.138   0.176
 9382SOL     OW29044   6.179   2.215   2.222
 9382SOL    HW129045   6.127   2.140   2.181
 9382SOL    HW229046   6.134   2.302   2.201
 9383SOL     OW29047   0.001   5.484   7.000
 9383SOL    HW129048   0.049   5.570   6.984
 9383SOL    HW229049   6.956   5.467   6.925
 9384SOL     OW29050   3.269   6.919   2.393
 9384SOL    HW129051   3.271   7.016   2.370
 9384SOL    HW229052   3.243   6.908   2.490
 9385SOL     OW29053   4.214   6.553   3.360
 9385SOL    HW129054   4.268   6.630   3.395
 9385SOL    HW229055   4.196   6.566   3.263
 9386SOL     OW29056   3.362   6.729   4.557
 9386SOL    HW129057   3.381   6.730   4.655
 9386SOL    HW229058   3.353   6.823   4.524
 9387SOL     OW29059   4.680   6.050   0.747
 9387SOL    HW129060   4.708   5.958   0.773
 9387SOL    HW229061   4.668   6.106   0.829
 9388SOL     OW29062   6.417   0.158   1.153
 9388SOL    HW129063   6.486   0.226   1.179
 9388SOL    HW229064   6.412   0.087   1.222
 9389SOL     OW29065   3.303   1.151   1.273
 9389SOL    HW129066   3.266   1.117   1.187
 9389SOL    HW229067   3.284   1.087   1.346
 9390SOL     OW29068   3.805   6.583   0.989
 9390SOL    HW129069   3.791   6.564   1.086
 9390SOL    HW229070   3.903   6.589   0.969
 9391SOL     OW29071   5.209   0.419   3.642
 9391SOL    HW129072   5.196   0.370   3.728
 9391SOL    HW229073   5.226   0.516   3.662
 9392SOL     OW29074   0.629   6.912   4.956
 9392SOL    HW129075   0.643   6.813   4.952
 9392SOL    HW229076   0.531   6.932   4.954
 9393SOL     OW29077   4.807   1.547   5.299
 9393SOL    HW129078   4.780   1.453   5.320
 9393SOL    HW229079   4.893   1.569   5.346
 9394SOL     OW29080   6.474   1.564   2.469
 9394SOL    HW129081   6.562   1.604   2.442
 9394SOL    HW229082   6.476   1.466   2.449
 9395SOL     OW29083   1.652   2.651   0.140
 9395SOL    HW129084   1.626   2.596   0.219
 9395SOL    HW229085   1.722   2.717   0.168
 9396SOL     OW29086   0.799   1.322   5.076
 9396SOL    HW129087   0.891   1.363   5.081
 9396SOL    HW229088   0.807   1.223   5.066
 9397SOL     OW29089   1.711   1.965   1.045
 9397SOL    HW129090   1.780   1.959   0.973
 9397SOL    HW229091   1.657   1.881   1.046
 9398SOL     OW29092   2.378   1.993   1.366
 9398SOL    HW129093   2.450   1.929   1.343
 9398SOL    HW229094   2.346   1.977   1.459
 9399SOL     OW29095   6.985   0.577   5.197
 9399SOL    HW129096   6.960   0.672   5.214
 9399SOL    HW229097   0.038   0.549   5.260
 9400SOL     OW29098   4.137   1.362   4.200
 9400SOL    HW129099   4.081   1.329   4.124
 9400SOL    HW229100   4.152   1.460   4.191
 9401SOL     OW29101   4.161   6.837   4.070
 9401SOL    HW129102   4.138   6.917   4.014
 9401SOL    HW229103   4.125   6.754   4.026
 9402SOL     OW29104   2.284   4.443   6.470
 9402SOL    HW129105   2.384   4.449   6.473
 9402SOL    HW229106   2.252   4.465   6.378
 9403SOL     OW29107   6.214   0.322   3.419
 9403SOL    HW129108   6.256   0.235   3.394
 9403SOL    HW229109   6.134   0.306   3.478
 9404SOL     OW29110   2.208   4.561   4.863
 9404SOL    HW129111   2.293   4.604   4.895
 9404SOL    HW229112   2.216   4.462   4.872
 9405SOL     OW29113   0.191   0.643   1.135
 9405SOL    HW129114   0.231   0.578   1.070
 9405SOL    HW229115   0.096   0.620   1.151
 9406SOL     OW29116   6.622   1.959   5.162
 9406SOL    HW129117   6.636   1.887   5.095
 9406SOL    HW229118   6.710   1.987   5.200
 9407SOL     OW29119   3.498   5.604   3.894
 9407SOL    HW129120   3.548   5.623   3.979
 9407SOL    HW229121   3.430   5.676   3.878
 9408SOL     OW29122   3.335   1.582   0.271
 9408SOL    HW129123   3.413   1.588   0.209
 9408SOL    HW229124   3.353   1.512   0.341
 9409SOL     OW29125   6.194   4.036   3.640
 9409SOL    HW129126   6.267   3.968   3.643
 9409SOL    HW229127   6.159   4.051   3.732
 9410SOL     OW29128   4.270   6.803   2.235
 9410SOL    HW129129   4.288   6.894   2.273
 9410SOL    HW229130   4.239   6.812   2.141
 9411SOL     OW29131   5.120   4.626   2.560
 9411SOL    HW129132   5.130   4.590   2.653
 9411SOL    HW229133   5.030   4.604   2.525
 9412SOL     OW29134   6.895   1.609   3.188
 9412SOL    HW129135   6.845   1.626   3.103
 9412SOL    HW229136   6.970   1.675   3.197
 9413SOL     OW29137   4.332   5.506   3.715
 9413SOL    HW129138   4.406   5.521   3.650
 9413SOL    HW229139   4.264   5.579   3.705
 9414SOL     OW29140   2.256   0.315   1.906
 9414SOL    HW129141   2.216   0.240   1.959
 9414SOL    HW229142   2.187   0.353   1.845
 9415SOL     OW29143   0.989   0.049   2.094
 9415SOL    HW129144   1.024   0.103   2.017
 9415SOL    HW229145   1.055   6.996   2.117
 9416SOL     OW29146   1.200   1.745   1.789
 9416SOL    HW129147   1.225   1.653   1.819
 9416SOL    HW229148   1.269   1.810   1.820
 9417SOL     OW29149   1.020   0.479   4.081
 9417SOL    HW129150   0.966   0.562   4.094
 9417SOL    HW229151   1.109   0.503   4.041
 9418SOL     OW29152   4.313   4.475   0.496
 9418SOL    HW129153   4.337   4.378   0.499
 9418SOL    HW229154   4.330   4.516   0.586
 9419SOL     OW29155   2.608   5.908   3.734
 9419SOL    HW129156   2.633   5.835   3.671
 9419SOL    HW229157   2.636   5.996   3.696
 9420SOL     OW29158   1.063   0.555   2.483
 9420SOL    HW129159   1.095   0.622   2.550
 9420SOL    HW229160   1.091   0.583   2.391
 9421SOL     OW29161   1.731   4.430   5.417
 9421SOL    HW129162   1.650   4.487   5.404
 9421SOL    HW229163   1.717   4.342   5.372
 9422SOL     OW29164   3.467   1.110   3.061
 9422SOL    HW129165   3.514   1.029   3.095
 9422SOL    HW229166   3.413   1.087   2.980
 9423SOL     OW29167   4.719   0.393   4.934
 9423SOL    HW129168   4.708   0.357   4.841
 9423SOL    HW229169   4.651   0.465   4.950
 9424SOL     OW29170   2.937   5.798   3.260
 9424SOL    HW129171   3.018   5.744   3.240
 9424SOL    HW229172   2.917   5.858   3.183
 9425SOL     OW29173   0.183   5.822   2.331
 9425SOL    HW129174   0.163   5.761   2.255
 9425SOL    HW229175   0.238   5.774   2.400
 9426SOL     OW29176   3.585   5.972   0.958
 9426SOL    HW129177   3.559   5.999   0.865
 9426SOL    HW229178   3.503   5.968   1.016
 9427SOL     OW29179   3.111   4.896   4.443
 9427SOL    HW129180   3.210   4.902   4.457
 9427SOL    HW229181   3.064   4.919   4.528
 9428SOL     OW29182   4.571   6.431   2.276
 9428SOL    HW129183   4.481   6.473   2.269
 9428SOL    HW229184   4.631   6.469   2.205
 9429SOL     OW29185   0.579   3.614   2.956
 9429SOL    HW129186   0.507   3.662   2.907
 9429SOL    HW229187   0.667   3.629   2.910
 9430SOL     OW29188   6.374   6.914   1.669
 9430SOL    HW129189   6.426   6.999   1.663
 9430SOL    HW229190   6.436   6.836   1.673
 9431SOL     OW29191   6.326   4.543   0.524
 9431SOL    HW129192   6.376   4.597   0.457
 9431SOL    HW229193   6.236   4.519   0.488
 9432SOL     OW29194   6.042   6.557   3.133
 9432SOL    HW129195   5.991   6.484   3.088
 9432SOL    HW229196   6.084   6.616   3.064
 9433SOL     OW29197   2.564   5.575   4.656
 9433SOL    HW129198   2.486   5.516   4.677
 9433SOL    HW229199   2.577   5.580   4.557
 9434SOL     OW29200   5.981   4.640   3.723
 9434SOL    HW129201   5.930   4.617   3.641
 9434SOL    HW229202   5.935   4.712   3.774
 9435SOL     OW29203   2.877   2.579   6.051
 9435SOL    HW129204   2.932   2.499   6.076
 9435SOL    HW229205   2.892   2.651   6.119
 9436SOL     OW29206   3.561   2.300   5.363
 9436SOL    HW129207   3.509   2.344   5.436
 9436SOL    HW229208   3.498   2.265   5.294
 9437SOL     OW29209   0.361   6.107   4.484
 9437SOL    HW129210   0.396   6.145   4.398
 9437SOL    HW229211   0.434   6.104   4.551
 9438SOL     OW29212   0.036   6.515   1.787
 9438SOL    HW129213   0.127   6.536   1.823
 9438SOL    HW229214   0.035   6.421   1.750
 9439SOL     OW29215   1.602   2.738   1.902
 9439SOL    HW129216   1.531   2.670   1.886
 9439SOL    HW229217   1.658   2.710   1.980
 9440SOL     OW29218   3.136   6.580   3.259
 9440SOL    HW129219   3.200   6.532   3.199
 9440SOL    HW229220   3.065   6.623   3.204
 9441SOL     OW29221   1.145   5.241   6.093
 9441SOL    HW129222   1.177   5.282   6.178
 9441SOL    HW229223   1.094   5.157   6.113
 9442SOL     OW29224   1.034   1.736   1.289
 9442SOL    HW129225   0.961   1.764   1.227
 9442SOL    HW229226   0.999   1.727   1.382
 9443SOL     OW29227   1.046   1.965   1.052
 9443SOL    HW129228   1.050   1.905   0.972
 9443SOL    HW229229   1.106   1.930   1.123
 9444SOL     OW29230   1.506   4.068   4.843
 9444SOL    HW129231   1.532   3.972   4.854
 9444SOL    HW229232   1.587   4.126   4.849
 9445SOL     OW29233   5.378   1.839   2.175
 9445SOL    HW129234   5.361   1.851   2.077
 9445SOL    HW229235   5.470   1.805   2.189
 9446SOL     OW29236   5.187   5.108   0.328
 9446SOL    HW129237   5.197   5.009   0.336
 9446SOL    HW229238   5.275   5.151   0.345
 9447SOL     OW29239   5.468   1.051   1.597
 9447SOL    HW129240   5.386   0.995   1.598
 9447SOL    HW229241   5.479   1.097   1.685
 9448SOL     OW29242   6.032   6.636   0.522
 9448SOL    HW129243   6.040   6.571   0.446
 9448SOL    HW229244   6.037   6.586   0.609
 9449SOL     OW29245   5.629   5.225   4.754
 9449SOL    HW129246   5.600   5.238   4.659
 9449SOL    HW229247   5.548   5.211   4.811
 9450SOL     OW29248   2.040   6.063   3.949
 9450SOL    HW129249   2.001   6.117   4.023
 9450SOL    HW229250   1.968   6.038   3.884
 9451SOL     OW29251   4.072   3.321   4.769
 9451SOL    HW129252   4.111   3.378   4.842
 9451SOL    HW229253   4.084   3.225   4.792
 9452SOL     OW29254   3.655   4.526   0.551
 9452SOL    HW129255   3.689   4.469   0.626
 9452SOL    HW229256   3.711   4.510   0.469
 9453SOL     OW29257   3.403   6.505   1.030
 9453SOL    HW129258   3.312   6.466   1.040
 9453SOL    HW229259   3.398   6.604   1.043
 9454SOL     OW29260   2.403   1.734   5.859
 9454SOL    HW129261   2.336   1.789   5.809
 9454SOL    HW229262   2.356   1.676   5.925
 9455SOL     OW29263   1.909   2.042   1.723
 9455SOL    HW129264   1.874   2.132   1.751
 9455SOL    HW229265   1.861   2.012   1.641
 9456SOL     OW29266   1.273   2.853   0.329
 9456SOL    HW129267   1.260   2.810   0.240
 9456SOL    HW229268   1.365   2.893   0.334
 9457SOL     OW29269   6.025   3.624   0.263
 9457SOL    HW129270   6.120   3.653   0.269
 9457SOL    HW229271   6.017   3.528   0.289
 9458SOL     OW29272   1.353   5.814   3.985
 9458SOL    HW129273   1.303   5.814   4.072
 9458SOL    HW229274   1.356   5.908   3.949
 9459SOL     OW29275   3.828   6.163   0.615
 9459SOL    HW129276   3.871   6.235   0.669
 9459SOL    HW229277   3.803   6.199   0.525
 9460SOL     OW29278   1.568   3.578   5.350
 9460SOL    HW129279   1.605   3.536   5.267
 9460SOL    HW229280   1.607   3.532   5.430
 9461SOL     OW29281   1.477   0.620   2.339
 9461SOL    HW129282   1.523   0.638   2.252
 9461SOL    HW229283   1.404   0.552   2.325
 9462SOL     OW29284   0.560   3.424   3.695
 9462SOL    HW129285   0.538   3.408   3.791
 9462SOL    HW229286   0.617   3.506   3.687
 9463SOL     OW29287   4.994   2.324   6.015
 9463SOL    HW129288   5.060   2.319   5.940
 9463SOL    HW229289   4.934   2.403   6.001
 9464SOL     OW29290   3.988   6.726   6.189
 9464SOL    HW129291   3.923   6.800   6.172
 9464SOL    HW229292   3.961   6.646   6.135
 9465SOL     OW29293   4.174   6.340   4.253
 9465SOL    HW129294   4.246   6.377   4.194
 9465SOL    HW229295   4.213   6.269   4.312
 9466SOL     OW29296   3.401   1.774   6.733
 9466SOL    HW129297   3.470   1.709   6.700
 9466SOL    HW229298   3.447   1.850   6.778
 9467SOL     OW29299   1.232   3.214   2.515
 9467SOL    HW129300   1.288   3.293   2.489
 9467SOL    HW229301   1.243   3.197   2.613
 9468SOL     OW29302   0.253   2.620   6.284
 9468SOL    HW129303   0.183   2.645   6.218
 9468SOL    HW229304   0.251   2.684   6.361
 9469SOL     OW29305   0.419   4.108   2.477
 9469SOL    HW129306   0.333   4.082   2.522
 9469SOL    HW229307   0.479   4.152   2.544
 9470SOL     OW29308   6.193   3.728   1.610
 9470SOL    HW129309   6.248   3.756   1.688
 9470SOL    HW229310   6.125   3.661   1.639
 9471SOL     OW29311   0.072   2.721   5.602
 9471SOL    HW129312   7.015   2.731   5.666
 9471SOL    HW229313   0.122   2.807   5.597
 9472SOL     OW29314   6.076   2.323   5.259
 9472SOL    HW129315   6.025   2.241   5.231
 9472SOL    HW229316   6.174   2.306   5.247
 9473SOL     OW29317   3.055   4.793   5.870
 9473SOL    HW129318   2.969   4.750   5.842
 9473SOL    HW229319   3.105   4.824   5.789
 9474SOL     OW29320   3.817   5.751   4.428
 9474SOL    HW129321   3.849   5.826   4.486
 9474SOL    HW229322   3.782   5.789   4.342
 9475SOL     OW29323   2.626   3.220   1.499
 9475SOL    HW129324   2.719   3.240   1.530
 9475SOL    HW229325   2.562   3.285   1.540
 9476SOL     OW29326   2.807   3.283   5.571
 9476SOL    HW129327   2.905   3.288   5.553
 9476SOL    HW229328   2.766   3.211   5.515
 9477SOL     OW29329   1.038   2.420   0.510
 9477SOL    HW129330   0.976   2.390   0.583
 9477SOL    HW229331   0.995   2.493   0.458
 9478SOL     OW29332   5.778   3.456   6.810
 9478SOL    HW129333   5.749   3.366   6.843
 9478SOL    HW229334   5.851   3.492   6.869
 9479SOL     OW29335   5.558   4.860   5.014
 9479SOL    HW129336   5.576   4.870   4.916
 9479SOL    HW229337   5.641   4.884   5.065
 9480SOL     OW29338   0.097   3.629   6.136
 9480SOL    HW129339   7.018   3.646   6.128
 9480SOL    HW229340   0.115   3.574   6.217
 9481SOL     OW29341   1.064   3.012   3.564
 9481SOL    HW129342   1.058   3.109   3.586
 9481SOL    HW229343   0.977   2.967   3.585
 9482SOL     OW29344   4.186   1.492   2.372
 9482SOL    HW129345   4.120   1.561   2.402
 9482SOL    HW229346   4.141   1.403   2.368
 9483SOL     OW29347   1.809   0.922   0.695
 9483SOL    HW129348   1.845   0.891   0.782
 9483SOL    HW229349   1.762   1.009   0.707
 9484SOL     OW29350   6.823   0.185   3.262
 9484SOL    HW129351   6.905   0.188   3.319
 9484SOL    HW229352   6.748   0.145   3.315
 9485SOL     OW29353   0.114   6.999   3.261
 9485SOL    HW129354   0.074   6.916   3.222
 9485SOL    HW229355   0.158   6.977   3.348
 9486SOL     OW29356   2.676   6.904   1.828
 9486SOL    HW129357   2.692   6.838   1.755
 9486SOL    HW229358   2.764   6.942   1.858
 9487SOL     OW29359   3.385   2.940   3.398
 9487SOL    HW129360   3.394   2.919   3.301
 9487SOL    HW229361   3.425   2.865   3.452
 9488SOL     OW29362   1.815   0.068   1.633
 9488SOL    HW129363   1.803   0.165   1.653
 9488SOL    HW229364   1.776   0.013   1.707
 9489SOL     OW29365   3.020   5.022   0.660
 9489SOL    HW129366   2.942   5.084   0.654
 9489SOL    HW229367   3.025   4.982   0.751
 9490SOL     OW29368   4.619   1.799   0.378
 9490SOL    HW129369   4.633   1.814   0.280
 9490SOL    HW229370   4.603   1.702   0.395
 9491SOL     OW29371   5.822   5.789   6.316
 9491SOL    HW129372   5.833   5.821   6.222
 9491SOL    HW229373   5.912   5.771   6.357
 9492SOL     OW29374   2.390   5.512   1.170
 9492SOL    HW129375   2.438   5.432   1.206
 9492SOL    HW229376   2.294   5.509   1.198
 9493SOL     OW29377   5.059   5.551   2.396
 9493SOL    HW129378   5.014   5.481   2.340
 9493SOL    HW229379   5.111   5.613   2.337
 9494SOL     OW29380   3.552   3.245   6.520
 9494SOL    HW129381   3.617   3.277   6.451
 9494SOL    HW229382   3.555   3.306   6.599
 9495SOL     OW29383   5.063   2.741   4.414
 9495SOL    HW129384   5.051   2.811   4.483
 9495SOL    HW229385   5.113   2.664   4.453
 9496SOL     OW29386   0.023   4.312   6.794
 9496SOL    HW129387   0.080   4.285   6.872
 9496SOL    HW229388   0.046   4.255   6.715
 9497SOL     OW29389   0.892   6.358   6.269
 9497SOL    HW129390   0.858   6.448   6.295
 9497SOL    HW229391   0.823   6.289   6.293
 9498SOL     OW29392   4.482   6.672   6.608
 9498SOL    HW129393   4.517   6.614   6.535
 9498SOL    HW229394   4.480   6.767   6.577
 9499SOL     OW29395   4.558   4.074   5.606
 9499SOL    HW129396   4.572   4.010   5.681
 9499SOL    HW229397   4.644   4.119   5.583
 9500SOL     OW29398   3.927   5.886   0.605
 9500SOL    HW129399   3.917   5.986   0.602
 9500SOL    HW229400   3.894   5.852   0.694
 9501SOL     OW29401   3.244   1.875   5.005
 9501SOL    HW129402   3.289   1.929   4.934
 9501SOL    HW229403   3.150   1.856   4.978
 9502SOL     OW29404   3.860   3.178   6.215
 9502SOL    HW129405   3.803   3.239   6.271
 9502SOL    HW229406   3.832   3.083   6.231
 9503SOL     OW29407   0.841   6.498   1.070
 9503SOL    HW129408   0.846   6.407   1.113
 9503SOL    HW229409   0.929   6.520   1.029
 9504SOL     OW29410   0.062   3.218   0.838
 9504SOL    HW129411   0.034   3.171   0.922
 9504SOL    HW229412   0.109   3.154   0.778
 9505SOL     OW29413   4.831   3.067   3.240
 9505SOL    HW129414   4.845   2.977   3.198
 9505SOL    HW229415   4.825   3.136   3.168
 9506SOL     OW29416   6.406   1.967   1.192
 9506SOL    HW129417   6.490   2.014   1.219
 9506SOL    HW229418   6.349   2.030   1.139
 9507SOL     OW29419   1.704   3.181   5.487
 9507SOL    HW129420   1.614   3.144   5.466
 9507SOL    HW229421   1.767   3.159   5.412
 9508SOL     OW29422   4.186   1.083   5.424
 9508SOL    HW129423   4.271   1.129   5.399
 9508SOL    HW229424   4.112   1.150   5.428
 9509SOL     OW29425   3.533   6.770   5.732
 9509SOL    HW129426   3.628   6.751   5.757
 9509SOL    HW229427   3.524   6.867   5.709
 9510SOL     OW29428   6.995   4.305   2.818
 9510SOL    HW129429   6.921   4.357   2.860
 9510SOL    HW229430   0.002   4.349   2.731
 9511SOL     OW29431   2.111   1.883   1.344
 9511SOL    HW129432   2.209   1.903   1.338
 9511SOL    HW229433   2.098   1.789   1.376
 9512SOL     OW29434   1.934   3.587   5.452
 9512SOL    HW129435   1.856   3.528   5.470
 9512SOL    HW229436   1.903   3.675   5.417
 9513SOL     OW29437   2.959   4.970   3.919
 9513SOL    HW129438   3.030   5.016   3.865
 9513SOL    HW229439   2.972   4.991   4.015
 9514SOL     OW29440   3.041   3.163   5.506
 9514SOL    HW129441   3.015   3.140   5.412
 9514SOL    HW229442   3.141   3.168   5.512
 9515SOL     OW29443   1.662   5.824   5.640
 9515SOL    HW129444   1.715   5.756   5.589
 9515SOL    HW229445   1.648   5.905   5.583
 9516SOL     OW29446   6.208   4.397   4.701
 9516SOL    HW129447   6.251   4.378   4.613
 9516SOL    HW229448   6.130   4.459   4.687
 9517SOL     OW29449   0.385   5.320   2.400
 9517SOL    HW129450   0.420   5.299   2.492
 9517SOL    HW229451   0.287   5.304   2.398
 9518SOL     OW29452   0.900   3.056   5.125
 9518SOL    HW129453   0.984   3.102   5.098
 9518SOL    HW229454   0.821   3.107   5.092
 9519SOL     OW29455   3.271   3.616   3.540
 9519SOL    HW129456   3.274   3.520   3.511
 9519SOL    HW229457   3.212   3.667   3.478
 9520SOL     OW29458   4.786   1.387   5.965
 9520SOL    HW129459   4.774   1.420   5.872
 9520SOL    HW229460   4.712   1.325   5.989
 9521SOL     OW29461   3.766   1.603   1.373
 9521SOL    HW129462   3.790   1.507   1.388
 9521SOL    HW229463   3.806   1.658   1.446
 9522SOL     OW29464   3.784   6.557   1.277
 9522SOL    HW129465   3.868   6.520   1.317
 9522SOL    HW229466   3.782   6.656   1.291
 9523SOL     OW29467   2.642   4.697   4.633
 9523SOL    HW129468   2.585   4.618   4.610
 9523SOL    HW229469   2.726   4.665   4.677
 9524SOL     OW29470   1.830   3.714   0.319
 9524SOL    HW129471   1.809   3.658   0.239
 9524SOL    HW229472   1.809   3.810   0.299
 9525SOL     OW29473   2.481   2.734   6.549
 9525SOL    HW129474   2.573   2.773   6.546
 9525SOL    HW229475   2.484   2.646   6.597
 9526SOL     OW29476   5.267   4.559   5.991
 9526SOL    HW129477   5.358   4.520   6.004
 9526SOL    HW229478   5.198   4.492   6.020
 9527SOL     OW29479   4.120   6.013   4.466
 9527SOL    HW129480   4.072   5.994   4.552
 9527SOL    HW229481   4.163   5.929   4.433
 9528SOL     OW29482   5.137   2.551   1.249
 9528SOL    HW129483   5.095   2.464   1.273
 9528SOL    HW229484   5.065   2.617   1.226
 9529SOL     OW29485   6.048   0.110   1.958
 9529SOL    HW129486   5.956   0.109   1.919
 9529SOL    HW229487   6.043   0.138   2.054
 9530SOL     OW29488   1.194   6.202   3.754
 9530SOL    HW129489   1.105   6.197   3.708
 9530SOL    HW229490   1.186   6.168   3.848
 9531SOL     OW29491   3.567   5.816   1.504
 9531SOL    HW129492   3.595   5.872   1.582
 9531SOL    HW229493   3.577   5.868   1.419
 9532SOL     OW29494   6.867   5.151   4.451
 9532SOL    HW129495   6.940   5.211   4.482
 9532SOL    HW229496   6.779   5.199   4.457
 9533SOL     OW29497   1.176   4.295   3.810
 9533SOL    HW129498   1.249   4.313   3.876
 9533SOL    HW229499   1.112   4.372   3.808
 9534SOL     OW29500   4.993   5.924   4.308
 9534SOL    HW129501   5.037   5.947   4.222
 9534SOL    HW229502   4.941   6.003   4.341
 9535SOL     OW29503   0.165   1.637   4.041
 9535SOL    HW129504   0.169   1.730   4.079
 9535SOL    HW229505   0.073   1.620   4.004
 9536SOL     OW29506   3.287   3.495   5.102
 9536SOL    HW129507   3.384   3.488   5.125
 9536SOL    HW229508   3.243   3.406   5.118
 9537SOL     OW29509   0.074   0.774   4.481
 9537SOL    HW129510   0.054   0.676   4.477
 9537SOL    HW229511   0.093   0.800   4.576
 9538SOL     OW29512   5.486   0.882   4.818
 9538SOL    HW129513   5.391   0.851   4.809
 9538SOL    HW229514   5.519   0.865   4.911
 9539SOL     OW29515   3.541   4.198   2.036
 9539SOL    HW129516   3.446   4.174   2.056
 9539SOL    HW229517   3.577   4.254   2.110
 9540SOL     OW29518   4.078   4.781   3.208
 9540SOL    HW129519   4.101   4.743   3.118
 9540SOL    HW229520   4.161   4.817   3.251
 9541SOL     OW29521   1.730   5.385   5.577
 9541SOL    HW129522   1.681   5.349   5.656
 9541SOL    HW229523   1.713   5.326   5.498
 9542SOL     OW29524   6.531   3.973   3.194
 9542SOL    HW129525   6.474   4.001   3.118
 9542SOL    HW229526   6.511   3.878   3.218
 9543SOL     OW29527   1.870   0.717   5.864
 9543SOL    HW129528   1.815   0.638   5.839
 9543SOL    HW229529   1.958   0.714   5.816
 9544SOL     OW29530   6.206   3.444   4.590
 9544SOL    HW129531   6.261   3.389   4.526
 9544SOL    HW229532   6.246   3.439   4.681
 9545SOL     OW29533   6.535   4.132   1.613
 9545SOL    HW129534   6.498   4.216   1.573
 9545SOL    HW229535   6.466   4.092   1.674
 9546SOL     OW29536   3.436   2.691   0.517
 9546SOL    HW129537   3.380   2.612   0.491
 9546SOL    HW229538   3.471   2.677   0.610
 9547SOL     OW29539   4.399   0.689   3.421
 9547SOL    HW129540   4.453   0.619   3.466
 9547SOL    HW229541   4.370   0.657   3.331
 9548SOL     OW29542   0.946   5.033   5.518
 9548SOL    HW129543   0.953   5.119   5.468
 9548SOL    HW229544   0.900   4.965   5.461
 9549SOL     OW29545   4.669   1.048   1.543
 9549SOL    HW129546   4.689   1.145   1.530
 9549SOL    HW229547   4.738   0.993   1.495
 9550SOL     OW29548   6.780   2.069   1.827
 9550SOL    HW129549   6.793   1.989   1.768
 9550SOL    HW229550   6.792   2.152   1.773
 9551SOL     OW29551   6.376   3.294   6.704
 9551SOL    HW129552   6.416   3.321   6.792
 9551SOL    HW229553   6.277   3.282   6.715
 9552SOL     OW29554   2.975   1.385   0.130
 9552SOL    HW129555   3.067   1.351   0.150
 9552SOL    HW229556   2.962   1.387   0.030
 9553SOL     OW29557   5.268   1.671   0.167
 9553SOL    HW129558   5.281   1.752   0.109
 9553SOL    HW229559   5.341   1.605   0.150
 9554SOL     OW29560   2.711   1.026   4.467
 9554SOL    HW129561   2.752   1.083   4.538
 9554SOL    HW229562   2.614   1.050   4.457
 9555SOL     OW29563   0.494   6.476   2.592
 9555SOL    HW129564   0.511   6.377   2.591
 9555SOL    HW229565   0.398   6.492   2.617
 9556SOL     OW29566   2.413   4.652   6.775
 9556SOL    HW129567   2.426   4.559   6.810
 9556SOL    HW229568   2.385   4.713   6.849
 9557SOL     OW29569   5.272   0.993   0.379
 9557SOL    HW129570   5.196   0.977   0.316
 9557SOL    HW229571   5.274   1.090   0.406
 9558SOL     OW29572   5.708   5.965   5.540
 9558SOL    HW129573   5.769   5.992   5.466
 9558SOL    HW229574   5.720   5.867   5.560
 9559SOL     OW29575   2.488   4.197   0.204
 9559SOL    HW129576   2.399   4.231   0.173
 9559SOL    HW229577   2.504   4.227   0.298
 9560SOL     OW29578   2.480   0.234   1.767
 9560SOL    HW129579   2.397   0.278   1.800
 9560SOL    HW229580   2.559   0.290   1.791
 9561SOL     OW29581   6.971   1.184   0.002
 9561SOL    HW129582   7.014   1.226   6.941
 9561SOL    HW229583   6.878   1.221   0.013
 9562SOL     OW29584   1.971   5.787   2.938
 9562SOL    HW129585   2.066   5.760   2.954
 9562SOL    HW229586   1.936   5.740   2.857
 9563SOL     OW29587   0.388   5.630   6.853
 9563SOL    HW129588   0.474   5.589   6.883
 9563SOL    HW229589   0.322   5.627   6.928
 9564SOL     OW29590   0.833   1.746   0.329
 9564SOL    HW129591   0.774   1.826   0.341
 9564SOL    HW229592   0.921   1.775   0.291
 9565SOL     OW29593   2.319   2.228   4.745
 9565SOL    HW129594   2.341   2.205   4.839
 9565SOL    HW229595   2.377   2.175   4.683
 9566SOL     OW29596   3.026   0.483   6.759
 9566SOL    HW129597   3.092   0.556   6.739
 9566SOL    HW229598   2.955   0.482   6.690
 9567SOL     OW29599   6.969   4.328   0.953
 9567SOL    HW129600   6.909   4.374   1.019
 9567SOL    HW229601   6.993   4.392   0.880
 9568SOL     OW29602   4.544   2.275   5.690
 9568SOL    HW129603   4.604   2.299   5.767
 9568SOL    HW229604   4.450   2.297   5.713
 9569SOL     OW29605   5.524   0.405   2.055
 9569SOL    HW129606   5.567   0.467   1.990
 9569SOL    HW229607   5.595   0.357   2.107
 9570SOL     OW29608   0.682   3.815   2.438
 9570SOL    HW129609   0.777   3.791   2.453
 9570SOL    HW229610   0.676   3.891   2.373
 9571SOL     OW29611   1.719   0.983   6.923
 9571SOL    HW129612   1.735   0.992   6.825
 9571SOL    HW229613   1.634   0.934   6.939
 9572SOL     OW29614   2.906   4.881   4.957
 9572SOL    HW129615   2.883   4.785   4.973
 9572SOL    HW229616   2.840   4.940   5.004
 9573SOL     OW29617   5.778   0.024   4.683
 9573SOL    HW129618   5.681   0.019   4.710
 9573SOL    HW229619   5.786   0.015   4.584
 9574SOL     OW29620   4.553   2.725   1.021
 9574SOL    HW129621   4.639   2.750   0.976
 9574SOL    HW229622   4.560   2.742   1.119
 9575SOL     OW29623   5.069   0.691   1.714
 9575SOL    HW129624   4.996   0.740   1.763
 9575SOL    HW229625   5.036   0.666   1.623
 9576SOL     OW29626   1.207   1.013   5.635
 9576SOL    HW129627   1.166   1.104   5.627
 9576SOL    HW229628   1.297   1.013   5.591
 9577SOL     OW29629   0.405   5.442   3.057
 9577SOL    HW129630   0.460   5.382   2.999
 9577SOL    HW229631   0.341   5.387   3.110
 9578SOL     OW29632   2.061   3.244   3.177
 9578SOL    HW129633   2.012   3.288   3.102
 9578SOL    HW229634   1.996   3.195   3.235
 9579SOL     OW29635   5.647   5.109   2.437
 9579SOL    HW129636   5.577   5.101   2.366
 9579SOL    HW229637   5.630   5.042   2.509
 9580SOL     OW29638   4.888   3.809   3.917
 9580SOL    HW129639   4.894   3.818   4.017
 9580SOL    HW229640   4.870   3.714   3.893
 9581SOL     OW29641   4.865   2.009   6.269
 9581SOL    HW129642   4.882   2.028   6.365
 9581SOL    HW229643   4.950   1.983   6.224
 9582SOL     OW29644   4.524   6.752   5.043
 9582SOL    HW129645   4.462   6.749   4.966
 9582SOL    HW229646   4.586   6.673   5.040
 9583SOL     OW29647   2.495   5.289   0.981
 9583SOL    HW129648   2.486   5.194   1.010
 9583SOL    HW229649   2.559   5.336   1.041
 9584SOL     OW29650   2.372   5.363   4.611
 9584SOL    HW129651   2.273   5.361   4.594
 9584SOL    HW229652   2.414   5.283   4.569
 9585SOL     OW29653   4.486   6.692   1.112
 9585SOL    HW129654   4.533   6.677   1.199
 9585SOL    HW229655   4.391   6.717   1.129
 9586SOL     OW29656   3.002   5.195   2.979
 9586SOL    HW129657   3.065   5.157   2.911
 9586SOL    HW229658   2.973   5.123   3.041
 9587SOL     OW29659   3.550   6.409   6.814
 9587SOL    HW129660   3.482   6.378   6.882
 9587SOL    HW229661   3.602   6.485   6.852
 9588SOL     OW29662   6.215   5.967   0.493
 9588SOL    HW129663   6.185   6.058   0.464
 9588SOL    HW229664   6.315   5.965   0.500
 9589SOL     OW29665   1.059   1.308   5.665
 9589SOL    HW129666   0.969   1.273   5.639
 9589SOL    HW229667   1.050   1.362   5.749
 9590SOL     OW29668   5.366   0.388   0.406
 9590SOL    HW129669   5.283   0.422   0.450
 9590SOL    HW229670   5.410   0.321   0.466
 9591SOL     OW29671   4.880   1.039   6.565
 9591SOL    HW129672   4.914   0.947   6.543
 9591SOL    HW229673   4.897   1.101   6.489
 9592SOL     OW29674   1.518   5.821   5.269
 9592SOL    HW129675   1.568   5.876   5.336
 9592SOL    HW229676   1.422   5.847   5.270
 9593SOL     OW29677   2.580   2.262   4.388
 9593SOL    HW129678   2.551   2.351   4.423
 9593SOL    HW229679   2.506   2.196   4.399
 9594SOL     OW29680   0.314   6.424   3.582
 9594SOL    HW129681   0.286   6.520   3.590
 9594SOL    HW229682   0.237   6.368   3.553
 9595SOL     OW29683   0.721   3.794   3.405
 9595SOL    HW129684   0.765   3.731   3.341
 9595SOL    HW229685   0.689   3.875   3.357
 9596SOL     OW29686   1.468   6.319   1.442
 9596SOL    HW129687   1.525   6.237   1.437
 9596SOL    HW229688   1.501   6.386   1.376
 9597SOL     OW29689   0.980   3.651   2.226
 9597SOL    HW129690   1.013   3.586   2.294
 9597SOL    HW229691   1.057   3.685   2.172
 9598SOL     OW29692   2.558   4.647   3.649
 9598SOL    HW129693   2.608   4.587   3.711
 9598SOL    HW229694   2.612   4.662   3.566
 9599SOL     OW29695   4.886   0.212   5.057
 9599SOL    HW129696   4.802   0.267   5.051
 9599SOL    HW229697   4.877   0.133   4.997
 9600SOL     OW29698   4.282   1.246   0.763
 9600SOL    HW129699   4.344   1.315   0.725
 9600SOL    HW229700   4.265   1.175   0.695
 9601SOL     OW29701   0.851   3.914   0.669
 9601SOL    HW129702   0.902   3.917   0.583
 9601SOL    HW229703   0.860   4.001   0.717
 9602SOL     OW29704   3.994   4.341   5.736
 9602SOL    HW129705   3.924   4.370   5.802
 9602SOL    HW229706   3.959   4.263   5.684
 9603SOL     OW29707   5.398   6.727   5.953
 9603SOL    HW129708   5.401   6.647   6.013
 9603SOL    HW229709   5.306   6.765   5.952
 9604SOL     OW29710   4.557   6.671   1.609
 9604SOL    HW129711   4.581   6.764   1.635
 9604SOL    HW229712   4.473   6.644   1.655
 9605SOL     OW29713   5.182   5.007   1.390
 9605SOL    HW129714   5.241   5.063   1.332
 9605SOL    HW229715   5.147   5.063   1.465
 9606SOL     OW29716   1.534   1.577   6.679
 9606SOL    HW129717   1.566   1.672   6.676
 9606SOL    HW229718   1.440   1.572   6.644
 9607SOL     OW29719   1.537   2.209   6.665
 9607SOL    HW129720   1.512   2.268   6.587
 9607SOL    HW229721   1.454   2.173   6.707
 9608SOL     OW29722   6.510   2.478   4.590
 9608SOL    HW129723   6.501   2.485   4.689
 9608SOL    HW229724   6.425   2.510   4.547
 9609SOL     OW29725   4.717   3.189   1.018
 9609SOL    HW129726   4.667   3.240   0.949
 9609SOL    HW229727   4.659   3.176   1.099
 9610SOL     OW29728   1.370   5.180   2.692
 9610SOL    HW129729   1.457   5.148   2.730
 9610SOL    HW229730   1.376   5.279   2.676
 9611SOL     OW29731   2.511   0.461   0.647
 9611SOL    HW129732   2.511   0.496   0.553
 9611SOL    HW229733   2.593   0.407   0.662
 9612SOL     OW29734   6.746   1.350   3.883
 9612SOL    HW129735   6.749   1.298   3.798
 9612SOL    HW229736   6.772   1.292   3.960
 9613SOL     OW29737   5.793   4.658   4.602
 9613SOL    HW129738   5.778   4.615   4.691
 9613SOL    HW229739   5.713   4.713   4.578
 9614SOL     OW29740   4.057   1.693   3.330
 9614SOL    HW129741   4.038   1.600   3.296
 9614SOL    HW229742   4.140   1.727   3.286
 9615SOL     OW29743   1.927   3.616   1.403
 9615SOL    HW129744   2.023   3.617   1.428
 9615SOL    HW229745   1.873   3.579   1.479
 9616SOL     OW29746   3.902   4.208   6.113
 9616SOL    HW129747   3.938   4.301   6.123
 9616SOL    HW229748   3.912   4.178   6.017
 9617SOL     OW29749   1.285   3.163   2.767
 9617SOL    HW129750   1.243   3.208   2.845
 9617SOL    HW229751   1.272   3.064   2.774
 9618SOL     OW29752   2.416   2.577   0.630
 9618SOL    HW129753   2.374   2.666   0.619
 9618SOL    HW229754   2.369   2.525   0.701
 9619SOL     OW29755   2.201   0.102   6.539
 9619SOL    HW129756   2.203   0.076   6.635
 9619SOL    HW229757   2.130   0.049   6.491
 9620SOL     OW29758   5.642   1.139   5.133
 9620SOL    HW129759   5.660   1.139   5.035
 9620SOL    HW229760   5.691   1.214   5.176
 9621SOL     OW29761   1.863   3.593   3.345
 9621SOL    HW129762   1.777   3.600   3.397
 9621SOL    HW229763   1.940   3.596   3.407
 9622SOL     OW29764   4.440   0.116   6.983
 9622SOL    HW129765   4.369   0.185   6.966
 9622SOL    HW229766   4.508   0.153   0.027
 9623SOL     OW29767   0.833   3.346   6.295
 9623SOL    HW129768   0.850   3.256   6.256
 9623SOL    HW229769   0.895   3.412   6.254
 9624SOL     OW29770   6.279   3.275   3.935
 9624SOL    HW129771   6.278   3.178   3.959
 9624SOL    HW229772   6.285   3.329   4.019
 9625SOL     OW29773   5.520   5.960   1.912
 9625SOL    HW129774   5.582   6.037   1.926
 9625SOL    HW229775   5.548   5.883   1.970
 9626SOL     OW29776   3.851   0.883   0.110
 9626SOL    HW129777   3.794   0.965   0.105
 9626SOL    HW229778   3.907   0.887   0.193
 9627SOL     OW29779   0.716   0.246   0.792
 9627SOL    HW129780   0.786   0.313   0.816
 9627SOL    HW229781   0.649   0.288   0.731
 9628SOL     OW29782   3.508   6.818   1.787
 9628SOL    HW129783   3.545   6.859   1.870
 9628SOL    HW229784   3.425   6.766   1.810
 9629SOL     OW29785   2.330   0.267   0.655
 9629SOL    HW129786   2.408   0.329   0.651
 9629SOL    HW229787   2.326   0.212   0.571
 9630SOL     OW29788   0.101   2.409   6.368
 9630SOL    HW129789   0.155   2.482   6.326
 9630SOL    HW229790   0.159   2.330   6.385
 9631SOL     OW29791   6.485   5.436   0.799
 9631SOL    HW129792   6.572   5.393   0.822
 9631SOL    HW229793   6.476   5.442   0.700
 9632SOL     OW29794   1.931   5.426   2.883
 9632SOL    HW129795   1.960   5.453   2.975
 9632SOL    HW229796   1.867   5.494   2.847
 9633SOL     OW29797   0.307   5.180   6.857
 9633SOL    HW129798   0.270   5.141   6.941
 9633SOL    HW229799   0.316   5.108   6.788
 9634SOL     OW29800   0.158   5.755   6.032
 9634SOL    HW129801   0.061   5.774   6.045
 9634SOL    HW229802   0.192   5.702   6.110
 9635SOL     OW29803   6.108   5.845   5.910
 9635SOL    HW129804   6.165   5.926   5.923
 9635SOL    HW229805   6.167   5.765   5.896
 9636SOL     OW29806   3.960   1.362   0.846
 9636SOL    HW129807   3.872   1.390   0.810
 9636SOL    HW229808   3.950   1.334   0.941
 9637SOL     OW29809   2.694   1.218   6.957
 9637SOL    HW129810   2.716   1.211   0.036
 9637SOL    HW229811   2.770   1.180   6.904
 9638SOL     OW29812   6.549   2.599   6.542
 9638SOL    HW129813   6.550   2.647   6.454
 9638SOL    HW229814   6.591   2.658   6.612
 9639SOL     OW29815   3.600   0.274   2.426
 9639SOL    HW129816   3.570   0.364   2.393
 9639SOL    HW229817   3.598   0.274   2.526
 9640SOL     OW29818   2.044   1.479   3.119
 9640SOL    HW129819   2.018   1.569   3.083
 9640SOL    HW229820   1.992   1.460   3.202
 9641SOL     OW29821   4.849   5.517   6.212
 9641SOL    HW129822   4.918   5.528   6.284
 9641SOL    HW229823   4.883   5.559   6.127
 9642SOL     OW29824   3.147   6.960   3.086
 9642SOL    HW129825   3.080   0.005   3.123
 9642SOL    HW229826   3.139   6.956   2.987
 9643SOL     OW29827   3.946   4.825   2.170
 9643SOL    HW129828   3.915   4.907   2.121
 9643SOL    HW229829   3.869   4.787   2.222
 9644SOL     OW29830   2.605   0.950   0.664
 9644SOL    HW129831   2.682   0.942   0.727
 9644SOL    HW229832   2.603   0.870   0.604
 9645SOL     OW29833   3.070   5.116   5.503
 9645SOL    HW129834   2.984   5.065   5.500
 9645SOL    HW229835   3.054   5.206   5.544
 9646SOL     OW29836   3.554   4.939   3.920
 9646SOL    HW129837   3.577   5.036   3.912
 9646SOL    HW229838   3.505   4.910   3.838
 9647SOL     OW29839   6.358   3.108   5.785
 9647SOL    HW129840   6.443   3.128   5.835
 9647SOL    HW229841   6.381   3.083   5.691
 9648SOL     OW29842   4.273   4.065   0.756
 9648SOL    HW129843   4.332   3.986   0.773
 9648SOL    HW229844   4.256   4.112   0.843
 9649SOL     OW29845   2.375   4.598   0.911
 9649SOL    HW129846   2.419   4.651   0.983
 9649SOL    HW229847   2.318   4.526   0.952
 9650SOL     OW29848   1.722   0.487   1.422
 9650SOL    HW129849   1.713   0.579   1.383
 9650SOL    HW229850   1.819   0.462   1.428
 9651SOL     OW29851   0.795   2.066   0.057
 9651SOL    HW129852   0.888   2.062   0.020
 9651SOL    HW229853   0.739   1.995   0.013
 9652SOL     OW29854   1.934   4.523   1.103
 9652SOL    HW129855   1.835   4.540   1.107
 9652SOL    HW229856   1.962   4.475   1.186
 9653SOL     OW29857   6.237   6.563   4.523
 9653SOL    HW129858   6.154   6.547   4.576
 9653SOL    HW229859   6.227   6.648   4.472
 9654SOL     OW29860   2.270   2.797   2.414
 9654SOL    HW129861   2.263   2.828   2.319
 9654SOL    HW229862   2.343   2.729   2.422
 9655SOL     OW29863   6.292   2.277   0.265
 9655SOL    HW129864   6.288   2.367   0.309
 9655SOL    HW229865   6.382   2.266   0.221
 9656SOL     OW29866   2.720   1.964   2.359
 9656SOL    HW129867   2.784   2.036   2.334
 9656SOL    HW229868   2.669   1.991   2.441
 9657SOL     OW29869   0.597   0.151   4.802
 9657SOL    HW129870   0.561   0.244   4.816
 9657SOL    HW229871   0.620   0.112   4.891
 9658SOL     OW29872   6.087   1.383   2.690
 9658SOL    HW129873   6.111   1.367   2.594
 9658SOL    HW229874   6.070   1.295   2.735
 9659SOL     OW29875   1.423   5.301   6.756
 9659SOL    HW129876   1.493   5.366   6.787
 9659SOL    HW229877   1.427   5.294   6.656
 9660SOL     OW29878   1.224   4.121   0.407
 9660SOL    HW129879   1.190   4.210   0.379
 9660SOL    HW229880   1.297   4.092   0.345
 9661SOL     OW29881   3.980   0.737   0.980
 9661SOL    HW129882   4.059   0.772   0.931
 9661SOL    HW229883   3.911   0.706   0.915
 9662SOL     OW29884   5.098   2.462   4.043
 9662SOL    HW129885   5.119   2.488   3.949
 9662SOL    HW229886   4.999   2.461   4.056
 9663SOL     OW29887   3.088   5.915   2.673
 9663SOL    HW129888   3.144   5.972   2.733
 9663SOL    HW229889   3.145   5.845   2.631
 9664SOL     OW29890   2.883   5.971   1.266
 9664SOL    HW129891   2.832   6.005   1.345
 9664SOL    HW229892   2.865   5.873   1.254
 9665SOL     OW29893   5.676   4.761   3.654
 9665SOL    HW129894   5.604   4.796   3.595
 9665SOL    HW229895   5.727   4.690   3.606
 9666SOL     OW29896   5.566   5.133   5.233
 9666SOL    HW129897   5.648   5.085   5.200
 9666SOL    HW229898   5.585   5.173   5.322
 9667SOL     OW29899   2.895   3.249   2.916
 9667SOL    HW129900   2.957   3.226   2.991
 9667SOL    HW229901   2.804   3.215   2.937
 9668SOL     OW29902   0.383   1.233   4.881
 9668SOL    HW129903   0.451   1.306   4.887
 9668SOL    HW229904   0.406   1.161   4.946
 9669SOL     OW29905   1.225   6.657   6.968
 9669SOL    HW129906   1.161   6.702   6.905
 9669SOL    HW229907   1.318   6.682   6.944
 9670SOL     OW29908   6.310   3.705   6.942
 9670SOL    HW129909   6.269   3.735   6.856
 9670SOL    HW229910   6.406   3.683   6.927
 9671SOL     OW29911   6.906   1.661   0.054
 9671SOL    HW129912   6.896   1.646   6.975
 9671SOL    HW229913   6.926   1.758   0.071
 9672SOL     OW29914   0.302   6.803   6.044
 9672SOL    HW129915   0.324   6.721   5.992
 9672SOL    HW229916   0.254   6.777   6.128
 9673SOL     OW29917   1.932   2.137   5.805
 9673SOL    HW129918   1.838   2.120   5.773
 9673SOL    HW229919   1.939   2.230   5.839
 9674SOL     OW29920   2.747   6.461   2.260
 9674SOL    HW129921   2.720   6.510   2.176
 9674SOL    HW229922   2.816   6.392   2.238
 9675SOL     OW29923   6.809   2.446   1.912
 9675SOL    HW129924   6.876   2.410   1.976
 9675SOL    HW229925   6.825   2.544   1.898
 9676SOL     OW29926   6.847   3.153   4.314
 9676SOL    HW129927   6.819   3.239   4.271
 9676SOL    HW229928   6.844   3.079   4.246
 9677SOL     OW29929   2.086   3.650   5.975
 9677SOL    HW129930   2.104   3.736   6.021
 9677SOL    HW229931   1.996   3.615   6.001
 9678SOL     OW29932   3.829   3.578   3.034
 9678SOL    HW129933   3.824   3.484   3.067
 9678SOL    HW229934   3.752   3.630   3.071
 9679SOL     OW29935   0.433   3.485   1.475
 9679SOL    HW129936   0.407   3.538   1.555
 9679SOL    HW229937   0.509   3.424   1.499
 9680SOL     OW29938   4.376   5.351   2.819
 9680SOL    HW129939   4.393   5.341   2.917
 9680SOL    HW229940   4.430   5.427   2.783
 9681SOL     OW29941   0.964   0.755   4.058
 9681SOL    HW129942   0.900   0.789   4.127
 9681SOL    HW229943   1.057   0.785   4.080
 9682SOL     OW29944   0.726   4.378   2.156
 9682SOL    HW129945   0.802   4.441   2.141
 9682SOL    HW229946   0.755   4.305   2.218
 9683SOL     OW29947   4.469   0.017   4.776
 9683SOL    HW129948   4.524   0.050   4.853
 9683SOL    HW229949   4.447   6.940   4.790
 9684SOL     OW29950   1.642   4.235   3.111
 9684SOL    HW129951   1.663   4.139   3.093
 9684SOL    HW229952   1.559   4.242   3.166
 9685SOL     OW29953   1.671   1.276   6.750
 9685SOL    HW129954   1.680   1.277   6.651
 9685SOL    HW229955   1.590   1.224   6.776
 9686SOL     OW29956   5.646   2.552   2.328
 9686SOL    HW129957   5.730   2.604   2.342
 9686SOL    HW229958   5.652   2.500   2.242
 9687SOL     OW29959   3.086   1.355   4.958
 9687SOL    HW129960   3.062   1.380   5.052
 9687SOL    HW229961   3.083   1.436   4.900
 9688SOL     OW29962   5.400   2.114   4.185
 9688SOL    HW129963   5.415   2.127   4.283
 9688SOL    HW229964   5.405   2.202   4.138
 9689SOL     OW29965   3.152   5.234   5.848
 9689SOL    HW129966   3.129   5.267   5.939
 9689SOL    HW229967   3.251   5.241   5.834
 9690SOL     OW29968   6.308   3.586   0.191
 9690SOL    HW129969   6.287   3.632   0.104
 9690SOL    HW229970   6.290   3.488   0.181
 9691SOL     OW29971   1.171   4.449   1.056
 9691SOL    HW129972   1.092   4.407   1.101
 9691SOL    HW229973   1.254   4.400   1.082
 9692SOL     OW29974   3.355   5.493   0.667
 9692SOL    HW129975   3.328   5.585   0.642
 9692SOL    HW229976   3.337   5.431   0.591
 9693SOL     OW29977   5.862   5.551   1.160
 9693SOL    HW129978   5.865   5.574   1.063
 9693SOL    HW229979   5.917   5.469   1.177
 9694SOL     OW29980   1.150   1.059   0.316
 9694SOL    HW129981   1.057   1.096   0.316
 9694SOL    HW229982   1.209   1.120   0.263
 9695SOL     OW29983   6.037   4.492   6.964
 9695SOL    HW129984   6.083   4.489   6.876
 9695SOL    HW229985   5.940   4.471   6.952
 9696SOL     OW29986   4.080   4.155   0.021
 9696SOL    HW129987   4.012   4.094   0.062
 9696SOL    HW229988   4.048   4.249   0.029
 9697SOL     OW29989   0.171   5.969   6.762
 9697SOL    HW129990   0.154   6.028   6.683
 9697SOL    HW229991   0.233   5.895   6.735
 9698SOL     OW29992   4.680   1.465   5.712
 9698SOL    HW129993   4.733   1.546   5.686
 9698SOL    HW229994   4.631   1.431   5.632
 9699SOL     OW29995   1.577   2.088   6.353
 9699SOL    HW129996   1.530   2.164   6.308
 9699SOL    HW229997   1.630   2.123   6.430
 9700SOL     OW29998   3.768   3.024   3.618
 9700SOL    HW129999   3.818   3.013   3.704
 9700SOL    HW230000   3.736   3.118   3.611
 9701SOL     OW30001   4.179   4.745   4.254
 9701SOL    HW130002   4.148   4.706   4.341
 9701SOL    HW230003   4.102   4.750   4.191
 9702SOL     OW30004   5.455   0.333   6.670
 9702SOL    HW130005   5.359   0.350   6.648
 9702SOL    HW230006   5.501   0.421   6.685
 9703SOL     OW30007   2.429   5.897   4.637
 9703SOL    HW130008   2.354   5.961   4.616
 9703SOL    HW230009   2.516   5.946   4.636
 9704SOL     OW30010   3.062   1.241   4.442
 9704SOL    HW130011   2.986   1.246   4.507
 9704SOL    HW230012   3.042   1.172   4.373
 9705SOL     OW30013   3.128   3.926   0.634
 9705SOL    HW130014   3.187   3.934   0.713
 9705SOL    HW230015   3.183   3.923   0.551
 9706SOL     OW30016   0.191   1.948   3.434
 9706SOL    HW130017   0.161   1.857   3.407
 9706SOL    HW230018   0.176   1.961   3.532
 9707SOL     OW30019   2.629   5.380   1.242
 9707SOL    HW130020   2.722   5.409   1.218
 9707SOL    HW230021   2.628   5.344   1.336
 9708SOL     OW30022   1.715   1.603   1.419
 9708SOL    HW130023   1.730   1.665   1.496
 9708SOL    HW230024   1.719   1.509   1.450
 9709SOL     OW30025   1.384   6.370   3.953
 9709SOL    HW130026   1.418   6.438   4.018
 9709SOL    HW230027   1.347   6.416   3.872
 9710SOL     OW30028   1.646   6.889   3.932
 9710SOL    HW130029   1.587   6.957   3.887
 9710SOL    HW230030   1.623   6.884   4.029
 9711SOL     OW30031   2.222   2.981   6.477
 9711SOL    HW130032   2.320   2.986   6.455
 9711SOL    HW230033   2.169   2.972   6.393
 9712SOL     OW30034   5.240   3.806   4.910
 9712SOL    HW130035   5.147   3.771   4.922
 9712SOL    HW230036   5.296   3.738   4.864
 9713SOL     OW30037   0.783   5.825   3.675
 9713SOL    HW130038   0.816   5.742   3.720
 9713SOL    HW230039   0.853   5.897   3.682
 9714SOL     OW30040   2.614   1.947   2.071
 9714SOL    HW130041   2.518   1.953   2.100
 9714SOL    HW230042   2.672   1.928   2.150
 9715SOL     OW30043   5.656   5.593   6.085
 9715SOL    HW130044   5.666   5.502   6.044
 9715SOL    HW230045   5.747   5.631   6.103
 9716SOL     OW30046   3.580   0.617   5.619
 9716SOL    HW130047   3.666   0.596   5.572
 9716SOL    HW230048   3.504   0.580   5.567
 9717SOL     OW30049   6.122   5.281   3.459
 9717SOL    HW130050   6.218   5.298   3.482
 9717SOL    HW230051   6.084   5.360   3.411
 9718SOL     OW30052   6.135   2.469   2.131
 9718SOL    HW130053   6.085   2.519   2.201
 9718SOL    HW230054   6.221   2.516   2.111
 9719SOL     OW30055   0.213   1.171   0.092
 9719SOL    HW130056   0.118   1.187   0.063
 9719SOL    HW230057   0.222   1.196   0.189
 9720SOL     OW30058   0.865   1.102   0.754
 9720SOL    HW130059   0.943   1.102   0.692
 9720SOL    HW230060   0.898   1.107   0.849
 9721SOL     OW30061   0.702   2.201   3.689
 9721SOL    HW130062   0.655   2.128   3.739
 9721SOL    HW230063   0.796   2.209   3.723
 9722SOL     OW30064   0.207   0.198   4.310
 9722SOL    HW130065   0.237   0.111   4.271
 9722SOL    HW230066   0.142   0.181   4.384
 9723SOL     OW30067   6.440   1.035   4.358
 9723SOL    HW130068   6.362   0.983   4.392
 9723SOL    HW230069   6.511   0.971   4.326
 9724SOL     OW30070   3.786   2.672   1.593
 9724SOL    HW130071   3.792   2.722   1.679
 9724SOL    HW230072   3.706   2.612   1.595
 9725SOL     OW30073   3.950   2.933   5.835
 9725SOL    HW130074   4.022   2.915   5.903
 9725SOL    HW230075   3.887   2.856   5.832
 9726SOL     OW30076   4.951   6.134   5.001
 9726SOL    HW130077   4.884   6.086   5.058
 9726SOL    HW230078   4.904   6.197   4.939
 9727SOL     OW30079   0.325   0.745   6.615
 9727SOL    HW130080   0.333   0.724   6.517
 9727SOL    HW230081   0.229   0.733   6.644
 9728SOL     OW30082   2.910   5.760   6.008
 9728SOL    HW130083   2.853   5.832   5.967
 9728SOL    HW230084   2.928   5.689   5.940
 9729SOL     OW30085   3.618   5.781   2.126
 9729SOL    HW130086   3.548   5.806   2.059
 9729SOL    HW230087   3.672   5.705   2.089
 9730SOL     OW30088   5.094   3.815   2.966
 9730SOL    HW130089   5.182   3.774   2.991
 9730SOL    HW230090   5.020   3.758   2.999
 9731SOL     OW30091   5.351   4.514   0.453
 9731SOL    HW130092   5.350   4.416   0.472
 9731SOL    HW230093   5.263   4.554   0.480
 9732SOL     OW30094   5.496   6.288   4.653
 9732SOL    HW130095   5.411   6.237   4.669
 9732SOL    HW230096   5.566   6.256   4.717
 9733SOL     OW30097   4.879   4.546   4.348
 9733SOL    HW130098   4.839   4.456   4.365
 9733SOL    HW230099   4.828   4.592   4.276
 9734SOL     OW30100   6.307   2.386   5.927
 9734SOL    HW130101   6.231   2.324   5.944
 9734SOL    HW230102   6.275   2.463   5.870
 9735SOL     OW30103   3.294   5.185   1.313
 9735SOL    HW130104   3.200   5.154   1.321
 9735SOL    HW230105   3.350   5.140   1.382
 9736SOL     OW30106   3.781   1.952   2.074
 9736SOL    HW130107   3.739   2.039   2.048
 9736SOL    HW230108   3.733   1.877   2.028
 9737SOL     OW30109   4.615   1.555   4.507
 9737SOL    HW130110   4.650   1.463   4.487
 9737SOL    HW230111   4.557   1.585   4.432
 9738SOL     OW30112   2.558   0.534   2.258
 9738SOL    HW130113   2.506   0.492   2.183
 9738SOL    HW230114   2.494   0.570   2.326
 9739SOL     OW30115   5.147   4.532   2.813
 9739SOL    HW130116   5.063   4.487   2.843
 9739SOL    HW230117   5.223   4.501   2.868
 9740SOL     OW30118   6.622   3.321   3.361
 9740SOL    HW130119   6.643   3.259   3.437
 9740SOL    HW230120   6.540   3.290   3.314
 9741SOL     OW30121   3.811   1.907   2.720
 9741SOL    HW130122   3.728   1.856   2.742
 9741SOL    HW230123   3.890   1.862   2.761
 9742SOL     OW30124   3.670   1.229   2.830
 9742SOL    HW130125   3.600   1.222   2.902
 9742SOL    HW230126   3.626   1.251   2.743
 9743SOL     OW30127   1.335   1.225   5.906
 9743SOL    HW130128   1.425   1.188   5.930
 9743SOL    HW230129   1.301   1.179   5.824
 9744SOL     OW30130   2.312   0.119   1.343
 9744SOL    HW130131   2.315   0.219   1.335
 9744SOL    HW230132   2.226   0.086   1.304
 9745SOL     OW30133   0.725   1.084   4.142
 9745SOL    HW130134   0.781   1.055   4.220
 9745SOL    HW230135   0.648   1.139   4.175
 9746SOL     OW30136   6.005   0.069   4.799
 9746SOL    HW130137   6.008   7.007   4.857
 9746SOL    HW230138   5.935   0.058   4.729
 9747SOL     OW30139   6.619   0.418   5.979
 9747SOL    HW130140   6.704   0.368   5.993
 9747SOL    HW230141   6.548   0.357   5.943
 9748SOL     OW30142   1.873   4.889   4.575
 9748SOL    HW130143   1.823   4.804   4.558
 9748SOL    HW230144   1.968   4.877   4.548
 9749SOL     OW30145   0.798   4.960   4.769
 9749SOL    HW130146   0.733   5.032   4.747
 9749SOL    HW230147   0.774   4.919   4.857
 9750SOL     OW30148   2.553   5.416   2.601
 9750SOL    HW130149   2.490   5.351   2.558
 9750SOL    HW230150   2.521   5.437   2.694
 9751SOL     OW30151   1.262   1.930   0.683
 9751SOL    HW130152   1.336   1.950   0.747
 9751SOL    HW230153   1.287   1.964   0.592
 9752SOL     OW30154   2.973   6.558   6.136
 9752SOL    HW130155   3.000   6.618   6.212
 9752SOL    HW230156   3.051   6.543   6.075
 9753SOL     OW30157   0.245   0.388   6.779
 9753SOL    HW130158   0.255   0.468   6.838
 9753SOL    HW230159   0.332   0.338   6.775
 9754SOL     OW30160   6.940   3.063   6.566
 9754SOL    HW130161   6.875   3.137   6.551
 9754SOL    HW230162   6.939   3.001   6.488
 9755SOL     OW30163   4.425   5.907   4.609
 9755SOL    HW130164   4.365   5.853   4.550
 9755SOL    HW230165   4.517   5.866   4.609
 9756SOL     OW30166   4.303   3.137   6.171
 9756SOL    HW130167   4.362   3.213   6.144
 9756SOL    HW230168   4.208   3.158   6.147
 9757SOL     OW30169   5.819   0.849   4.131
 9757SOL    HW130170   5.740   0.843   4.192
 9757SOL    HW230171   5.805   0.789   4.052
 9758SOL     OW30172   3.424   0.164   0.522
 9758SOL    HW130173   3.428   0.263   0.508
 9758SOL    HW230174   3.517   0.127   0.519
 9759SOL     OW30175   2.998   5.780   2.058
 9759SOL    HW130176   2.911   5.807   2.100
 9759SOL    HW230177   3.053   5.729   2.124
 9760SOL     OW30178   4.651   3.593   6.203
 9760SOL    HW130179   4.585   3.609   6.130
 9760SOL    HW230180   4.744   3.593   6.166
 9761SOL     OW30181   5.236   5.440   3.113
 9761SOL    HW130182   5.235   5.502   3.034
 9761SOL    HW230183   5.150   5.389   3.116
 9762SOL     OW30184   3.653   1.098   2.368
 9762SOL    HW130185   3.580   1.117   2.434
 9762SOL    HW230186   3.675   1.182   2.318
 9763SOL     OW30187   2.240   2.026   1.601
 9763SOL    HW130188   2.265   2.106   1.656
 9763SOL    HW230189   2.144   2.003   1.618
 9764SOL     OW30190   1.375   2.760   4.094
 9764SOL    HW130191   1.380   2.661   4.110
 9764SOL    HW230192   1.401   2.808   4.178
 9765SOL     OW30193   0.208   1.518   5.406
 9765SOL    HW130194   0.139   1.586   5.383
 9765SOL    HW230195   0.299   1.560   5.405
 9766SOL     OW30196   2.940   0.618   1.652
 9766SOL    HW130197   2.855   0.589   1.696
 9766SOL    HW230198   2.977   0.542   1.598
 9767SOL     OW30199   4.294   0.371   5.053
 9767SOL    HW130200   4.360   0.427   5.003
 9767SOL    HW230201   4.216   0.427   5.080
 9768SOL     OW30202   4.674   1.892   2.894
 9768SOL    HW130203   4.601   1.831   2.864
 9768SOL    HW230204   4.640   1.986   2.897
 9769SOL     OW30205   6.926   2.756   0.275
 9769SOL    HW130206   6.880   2.751   0.186
 9769SOL    HW230207   6.959   2.666   0.301
 9770SOL     OW30208   0.382   3.360   4.653
 9770SOL    HW130209   0.441   3.433   4.621
 9770SOL    HW230210   0.390   3.281   4.593
 9771SOL     OW30211   1.993   6.312   4.086
 9771SOL    HW130212   1.902   6.297   4.050
 9771SOL    HW230213   2.019   6.408   4.072
 9772SOL     OW30214   5.669   6.474   1.398
 9772SOL    HW130215   5.747   6.536   1.387
 9772SOL    HW230216   5.697   6.382   1.372
 9773SOL     OW30217   5.301   5.257   3.796
 9773SOL    HW130218   5.253   5.302   3.872
 9773SOL    HW230219   5.361   5.186   3.832
 9774SOL     OW30220   6.318   6.069   4.272
 9774SOL    HW130221   6.384   6.107   4.338
 9774SOL    HW230222   6.244   6.135   4.258
 9775SOL     OW30223   2.797   1.297   4.845
 9775SOL    HW130224   2.825   1.254   4.931
 9775SOL    HW230225   2.833   1.391   4.842
 9776SOL     OW30226   0.286   4.833   4.424
 9776SOL    HW130227   0.277   4.737   4.400
 9776SOL    HW230228   0.229   4.853   4.504
 9777SOL     OW30229   4.665   5.490   6.397
 9777SOL    HW130230   4.595   5.419   6.399
 9777SOL    HW230231   4.732   5.470   6.325
 9778SOL     OW30232   3.150   0.700   4.551
 9778SOL    HW130233   3.151   0.797   4.525
 9778SOL    HW230234   3.061   0.660   4.529
 9779SOL     OW30235   3.405   2.158   6.753
 9779SOL    HW130236   3.477   2.118   6.809
 9779SOL    HW230237   3.395   2.105   6.669
 9780SOL     OW30238   2.019   3.277   1.467
 9780SOL    HW130239   1.981   3.298   1.557
 9780SOL    HW230240   1.945   3.260   1.402
 9781SOL     OW30241   0.283   0.405   4.090
 9781SOL    HW130242   0.360   0.373   4.034
 9781SOL    HW230243   0.276   0.349   4.172
 9782SOL     OW30244   5.713   0.140   0.348
 9782SOL    HW130245   5.806   0.102   0.343
 9782SOL    HW230246   5.685   0.172   0.258
 9783SOL     OW30247   6.202   6.764   3.749
 9783SOL    HW130248   6.116   6.806   3.720
 9783SOL    HW230249   6.197   6.741   3.846
 9784SOL     OW30250   4.967   0.897   4.732
 9784SOL    HW130251   4.912   0.939   4.660
 9784SOL    HW230252   4.938   0.802   4.745
 9785SOL     OW30253   1.091   2.163   0.653
 9785SOL    HW130254   1.151   2.236   0.620
 9785SOL    HW230255   1.147   2.086   0.685
 9786SOL     OW30256   1.461   0.160   3.300
 9786SOL    HW130257   1.434   0.192   3.209
 9786SOL    HW230258   1.486   0.064   3.294
 9787SOL     OW30259   6.267   3.691   0.847
 9787SOL    HW130260   6.306   3.599   0.843
 9787SOL    HW230261   6.340   3.757   0.866
 9788SOL     OW30262   0.058   0.295   6.348
 9788SOL    HW130263   0.046   0.204   6.389
 9788SOL    HW230264   0.087   0.285   6.253
 9789SOL     OW30265   1.967   4.550   4.041
 9789SOL    HW130266   1.985   4.453   4.027
 9789SOL    HW230267   1.984   4.574   4.137
 9790SOL     OW30268   0.396   1.136   3.599
 9790SOL    HW130269   0.463   1.192   3.551
 9790SOL    HW230270   0.339   1.195   3.656
 9791SOL     OW30271   1.182   2.263   0.335
 9791SOL    HW130272   1.276   2.286   0.311
 9791SOL    HW230273   1.154   2.315   0.415
 9792SOL     OW30274   4.690   5.326   3.004
 9792SOL    HW130275   4.759   5.264   2.966
 9792SOL    HW230276   4.734   5.411   3.033
 9793SOL     OW30277   5.247   5.914   2.153
 9793SOL    HW130278   5.240   5.818   2.181
 9793SOL    HW230279   5.252   5.919   2.054
 9794SOL     OW30280   3.763   4.244   0.144
 9794SOL    HW130281   3.776   4.310   0.218
 9794SOL    HW230282   3.807   4.277   0.061
 9795SOL     OW30283   2.306   4.986   2.877
 9795SOL    HW130284   2.337   5.043   2.801
 9795SOL    HW230285   2.366   5.001   2.956
 9796SOL     OW30286   4.131   5.151   6.317
 9796SOL    HW130287   4.168   5.180   6.406
 9796SOL    HW230288   4.031   5.148   6.322
 9797SOL     OW30289   6.467   3.330   4.977
 9797SOL    HW130290   6.497   3.237   4.997
 9797SOL    HW230291   6.458   3.382   5.062
 9798SOL     OW30292   3.393   1.263   1.547
 9798SOL    HW130293   3.343   1.177   1.552
 9798SOL    HW230294   3.431   1.286   1.636
 9799SOL     OW30295   4.015   3.781   3.019
 9799SOL    HW130296   3.980   3.874   3.008
 9799SOL    HW230297   3.942   3.715   2.999
 9800SOL     OW30298   4.168   6.644   0.418
 9800SOL    HW130299   4.171   6.706   0.339
 9800SOL    HW230300   4.202   6.554   0.392
 9801SOL     OW30301   5.737   5.182   1.791
 9801SOL    HW130302   5.717   5.280   1.780
 9801SOL    HW230303   5.835   5.167   1.776
 9802SOL     OW30304   0.758   6.318   2.274
 9802SOL    HW130305   0.722   6.372   2.197
 9802SOL    HW230306   0.683   6.298   2.338
 9803SOL     OW30307   5.487   0.196   6.217
 9803SOL    HW130308   5.584   0.219   6.209
 9803SOL    HW230309   5.468   0.163   6.310
 9804SOL     OW30310   5.254   5.776   3.939
 9804SOL    HW130311   5.213   5.708   3.879
 9804SOL    HW230312   5.306   5.730   4.011
 9805SOL     OW30313   3.449   4.555   0.367
 9805SOL    HW130314   3.517   4.595   0.429
 9805SOL    HW230315   3.462   4.456   0.363
 9806SOL     OW30316   0.392   1.422   3.228
 9806SOL    HW130317   0.325   1.382   3.166
 9806SOL    HW230318   0.484   1.397   3.199
 9807SOL     OW30319   2.047   3.865   1.021
 9807SOL    HW130320   2.087   3.807   0.949
 9807SOL    HW230321   2.120   3.918   1.065
 9808SOL     OW30322   2.653   1.974   2.976
 9808SOL    HW130323   2.591   2.030   2.920
 9808SOL    HW230324   2.685   1.896   2.923
 9809SOL     OW30325   0.532   0.262   3.994
 9809SOL    HW130326   0.492   0.171   3.985
 9809SOL    HW230327   0.577   0.271   4.083
 9810SOL     OW30328   4.795   1.568   2.786
 9810SOL    HW130329   4.713   1.536   2.834
 9810SOL    HW230330   4.784   1.665   2.764
 9811SOL     OW30331   1.241   0.380   3.067
 9811SOL    HW130332   1.161   0.319   3.066
 9811SOL    HW230333   1.211   0.475   3.057
 9812SOL     OW30334   5.958   2.751   6.844
 9812SOL    HW130335   5.983   2.656   6.860
 9812SOL    HW230336   6.041   2.807   6.837
 9813SOL     OW30337   6.499   4.249   0.141
 9813SOL    HW130338   6.413   4.274   0.095
 9813SOL    HW230339   6.480   4.180   0.211
 9814SOL     OW30340   6.669   1.214   5.878
 9814SOL    HW130341   6.636   1.140   5.819
 9814SOL    HW230342   6.751   1.183   5.927
 9815SOL     OW30343   0.043   5.230   2.034
 9815SOL    HW130344   0.123   5.189   2.077
 9815SOL    HW230345   0.000   5.294   2.098
 9816SOL     OW30346   0.068   2.323   5.294
 9816SOL    HW130347   0.099   2.395   5.232
 9816SOL    HW230348   0.009   2.363   5.364
 9817SOL     OW30349   2.287   1.836   0.333
 9817SOL    HW130350   2.197   1.801   0.359
 9817SOL    HW230351   2.348   1.760   0.311
 9818SOL     OW30352   0.317   0.335   2.530
 9818SOL    HW130353   0.330   0.414   2.469
 9818SOL    HW230354   0.338   0.251   2.480
 9819SOL     OW30355   6.451   1.110   5.081
 9819SOL    HW130356   6.419   1.186   5.024
 9819SOL    HW230357   6.372   1.059   5.114
 9820SOL     OW30358   3.209   0.696   6.709
 9820SOL    HW130359   3.281   0.666   6.646
 9820SOL    HW230360   3.224   0.791   6.735
 9821SOL     OW30361   4.678   4.142   6.355
 9821SOL    HW130362   4.604   4.124   6.420
 9821SOL    HW230363   4.691   4.062   6.296
 9822SOL     OW30364   2.857   6.699   3.841
 9822SOL    HW130365   2.802   6.616   3.847
 9822SOL    HW230366   2.944   6.685   3.889
 9823SOL     OW30367   3.959   5.955   2.961
 9823SOL    HW130368   3.959   6.050   2.992
 9823SOL    HW230369   3.994   5.896   3.035
 9824SOL     OW30370   1.621   6.027   5.434
 9824SOL    HW130371   1.720   6.039   5.440
 9824SOL    HW230372   1.578   6.114   5.410
 9825SOL     OW30373   0.372   6.415   4.641
 9825SOL    HW130374   0.310   6.463   4.579
 9825SOL    HW230375   0.331   6.328   4.668
 9826SOL     OW30376   1.389   6.180   4.795
 9826SOL    HW130377   1.312   6.196   4.857
 9826SOL    HW230378   1.474   6.198   4.844
 9827SOL     OW30379   1.524   4.705   1.620
 9827SOL    HW130380   1.606   4.722   1.675
 9827SOL    HW230381   1.494   4.790   1.577
 9828SOL     OW30382   5.093   2.245   4.301
 9828SOL    HW130383   5.018   2.261   4.366
 9828SOL    HW230384   5.150   2.326   4.295
 9829SOL     OW30385   5.671   4.000   5.724
 9829SOL    HW130386   5.609   4.021   5.800
 9829SOL    HW230387   5.623   3.942   5.658
 9830SOL     OW30388   6.107   0.601   3.196
 9830SOL    HW130389   6.183   0.650   3.238
 9830SOL    HW230390   6.138   0.513   3.161
 9831SOL     OW30391   0.759   5.043   1.203
 9831SOL    HW130392   0.792   5.001   1.287
 9831SOL    HW230393   0.755   5.142   1.214
 9832SOL     OW30394   5.635   6.019   5.254
 9832SOL    HW130395   5.732   5.998   5.239
 9832SOL    HW230396   5.617   6.114   5.231
 9833SOL     OW30397   3.697   2.902   4.521
 9833SOL    HW130398   3.674   2.982   4.465
 9833SOL    HW230399   3.729   2.933   4.610
 9834SOL     OW30400   3.230   5.922   6.018
 9834SOL    HW130401   3.272   6.007   5.987
 9834SOL    HW230402   3.176   5.883   5.944
 9835SOL     OW30403   3.566   2.927   3.920
 9835SOL    HW130404   3.635   2.994   3.894
 9835SOL    HW230405   3.579   2.901   4.016
 9836SOL     OW30406   6.553   3.033   6.447
 9836SOL    HW130407   6.573   3.003   6.541
 9836SOL    HW230408   6.567   2.956   6.385
 9837SOL     OW30409   6.193   0.805   4.766
 9837SOL    HW130410   6.244   0.753   4.834
 9837SOL    HW230411   6.095   0.799   4.787
 9838SOL     OW30412   0.203   5.788   0.980
 9838SOL    HW130413   0.189   5.741   0.892
 9838SOL    HW230414   0.285   5.843   0.975
 9839SOL     OW30415   3.572   6.596   3.648
 9839SOL    HW130416   3.574   6.671   3.581
 9839SOL    HW230417   3.521   6.626   3.729
 9840SOL     OW30418   6.508   2.239   5.478
 9840SOL    HW130419   6.418   2.219   5.518
 9840SOL    HW230420   6.525   2.337   5.484
 9841SOL     OW30421   6.681   5.705   2.287
 9841SOL    HW130422   6.729   5.714   2.199
 9841SOL    HW230423   6.636   5.616   2.291
 9842SOL     OW30424   4.373   0.553   0.236
 9842SOL    HW130425   4.365   0.604   0.322
 9842SOL    HW230426   4.348   0.458   0.251
 9843SOL     OW30427   0.578   0.082   0.633
 9843SOL    HW130428   0.657   0.115   0.685
 9843SOL    HW230429   0.496   0.127   0.666
 9844SOL     OW30430   5.575   1.153   4.525
 9844SOL    HW130431   5.567   1.193   4.433
 9844SOL    HW230432   5.487   1.160   4.572
 9845SOL     OW30433   1.052   3.477   2.405
 9845SOL    HW130434   1.149   3.485   2.382
 9845SOL    HW230435   1.041   3.476   2.504
 9846SOL     OW30436   5.765   2.042   3.047
 9846SOL    HW130437   5.737   2.048   2.951
 9846SOL    HW230438   5.843   2.103   3.063
 9847SOL     OW30439   4.209   3.542   0.317
 9847SOL    HW130440   4.293   3.500   0.283
 9847SOL    HW230441   4.155   3.576   0.240
 9848SOL     OW30442   2.832   3.787   6.325
 9848SOL    HW130443   2.867   3.743   6.243
 9848SOL    HW230444   2.900   3.851   6.360
 9849SOL     OW30445   1.800   1.897   2.291
 9849SOL    HW130446   1.821   1.801   2.311
 9849SOL    HW230447   1.727   1.929   2.352
 9850SOL     OW30448   2.063   0.621   4.167
 9850SOL    HW130449   2.009   0.542   4.196
 9850SOL    HW230450   2.019   0.705   4.199
 9851SOL     OW30451   3.561   6.132   3.857
 9851SOL    HW130452   3.629   6.205   3.849
 9851SOL    HW230453   3.469   6.172   3.850
 9852SOL     OW30454   2.477   0.489   6.560
 9852SOL    HW130455   2.527   0.554   6.504
 9852SOL    HW230456   2.385   0.524   6.579
 9853SOL     OW30457   0.336   4.133   3.790
 9853SOL    HW130458   0.337   4.034   3.805
 9853SOL    HW230459   0.262   4.157   3.726
 9854SOL     OW30460   6.362   3.943   0.099
 9854SOL    HW130461   6.461   3.946   0.089
 9854SOL    HW230462   6.323   3.883   0.029
 9855SOL     OW30463   0.229   6.257   0.922
 9855SOL    HW130464   0.162   6.295   0.985
 9855SOL    HW230465   0.188   6.246   0.832
 9856SOL     OW30466   4.607   4.394   3.239
 9856SOL    HW130467   4.645   4.346   3.318
 9856SOL    HW230468   4.559   4.330   3.180
 9857SOL     OW30469   4.238   6.746   5.681
 9857SOL    HW130470   4.226   6.699   5.593
 9857SOL    HW230471   4.202   6.839   5.674
 9858SOL     OW30472   6.645   5.227   2.663
 9858SOL    HW130473   6.712   5.201   2.733
 9858SOL    HW230474   6.635   5.326   2.661
 9859SOL     OW30475   0.388   0.033   2.901
 9859SOL    HW130476   0.479   0.015   2.939
 9859SOL    HW230477   0.364   0.128   2.916
 9860SOL     OW30478   1.399   3.775   3.429
 9860SOL    HW130479   1.442   3.849   3.377
 9860SOL    HW230480   1.335   3.813   3.495
 9861SOL     OW30481   4.008   2.073   4.185
 9861SOL    HW130482   3.997   2.114   4.095
 9861SOL    HW230483   3.919   2.063   4.229
 9862SOL     OW30484   1.290   2.961   6.671
 9862SOL    HW130485   1.342   2.987   6.753
 9862SOL    HW230486   1.323   3.013   6.593
 9863SOL     OW30487   3.837   5.618   2.018
 9863SOL    HW130488   3.795   5.578   1.936
 9863SOL    HW230489   3.931   5.584   2.026
 9864SOL     OW30490   3.009   6.281   5.012
 9864SOL    HW130491   2.970   6.194   4.979
 9864SOL    HW230492   2.964   6.306   5.098
 9865SOL     OW30493   2.338   4.788   6.222
 9865SOL    HW130494   2.287   4.850   6.162
 9865SOL    HW230495   2.400   4.841   6.280
 9866SOL     OW30496   0.945   5.885   5.122
 9866SOL    HW130497   0.860   5.908   5.076
 9866SOL    HW230498   0.984   5.803   5.080
 9867SOL     OW30499   5.274   1.495   2.710
 9867SOL    HW130500   5.232   1.505   2.619
 9867SOL    HW230501   5.329   1.412   2.712
 9868SOL     OW30502   2.477   5.086   3.097
 9868SOL    HW130503   2.431   5.165   3.137
 9868SOL    HW230504   2.535   5.116   3.022
 9869SOL     OW30505   5.920   1.612   2.635
 9869SOL    HW130506   5.928   1.515   2.658
 9869SOL    HW230507   5.869   1.659   2.706
 9870SOL     OW30508   2.256   2.881   2.884
 9870SOL    HW130509   2.262   2.958   2.947
 9870SOL    HW230510   2.214   2.803   2.930
 9871SOL     OW30511   6.123   5.123   3.218
 9871SOL    HW130512   6.126   5.171   3.306
 9871SOL    HW230513   6.046   5.156   3.164
 9872SOL     OW30514   0.230   6.585   4.477
 9872SOL    HW130515   0.164   6.597   4.403
 9872SOL    HW230516   0.322   6.595   4.442
 9873SOL     OW30517   0.311   0.474   5.012
 9873SOL    HW130518   0.304   0.555   5.069
 9873SOL    HW230519   0.219   0.447   4.982
 9874SOL     OW30520   6.907   2.324   4.305
 9874SOL    HW130521   6.889   2.350   4.211
 9874SOL    HW230522   6.825   2.339   4.361
 9875SOL     OW30523   5.630   5.937   0.490
 9875SOL    HW130524   5.713   5.882   0.503
 9875SOL    HW230525   5.628   6.012   0.556
 9876SOL     OW30526   0.697   0.369   2.788
 9876SOL    HW130527   0.785   0.416   2.783
 9876SOL    HW230528   0.689   0.323   2.876
 9877SOL     OW30529   1.632   5.619   5.101
 9877SOL    HW130530   1.614   5.652   5.008
 9877SOL    HW230531   1.616   5.693   5.166
 9878SOL     OW30532   4.721   4.049   0.697
 9878SOL    HW130533   4.692   4.131   0.649
 9878SOL    HW230534   4.733   3.974   0.632
 9879SOL     OW30535   5.815   5.294   4.228
 9879SOL    HW130536   5.774   5.365   4.170
 9879SOL    HW230537   5.898   5.330   4.270
 9880SOL     OW30538   2.722   1.521   0.819
 9880SOL    HW130539   2.632   1.557   0.797
 9880SOL    HW230540   2.759   1.568   0.899
 9881SOL     OW30541   6.521   0.382   2.972
 9881SOL    HW130542   6.486   0.398   2.880
 9881SOL    HW230543   6.593   0.312   2.969
 9882SOL     OW30544   3.128   4.010   4.542
 9882SOL    HW130545   3.082   3.988   4.456
 9882SOL    HW230546   3.075   3.974   4.619
 9883SOL     OW30547   0.732   5.356   2.685
 9883SOL    HW130548   0.786   5.350   2.769
 9883SOL    HW230549   0.773   5.424   2.624
 9884SOL     OW30550   3.509   2.749   5.292
 9884SOL    HW130551   3.493   2.816   5.220
 9884SOL    HW230552   3.427   2.692   5.304
 9885SOL     OW30553   4.732   2.067   5.263
 9885SOL    HW130554   4.780   2.051   5.177
 9885SOL    HW230555   4.633   2.071   5.245
 9886SOL     OW30556   2.463   6.031   1.222
 9886SOL    HW130557   2.548   6.083   1.215
 9886SOL    HW230558   2.400   6.062   1.150
 9887SOL     OW30559   3.526   1.573   0.053
 9887SOL    HW130560   3.451   1.523   0.008
 9887SOL    HW230561   3.602   1.510   0.068
 9888SOL     OW30562   6.215   6.668   3.983
 9888SOL    HW130563   6.296   6.655   4.040
 9888SOL    HW230564   6.144   6.604   4.013
 9889SOL     OW30565   6.480   5.882   2.202
 9889SOL    HW130566   6.407   5.815   2.192
 9889SOL    HW230567   6.565   5.834   2.227
 9890SOL     OW30568   1.784   3.149   3.530
 9890SOL    HW130569   1.693   3.157   3.568
 9890SOL    HW230570   1.778   3.134   3.431
 9891SOL     OW30571   3.510   0.293   1.806
 9891SOL    HW130572   3.591   0.233   1.811
 9891SOL    HW230573   3.490   0.329   1.897
 9892SOL     OW30574   1.929   6.028   3.075
 9892SOL    HW130575   1.935   5.944   3.021
 9892SOL    HW230576   1.985   6.099   3.033
 9893SOL     OW30577   5.536   4.788   4.516
 9893SOL    HW130578   5.542   4.719   4.443
 9893SOL    HW230579   5.482   4.866   4.483
 9894SOL     OW30580   4.785   3.276   6.141
 9894SOL    HW130581   4.851   3.203   6.126
 9894SOL    HW230582   4.833   3.364   6.145
 9895SOL     OW30583   5.407   2.999   5.932
 9895SOL    HW130584   5.394   3.054   5.850
 9895SOL    HW230585   5.320   2.957   5.958
 9896SOL     OW30586   3.439   4.233   6.355
 9896SOL    HW130587   3.362   4.180   6.319
 9896SOL    HW230588   3.512   4.237   6.286
 9897SOL     OW30589   1.266   0.657   2.884
 9897SOL    HW130590   1.257   0.747   2.841
 9897SOL    HW230591   1.331   0.601   2.832
 9898SOL     OW30592   0.336   5.464   6.554
 9898SOL    HW130593   0.423   5.444   6.600
 9898SOL    HW230594   0.345   5.549   6.502
 9899SOL     OW30595   3.563   4.933   0.822
 9899SOL    HW130596   3.528   5.017   0.782
 9899SOL    HW230597   3.657   4.947   0.853
 9900SOL     OW30598   2.822   5.587   3.402
 9900SOL    HW130599   2.883   5.508   3.392
 9900SOL    HW230600   2.850   5.659   3.339
 9901SOL     OW30601   2.981   1.233   6.435
 9901SOL    HW130602   2.935   1.303   6.489
 9901SOL    HW230603   2.913   1.181   6.382
 9902SOL     OW30604   4.107   4.484   6.804
 9902SOL    HW130605   4.054   4.523   6.729
 9902SOL    HW230606   4.124   4.387   6.787
 9903SOL     OW30607   3.143   1.175   0.791
 9903SOL    HW130608   3.105   1.245   0.852
 9903SOL    HW230609   3.085   1.166   0.710
 9904SOL     OW30610   6.372   6.037   1.528
 9904SOL    HW130611   6.395   6.024   1.624
 9904SOL    HW230612   6.423   5.970   1.473
 9905SOL     OW30613   2.119   6.678   6.544
 9905SOL    HW130614   2.155   6.742   6.613
 9905SOL    HW230615   2.127   6.585   6.579
 9906SOL     OW30616   2.741   3.500   6.455
 9906SOL    HW130617   2.765   3.592   6.425
 9906SOL    HW230618   2.680   3.506   6.534
 9907SOL     OW30619   0.861   6.847   3.159
 9907SOL    HW130620   0.913   6.796   3.227
 9907SOL    HW230621   0.923   6.889   3.093
 9908SOL     OW30622   0.122   3.012   6.077
 9908SOL    HW130623   0.109   3.001   5.978
 9908SOL    HW230624   0.168   2.932   6.114
 9909SOL     OW30625   2.081   5.913   2.610
 9909SOL    HW130626   2.163   5.864   2.636
 9909SOL    HW230627   2.085   6.007   2.645
 9910SOL     OW30628   0.997   5.425   0.361
 9910SOL    HW130629   0.969   5.429   0.264
 9910SOL    HW230630   0.927   5.377   0.413
 9911SOL     OW30631   2.998   4.770   1.793
 9911SOL    HW130632   3.020   4.850   1.850
 9911SOL    HW230633   2.945   4.704   1.846
 9912SOL     OW30634   6.172   6.326   6.936
 9912SOL    HW130635   6.150   6.423   6.948
 9912SOL    HW230636   6.110   6.271   6.992
 9913SOL     OW30637   6.344   1.763   1.549
 9913SOL    HW130638   6.286   1.844   1.534
 9913SOL    HW230639   6.288   1.689   1.586
 9914SOL     OW30640   1.853   5.309   3.919
 9914SOL    HW130641   1.776   5.254   3.950
 9914SOL    HW230642   1.938   5.272   3.958
 9915SOL     OW30643   6.101   5.036   4.451
 9915SOL    HW130644   6.141   5.098   4.384
 9915SOL    HW230645   6.015   4.999   4.415
 9916SOL     OW30646   1.647   3.212   1.260
 9916SOL    HW130647   1.579   3.147   1.293
 9916SOL    HW230648   1.621   3.304   1.288
 9917SOL     OW30649   1.864   4.250   4.522
 9917SOL    HW130650   1.904   4.190   4.592
 9917SOL    HW230651   1.885   4.345   4.544
 9918SOL     OW30652   2.598   1.724   3.930
 9918SOL    HW130653   2.692   1.752   3.911
 9918SOL    HW230654   2.535   1.784   3.881
 9919SOL     OW30655   0.639   5.879   1.660
 9919SOL    HW130656   0.583   5.821   1.719
 9919SOL    HW230657   0.584   5.912   1.583
 9920SOL     OW30658   3.609   0.539   2.909
 9920SOL    HW130659   3.538   0.494   2.855
 9920SOL    HW230660   3.696   0.537   2.859
 9921SOL     OW30661   4.507   6.976   2.541
 9921SOL    HW130662   4.492   6.956   2.445
 9921SOL    HW230663   4.597   6.941   2.569
 9922SOL     OW30664   6.220   2.591   2.449
 9922SOL    HW130665   6.175   2.552   2.530
 9922SOL    HW230666   6.225   2.691   2.459
 9923SOL     OW30667   5.618   6.889   6.003
 9923SOL    HW130668   5.524   6.855   6.007
 9923SOL    HW230669   5.678   6.827   6.054
 9924SOL     OW30670   5.779   6.817   3.983
 9924SOL    HW130671   5.761   6.810   3.885
 9924SOL    HW230672   5.840   6.744   4.011
 9925SOL     OW30673   3.976   2.191   5.143
 9925SOL    HW130674   4.025   2.271   5.108
 9925SOL    HW230675   3.941   2.211   5.235
 9926SOL     OW30676   1.575   1.108   5.967
 9926SOL    HW130677   1.628   1.064   6.040
 9926SOL    HW230678   1.616   1.196   5.943
 9927SOL     OW30679   2.314   4.187   4.324
 9927SOL    HW130680   2.263   4.128   4.387
 9927SOL    HW230681   2.343   4.270   4.371
 9928SOL     OW30682   6.668   3.532   3.126
 9928SOL    HW130683   6.665   3.432   3.122
 9928SOL    HW230684   6.749   3.561   3.177
 9929SOL     OW30685   1.371   4.893   5.181
 9929SOL    HW130686   1.379   4.856   5.089
 9929SOL    HW230687   1.463   4.906   5.219
 9930SOL     OW30688   6.979   6.396   6.965
 9930SOL    HW130689   6.944   6.312   6.925
 9930SOL    HW230690   6.925   6.420   0.027
 9931SOL     OW30691   1.194   3.946   6.844
 9931SOL    HW130692   1.134   4.026   6.848
 9931SOL    HW230693   1.184   3.902   6.755
 9932SOL     OW30694   1.826   1.599   0.923
 9932SOL    HW130695   1.754   1.619   0.990
 9932SOL    HW230696   1.829   1.500   0.907
 9933SOL     OW30697   1.761   1.638   3.333
 9933SOL    HW130698   1.857   1.614   3.325
 9933SOL    HW230699   1.707   1.557   3.357
 9934SOL     OW30700   4.575   0.551   5.427
 9934SOL    HW130701   4.504   0.488   5.458
 9934SOL    HW230702   4.638   0.570   5.503
 9935SOL     OW30703   3.610   2.508   6.923
 9935SOL    HW130704   3.635   2.415   6.949
 9935SOL    HW230705   3.693   2.564   6.913
 9936SOL     OW30706   4.781   6.130   0.498
 9936SOL    HW130707   4.765   6.110   0.595
 9936SOL    HW230708   4.711   6.085   0.443
 9937SOL     OW30709   0.872   6.808   5.492
 9937SOL    HW130710   0.848   6.828   5.587
 9937SOL    HW230711   0.800   6.754   5.449
 9938SOL     OW30712   1.192   1.910   3.326
 9938SOL    HW130713   1.286   1.943   3.327
 9938SOL    HW230714   1.153   1.922   3.235
 9939SOL     OW30715   3.159   3.534   0.692
 9939SOL    HW130716   3.089   3.553   0.760
 9939SOL    HW230717   3.172   3.435   0.684
 9940SOL     OW30718   6.217   1.278   3.004
 9940SOL    HW130719   6.296   1.299   2.946
 9940SOL    HW230720   6.204   1.179   3.009
 9941SOL     OW30721   5.780   3.114   0.595
 9941SOL    HW130722   5.787   3.048   0.670
 9941SOL    HW230723   5.849   3.185   0.607
 9942SOL     OW30724   5.355   4.451   2.959
 9942SOL    HW130725   5.415   4.529   2.978
 9942SOL    HW230726   5.353   4.390   3.038
 9943SOL     OW30727   1.690   4.718   5.211
 9943SOL    HW130728   1.617   4.717   5.279
 9943SOL    HW230729   1.775   4.686   5.253
 9944SOL     OW30730   2.096   5.245   6.679
 9944SOL    HW130731   2.150   5.161   6.690
 9944SOL    HW230732   2.124   5.312   6.748
 9945SOL     OW30733   6.047   3.381   5.304
 9945SOL    HW130734   6.001   3.358   5.390
 9945SOL    HW230735   6.142   3.406   5.322
 9946SOL     OW30736   5.866   1.794   0.924
 9946SOL    HW130737   5.952   1.753   0.953
 9946SOL    HW230738   5.799   1.722   0.907
 9947SOL     OW30739   0.124   0.502   3.384
 9947SOL    HW130740   0.081   0.413   3.370
 9947SOL    HW230741   0.096   0.565   3.312
 9948SOL     OW30742   4.974   1.177   5.310
 9948SOL    HW130743   4.893   1.217   5.351
 9948SOL    HW230744   4.990   1.086   5.349
 9949SOL     OW30745   6.755   3.119   2.617
 9949SOL    HW130746   6.817   3.114   2.539
 9949SOL    HW230747   6.804   3.153   2.697
 9950SOL     OW30748   5.013   4.473   6.294
 9950SOL    HW130749   5.084   4.425   6.345
 9950SOL    HW230750   4.928   4.421   6.298
 9951SOL     OW30751   6.952   2.379   2.414
 9951SOL    HW130752   6.962   2.300   2.353
 9951SOL    HW230753   6.982   2.461   2.366
 9952SOL     OW30754   1.464   4.459   1.380
 9952SOL    HW130755   1.414   4.373   1.389
 9952SOL    HW230756   1.507   4.482   1.467
 9953SOL     OW30757   6.113   3.805   5.294
 9953SOL    HW130758   6.082   3.861   5.371
 9953SOL    HW230759   6.167   3.728   5.328
 9954SOL     OW30760   4.323   2.538   1.750
 9954SOL    HW130761   4.326   2.526   1.651
 9954SOL    HW230762   4.398   2.597   1.779
 9955SOL     OW30763   5.961   4.752   2.431
 9955SOL    HW130764   5.953   4.654   2.449
 9955SOL    HW230765   5.895   4.779   2.361
 9956SOL     OW30766   1.628   4.764   3.517
 9956SOL    HW130767   1.600   4.847   3.470
 9956SOL    HW230768   1.686   4.709   3.456
 9957SOL     OW30769   5.627   6.872   0.648
 9957SOL    HW130770   5.544   6.860   0.593
 9957SOL    HW230771   5.703   6.826   0.602
 9958SOL     OW30772   6.180   6.481   5.418
 9958SOL    HW130773   6.222   6.569   5.437
 9958SOL    HW230774   6.088   6.478   5.456
 9959SOL     OW30775   5.928   5.300   6.907
 9959SOL    HW130776   5.862   5.338   6.843
 9959SOL    HW230777   6.021   5.310   6.870
 9960SOL     OW30778   6.076   0.730   6.192
 9960SOL    HW130779   6.158   0.759   6.241
 9960SOL    HW230780   6.095   0.727   6.094
 9961SOL     OW30781   2.894   6.920   6.992
 9961SOL    HW130782   2.856   6.992   0.031
 9961SOL    HW230783   2.870   6.939   6.897
 9962SOL     OW30784   4.381   1.216   2.052
 9962SOL    HW130785   4.425   1.274   1.984
 9962SOL    HW230786   4.355   1.129   2.010
 9963SOL     OW30787   0.417   0.260   6.380
 9963SOL    HW130788   0.440   0.234   6.474
 9963SOL    HW230789   0.333   0.313   6.380
 9964SOL     OW30790   4.569   5.469   5.222
 9964SOL    HW130791   4.591   5.372   5.233
 9964SOL    HW230792   4.482   5.489   5.268
 9965SOL     OW30793   1.994   5.188   5.211
 9965SOL    HW130794   1.905   5.225   5.237
 9965SOL    HW230795   2.010   5.204   5.114
 9966SOL     OW30796   1.842   4.321   2.046
 9966SOL    HW130797   1.800   4.241   2.088
 9966SOL    HW230798   1.860   4.390   2.116
 9967SOL     OW30799   6.606   0.444   2.357
 9967SOL    HW130800   6.628   0.516   2.291
 9967SOL    HW230801   6.508   0.444   2.377
 9968SOL     OW30802   4.207   6.010   6.537
 9968SOL    HW130803   4.234   5.956   6.457
 9968SOL    HW230804   4.282   6.071   6.562
 9969SOL     OW30805   0.720   6.632   3.013
 9969SOL    HW130806   0.757   6.695   3.081
 9969SOL    HW230807   0.741   6.666   2.922
 9970SOL     OW30808   0.938   3.429   1.551
 9970SOL    HW130809   0.959   3.526   1.561
 9970SOL    HW230810   1.007   3.375   1.600
 9971SOL     OW30811   0.302   5.396   5.832
 9971SOL    HW130812   0.402   5.401   5.839
 9971SOL    HW230813   0.276   5.367   5.740
 9972SOL     OW30814   3.108   4.801   5.571
 9972SOL    HW130815   3.134   4.887   5.614
 9972SOL    HW230816   3.106   4.812   5.472
 9973SOL     OW30817   3.528   2.143   2.882
 9973SOL    HW130818   3.435   2.158   2.916
 9973SOL    HW230819   3.527   2.067   2.816
 9974SOL     OW30820   0.578   3.976   3.283
 9974SOL    HW130821   0.495   4.007   3.329
 9974SOL    HW230822   0.559   3.968   3.185
 9975SOL     OW30823   1.523   4.962   0.033
 9975SOL    HW130824   1.487   4.904   0.106
 9975SOL    HW230825   1.566   4.905   6.981
 9976SOL     OW30826   4.465   5.473   4.483
 9976SOL    HW130827   4.425   5.475   4.392
 9976SOL    HW230828   4.397   5.440   4.549
 9977SOL     OW30829   3.825   6.859   5.807
 9977SOL    HW130830   3.903   6.834   5.863
 9977SOL    HW230831   3.823   6.959   5.795
 9978SOL     OW30832   6.728   3.316   0.016
 9978SOL    HW130833   6.717   3.415   0.027
 9978SOL    HW230834   6.767   3.278   0.100
 9979SOL     OW30835   3.363   4.026   3.991
 9979SOL    HW130836   3.388   4.107   3.938
 9979SOL    HW230837   3.313   4.054   4.073
 9980SOL     OW30838   0.706   6.847   0.064
 9980SOL    HW130839   0.700   6.840   6.983
 9980SOL    HW230840   0.617   6.826   0.104
 9981SOL     OW30841   5.318   1.430   1.350
 9981SOL    HW130842   5.396   1.445   1.289
 9981SOL    HW230843   5.236   1.415   1.296
 9982SOL     OW30844   2.675   0.789   5.208
 9982SOL    HW130845   2.616   0.846   5.151
 9982SOL    HW230846   2.648   0.798   5.304
 9983SOL     OW30847   0.633   2.507   1.948
 9983SOL    HW130848   0.575   2.586   1.964
 9983SOL    HW230849   0.690   2.522   1.867
 9984SOL     OW30850   1.659   4.649   0.955
 9984SOL    HW130851   1.609   4.708   0.892
 9984SOL    HW230852   1.751   4.634   0.921
 9985SOL     OW30853   5.577   4.757   6.248
 9985SOL    HW130854   5.580   4.701   6.165
 9985SOL    HW230855   5.517   4.835   6.233
 9986SOL     OW30856   5.830   4.267   0.114
 9986SOL    HW130857   5.917   4.304   0.146
 9986SOL    HW230858   5.779   4.339   0.068
 9987SOL     OW30859   5.003   1.883   0.939
 9987SOL    HW130860   4.916   1.929   0.920
 9987SOL    HW230861   5.061   1.888   0.858
 9988SOL     OW30862   5.308   6.793   4.292
 9988SOL    HW130863   5.255   6.868   4.252
 9988SOL    HW230864   5.268   6.706   4.265
 9989SOL     OW30865   6.617   5.245   1.534
 9989SOL    HW130866   6.620   5.340   1.503
 9989SOL    HW230867   6.689   5.192   1.489
 9990SOL     OW30868   0.366   6.302   2.856
 9990SOL    HW130869   0.442   6.266   2.801
 9990SOL    HW230870   0.402   6.340   2.941
 9991SOL     OW30871   2.210   2.966   2.154
 9991SOL    HW130872   2.193   3.012   2.241
 9991SOL    HW230873   2.284   3.013   2.105
 9992SOL     OW30874   1.725   3.957   0.261
 9992SOL    HW130875   1.711   3.969   0.163
 9992SOL    HW230876   1.667   4.021   0.311
 9993SOL     OW30877   3.878   0.220   4.469
 9993SOL    HW130878   3.952   0.213   4.402
 9993SOL    HW230879   3.841   0.313   4.469
 9994SOL     OW30880   5.966   4.897   5.543
 9994SOL    HW130881   5.924   4.865   5.458
 9994SOL    HW230882   6.060   4.926   5.524
 9995SOL     OW30883   4.010   1.594   5.988
 9995SOL    HW130884   3.913   1.614   5.976
 9995SOL    HW230885   4.022   1.496   6.004
 9996SOL     OW30886   2.733   4.522   1.379
 9996SOL    HW130887   2.637   4.544   1.360
 9996SOL    HW230888   2.771   4.590   1.441
 9997SOL     OW30889   5.558   0.303   3.034
 9997SOL    HW130890   5.543   0.303   3.132
 9997SOL    HW230891   5.630   0.369   3.011
 9998SOL     OW30892   5.710   3.647   2.461
 9998SOL    HW130893   5.656   3.712   2.407
 9998SOL    HW230894   5.649   3.582   2.506
 9999SOL     OW30895   0.861   0.172   4.354
 9999SOL    HW130896   0.888   0.244   4.418
 9999SOL    HW230897   0.761   0.166   4.349
10000SOL     OW30898   4.617   3.378   1.608
10000SOL    HW130899   4.553   3.305   1.634
10000SOL    HW230900   4.566   3.461   1.585
10001SOL     OW30901   3.832   6.211   1.595
10001SOL    HW130902   3.895   6.139   1.622
10001SOL    HW230903   3.875   6.267   1.523
10002SOL     OW30904   2.541   6.875   2.929
10002SOL    HW130905   2.570   6.962   2.889
10002SOL    HW230906   2.444   6.862   2.913
10003SOL     OW30907   1.015   1.312   2.998
10003SOL    HW130908   1.061   1.303   3.087
10003SOL    HW230909   0.917   1.295   3.009
10004SOL     OW30910   0.199   2.597   3.016
10004SOL    HW130911   0.166   2.519   2.962
10004SOL    HW230912   0.289   2.626   2.981
10005SOL     OW30913   2.041   5.994   2.342
10005SOL    HW130914   2.072   5.932   2.415
10005SOL    HW230915   1.970   6.054   2.378
10006SOL     OW30916   5.305   1.866   6.541
10006SOL    HW130917   5.264   1.805   6.609
10006SOL    HW230918   5.288   1.961   6.568
10007SOL     OW30919   2.105   5.263   3.271
10007SOL    HW130920   2.028   5.236   3.330
10007SOL    HW230921   2.092   5.357   3.240
10008SOL     OW30922   3.263   0.447   6.047
10008SOL    HW130923   3.265   0.524   5.983
10008SOL    HW230924   3.169   0.412   6.053
10009SOL     OW30925   1.108   5.691   1.643
10009SOL    HW130926   1.153   5.763   1.591
10009SOL    HW230927   1.012   5.716   1.656
10010SOL     OW30928   2.196   5.248   0.640
10010SOL    HW130929   2.144   5.194   0.706
10010SOL    HW230930   2.290   5.258   0.671
10011SOL     OW30931   3.215   3.129   0.128
10011SOL    HW130932   3.290   3.109   0.191
10011SOL    HW230933   3.251   3.143   0.036
10012SOL     OW30934   5.517   2.132   3.112
10012SOL    HW130935   5.460   2.101   3.036
10012SOL    HW230936   5.607   2.089   3.106
10013SOL     OW30937   0.022   5.921   5.733
10013SOL    HW130938   0.066   5.977   5.663
10013SOL    HW230939   0.079   5.842   5.754
10014SOL     OW30940   1.326   1.584   2.931
10014SOL    HW130941   1.395   1.512   2.938
10014SOL    HW230942   1.255   1.557   2.866
10015SOL     OW30943   4.035   0.887   0.315
10015SOL    HW130944   4.018   0.855   0.408
10015SOL    HW230945   4.123   0.852   0.282
10016SOL     OW30946   2.565   1.244   5.321
10016SOL    HW130947   2.629   1.242   5.398
10016SOL    HW230948   2.600   1.307   5.251
10017SOL     OW30949   3.238   1.824   3.189
10017SOL    HW130950   3.189   1.754   3.241
10017SOL    HW230951   3.209   1.915   3.222
10018SOL     OW30952   0.179   4.321   5.456
10018SOL    HW130953   0.092   4.370   5.451
10018SOL    HW230954   0.191   4.283   5.548
10019SOL     OW30955   0.606   1.804   2.823
10019SOL    HW130956   0.666   1.854   2.761
10019SOL    HW230957   0.572   1.865   2.894
10020SOL     OW30958   6.668   1.196   3.251
10020SOL    HW130959   6.654   1.234   3.160
10020SOL    HW230960   6.592   1.222   3.310
10021SOL     OW30961   2.165   4.555   1.934
10021SOL    HW130962   2.153   4.466   1.978
10021SOL    HW230963   2.246   4.600   1.970
10022SOL     OW30964   0.731   6.675   6.002
10022SOL    HW130965   0.756   6.759   6.052
10022SOL    HW230966   0.644   6.689   5.955
10023SOL     OW30967   1.195   1.417   4.676
10023SOL    HW130968   1.244   1.499   4.706
10023SOL    HW230969   1.252   1.363   4.615
10024SOL     OW30970   2.148   3.680   3.099
10024SOL    HW130971   2.204   3.662   3.179
10024SOL    HW230972   2.116   3.775   3.101
10025SOL     OW30973   0.337   2.317   1.180
10025SOL    HW130974   0.348   2.292   1.276
10025SOL    HW230975   0.277   2.397   1.173
10026SOL     OW30976   6.198   1.630   4.735
10026SOL    HW130977   6.216   1.535   4.707
10026SOL    HW230978   6.260   1.692   4.687
10027SOL     OW30979   3.350   1.436   5.667
10027SOL    HW130980   3.400   1.474   5.589
10027SOL    HW230981   3.285   1.504   5.701
10028SOL     OW30982   4.185   6.176   1.967
10028SOL    HW130983   4.180   6.264   2.014
10028SOL    HW230984   4.244   6.185   1.887
10029SOL     OW30985   7.010   4.814   3.758
10029SOL    HW130986   0.033   4.883   3.699
10029SOL    HW230987   0.048   4.801   3.839
10030SOL     OW30988   2.542   6.770   3.914
10030SOL    HW130989   2.599   6.816   3.845
10030SOL    HW230990   2.565   6.672   3.915
10031SOL     OW30991   1.870   6.639   3.809
10031SOL    HW130992   1.791   6.662   3.753
10031SOL    HW230993   1.940   6.710   3.800
10032SOL     OW30994   2.310   5.485   4.986
10032SOL    HW130995   2.274   5.534   4.906
10032SOL    HW230996   2.409   5.492   4.987
10033SOL     OW30997   1.825   1.357   4.534
10033SOL    HW130998   1.891   1.298   4.486
10033SOL    HW230999   1.746   1.302   4.561
10034SOL     OW31000   2.389   0.897   1.822
10034SOL    HW131001   2.315   0.964   1.818
10034SOL    HW231002   2.396   0.848   1.735
10035SOL     OW31003   0.681   2.809   2.117
10035SOL    HW131004   0.697   2.901   2.151
10035SOL    HW231005   0.608   2.766   2.171
10036SOL     OW31006   0.487   1.421   0.398
10036SOL    HW131007   0.582   1.401   0.419
10036SOL    HW231008   0.483   1.490   0.325
10037SOL     OW31009   6.252   0.967   6.256
10037SOL    HW131010   6.227   1.013   6.171
10037SOL    HW231011   6.332   1.012   6.295
10038SOL     OW31012   4.512   0.403   6.802
10038SOL    HW131013   4.589   0.362   6.850
10038SOL    HW231014   4.456   0.455   6.867
10039SOL     OW31015   0.078   4.603   1.364
10039SOL    HW131016   0.147   4.648   1.307
10039SOL    HW231017   7.012   4.658   1.362
10040SOL     OW31018   3.119   0.403   0.409
10040SOL    HW131019   3.107   0.350   0.493
10040SOL    HW231020   3.093   0.498   0.426
10041SOL     OW31021   5.790   4.562   5.888
10041SOL    HW131022   5.823   4.583   5.981
10041SOL    HW231023   5.779   4.463   5.878
10042SOL     OW31024   6.064   0.408   5.012
10042SOL    HW131025   5.974   0.377   4.981
10042SOL    HW231026   6.130   0.395   4.939
10043SOL     OW31027   0.624   0.429   3.252
10043SOL    HW131028   0.617   0.375   3.336
10043SOL    HW231029   0.711   0.479   3.252
10044SOL     OW31030   3.140   2.142   6.832
10044SOL    HW131031   3.095   2.143   6.743
10044SOL    HW231032   3.238   2.160   6.820
10045SOL     OW31033   4.044   0.053   4.761
10045SOL    HW131034   3.945   0.059   4.772
10045SOL    HW231035   4.089   0.079   4.846
10046SOL     OW31036   6.434   1.810   0.626
10046SOL    HW131037   6.433   1.908   0.603
10046SOL    HW231038   6.417   1.799   0.724
10047SOL     OW31039   0.914   2.523   3.068
10047SOL    HW131040   0.949   2.580   2.993
10047SOL    HW231041   0.991   2.480   3.115
10048SOL     OW31042   2.973   2.276   1.675
10048SOL    HW131043   2.980   2.348   1.745
10048SOL    HW231044   3.034   2.201   1.699
10049SOL     OW31045   1.019   5.181   4.885
10049SOL    HW131046   1.064   5.094   4.905
10049SOL    HW231047   0.930   5.184   4.931
10050SOL     OW31048   5.797   1.336   5.210
10050SOL    HW131049   5.802   1.373   5.118
10050SOL    HW231050   5.853   1.391   5.272
10051SOL     OW31051   5.808   1.721   0.426
10051SOL    HW131052   5.875   1.657   0.388
10051SOL    HW231053   5.723   1.672   0.445
10052SOL     OW31054   1.970   5.314   0.930
10052SOL    HW131055   1.978   5.288   0.833
10052SOL    HW231056   2.060   5.311   0.973
10053SOL     OW31057   2.826   6.452   3.475
10053SOL    HW131058   2.856   6.545   3.491
10053SOL    HW231059   2.865   6.418   3.389
10054SOL     OW31060   5.034   4.535   4.111
10054SOL    HW131061   5.122   4.489   4.104
10054SOL    HW231062   5.003   4.536   4.206
10055SOL     OW31063   4.999   2.637   6.789
10055SOL    HW131064   4.965   2.628   6.883
10055SOL    HW231065   4.928   2.680   6.733
10056SOL     OW31066   4.798   4.002   2.720
10056SOL    HW131067   4.894   4.021   2.741
10056SOL    HW231068   4.757   4.082   2.675
10057SOL     OW31069   2.089   2.331   2.963
10057SOL    HW131070   2.054   2.288   3.047
10057SOL    HW231071   2.168   2.279   2.930
10058SOL     OW31072   1.051   4.967   3.831
10058SOL    HW131073   1.029   4.876   3.868
10058SOL    HW231074   1.125   5.007   3.885
10059SOL     OW31075   4.376   5.989   1.731
10059SOL    HW131076   4.320   5.957   1.807
10059SOL    HW231077   4.349   5.941   1.647
10060SOL     OW31078   2.215   2.403   2.501
10060SOL    HW131079   2.268   2.484   2.527
10060SOL    HW231080   2.276   2.335   2.461
10061SOL     OW31081   0.187   1.763   5.619
10061SOL    HW131082   0.134   1.699   5.675
10061SOL    HW231083   0.168   1.746   5.522
10062SOL     OW31084   5.570   6.010   2.963
10062SOL    HW131085   5.633   6.058   2.902
10062SOL    HW231086   5.605   5.919   2.983
10063SOL     OW31087   0.875   2.866   2.484
10063SOL    HW131088   0.950   2.851   2.419
10063SOL    HW231089   0.811   2.789   2.479
10064SOL     OW31090   5.139   4.662   5.389
10064SOL    HW131091   5.134   4.717   5.306
10064SOL    HW231092   5.114   4.718   5.468
10065SOL     OW31093   0.443   0.430   2.773
10065SOL    HW131094   0.388   0.391   2.699
10065SOL    HW231095   0.538   0.399   2.764
10066SOL     OW31096   6.254   0.411   4.256
10066SOL    HW131097   6.189   0.477   4.219
10066SOL    HW231098   6.344   0.454   4.266
10067SOL     OW31099   4.855   6.498   3.039
10067SOL    HW131100   4.948   6.533   3.029
10067SOL    HW231101   4.805   6.555   3.103
10068SOL     OW31102   5.262   3.330   5.436
10068SOL    HW131103   5.233   3.373   5.351
10068SOL    HW231104   5.243   3.232   5.431
10069SOL     OW31105   4.815   1.119   4.269
10069SOL    HW131106   4.801   1.217   4.281
10069SOL    HW231107   4.815   1.073   4.358
10070SOL     OW31108   1.013   6.958   4.271
10070SOL    HW131109   1.019   6.887   4.341
10070SOL    HW231110   0.961   0.017   4.307
10071SOL     OW31111   4.758   4.700   5.125
10071SOL    HW131112   4.670   4.655   5.107
10071SOL    HW231113   4.814   4.640   5.182
10072SOL     OW31114   0.431   6.166   4.218
10072SOL    HW131115   0.423   6.261   4.188
10072SOL    HW231116   0.345   6.118   4.202
10073SOL     OW31117   6.940   6.956   6.549
10073SOL    HW131118   6.912   7.005   6.466
10073SOL    HW231119   6.960   6.861   6.526
10074SOL     OW31120   1.843   6.331   4.801
10074SOL    HW131121   1.860   6.287   4.713
10074SOL    HW231122   1.927   6.373   4.835
10075SOL     OW31123   1.078   2.563   4.361
10075SOL    HW131124   1.082   2.577   4.460
10075SOL    HW231125   1.170   2.562   4.324
10076SOL     OW31126   5.480   0.109   3.761
10076SOL    HW131127   5.445   0.092   3.853
10076SOL    HW231128   5.572   0.148   3.767
10077SOL     OW31129   2.598   1.006   5.565
10077SOL    HW131130   2.658   1.054   5.501
10077SOL    HW231131   2.514   1.059   5.577
10078SOL     OW31132   5.380   6.281   5.235
10078SOL    HW131133   5.467   6.303   5.279
10078SOL    HW231134   5.312   6.350   5.259
10079SOL     OW31135   0.899   3.271   5.767
10079SOL    HW131136   0.887   3.358   5.815
10079SOL    HW231137   0.969   3.217   5.813
10080SOL     OW31138   1.279   2.502   5.295
10080SOL    HW131139   1.185   2.515   5.265
10080SOL    HW231140   1.339   2.496   5.215
10081SOL     OW31141   0.498   0.907   0.640
10081SOL    HW131142   0.512   0.990   0.586
10081SOL    HW231143   0.531   0.828   0.589
10082SOL     OW31144   6.691   0.823   0.179
10082SOL    HW131145   6.778   0.847   0.136
10082SOL    HW231146   6.643   0.907   0.207
10083SOL     OW31147   5.684   1.379   4.710
10083SOL    HW131148   5.608   1.390   4.774
10083SOL    HW231149   5.665   1.302   4.648
10084SOL     OW31150   2.809   0.753   6.653
10084SOL    HW131151   2.872   0.768   6.729
10084SOL    HW231152   2.801   0.837   6.600
10085SOL     OW31153   0.851   5.894   2.827
10085SOL    HW131154   0.767   5.844   2.805
10085SOL    HW231155   0.860   5.903   2.926
10086SOL     OW31156   6.807   2.422   2.650
10086SOL    HW131157   6.830   2.421   2.552
10086SOL    HW231158   6.817   2.515   2.685
10087SOL     OW31159   1.805   7.019   3.328
10087SOL    HW131160   1.770   0.066   3.394
10087SOL    HW231161   1.816   0.045   3.239
10088SOL     OW31162   5.599   0.430   4.463
10088SOL    HW131163   5.620   0.527   4.455
10088SOL    HW231164   5.531   0.405   4.394
10089SOL     OW31165   2.421   2.554   2.290
10089SOL    HW131166   2.454   2.517   2.376
10089SOL    HW231167   2.388   2.479   2.232
10090SOL     OW31168   0.516   5.579   2.170
10090SOL    HW131169   0.417   5.563   2.162
10090SOL    HW231170   0.538   5.601   2.265
10091SOL     OW31171   0.781   1.358   4.397
10091SOL    HW131172   0.697   1.375   4.449
10091SOL    HW231173   0.858   1.403   4.442
10092SOL     OW31174   2.449   2.337   5.611
10092SOL    HW131175   2.423   2.299   5.699
10092SOL    HW231176   2.370   2.382   5.570
10093SOL     OW31177   6.891   6.834   5.813
10093SOL    HW131178   6.829   6.855   5.888
10093SOL    HW231179   6.935   6.918   5.781
10094SOL     OW31180   1.403   0.691   1.599
10094SOL    HW131181   1.326   0.708   1.536
10094SOL    HW231182   1.423   0.594   1.600
10095SOL     OW31183   0.553   2.641   4.845
10095SOL    HW131184   0.534   2.736   4.868
10095SOL    HW231185   0.650   2.622   4.861
10096SOL     OW31186   6.302   5.598   2.819
10096SOL    HW131187   6.318   5.675   2.881
10096SOL    HW231188   6.313   5.628   2.725
10097SOL     OW31189   1.405   2.416   5.952
10097SOL    HW131190   1.448   2.491   5.901
10097SOL    HW231191   1.306   2.426   5.949
10098SOL     OW31192   3.694   5.258   6.154
10098SOL    HW131193   3.733   5.179   6.201
10098SOL    HW231194   3.722   5.342   6.200
10099SOL     OW31195   0.943   3.810   4.094
10099SOL    HW131196   0.848   3.807   4.064
10099SOL    HW231197   0.978   3.717   4.104
10100SOL     OW31198   4.766   0.191   5.572
10100SOL    HW131199   4.740   0.205   5.476
10100SOL    HW231200   4.722   0.107   5.605
10101SOL     OW31201   6.878   4.192   2.528
10101SOL    HW131202   6.866   4.094   2.514
10101SOL    HW231203   6.950   4.226   2.467
10102SOL     OW31204   4.433   0.470   4.239
10102SOL    HW131205   4.338   0.460   4.209
10102SOL    HW231206   4.476   0.380   4.246
10103SOL     OW31207   0.156   2.859   0.653
10103SOL    HW131208   0.157   2.863   0.753
10103SOL    HW231209   0.235   2.806   0.621
10104SOL     OW31210   1.974   5.186   5.732
10104SOL    HW131211   1.974   5.286   5.734
10104SOL    HW231212   2.056   5.152   5.778
10105SOL     OW31213   3.967   0.623   0.124
10105SOL    HW131214   3.888   0.572   0.091
10105SOL    HW231215   3.948   0.721   0.116
10106SOL     OW31216   4.794   5.809   0.803
10106SOL    HW131217   4.715   5.747   0.807
10106SOL    HW231218   4.859   5.785   0.875
10107SOL     OW31219   5.602   1.400   6.061
10107SOL    HW131220   5.526   1.465   6.060
10107SOL    HW231221   5.687   1.446   6.035
10108SOL     OW31222   5.092   5.981   6.099
10108SOL    HW131223   5.121   6.000   6.193
10108SOL    HW231224   5.161   6.016   6.035
10109SOL     OW31225   5.070   6.198   3.853
10109SOL    HW131226   5.051   6.273   3.791
10109SOL    HW231227   5.040   6.112   3.812
10110SOL     OW31228   3.506   2.312   5.866
10110SOL    HW131229   3.527   2.346   5.774
10110SOL    HW231230   3.490   2.213   5.862
10111SOL     OW31231   6.987   2.657   1.465
10111SOL    HW131232   6.908   2.637   1.524
10111SOL    HW231233   0.016   2.738   1.500
10112SOL     OW31234   4.877   3.922   5.582
10112SOL    HW131235   4.869   3.827   5.552
10112SOL    HW231236   4.864   3.928   5.681
10113SOL     OW31237   3.169   6.962   1.114
10113SOL    HW131238   3.083   6.929   1.153
10113SOL    HW231239   3.242   6.898   1.136
10114SOL     OW31240   4.617   1.747   1.521
10114SOL    HW131241   4.713   1.769   1.539
10114SOL    HW231242   4.594   1.660   1.563
10115SOL     OW31243   1.369   1.629   4.785
10115SOL    HW131244   1.336   1.707   4.733
10115SOL    HW231245   1.468   1.631   4.790
10116SOL     OW31246   0.279   0.452   0.941
10116SOL    HW131247   0.274   0.483   0.846
10116SOL    HW231248   0.368   0.407   0.956
10117SOL     OW31249   4.223   6.855   6.148
10117SOL    HW131250   4.146   6.791   6.149
10117SOL    HW231251   4.263   6.860   6.239
10118SOL     OW31252   5.521   5.309   2.602
10118SOL    HW131253   5.515   5.209   2.610
10118SOL    HW231254   5.617   5.337   2.606
10119SOL     OW31255   1.893   0.078   6.247
10119SOL    HW131256   1.939   0.012   6.308
10119SOL    HW231257   1.937   0.167   6.256
10120SOL     OW31258   5.987   3.280   3.873
10120SOL    HW131259   6.086   3.278   3.887
10120SOL    HW231260   5.942   3.284   3.962
10121SOL     OW31261   5.936   4.586   4.128
10121SOL    HW131262   5.930   4.506   4.068
10121SOL    HW231263   5.851   4.596   4.180
10122SOL     OW31264   5.370   2.470   1.048
10122SOL    HW131265   5.464   2.437   1.061
10122SOL    HW231266   5.362   2.562   1.088
10123SOL     OW31267   0.486   6.286   0.587
10123SOL    HW131268   0.387   6.304   0.585
10123SOL    HW231269   0.502   6.192   0.615
10124SOL     OW31270   3.370   4.179   0.378
10124SOL    HW131271   3.320   4.096   0.353
10124SOL    HW231272   3.317   4.232   0.444
10125SOL     OW31273   2.549   0.778   6.714
10125SOL    HW131274   2.640   0.765   6.674
10125SOL    HW231275   2.527   0.875   6.717
10126SOL     OW31276   5.686   5.082   5.999
10126SOL    HW131277   5.641   5.031   5.925
10126SOL    HW231278   5.777   5.043   6.015
10127SOL     OW31279   4.015   4.825   5.137
10127SOL    HW131280   4.032   4.736   5.181
10127SOL    HW231281   3.946   4.874   5.189
10128SOL     OW31282   1.286   1.128   0.861
10128SOL    HW131283   1.267   1.143   0.958
10128SOL    HW231284   1.384   1.113   0.848
10129SOL     OW31285   5.519   2.616   2.954
10129SOL    HW131286   5.558   2.703   2.984
10129SOL    HW231287   5.554   2.593   2.863
10130SOL     OW31288   6.044   5.473   0.846
10130SOL    HW131289   6.079   5.458   0.754
10130SOL    HW231290   5.976   5.546   0.844
10131SOL     OW31291   0.613   0.284   0.083
10131SOL    HW131292   0.555   0.271   0.164
10131SOL    HW231293   0.652   0.376   0.085
10132SOL     OW31294   2.678   6.647   2.786
10132SOL    HW131295   2.622   6.706   2.844
10132SOL    HW231296   2.622   6.575   2.746
10133SOL     OW31297   6.194   4.372   2.497
10133SOL    HW131298   6.250   4.450   2.468
10133SOL    HW231299   6.253   4.302   2.537
10134SOL     OW31300   0.550   1.647   1.776
10134SOL    HW131301   0.548   1.714   1.701
10134SOL    HW231302   0.558   1.555   1.737
10135SOL     OW31303   3.029   6.307   2.595
10135SOL    HW131304   3.010   6.288   2.691
10135SOL    HW231305   3.122   6.277   2.573
10136SOL     OW31306   6.238   6.636   2.701
10136SOL    HW131307   6.188   6.674   2.778
10136SOL    HW231308   6.211   6.541   2.687
10137SOL     OW31309   5.693   4.438   4.228
10137SOL    HW131310   5.650   4.404   4.145
10137SOL    HW231311   5.626   4.489   4.282
10138SOL     OW31312   5.612   3.144   6.062
10138SOL    HW131313   5.640   3.083   6.135
10138SOL    HW231314   5.540   3.101   6.008
10139SOL     OW31315   4.095   3.231   3.386
10139SOL    HW131316   4.105   3.280   3.473
10139SOL    HW231317   4.046   3.145   3.402
10140SOL     OW31318   1.032   4.769   4.029
10140SOL    HW131319   1.110   4.720   4.069
10140SOL    HW231320   0.947   4.724   4.058
10141SOL     OW31321   1.929   0.510   3.548
10141SOL    HW131322   1.901   0.576   3.479
10141SOL    HW231323   1.958   0.425   3.503
10142SOL     OW31324   5.301   5.592   4.354
10142SOL    HW131325   5.400   5.595   4.371
10142SOL    HW231326   5.257   5.669   4.400
10143SOL     OW31327   4.584   6.289   1.167
10143SOL    HW131328   4.605   6.330   1.078
10143SOL    HW231329   4.517   6.345   1.215
10144SOL     OW31330   3.267   5.215   2.555
10144SOL    HW131331   3.326   5.141   2.521
10144SOL    HW231332   3.271   5.292   2.492
10145SOL     OW31333   2.608   0.107   6.195
10145SOL    HW131334   2.523   0.155   6.219
10145SOL    HW231335   2.586   0.016   6.161
10146SOL     OW31336   4.590   4.461   3.659
10146SOL    HW131337   4.580   4.415   3.747
10146SOL    HW231338   4.529   4.540   3.654
10147SOL     OW31339   5.113   5.529   4.792
10147SOL    HW131340   5.066   5.544   4.879
10147SOL    HW231341   5.133   5.617   4.750
10148SOL     OW31342   5.860   5.711   0.943
10148SOL    HW131343   5.850   5.777   0.869
10148SOL    HW231344   5.866   5.760   1.030
10149SOL     OW31345   3.861   2.642   1.322
10149SOL    HW131346   3.938   2.704   1.311
10149SOL    HW231347   3.834   2.638   1.418
10150SOL     OW31348   5.319   4.285   0.995
10150SOL    HW131349   5.295   4.363   1.055
10150SOL    HW231350   5.303   4.200   1.044
10151SOL     OW31351   0.512   4.994   5.936
10151SOL    HW131352   0.556   4.967   6.022
10151SOL    HW231353   0.424   5.037   5.955
10152SOL     OW31354   0.275   5.854   4.157
10152SOL    HW131355   0.364   5.842   4.112
10152SOL    HW231356   0.251   5.951   4.158
10153SOL     OW31357   5.517   5.440   3.844
10153SOL    HW131358   5.464   5.360   3.819
10153SOL    HW231359   5.531   5.498   3.763
10154SOL     OW31360   6.377   5.706   5.367
10154SOL    HW131361   6.385   5.794   5.320
10154SOL    HW231362   6.355   5.721   5.463
10155SOL     OW31363   3.917   1.308   5.962
10155SOL    HW131364   3.877   1.228   5.916
10155SOL    HW231365   3.850   1.382   5.963
10156SOL     OW31366   5.718   7.004   2.122
10156SOL    HW131367   5.789   6.944   2.158
10156SOL    HW231368   5.732   0.078   2.158
10157SOL     OW31369   5.055   0.450   3.415
10157SOL    HW131370   5.109   0.508   3.354
10157SOL    HW231371   5.111   0.421   3.492
10158SOL     OW31372   4.815   3.203   5.694
10158SOL    HW131373   4.799   3.106   5.713
10158SOL    HW231374   4.850   3.213   5.601
10159SOL     OW31375   1.214   0.747   6.821
10159SOL    HW131376   1.140   0.680   6.812
10159SOL    HW231377   1.202   0.798   6.907
10160SOL     OW31378   0.300   6.978   3.744
10160SOL    HW131379   0.272   0.051   3.717
10160SOL    HW231380   0.364   6.941   3.677
10161SOL     OW31381   2.591   5.487   4.996
10161SOL    HW131382   2.673   5.530   4.957
10161SOL    HW231383   2.616   5.440   5.081
10162SOL     OW31384   2.386   2.145   5.823
10162SOL    HW131385   2.408   2.098   5.738
10162SOL    HW231386   2.468   2.151   5.880
10163SOL     OW31387   0.621   3.479   5.192
10163SOL    HW131388   0.628   3.553   5.257
10163SOL    HW231389   0.711   3.440   5.174
10164SOL     OW31390   1.910   2.519   6.436
10164SOL    HW131391   1.972   2.505   6.514
10164SOL    HW231392   1.819   2.543   6.470
10165SOL     OW31393   0.011   2.174   3.325
10165SOL    HW131394   0.041   2.095   3.378
10165SOL    HW231395   0.066   2.254   3.351
10166SOL     OW31396   0.479   0.947   2.244
10166SOL    HW131397   0.566   0.964   2.290
10166SOL    HW231398   0.421   1.028   2.251
10167SOL     OW31399   4.992   0.271   0.592
10167SOL    HW131400   5.024   0.229   0.677
10167SOL    HW231401   5.055   0.344   0.565
10168SOL     OW31402   6.670   4.319   5.448
10168SOL    HW131403   6.701   4.258   5.375
10168SOL    HW231404   6.613   4.391   5.410
10169SOL     OW31405   6.629   4.340   4.698
10169SOL    HW131406   6.590   4.422   4.740
10169SOL    HW231407   6.718   4.361   4.659
10170SOL     OW31408   1.694   4.307   4.851
10170SOL    HW131409   1.680   4.353   4.939
10170SOL    HW231410   1.630   4.345   4.784
10171SOL     OW31411   6.269   2.755   6.040
10171SOL    HW131412   6.299   2.672   6.088
10171SOL    HW231413   6.178   2.739   6.000
10172SOL     OW31414   5.265   0.441   4.782
10172SOL    HW131415   5.347   0.441   4.839
10172SOL    HW231416   5.184   0.425   4.838
10173SOL     OW31417   1.781   2.447   2.645
10173SOL    HW131418   1.832   2.377   2.694
10173SOL    HW231419   1.817   2.455   2.552
10174SOL     OW31420   6.520   5.042   0.965
10174SOL    HW131421   6.524   5.034   1.065
10174SOL    HW231422   6.542   4.953   0.924
10175SOL     OW31423   5.667   2.457   5.461
10175SOL    HW131424   5.616   2.450   5.546
10175SOL    HW231425   5.605   2.477   5.386
10176SOL     OW31426   3.093   3.045   0.760
10176SOL    HW131427   3.036   2.996   0.826
10176SOL    HW231428   3.152   2.981   0.712
10177SOL     OW31429   0.738   6.915   5.216
10177SOL    HW131430   0.701   6.910   5.123
10177SOL    HW231431   0.698   6.843   5.272
10178SOL     OW31432   5.434   3.056   4.969
10178SOL    HW131433   5.513   3.017   4.923
10178SOL    HW231434   5.424   3.152   4.942
10179SOL     OW31435   0.125   3.669   0.355
10179SOL    HW131436   0.064   3.595   0.327
10179SOL    HW231437   0.196   3.682   0.285
10180SOL     OW31438   1.968   6.567   6.323
10180SOL    HW131439   1.976   6.631   6.399
10180SOL    HW231440   1.964   6.618   6.237
10181SOL     OW31441   5.956   3.424   2.136
10181SOL    HW131442   6.042   3.375   2.129
10181SOL    HW231443   5.930   3.460   2.046
10182SOL     OW31444   3.962   1.247   1.092
10182SOL    HW131445   3.993   1.289   1.178
10182SOL    HW231446   4.026   1.176   1.065
10183SOL     OW31447   1.680   1.378   5.927
10183SOL    HW131448   1.771   1.376   5.967
10183SOL    HW231449   1.678   1.443   5.851
10184SOL     OW31450   4.760   0.324   6.961
10184SOL    HW131451   4.725   0.274   0.021
10184SOL    HW231452   4.845   0.281   6.930
10185SOL     OW31453   4.213   1.057   0.517
10185SOL    HW131454   4.129   1.110   0.508
10185SOL    HW231455   4.281   1.092   0.453
10186SOL     OW31456   4.820   2.224   2.611
10186SOL    HW131457   4.904   2.268   2.642
10186SOL    HW231458   4.761   2.204   2.690
10187SOL     OW31459   0.016   2.335   2.014
10187SOL    HW131460   7.006   2.239   2.021
10187SOL    HW231461   0.090   2.343   1.947
10188SOL     OW31462   3.928   6.055   0.267
10188SOL    HW131463   3.921   6.115   0.187
10188SOL    HW231464   4.024   6.040   0.288
10189SOL     OW31465   0.707   6.737   4.583
10189SOL    HW131466   0.769   6.659   4.569
10189SOL    HW231467   0.627   6.707   4.634
10190SOL     OW31468   5.654   3.172   6.827
10190SOL    HW131469   5.618   3.196   6.737
10190SOL    HW231470   5.671   3.073   6.831
10191SOL     OW31471   6.603   4.378   6.902
10191SOL    HW131472   6.520   4.421   6.867
10191SOL    HW231473   6.654   4.444   6.957
10192SOL     OW31474   3.661   1.814   0.055
10192SOL    HW131475   3.627   1.724   0.030
10192SOL    HW231476   3.757   1.821   0.032
10193SOL     OW31477   5.297   4.207   0.709
10193SOL    HW131478   5.247   4.289   0.682
10193SOL    HW231479   5.288   4.193   0.807
10194SOL     OW31480   4.806   2.617   4.651
10194SOL    HW131481   4.799   2.677   4.732
10194SOL    HW231482   4.824   2.523   4.680
10195SOL     OW31483   5.933   5.135   2.474
10195SOL    HW131484   5.963   5.048   2.515
10195SOL    HW231485   5.834   5.132   2.460
10196SOL     OW31486   0.687   1.243   4.761
10196SOL    HW131487   0.661   1.324   4.813
10196SOL    HW231488   0.785   1.243   4.744
10197SOL     OW31489   5.072   0.651   6.821
10197SOL    HW131490   5.092   0.742   6.856
10197SOL    HW231491   5.145   0.622   6.759
10198SOL     OW31492   4.587   6.797   2.329
10198SOL    HW131493   4.508   6.736   2.336
10198SOL    HW231494   4.650   6.778   2.405
10199SOL     OW31495   0.478   2.207   5.748
10199SOL    HW131496   0.526   2.128   5.787
10199SOL    HW231497   0.403   2.176   5.690
10200SOL     OW31498   5.526   2.706   2.562
10200SOL    HW131499   5.498   2.631   2.621
10200SOL    HW231500   5.540   2.671   2.469
10201SOL     OW31501   1.785   3.556   0.935
10201SOL    HW131502   1.880   3.542   0.962
10201SOL    HW231503   1.763   3.653   0.937
10202SOL     OW31504   5.359   0.077   3.336
10202SOL    HW131505   5.288   0.136   3.295
10202SOL    HW231506   5.316   0.008   3.394
10203SOL     OW31507   0.474   3.332   5.349
10203SOL    HW131508   0.514   3.240   5.343
10203SOL    HW231509   0.528   3.396   5.294
10204SOL     OW31510   4.483   4.493   6.260
10204SOL    HW131511   4.480   4.437   6.343
10204SOL    HW231512   4.392   4.526   6.238
10205SOL     OW31513   6.826   1.654   6.821
10205SOL    HW131514   6.754   1.720   6.842
10205SOL    HW231515   6.791   1.561   6.833
10206SOL     OW31516   2.431   2.061   4.493
10206SOL    HW131517   2.389   2.004   4.422
10206SOL    HW231518   2.504   2.008   4.538
10207SOL     OW31519   2.280   2.398   6.418
10207SOL    HW131520   2.288   2.485   6.369
10207SOL    HW231521   2.204   2.345   6.381
10208SOL     OW31522   6.531   0.273   5.704
10208SOL    HW131523   6.465   0.199   5.719
10208SOL    HW231524   6.482   0.359   5.688
10209SOL     OW31525   6.816   6.588   5.691
10209SOL    HW131526   6.829   6.539   5.777
10209SOL    HW231527   6.850   6.681   5.699
10210SOL     OW31528   3.410   0.505   1.634
10210SOL    HW131529   3.353   0.558   1.698
10210SOL    HW231530   3.441   0.422   1.679
10211SOL     OW31531   5.492   5.514   6.308
10211SOL    HW131532   5.430   5.445   6.270
10211SOL    HW231533   5.520   5.577   6.236
10212SOL     OW31534   0.562   0.285   0.384
10212SOL    HW131535   0.610   0.198   0.393
10212SOL    HW231536   0.525   0.312   0.473
10213SOL     OW31537   6.712   3.220   1.532
10213SOL    HW131538   6.625   3.194   1.573
10213SOL    HW231539   6.757   3.288   1.590
10214SOL     OW31540   1.258   2.451   0.829
10214SOL    HW131541   1.200   2.372   0.848
10214SOL    HW231542   1.202   2.527   0.799
10215SOL     OW31543   3.819   3.912   2.239
10215SOL    HW131544   3.729   3.935   2.277
10215SOL    HW231545   3.864   3.995   2.208
10216SOL     OW31546   0.656   6.503   2.111
10216SOL    HW131547   0.559   6.525   2.120
10216SOL    HW231548   0.684   6.518   2.016
10217SOL     OW31549   3.825   1.595   5.192
10217SOL    HW131550   3.915   1.573   5.228
10217SOL    HW231551   3.805   1.692   5.208
10218SOL     OW31552   0.990   2.695   2.864
10218SOL    HW131553   0.965   2.789   2.838
10218SOL    HW231554   1.031   2.649   2.785
10219SOL     OW31555   6.818   5.984   2.839
10219SOL    HW131556   6.897   5.964   2.781
10219SOL    HW231557   6.831   6.072   2.885
10220SOL     OW31558   3.757   2.949   0.061
10220SOL    HW131559   3.745   3.047   0.077
10220SOL    HW231560   3.669   2.902   0.072
10221SOL     OW31561   1.117   5.795   2.804
10221SOL    HW131562   1.018   5.807   2.797
10221SOL    HW231563   1.162   5.837   2.725
10222SOL     OW31564   2.898   3.280   3.469
10222SOL    HW131565   2.872   3.228   3.387
10222SOL    HW231566   2.927   3.217   3.540
10223SOL     OW31567   3.013   6.883   0.517
10223SOL    HW131568   2.982   6.804   0.570
10223SOL    HW231569   3.023   6.857   0.421
10224SOL     OW31570   6.948   3.305   3.678
10224SOL    HW131571   0.017   3.284   3.635
10224SOL    HW231572   6.951   3.398   3.715
10225SOL     OW31573   2.305   3.950   5.775
10225SOL    HW131574   2.250   3.912   5.701
10225SOL    HW231575   2.400   3.921   5.764
10226SOL     OW31576   4.033   4.780   6.384
10226SOL    HW131577   3.947   4.731   6.371
10226SOL    HW231578   4.073   4.803   6.295
10227SOL     OW31579   5.362   3.887   0.865
10227SOL    HW131580   5.440   3.950   0.860
10227SOL    HW231581   5.395   3.794   0.881
10228SOL     OW31582   5.461   6.955   0.041
10228SOL    HW131583   5.472   0.031   0.012
10228SOL    HW231584   5.532   6.899   7.016
10229SOL     OW31585   0.434   2.053   5.018
10229SOL    HW131586   0.394   2.125   4.961
10229SOL    HW231587   0.418   2.075   5.114
10230SOL     OW31588   5.641   5.877   1.594
10230SOL    HW131589   5.591   5.962   1.606
10230SOL    HW231590   5.738   5.896   1.581
10231SOL     OW31591   0.205   4.013   2.157
10231SOL    HW131592   0.198   4.041   2.061
10231SOL    HW231593   0.140   3.939   2.175
10232SOL     OW31594   4.714   4.755   2.377
10232SOL    HW131595   4.694   4.737   2.474
10232SOL    HW231596   4.724   4.853   2.363
10233SOL     OW31597   3.260   3.251   6.171
10233SOL    HW131598   3.353   3.215   6.175
10233SOL    HW231599   3.213   3.214   6.091
10234SOL     OW31600   0.982   0.934   2.032
10234SOL    HW131601   0.935   0.947   1.945
10234SOL    HW231602   0.930   0.870   2.089
10235SOL     OW31603   0.993   0.235   3.138
10235SOL    HW131604   1.022   0.141   3.158
10235SOL    HW231605   0.948   0.274   3.218
10236SOL     OW31606   1.120   0.442   2.771
10236SOL    HW131607   1.133   0.494   2.856
10236SOL    HW231608   1.209   0.412   2.737
10237SOL     OW31609   6.937   4.138   5.847
10237SOL    HW131610   6.897   4.059   5.800
10237SOL    HW231611   0.015   4.145   5.824
10238SOL     OW31612   2.877   0.043   0.695
10238SOL    HW131613   2.791   7.014   0.710
10238SOL    HW231614   2.931   7.013   0.627
10239SOL     OW31615   1.009   2.614   5.053
10239SOL    HW131616   1.044   2.707   5.062
10239SOL    HW231617   0.940   2.611   4.981
10240SOL     OW31618   1.679   6.502   1.590
10240SOL    HW131619   1.692   6.500   1.491
10240SOL    HW231620   1.677   6.409   1.626
10241SOL     OW31621   4.354   3.856   1.728
10241SOL    HW131622   4.282   3.813   1.781
10241SOL    HW231623   4.330   3.952   1.710
10242SOL     OW31624   0.996   3.705   1.555
10242SOL    HW131625   0.916   3.765   1.559
10242SOL    HW231626   1.026   3.695   1.460
10243SOL     OW31627   3.886   5.343   2.247
10243SOL    HW131628   3.797   5.353   2.204
10243SOL    HW231629   3.947   5.416   2.216
10244SOL     OW31630   1.779   5.815   1.342
10244SOL    HW131631   1.735   5.741   1.394
10244SOL    HW231632   1.867   5.783   1.306
10245SOL     OW31633   6.281   4.081   1.280
10245SOL    HW131634   6.223   4.030   1.216
10245SOL    HW231635   6.336   4.016   1.333
10246SOL     OW31636   3.675   3.278   3.574
10246SOL    HW131637   3.584   3.310   3.600
10246SOL    HW231638   3.682   3.276   3.474
10247SOL     OW31639   0.562   3.565   4.534
10247SOL    HW131640   0.638   3.586   4.473
10247SOL    HW231641   0.519   3.650   4.564
10248SOL     OW31642   1.100   1.143   4.465
10248SOL    HW131643   1.149   1.212   4.413
10248SOL    HW231644   1.027   1.104   4.409
10249SOL     OW31645   2.731   4.469   6.006
10249SOL    HW131646   2.710   4.372   6.014
10249SOL    HW231647   2.742   4.494   5.910
10250SOL     OW31648   3.060   2.881   0.407
10250SOL    HW131649   3.097   2.851   0.319
10250SOL    HW231650   3.020   2.973   0.396
10251SOL     OW31651   0.863   0.721   5.162
10251SOL    HW131652   0.831   0.750   5.072
10251SOL    HW231653   0.921   0.640   5.152
10252SOL     OW31654   5.357   3.860   6.180
10252SOL    HW131655   5.333   3.799   6.255
10252SOL    HW231656   5.386   3.806   6.101
10253SOL     OW31657   3.662   5.760   0.379
10253SOL    HW131658   3.667   5.859   0.369
10253SOL    HW231659   3.667   5.736   0.476
10254SOL     OW31660   6.502   1.486   6.679
10254SOL    HW131661   6.466   1.396   6.652
10254SOL    HW231662   6.593   1.475   6.718
10255SOL     OW31663   3.993   4.578   1.623
10255SOL    HW131664   4.002   4.626   1.536
10255SOL    HW231665   4.082   4.572   1.668
10256SOL     OW31666   1.968   1.040   4.894
10256SOL    HW131667   1.989   0.982   4.973
10256SOL    HW231668   1.886   1.005   4.848
10257SOL     OW31669   3.146   6.227   3.157
10257SOL    HW131670   3.177   6.133   3.167
10257SOL    HW231671   3.210   6.278   3.099
10258SOL     OW31672   3.276   1.744   2.374
10258SOL    HW131673   3.248   1.675   2.308
10258SOL    HW231674   3.363   1.784   2.346
10259SOL     OW31675   2.024   4.021   3.554
10259SOL    HW131676   1.933   3.979   3.554
10259SOL    HW231677   2.022   4.103   3.611
10260SOL     OW31678   0.523   0.381   3.719
10260SOL    HW131679   0.454   0.453   3.712
10260SOL    HW231680   0.529   0.349   3.813
10261SOL     OW31681   0.006   3.978   1.587
10261SOL    HW131682   6.926   3.980   1.568
10261SOL    HW231683   0.044   3.890   1.558
10262SOL     OW31684   4.625   0.982   6.661
10262SOL    HW131685   4.698   1.012   6.599
10262SOL    HW231686   4.663   0.923   6.732
10263SOL     OW31687   5.581   0.238   2.768
10263SOL    HW131688   5.568   0.262   2.865
10263SOL    HW231689   5.630   0.152   2.761
10264SOL     OW31690   6.910   1.076   5.981
10264SOL    HW131691   6.957   1.057   5.895
10264SOL    HW231692   6.885   0.990   6.025
10265SOL     OW31693   1.939   0.603   2.641
10265SOL    HW131694   1.964   0.507   2.654
10265SOL    HW231695   1.844   0.609   2.609
10266SOL     OW31696   2.589   3.762   1.641
10266SOL    HW131697   2.682   3.736   1.667
10266SOL    HW231698   2.588   3.858   1.613
10267SOL     OW31699   6.367   1.058   0.839
10267SOL    HW131700   6.375   1.130   0.770
10267SOL    HW231701   6.325   0.977   0.798
10268SOL     OW31702   3.732   5.829   2.532
10268SOL    HW131703   3.729   5.900   2.461
10268SOL    HW231704   3.643   5.782   2.535
10269SOL     OW31705   2.688   1.530   6.999
10269SOL    HW131706   2.666   1.434   6.981
10269SOL    HW231707   2.729   1.571   6.917
10270SOL     OW31708   2.623   0.466   3.535
10270SOL    HW131709   2.585   0.554   3.507
10270SOL    HW231710   2.561   0.422   3.599
10271SOL     OW31711   2.247   1.118   0.016
10271SOL    HW131712   2.326   1.176   7.015
10271SOL    HW231713   2.276   1.037   0.068
10272SOL     OW31714   5.940   6.647   5.292
10272SOL    HW131715   5.890   6.619   5.210
10272SOL    HW231716   5.935   6.574   5.360
10273SOL     OW31717   2.182   5.309   2.945
10273SOL    HW131718   2.176   5.216   2.984
10273SOL    HW231719   2.091   5.349   2.941
10274SOL     OW31720   0.930   4.013   5.176
10274SOL    HW131721   0.845   3.963   5.158
10274SOL    HW231722   0.923   4.105   5.136
10275SOL     OW31723   0.481   1.131   1.900
10275SOL    HW131724   0.569   1.147   1.945
10275SOL    HW231725   0.493   1.062   1.828
10276SOL     OW31726   3.477   4.794   5.222
10276SOL    HW131727   3.560   4.754   5.260
10276SOL    HW231728   3.402   4.787   5.288
10277SOL     OW31729   0.455   5.363   3.608
10277SOL    HW131730   0.539   5.397   3.651
10277SOL    HW231731   0.376   5.385   3.665
10278SOL     OW31732   5.956   0.148   3.964
10278SOL    HW131733   5.970   0.074   3.898
10278SOL    HW231734   6.015   0.134   4.043
10279SOL     OW31735   1.266   4.611   4.018
10279SOL    HW131736   1.321   4.684   3.978
10279SOL    HW231737   1.306   4.523   3.995
10280SOL     OW31738   6.100   5.695   0.632
10280SOL    HW131739   6.163   5.709   0.708
10280SOL    HW231740   6.101   5.776   0.573
10281SOL     OW31741   5.820   0.257   4.972
10281SOL    HW131742   5.809   0.246   4.874
10281SOL    HW231743   5.731   0.275   5.014
10282SOL     OW31744   5.191   2.353   3.037
10282SOL    HW131745   5.258   2.323   2.969
10282SOL    HW231746   5.212   2.447   3.064
10283SOL     OW31747   0.078   2.471   0.777
10283SOL    HW131748   0.034   2.546   0.827
10283SOL    HW231749   0.031   2.456   0.690
10284SOL     OW31750   1.171   5.102   5.162
10284SOL    HW131751   1.244   5.054   5.211
10284SOL    HW231752   1.159   5.062   5.072
10285SOL     OW31753   0.003   6.657   6.459
10285SOL    HW131754   7.018   6.579   6.396
10285SOL    HW231755   0.030   6.626   6.550
10286SOL     OW31756   3.022   0.883   1.583
10286SOL    HW131757   2.988   0.798   1.625
10286SOL    HW231758   3.020   0.874   1.484
10287SOL     OW31759   0.055   5.953   2.730
10287SOL    HW131760   0.092   5.861   2.741
10287SOL    HW231761   0.082   6.009   2.808
10288SOL     OW31762   3.846   6.131   4.390
10288SOL    HW131763   3.782   6.116   4.465
10288SOL    HW231764   3.930   6.079   4.407
10289SOL     OW31765   3.892   6.323   6.668
10289SOL    HW131766   3.970   6.369   6.625
10289SOL    HW231767   3.809   6.345   6.617
10290SOL     OW31768   3.707   3.116   2.493
10290SOL    HW131769   3.796   3.157   2.472
10290SOL    HW231770   3.655   3.179   2.551
10291SOL     OW31771   3.453   2.120   2.222
10291SOL    HW131772   3.540   2.160   2.253
10291SOL    HW231773   3.450   2.121   2.122
10292SOL     OW31774   0.125   0.314   5.528
10292SOL    HW131775   0.100   0.336   5.623
10292SOL    HW231776   0.122   0.215   5.515
10293SOL     OW31777   1.875   3.181   5.714
10293SOL    HW131778   1.889   3.276   5.740
10293SOL    HW231779   1.803   3.176   5.645
10294SOL     OW31780   1.066   0.105   1.534
10294SOL    HW131781   0.973   0.068   1.530
10294SOL    HW231782   1.130   0.032   1.560
10295SOL     OW31783   2.454   1.339   1.010
10295SOL    HW131784   2.489   1.296   1.093
10295SOL    HW231785   2.498   1.298   0.930
10296SOL     OW31786   6.533   2.897   4.895
10296SOL    HW131787   6.540   2.987   4.938
10296SOL    HW231788   6.470   2.903   4.818
10297SOL     OW31789   4.617   1.006   1.054
10297SOL    HW131790   4.675   1.083   1.080
10297SOL    HW231791   4.550   0.989   1.126
10298SOL     OW31792   1.359   1.227   2.112
10298SOL    HW131793   1.272   1.188   2.142
10298SOL    HW231794   1.424   1.153   2.092
10299SOL     OW31795   5.710   0.007   2.737
10299SOL    HW131796   5.743   6.953   2.797
10299SOL    HW231797   5.714   6.997   2.642
10300SOL     OW31798   1.114   3.044   0.729
10300SOL    HW131799   1.095   3.101   0.649
10300SOL    HW231800   1.213   3.043   0.746
10301SOL     OW31801   4.561   1.351   0.059
10301SOL    HW131802   4.643   1.395   0.022
10301SOL    HW231803   4.489   1.350   7.008
10302SOL     OW31804   3.163   5.804   5.782
10302SOL    HW131805   3.207   5.717   5.756
10302SOL    HW231806   3.176   5.871   5.709
10303SOL     OW31807   0.815   4.394   5.449
10303SOL    HW131808   0.737   4.410   5.510
10303SOL    HW231809   0.784   4.344   5.368
10304SOL     OW31810   5.007   5.358   0.846
10304SOL    HW131811   5.081   5.293   0.829
10304SOL    HW231812   4.928   5.309   0.883
10305SOL     OW31813   2.859   3.526   5.129
10305SOL    HW131814   2.878   3.429   5.144
10305SOL    HW231815   2.779   3.554   5.183
10306SOL     OW31816   3.747   1.022   1.569
10306SOL    HW131817   3.814   0.978   1.509
10306SOL    HW231818   3.786   1.034   1.660
10307SOL     OW31819   1.601   6.262   4.950
10307SOL    HW131820   1.678   6.294   4.895
10307SOL    HW231821   1.627   6.264   5.047
10308SOL     OW31822   2.593   4.572   1.817
10308SOL    HW131823   2.680   4.530   1.843
10308SOL    HW231824   2.585   4.572   1.717
10309SOL     OW31825   0.403   0.881   4.758
10309SOL    HW131826   0.477   0.872   4.691
10309SOL    HW231827   0.443   0.895   4.849
10310SOL     OW31828   3.223   4.167   5.993
10310SOL    HW131829   3.163   4.242   5.963
10310SOL    HW231830   3.177   4.115   6.065
10311SOL     OW31831   5.241   6.333   0.017
10311SOL    HW131832   5.218   6.408   0.080
10311SOL    HW231833   5.166   6.319   6.972
10312SOL     OW31834   2.443   7.018   1.873
10312SOL    HW131835   2.471   0.087   1.835
10312SOL    HW231836   2.516   6.951   1.860
10313SOL     OW31837   4.998   6.357   3.389
10313SOL    HW131838   4.986   6.456   3.383
10313SOL    HW231839   5.026   6.320   3.301
10314SOL     OW31840   0.644   6.768   0.763
10314SOL    HW131841   0.565   6.827   0.781
10314SOL    HW231842   0.639   6.733   0.670
10315SOL     OW31843   4.821   4.544   3.961
10315SOL    HW131844   4.901   4.523   4.017
10315SOL    HW231845   4.816   4.642   3.944
10316SOL     OW31846   1.296   2.099   0.046
10316SOL    HW131847   1.350   2.100   6.981
10316SOL    HW231848   1.349   2.139   0.121
10317SOL     OW31849   4.329   6.140   4.380
10317SOL    HW131850   4.391   6.158   4.456
10317SOL    HW231851   4.251   6.087   4.411
10318SOL     OW31852   6.140   6.885   6.994
10318SOL    HW131853   6.209   6.845   0.035
10318SOL    HW231854   6.137   6.984   7.008
10319SOL     OW31855   1.093   4.377   4.174
10319SOL    HW131856   1.074   4.419   4.263
10319SOL    HW231857   1.136   4.444   4.114
10320SOL     OW31858   6.961   6.697   3.144
10320SOL    HW131859   6.905   6.758   3.088
10320SOL    HW231860   7.007   6.631   3.086
10321SOL     OW31861   5.879   2.516   3.212
10321SOL    HW131862   5.784   2.511   3.181
10321SOL    HW231863   5.927   2.587   3.161
10322SOL     OW31864   4.597   4.375   4.967
10322SOL    HW131865   4.513   4.330   4.999
10322SOL    HW231866   4.577   4.469   4.941
10323SOL     OW31867   1.029   4.530   6.155
10323SOL    HW131868   1.034   4.471   6.235
10323SOL    HW231869   1.030   4.474   6.072
10324SOL     OW31870   2.937   3.555   2.881
10324SOL    HW131871   2.906   3.471   2.925
10324SOL    HW231872   3.036   3.553   2.871
10325SOL     OW31873   6.047   6.204   5.150
10325SOL    HW131874   6.056   6.302   5.165
10325SOL    HW231875   6.103   6.177   5.072
10326SOL     OW31876   4.997   4.105   6.784
10326SOL    HW131877   4.943   4.123   6.702
10326SOL    HW231878   5.082   4.057   6.759
10327SOL     OW31879   1.430   5.778   6.952
10327SOL    HW131880   1.377   5.694   6.966
10327SOL    HW231881   1.502   5.784   0.002
10328SOL     OW31882   5.914   2.369   2.833
10328SOL    HW131883   5.817   2.390   2.819
10328SOL    HW231884   5.924   2.309   2.912
10329SOL     OW31885   3.512   2.072   1.824
10329SOL    HW131886   3.545   2.132   1.897
10329SOL    HW231887   3.525   2.117   1.735
10330SOL     OW31888   4.991   6.496   1.989
10330SOL    HW131889   5.034   6.517   1.901
10330SOL    HW231890   5.057   6.511   2.062
10331SOL     OW31891   5.229   5.628   5.523
10331SOL    HW131892   5.306   5.580   5.482
10331SOL    HW231893   5.259   5.673   5.607
10332SOL     OW31894   2.328   1.446   6.405
10332SOL    HW131895   2.380   1.375   6.358
10332SOL    HW231896   2.389   1.505   6.456
10333SOL     OW31897   1.762   3.695   4.044
10333SOL    HW131898   1.763   3.749   4.128
10333SOL    HW231899   1.741   3.600   4.065
10334SOL     OW31900   3.609   1.255   4.258
10334SOL    HW131901   3.584   1.163   4.288
10334SOL    HW231902   3.683   1.289   4.316
10335SOL     OW31903   1.940   3.466   4.199
10335SOL    HW131904   1.980   3.375   4.204
10335SOL    HW231905   1.992   3.522   4.134
10336SOL     OW31906   5.973   6.847   3.202
10336SOL    HW131907   5.965   6.748   3.191
10336SOL    HW231908   6.067   6.871   3.226
10337SOL     OW31909   6.080   6.430   6.671
10337SOL    HW131910   6.124   6.468   6.590
10337SOL    HW231911   6.140   6.442   6.750
10338SOL     OW31912   0.425   6.210   1.675
10338SOL    HW131913   0.401   6.139   1.741
10338SOL    HW231914   0.524   6.222   1.672
10339SOL     OW31915   5.321   2.568   6.057
10339SOL    HW131916   5.313   2.528   5.966
10339SOL    HW231917   5.248   2.636   6.070
10340SOL     OW31918   3.076   3.622   6.638
10340SOL    HW131919   3.171   3.653   6.633
10340SOL    HW231920   3.059   3.555   6.566
10341SOL     OW31921   3.519   4.932   3.239
10341SOL    HW131922   3.594   4.882   3.282
10341SOL    HW231923   3.532   4.935   3.140
10342SOL     OW31924   0.787   1.501   3.848
10342SOL    HW131925   0.778   1.469   3.942
10342SOL    HW231926   0.711   1.468   3.794
10343SOL     OW31927   4.189   5.403   1.738
10343SOL    HW131928   4.169   5.333   1.670
10343SOL    HW231929   4.287   5.422   1.739
10344SOL     OW31930   4.841   6.830   6.498
10344SOL    HW131931   4.894   6.797   6.576
10344SOL    HW231932   4.903   6.872   6.431
10345SOL     OW31933   1.120   4.329   4.636
10345SOL    HW131934   1.082   4.376   4.556
10345SOL    HW231935   1.183   4.258   4.605
10346SOL     OW31936   0.667   5.658   0.478
10346SOL    HW131937   0.568   5.669   0.476
10346SOL    HW231938   0.696   5.630   0.570
10347SOL     OW31939   0.259   2.092   5.234
10347SOL    HW131940   0.227   2.000   5.210
10347SOL    HW231941   0.180   2.152   5.248
10348SOL     OW31942   0.297   5.208   1.468
10348SOL    HW131943   0.307   5.278   1.539
10348SOL    HW231944   0.383   5.197   1.420
10349SOL     OW31945   6.775   0.175   6.596
10349SOL    HW131946   6.834   0.209   6.669
10349SOL    HW231947   6.796   0.079   6.579
10350SOL     OW31948   4.095   0.475   6.244
10350SOL    HW131949   4.154   0.430   6.176
10350SOL    HW231950   4.002   0.441   6.235
10351SOL     OW31951   4.701   5.824   6.018
10351SOL    HW131952   4.619   5.869   5.982
10351SOL    HW231953   4.732   5.871   6.100
10352SOL     OW31954   4.798   4.969   5.995
10352SOL    HW131955   4.848   4.883   6.002
10352SOL    HW231956   4.700   4.952   6.004
10353SOL     OW31957   0.607   3.742   4.810
10353SOL    HW131958   0.691   3.775   4.852
10353SOL    HW231959   0.548   3.703   4.881
10354SOL     OW31960   5.213   1.271   1.002
10354SOL    HW131961   5.158   1.212   0.944
10354SOL    HW231962   5.293   1.221   1.035
10355SOL     OW31963   1.111   4.796   2.979
10355SOL    HW131964   1.088   4.729   3.049
10355SOL    HW231965   1.091   4.758   2.888
10356SOL     OW31966   0.422   3.328   4.940
10356SOL    HW131967   0.396   3.326   4.844
10356SOL    HW231968   0.429   3.423   4.971
10357SOL     OW31969   3.049   3.040   6.239
10357SOL    HW131970   3.042   3.116   6.173
10357SOL    HW231971   3.144   3.029   6.267
10358SOL     OW31972   0.790   0.744   2.139
10358SOL    HW131973   0.694   0.755   2.112
10358SOL    HW231974   0.795   0.706   2.231
10359SOL     OW31975   1.363   1.571   0.436
10359SOL    HW131976   1.283   1.516   0.411
10359SOL    HW231977   1.358   1.660   0.390
10360SOL     OW31978   0.132   4.427   3.933
10360SOL    HW131979   0.224   4.389   3.919
10360SOL    HW231980   0.108   4.484   3.855
10361SOL     OW31981   2.798   5.592   0.209
10361SOL    HW131982   2.814   5.619   0.114
10361SOL    HW231983   2.862   5.639   0.269
10362SOL     OW31984   1.100   4.577   5.645
10362SOL    HW131985   1.161   4.583   5.724
10362SOL    HW231986   1.119   4.654   5.583
10363SOL     OW31987   5.373   0.632   4.352
10363SOL    HW131988   5.292   0.617   4.295
10363SOL    HW231989   5.347   0.633   4.448
10364SOL     OW31990   1.194   3.771   0.692
10364SOL    HW131991   1.137   3.741   0.768
10364SOL    HW231992   1.143   3.833   0.633
10365SOL     OW31993   5.578   4.925   6.992
10365SOL    HW131994   5.507   4.992   7.013
10365SOL    HW231995   5.536   4.847   6.945
10366SOL     OW31996   4.628   6.916   3.517
10366SOL    HW131997   4.597   7.011   3.522
10366SOL    HW231998   4.722   6.909   3.551
10367SOL     OW31999   6.311   1.498   3.210
10367SOL    HW132000   6.364   1.559   3.151
10367SOL    HW232001   6.270   1.425   3.155
10368SOL     OW32002   2.270   0.233   0.902
10368SOL    HW132003   2.288   0.247   0.804
10368SOL    HW232004   2.291   0.139   0.926
10369SOL     OW32005   5.074   2.908   6.575
10369SOL    HW132006   5.084   2.889   6.477
10369SOL    HW232007   4.994   2.860   6.611
10370SOL     OW32008   2.660   0.618   4.897
10370SOL    HW132009   2.577   0.595   4.948
10370SOL    HW232010   2.740   0.593   4.951
10371SOL     OW32011   4.690   6.800   5.586
10371SOL    HW132012   4.620   6.869   5.570
10371SOL    HW232013   4.651   6.709   5.571
10372SOL     OW32014   0.219   0.794   4.185
10372SOL    HW132015   0.158   0.803   4.264
10372SOL    HW232016   0.228   0.883   4.141
10373SOL     OW32017   1.287   6.407   5.292
10373SOL    HW132018   1.278   6.458   5.207
10373SOL    HW232019   1.230   6.326   5.288
10374SOL     OW32020   3.477   1.379   3.145
10374SOL    HW132021   3.480   1.280   3.130
10374SOL    HW232022   3.389   1.403   3.187
10375SOL     OW32023   6.927   2.326   1.053
10375SOL    HW132024   6.972   2.405   1.012
10375SOL    HW232025   6.962   2.312   1.146
10376SOL     OW32026   5.740   0.265   3.819
10376SOL    HW132027   5.819   0.225   3.867
10376SOL    HW232028   5.771   0.336   3.756
10377SOL     OW32029   6.816   6.527   3.318
10377SOL    HW132030   6.855   6.527   3.410
10377SOL    HW232031   6.878   6.574   3.256
10378SOL     OW32032   6.220   6.725   5.677
10378SOL    HW132033   6.318   6.705   5.682
10378SOL    HW232034   6.198   6.761   5.587
10379SOL     OW32035   4.417   1.233   4.511
10379SOL    HW132036   4.395   1.153   4.456
10379SOL    HW232037   4.498   1.215   4.566
10380SOL     OW32038   3.558   0.707   4.691
10380SOL    HW132039   3.467   0.719   4.732
10380SOL    HW232040   3.575   0.782   4.627
10381SOL     OW32041   3.124   5.479   5.110
10381SOL    HW132042   3.111   5.386   5.078
10381SOL    HW232043   3.188   5.480   5.187
10382SOL     OW32044   6.999   5.131   1.539
10382SOL    HW132045   0.010   5.174   1.625
10382SOL    HW232046   6.995   5.200   1.467
10383SOL     OW32047   5.463   3.501   1.326
10383SOL    HW132048   5.492   3.453   1.410
10383SOL    HW232049   5.369   3.476   1.304
10384SOL     OW32050   5.214   1.474   6.878
10384SOL    HW132051   5.280   1.433   6.815
10384SOL    HW232052   5.121   1.451   6.848
10385SOL     OW32053   6.412   3.262   6.434
10385SOL    HW132054   6.390   3.271   6.531
10385SOL    HW232055   6.450   3.171   6.416
10386SOL     OW32056   0.117   1.635   6.317
10386SOL    HW132057   0.204   1.659   6.360
10386SOL    HW232058   0.076   1.716   6.277
10387SOL     OW32059   1.467   3.840   2.858
10387SOL    HW132060   1.518   3.783   2.794
10387SOL    HW232061   1.419   3.781   2.923
10388SOL     OW32062   1.545   4.559   2.315
10388SOL    HW132063   1.453   4.576   2.352
10388SOL    HW232064   1.594   4.645   2.308
10389SOL     OW32065   1.722   5.668   3.256
10389SOL    HW132066   1.687   5.592   3.311
10389SOL    HW232067   1.662   5.682   3.177
10390SOL     OW32068   2.157   3.307   3.432
10390SOL    HW132069   2.118   3.390   3.473
10390SOL    HW232070   2.122   3.296   3.339
10391SOL     OW32071   3.361   5.372   4.432
10391SOL    HW132072   3.448   5.389   4.479
10391SOL    HW232073   3.287   5.371   4.499
10392SOL     OW32074   0.208   5.570   6.238
10392SOL    HW132075   0.283   5.603   6.295
10392SOL    HW232076   0.125   5.559   6.293
10393SOL     OW32077   1.275   1.804   4.326
10393SOL    HW132078   1.336   1.736   4.366
10393SOL    HW232079   1.201   1.759   4.277
10394SOL     OW32080   3.282   6.806   0.813
10394SOL    HW132081   3.262   6.794   0.911
10394SOL    HW232082   3.328   6.893   0.799
10395SOL     OW32083   1.099   7.012   3.291
10395SOL    HW132084   1.018   7.003   3.348
10395SOL    HW232085   1.178   0.018   3.347
10396SOL     OW32086   0.601   0.884   4.500
10396SOL    HW132087   0.561   0.950   4.437
10396SOL    HW232088   0.590   0.792   4.462
10397SOL     OW32089   4.864   2.928   2.382
10397SOL    HW132090   4.860   2.949   2.480
10397SOL    HW232091   4.795   2.860   2.360
10398SOL     OW32092   0.185   2.370   2.522
10398SOL    HW132093   0.208   2.273   2.525
10398SOL    HW232094   0.096   2.382   2.478
10399SOL     OW32095   6.948   2.896   5.793
10399SOL    HW132096   6.878   2.924   5.859
10399SOL    HW232097   0.011   2.952   5.806
10400SOL     OW32098   2.128   5.293   2.401
10400SOL    HW132099   2.089   5.324   2.488
10400SOL    HW232100   2.098   5.199   2.383
10401SOL     OW32101   1.116   6.072   1.147
10401SOL    HW132102   1.074   6.159   1.174
10401SOL    HW232103   1.207   6.064   1.188
10402SOL     OW32104   1.259   2.367   4.513
10402SOL    HW132105   1.253   2.375   4.414
10402SOL    HW232106   1.187   2.421   4.556
10403SOL     OW32107   5.458   1.257   3.732
10403SOL    HW132108   5.472   1.180   3.671
10403SOL    HW232109   5.506   1.338   3.697
10404SOL     OW32110   6.402   0.136   4.388
10404SOL    HW132111   6.371   0.224   4.352
10404SOL    HW232112   6.425   0.075   4.312
10405SOL     OW32113   3.817   6.944   6.148
10405SOL    HW132114   3.879   0.003   6.146
10405SOL    HW232115   3.729   6.971   6.108
10406SOL     OW32116   1.071   6.492   4.693
10406SOL    HW132117   1.115   6.424   4.635
10406SOL    HW232118   1.140   6.545   4.742
10407SOL     OW32119   3.248   0.514   0.025
10407SOL    HW132120   3.163   0.478   7.003
10407SOL    HW232121   3.281   0.450   0.094
10408SOL     OW32122   3.083   0.579   2.272
10408SOL    HW132123   3.099   0.660   2.216
10408SOL    HW232124   3.021   0.602   2.347
10409SOL     OW32125   0.304   4.744   1.983
10409SOL    HW132126   0.249   4.697   1.914
10409SOL    HW232127   0.267   4.725   2.074
10410SOL     OW32128   5.383   5.755   0.317
10410SOL    HW132129   5.434   5.671   0.298
10410SOL    HW232130   5.436   5.813   0.378
10411SOL     OW32131   2.253   4.804   2.125
10411SOL    HW132132   2.261   4.845   2.216
10411SOL    HW232133   2.325   4.737   2.112
10412SOL     OW32134   0.920   3.878   5.930
10412SOL    HW132135   0.965   3.909   5.847
10412SOL    HW232136   0.981   3.892   6.008
10413SOL     OW32137   6.669   0.940   4.869
10413SOL    HW132138   6.590   0.997   4.845
10413SOL    HW232139   6.707   0.970   4.957
10414SOL     OW32140   5.606   5.314   5.432
10414SOL    HW132141   5.552   5.397   5.421
10414SOL    HW232142   5.667   5.323   5.510
10415SOL     OW32143   0.032   4.601   3.019
10415SOL    HW132144   0.047   4.695   2.988
10415SOL    HW232145   6.977   4.560   2.966
10416SOL     OW32146   5.208   0.371   6.993
10416SOL    HW132147   5.136   0.335   6.935
10416SOL    HW232148   5.175   0.452   0.023
10417SOL     OW32149   4.934   4.697   4.576
10417SOL    HW132150   4.908   4.623   4.514
10417SOL    HW232151   4.891   4.782   4.546
10418SOL     OW32152   5.790   3.001   0.034
10418SOL    HW132153   5.839   3.011   6.967
10418SOL    HW232154   5.722   3.074   0.042
10419SOL     OW32155   0.764   6.680   4.964
10419SOL    HW132156   0.812   6.681   4.877
10419SOL    HW232157   0.787   6.596   5.014
10420SOL     OW32158   6.393   4.138   3.949
10420SOL    HW132159   6.340   4.183   3.876
10420SOL    HW232160   6.481   4.108   3.913
10421SOL     OW32161   0.228   3.489   3.876
10421SOL    HW132162   0.179   3.564   3.919
10421SOL    HW232163   0.248   3.512   3.781
10422SOL     OW32164   5.813   3.285   5.883
10422SOL    HW132165   5.756   3.227   5.942
10422SOL    HW232166   5.828   3.239   5.796
10423SOL     OW32167   2.686   5.696   1.522
10423SOL    HW132168   2.709   5.719   1.617
10423SOL    HW232169   2.620   5.621   1.521
10424SOL     OW32170   4.881   0.835   2.516
10424SOL    HW132171   4.796   0.881   2.490
10424SOL    HW232172   4.860   0.743   2.550
10425SOL     OW32173   0.576   4.603   1.100
10425SOL    HW132174   0.487   4.559   1.114
10425SOL    HW232175   0.648   4.534   1.106
10426SOL     OW32176   6.379   2.429   6.987
10426SOL    HW132177   6.478   2.423   7.000
10426SOL    HW232178   6.350   2.362   6.918
10427SOL     OW32179   6.405   0.537   3.497
10427SOL    HW132180   6.442   0.579   3.580
10427SOL    HW232181   6.340   0.464   3.522
10428SOL     OW32182   1.544   0.491   5.160
10428SOL    HW132183   1.602   0.410   5.168
10428SOL    HW232184   1.450   0.464   5.143
10429SOL     OW32185   2.057   5.167   1.946
10429SOL    HW132186   2.156   5.156   1.940
10429SOL    HW232187   2.027   5.236   1.880
10430SOL     OW32188   3.597   1.639   4.738
10430SOL    HW132189   3.536   1.664   4.813
10430SOL    HW232190   3.688   1.619   4.774
10431SOL     OW32191   4.583   2.380   3.517
10431SOL    HW132192   4.683   2.377   3.504
10431SOL    HW232193   4.552   2.293   3.553
10432SOL     OW32194   1.678   4.529   1.187
10432SOL    HW132195   1.602   4.529   1.251
10432SOL    HW232196   1.643   4.541   1.094
10433SOL     OW32197   3.124   6.684   4.433
10433SOL    HW132198   3.157   6.623   4.361
10433SOL    HW232199   3.200   6.712   4.491
10434SOL     OW32200   4.296   1.673   0.597
10434SOL    HW132201   4.273   1.601   0.532
10434SOL    HW232202   4.269   1.762   0.559
10435SOL     OW32203   2.869   1.180   1.653
10435SOL    HW132204   2.947   1.242   1.646
10435SOL    HW232205   2.864   1.123   1.570
10436SOL     OW32206   1.642   3.954   5.154
10436SOL    HW132207   1.705   3.969   5.078
10436SOL    HW232208   1.570   3.891   5.126
10437SOL     OW32209   6.576   0.186   5.126
10437SOL    HW132210   6.614   0.270   5.166
10437SOL    HW232211   6.580   0.192   5.027
10438SOL     OW32212   6.927   6.141   6.812
10438SOL    HW132213   0.005   6.167   6.806
10438SOL    HW232214   6.920   6.042   6.824
10439SOL     OW32215   5.767   5.270   5.669
10439SOL    HW132216   5.864   5.255   5.650
10439SOL    HW232217   5.757   5.317   5.757
10440SOL     OW32218   5.684   2.534   1.804
10440SOL    HW132219   5.595   2.576   1.823
10440SOL    HW232220   5.672   2.453   1.747
10441SOL     OW32221   5.478   1.608   5.517
10441SOL    HW132222   5.536   1.624   5.597
10441SOL    HW232223   5.402   1.548   5.544
10442SOL     OW32224   2.813   0.577   6.102
10442SOL    HW132225   2.871   0.579   6.183
10442SOL    HW232226   2.870   0.583   6.020
10443SOL     OW32227   0.851   1.177   6.712
10443SOL    HW132228   0.882   1.270   6.732
10443SOL    HW232229   0.754   1.177   6.692
10444SOL     OW32230   4.445   5.681   3.512
10444SOL    HW132231   4.542   5.689   3.533
10444SOL    HW232232   4.408   5.772   3.490
10445SOL     OW32233   1.540   3.184   3.792
10445SOL    HW132234   1.468   3.165   3.725
10445SOL    HW232235   1.578   3.098   3.825
10446SOL     OW32236   3.124   4.722   5.265
10446SOL    HW132237   3.060   4.650   5.235
10446SOL    HW232238   3.137   4.787   5.190
10447SOL     OW32239   1.760   2.254   3.049
10447SOL    HW132240   1.841   2.306   3.074
10447SOL    HW232241   1.754   2.247   2.949
10448SOL     OW32242   0.574   4.901   1.842
10448SOL    HW132243   0.599   4.898   1.939
10448SOL    HW232244   0.550   4.810   1.811
10449SOL     OW32245   3.808   5.473   4.327
10449SOL    HW132246   3.748   5.431   4.260
10449SOL    HW232247   3.758   5.488   4.412
10450SOL     OW32248   0.610   2.554   4.409
10450SOL    HW132249   0.533   2.493   4.427
10450SOL    HW232250   0.579   2.631   4.354
10451SOL     OW32251   2.011   2.172   4.988
10451SOL    HW132252   1.941   2.197   5.055
10451SOL    HW232253   2.100   2.207   5.017
10452SOL     OW32254   6.932   2.706   4.327
10452SOL    HW132255   6.956   2.709   4.424
10452SOL    HW232256   7.002   2.754   4.274
10453SOL     OW32257   3.101   5.834   4.026
10453SOL    HW132258   3.042   5.755   4.008
10453SOL    HW232259   3.193   5.815   3.991
10454SOL     OW32260   6.670   2.073   6.886
10454SOL    HW132261   6.766   2.092   6.863
10454SOL    HW232262   6.665   1.990   6.940
10455SOL     OW32263   0.982   6.062   2.611
10455SOL    HW132264   0.956   6.020   2.524
10455SOL    HW232265   0.933   6.016   2.686
10456SOL     OW32266   1.148   5.729   6.285
10456SOL    HW132267   1.156   5.794   6.361
10456SOL    HW232268   1.240   5.706   6.251
10457SOL     OW32269   4.506   1.530   1.218
10457SOL    HW132270   4.603   1.523   1.241
10457SOL    HW232271   4.487   1.472   1.138
10458SOL     OW32272   1.989   7.016   7.001
10458SOL    HW132273   1.915   0.057   6.972
10458SOL    HW232274   1.986   6.931   6.949
10459SOL     OW32275   5.659   6.152   1.112
10459SOL    HW132276   5.665   6.092   1.032
10459SOL    HW232277   5.579   6.127   1.166
10460SOL     OW32278   6.403   1.378   6.950
10460SOL    HW132279   6.334   1.309   6.925
10460SOL    HW232280   6.375   1.467   6.914
10461SOL     OW32281   6.648   4.128   5.744
10461SOL    HW132282   6.719   4.059   5.729
10461SOL    HW232283   6.685   4.202   5.800
10462SOL     OW32284   4.473   3.788   0.118
10462SOL    HW132285   4.490   3.857   0.188
10462SOL    HW232286   4.394   3.815   0.063
10463SOL     OW32287   4.490   2.712   5.245
10463SOL    HW132288   4.559   2.782   5.262
10463SOL    HW232289   4.400   2.745   5.275
10464SOL     OW32290   6.222   4.712   1.880
10464SOL    HW132291   6.197   4.619   1.907
10464SOL    HW232292   6.155   4.747   1.815
10465SOL     OW32293   5.221   3.998   0.542
10465SOL    HW132294   5.232   4.068   0.613
10465SOL    HW232295   5.136   3.948   0.557
10466SOL     OW32296   6.310   3.662   5.466
10466SOL    HW132297   6.398   3.706   5.457
10466SOL    HW232298   6.258   3.706   5.540
10467SOL     OW32299   0.606   3.671   6.809
10467SOL    HW132300   0.616   3.659   6.907
10467SOL    HW232301   0.597   3.768   6.787
10468SOL     OW32302   1.634   4.551   3.690
10468SOL    HW132303   1.599   4.623   3.630
10468SOL    HW232304   1.646   4.587   3.783
10469SOL     OW32305   1.452   0.614   4.065
10469SOL    HW132306   1.389   0.688   4.041
10469SOL    HW232307   1.404   0.547   4.121
10470SOL     OW32308   2.581   4.263   1.671
10470SOL    HW132309   2.518   4.334   1.641
10470SOL    HW232310   2.675   4.297   1.667
10471SOL     OW32311   1.887   4.618   5.904
10471SOL    HW132312   1.877   4.716   5.920
10471SOL    HW232313   1.813   4.586   5.845
10472SOL     OW32314   4.418   5.355   6.057
10472SOL    HW132315   4.501   5.301   6.070
10472SOL    HW232316   4.441   5.453   6.063
10473SOL     OW32317   5.883   5.811   0.421
10473SOL    HW132318   5.937   5.753   0.360
10473SOL    HW232319   5.895   5.907   0.394
10474SOL     OW32320   6.065   5.717   4.954
10474SOL    HW132321   6.089   5.620   4.964
10474SOL    HW232322   5.991   5.726   4.887
10475SOL     OW32323   6.732   6.238   1.541
10475SOL    HW132324   6.702   6.300   1.613
10475SOL    HW232325   6.726   6.285   1.452
10476SOL     OW32326   5.089   6.360   1.238
10476SOL    HW132327   5.143   6.441   1.215
10476SOL    HW232328   5.077   6.354   1.337
10477SOL     OW32329   0.105   5.637   3.108
10477SOL    HW132330   0.058   5.702   3.168
10477SOL    HW232331   0.107   5.547   3.151
10478SOL     OW32332   0.010   1.385   0.433
10478SOL    HW132333   6.971   1.439   0.494
10478SOL    HW232334   6.980   1.302   0.404
10479SOL     OW32335   0.304   4.795   2.664
10479SOL    HW132336   0.375   4.754   2.722
10479SOL    HW232337   0.347   4.853   2.595
10480SOL     OW32338   2.600   1.505   3.681
10480SOL    HW132339   2.535   1.444   3.636
10480SOL    HW232340   2.567   1.525   3.774
10481SOL     OW32341   5.830   0.577   2.064
10481SOL    HW132342   5.921   0.589   2.104
10481SOL    HW232343   5.831   0.607   1.969
10482SOL     OW32344   4.701   4.318   4.713
10482SOL    HW132345   4.668   4.325   4.807
10482SOL    HW232346   4.763   4.240   4.705
10483SOL     OW32347   6.440   1.226   6.619
10483SOL    HW132348   6.386   1.189   6.694
10483SOL    HW232349   6.462   1.153   6.555
10484SOL     OW32350   5.918   0.348   1.760
10484SOL    HW132351   5.985   0.373   1.831
10484SOL    HW232352   5.965   0.301   1.685
10485SOL     OW32353   5.703   3.500   5.544
10485SOL    HW132354   5.707   3.496   5.644
10485SOL    HW232355   5.730   3.591   5.513
10486SOL     OW32356   6.392   2.642   3.044
10486SOL    HW132357   6.431   2.649   2.952
10486SOL    HW232358   6.305   2.593   3.040
10487SOL     OW32359   3.921   0.064   2.648
10487SOL    HW132360   3.999   0.118   2.682
10487SOL    HW232361   3.945   0.022   2.560
10488SOL     OW32362   4.096   3.658   0.068
10488SOL    HW132363   4.055   3.741   0.030
10488SOL    HW232364   4.150   3.612   7.017
10489SOL     OW32365   1.487   5.528   5.435
10489SOL    HW132366   1.586   5.522   5.431
10489SOL    HW232367   1.452   5.474   5.511
10490SOL     OW32368   5.965   0.210   4.442
10490SOL    HW132369   5.968   0.118   4.479
10490SOL    HW232370   6.017   0.213   4.357
10491SOL     OW32371   6.764   5.687   4.928
10491SOL    HW132372   6.732   5.750   4.857
10491SOL    HW232373   6.862   5.673   4.917
10492SOL     OW32374   4.513   3.894   5.824
10492SOL    HW132375   4.584   3.823   5.820
10492SOL    HW232376   4.423   3.851   5.824
10493SOL     OW32377   3.685   1.134   0.273
10493SOL    HW132378   3.689   1.216   0.330
10493SOL    HW232379   3.778   1.100   0.259
10494SOL     OW32380   5.577   1.370   5.389
10494SOL    HW132381   5.567   1.468   5.406
10494SOL    HW232382   5.645   1.355   5.317
10495SOL     OW32383   0.750   0.945   0.176
10495SOL    HW132384   0.758   0.859   0.227
10495SOL    HW232385   0.814   0.944   0.099
10496SOL     OW32386   0.025   7.004   5.238
10496SOL    HW132387   0.077   0.048   5.180
10496SOL    HW232388   6.959   0.029   5.267
10497SOL     OW32389   2.337   0.947   6.417
10497SOL    HW132390   2.341   0.904   6.327
10497SOL    HW232391   2.302   0.882   6.484
10498SOL     OW32392   2.811   5.223   5.707
10498SOL    HW132393   2.852   5.173   5.784
10498SOL    HW232394   2.719   5.252   5.733
10499SOL     OW32395   3.357   6.630   2.456
10499SOL    HW132396   3.313   6.567   2.520
10499SOL    HW232397   3.325   6.723   2.473
10500SOL     OW32398   2.065   1.370   6.447
10500SOL    HW132399   2.026   1.399   6.534
10500SOL    HW232400   2.159   1.401   6.440
10501SOL     OW32401   1.752   3.424   3.131
10501SOL    HW132402   1.817   3.469   3.191
10501SOL    HW232403   1.791   3.414   3.039
10502SOL     OW32404   3.015   6.668   5.033
10502SOL    HW132405   3.103   6.622   5.050
10502SOL    HW232406   3.001   6.677   4.935
10503SOL     OW32407   2.594   3.455   7.010
10503SOL    HW132408   2.584   3.356   7.008
10503SOL    HW232409   2.544   3.492   0.070
10504SOL     OW32410   1.677   2.860   0.496
10504SOL    HW132411   1.770   2.835   0.470
10504SOL    HW232412   1.678   2.907   0.585
10505SOL     OW32413   0.365   5.744   0.614
10505SOL    HW132414   0.332   5.653   0.640
10505SOL    HW232415   0.306   5.783   0.544
10506SOL     OW32416   6.717   5.581   6.285
10506SOL    HW132417   6.634   5.634   6.301
10506SOL    HW232418   6.694   5.494   6.242
10507SOL     OW32419   3.330   0.763   3.926
10507SOL    HW132420   3.309   0.682   3.872
10507SOL    HW232421   3.276   0.762   4.010
10508SOL     OW32422   5.373   5.805   3.114
10508SOL    HW132423   5.412   5.809   3.206
10508SOL    HW232424   5.444   5.776   3.050
10509SOL     OW32425   1.907   1.087   5.186
10509SOL    HW132426   1.948   0.997   5.171
10509SOL    HW232427   1.816   1.090   5.146
10510SOL     OW32428   5.647   0.898   5.965
10510SOL    HW132429   5.649   0.878   5.868
10510SOL    HW232430   5.557   0.877   6.002
10511SOL     OW32431   6.868   2.739   1.859
10511SOL    HW132432   6.967   2.741   1.877
10511SOL    HW232433   6.843   2.817   1.802
10512SOL     OW32434   2.232   6.850   6.735
10512SOL    HW132435   2.234   6.771   6.795
10512SOL    HW232436   2.319   6.899   6.739
10513SOL     OW32437   6.972   2.660   0.933
10513SOL    HW132438   6.951   2.656   1.031
10513SOL    HW232439   6.890   2.689   0.883
10514SOL     OW32440   1.905   2.869   1.544
10514SOL    HW132441   1.898   2.772   1.566
10514SOL    HW232442   1.831   2.919   1.590
10515SOL     OW32443   7.009   3.786   4.897
10515SOL    HW132444   0.034   3.743   4.819
10515SOL    HW232445   0.020   3.882   4.903
10516SOL     OW32446   2.748   6.668   0.057
10516SOL    HW132447   2.768   6.765   0.050
10516SOL    HW232448   2.682   6.642   7.005
10517SOL     OW32449   0.696   2.500   3.689
10517SOL    HW132450   0.694   2.406   3.655
10517SOL    HW232451   0.790   2.526   3.709
10518SOL     OW32452   0.777   6.321   3.086
10518SOL    HW132453   0.682   6.310   3.056
10518SOL    HW232454   0.779   6.374   3.171
10519SOL     OW32455   3.782   3.535   4.926
10519SOL    HW132456   3.805   3.595   5.002
10519SOL    HW232457   3.770   3.442   4.959
10520SOL     OW32458   3.024   5.000   6.761
10520SOL    HW132459   2.949   4.998   6.695
10520SOL    HW232460   3.027   4.914   6.811
10521SOL     OW32461   6.563   5.482   1.945
10521SOL    HW132462   6.467   5.454   1.955
10521SOL    HW232463   6.616   5.446   2.021
10522SOL     OW32464   6.056   6.717   2.913
10522SOL    HW132465   5.958   6.721   2.894
10522SOL    HW232466   6.100   6.800   2.882
10523SOL     OW32467   5.648   6.395   6.555
10523SOL    HW132468   5.723   6.390   6.620
10523SOL    HW232469   5.587   6.317   6.569
10524SOL     OW32470   5.032   1.292   4.617
10524SOL    HW132471   5.042   1.388   4.591
10524SOL    HW232472   5.096   1.236   4.564
10525SOL     OW32473   1.720   0.240   5.223
10525SOL    HW132474   1.700   0.144   5.205
10525SOL    HW232475   1.744   0.252   5.319
10526SOL     OW32476   4.428   5.072   2.394
10526SOL    HW132477   4.348   5.033   2.348
10526SOL    HW232478   4.512   5.037   2.352
10527SOL     OW32479   1.957   2.786   4.006
10527SOL    HW132480   1.880   2.771   3.945
10527SOL    HW232481   1.968   2.707   4.066
10528SOL     OW32482   5.582   4.103   6.565
10528SOL    HW132483   5.512   4.175   6.569
10528SOL    HW232484   5.594   4.072   6.471
10529SOL     OW32485   7.003   5.655   5.163
10529SOL    HW132486   6.988   5.606   5.077
10529SOL    HW232487   6.950   5.611   5.236
10530SOL     OW32488   1.315   1.561   5.042
10530SOL    HW132489   1.329   1.574   4.944
10530SOL    HW232490   1.259   1.480   5.057
10531SOL     OW32491   2.915   2.259   4.592
10531SOL    HW132492   2.882   2.272   4.498
10531SOL    HW232493   2.981   2.331   4.614
10532SOL     OW32494   3.425   3.531   4.550
10532SOL    HW132495   3.388   3.611   4.599
10532SOL    HW232496   3.473   3.562   4.468
10533SOL     OW32497   3.430   1.096   6.288
10533SOL    HW132498   3.468   1.008   6.258
10533SOL    HW232499   3.499   1.145   6.341
10534SOL     OW32500   5.729   4.201   2.251
10534SOL    HW132501   5.682   4.287   2.232
10534SOL    HW232502   5.828   4.214   2.241
10535SOL     OW32503   6.913   1.291   1.709
10535SOL    HW132504   6.989   1.226   1.702
10535SOL    HW232505   6.931   1.369   1.650
10536SOL     OW32506   5.775   6.018   2.783
10536SOL    HW132507   5.720   5.998   2.702
10536SOL    HW232508   5.843   5.945   2.796
10537SOL     OW32509   6.339   5.253   0.973
10537SOL    HW132510   6.411   5.183   0.972
10537SOL    HW232511   6.376   5.339   0.939
10538SOL     OW32512   4.195   3.656   6.529
10538SOL    HW132513   4.154   3.585   6.586
10538SOL    HW232514   4.292   3.637   6.515
10539SOL     OW32515   1.429   3.148   5.227
10539SOL    HW132516   1.518   3.167   5.185
10539SOL    HW232517   1.441   3.082   5.301
10540SOL     OW32518   3.273   1.049   1.002
10540SOL    HW132519   3.235   1.095   0.922
10540SOL    HW232520   3.363   1.012   0.978
10541SOL     OW32521   3.315   2.453   1.711
10541SOL    HW132522   3.253   2.395   1.658
10541SOL    HW232523   3.269   2.539   1.732
10542SOL     OW32524   2.003   2.513   0.109
10542SOL    HW132525   1.929   2.469   0.058
10542SOL    HW232526   2.090   2.496   0.061
10543SOL     OW32527   3.013   0.344   4.189
10543SOL    HW132528   3.081   0.403   4.232
10543SOL    HW232529   3.029   0.341   4.090
10544SOL     OW32530   0.438   1.882   0.999
10544SOL    HW132531   0.338   1.882   0.995
10544SOL    HW232532   0.472   1.967   0.958
10545SOL     OW32533   3.535   0.775   3.310
10545SOL    HW132534   3.602   0.760   3.383
10545SOL    HW232535   3.460   0.710   3.320
10546SOL     OW32536   4.629   1.101   4.794
10546SOL    HW132537   4.698   1.140   4.855
10546SOL    HW232538   4.544   1.154   4.800
10547SOL     OW32539   4.762   5.894   1.931
10547SOL    HW132540   4.817   5.875   2.013
10547SOL    HW232541   4.701   5.816   1.914
10548SOL     OW32542   4.510   4.345   5.597
10548SOL    HW132543   4.485   4.248   5.599
10548SOL    HW232544   4.467   4.389   5.517
10549SOL     OW32545   0.315   1.242   2.531
10549SOL    HW132546   0.254   1.187   2.588
10549SOL    HW232547   0.343   1.324   2.582
10550SOL     OW32548   4.801   0.030   4.838
10550SOL    HW132549   4.814   0.073   4.749
10550SOL    HW232550   4.728   0.077   4.887
10551SOL     OW32551   2.123   2.741   6.051
10551SOL    HW132552   2.117   2.730   6.150
10551SOL    HW232553   2.156   2.656   6.010
10552SOL     OW32554   3.655   1.115   5.440
10552SOL    HW132555   3.692   1.026   5.468
10552SOL    HW232556   3.718   1.159   5.377
10553SOL     OW32557   2.665   4.685   6.660
10553SOL    HW132558   2.587   4.693   6.722
10553SOL    HW232559   2.733   4.625   6.700
10554SOL     OW32560   6.190   3.778   6.158
10554SOL    HW132561   6.117   3.722   6.196
10554SOL    HW232562   6.253   3.721   6.105
10555SOL     OW32563   3.522   2.635   0.767
10555SOL    HW132564   3.489   2.545   0.797
10555SOL    HW232565   3.608   2.655   0.813
10556SOL     OW32566   2.430   5.038   4.189
10556SOL    HW132567   2.408   4.950   4.145
10556SOL    HW232568   2.494   5.089   4.131
10557SOL     OW32569   5.367   1.608   3.083
10557SOL    HW132570   5.436   1.606   3.010
10557SOL    HW232571   5.290   1.549   3.057
10558SOL     OW32572   6.135   5.576   6.213
10558SOL    HW132573   6.145   5.647   6.283
10558SOL    HW232574   6.225   5.540   6.188
10559SOL     OW32575   4.346   3.104   1.418
10559SOL    HW132576   4.345   3.147   1.508
10559SOL    HW232577   4.264   3.047   1.407
10560SOL     OW32578   0.114   2.117   4.285
10560SOL    HW132579   0.064   2.030   4.283
10560SOL    HW232580   0.049   2.193   4.285
10561SOL     OW32581   1.566   4.212   6.229
10561SOL    HW132582   1.589   4.221   6.132
10561SOL    HW232583   1.645   4.175   6.278
10562SOL     OW32584   4.332   1.742   1.049
10562SOL    HW132585   4.328   1.709   1.144
10562SOL    HW232586   4.267   1.690   0.994
10563SOL     OW32587   1.769   2.215   2.289
10563SOL    HW132588   1.748   2.150   2.362
10563SOL    HW232589   1.812   2.166   2.212
10564SOL     OW32590   0.125   1.878   2.525
10564SOL    HW132591   0.224   1.884   2.512
10564SOL    HW232592   0.100   1.928   2.608
10565SOL     OW32593   5.304   2.207   5.116
10565SOL    HW132594   5.318   2.190   5.213
10565SOL    HW232595   5.270   2.300   5.102
10566SOL     OW32596   4.980   5.639   6.933
10566SOL    HW132597   4.958   5.693   6.852
10566SOL    HW232598   4.922   5.557   6.935
10567SOL     OW32599   2.157   5.884   4.915
10567SOL    HW132600   2.156   5.797   4.866
10567SOL    HW232601   2.251   5.905   4.944
10568SOL     OW32602   4.363   0.111   4.018
10568SOL    HW132603   4.381   0.165   3.935
10568SOL    HW232604   4.274   0.067   4.011
10569SOL     OW32605   6.540   1.868   3.976
10569SOL    HW132606   6.637   1.861   3.951
10569SOL    HW232607   6.484   1.858   3.893
10570SOL     OW32608   0.980   2.825   1.694
10570SOL    HW132609   0.928   2.773   1.627
10570SOL    HW232610   1.041   2.889   1.647
10571SOL     OW32611   7.006   6.918   4.611
10571SOL    HW132612   0.040   7.002   4.625
10571SOL    HW232613   6.962   6.891   4.696
10572SOL     OW32614   6.632   3.662   2.581
10572SOL    HW132615   6.594   3.676   2.673
10572SOL    HW232616   6.608   3.570   2.549
10573SOL     OW32617   6.388   4.691   5.570
10573SOL    HW132618   6.432   4.632   5.502
10573SOL    HW232619   6.350   4.635   5.643
10574SOL     OW32620   0.708   2.421   2.663
10574SOL    HW132621   0.701   2.521   2.660
10574SOL    HW232622   0.624   2.381   2.625
10575SOL     OW32623   0.145   6.976   5.845
10575SOL    HW132624   0.186   6.886   5.854
10575SOL    HW232625   0.215   0.027   5.852
10576SOL     OW32626   0.538   5.978   3.675
10576SOL    HW132627   0.469   5.912   3.704
10576SOL    HW232628   0.625   5.959   3.720
10577SOL     OW32629   0.532   3.136   5.728
10577SOL    HW132630   0.555   3.220   5.679
10577SOL    HW232631   0.591   3.062   5.697
10578SOL     OW32632   5.194   0.895   5.172
10578SOL    HW132633   5.106   0.900   5.124
10578SOL    HW232634   5.195   0.813   5.230
10579SOL     OW32635   5.592   6.730   1.311
10579SOL    HW132636   5.618   6.635   1.329
10579SOL    HW232637   5.570   6.740   1.214
10580SOL     OW32638   0.916   5.806   0.529
10580SOL    HW132639   0.895   5.786   0.625
10580SOL    HW232640   0.838   5.780   0.472
10581SOL     OW32641   4.236   2.321   2.749
10581SOL    HW132642   4.333   2.321   2.726
10581SOL    HW232643   4.223   2.354   2.842
10582SOL     OW32644   3.453   3.920   6.936
10582SOL    HW132645   3.523   3.849   6.933
10582SOL    HW232646   3.464   3.974   0.001
10583SOL     OW32647   4.688   0.668   1.736
10583SOL    HW132648   4.720   0.580   1.772
10583SOL    HW232649   4.767   0.729   1.722
10584SOL     OW32650   5.256   6.985   1.437
10584SOL    HW132651   5.348   6.962   1.469
10584SOL    HW232652   5.257   6.994   1.337
10585SOL     OW32653   3.070   4.185   6.869
10585SOL    HW132654   3.004   4.206   6.797
10585SOL    HW232655   3.102   4.091   6.858
10586SOL     OW32656   5.076   1.966   1.937
10586SOL    HW132657   5.043   2.060   1.933
10586SOL    HW232658   5.004   1.904   1.905
10587SOL     OW32659   0.381   3.858   0.631
10587SOL    HW132660   0.385   3.777   0.689
10587SOL    HW232661   0.313   3.921   0.667
10588SOL     OW32662   1.900   5.429   3.693
10588SOL    HW132663   1.877   5.397   3.785
10588SOL    HW232664   1.861   5.520   3.679
10589SOL     OW32665   5.795   1.002   4.588
10589SOL    HW132666   5.720   1.061   4.559
10589SOL    HW232667   5.867   1.058   4.630
10590SOL     OW32668   0.618   0.192   4.256
10590SOL    HW132669   0.556   0.198   4.334
10590SOL    HW232670   0.613   0.101   4.216
10591SOL     OW32671   1.479   2.392   1.353
10591SOL    HW132672   1.530   2.467   1.310
10591SOL    HW232673   1.505   2.305   1.311
10592SOL     OW32674   4.992   1.704   5.963
10592SOL    HW132675   4.989   1.628   6.029
10592SOL    HW232676   5.029   1.785   6.008
10593SOL     OW32677   1.737   3.862   2.344
10593SOL    HW132678   1.696   3.953   2.332
10593SOL    HW232679   1.773   3.830   2.256
10594SOL     OW32680   1.420   1.361   4.472
10594SOL    HW132681   1.406   1.281   4.530
10594SOL    HW232682   1.497   1.346   4.411
10595SOL     OW32683   1.399   5.858   4.988
10595SOL    HW132684   1.483   5.899   5.022
10595SOL    HW232685   1.408   5.839   4.890
10596SOL     OW32686   2.674   1.026   1.104
10596SOL    HW132687   2.623   0.949   1.065
10596SOL    HW232688   2.727   1.071   1.031
10597SOL     OW32689   1.872   0.785   3.921
10597SOL    HW132690   1.865   0.727   4.002
10597SOL    HW232691   1.939   0.747   3.858
10598SOL     OW32692   2.891   0.669   0.549
10598SOL    HW132693   2.989   0.679   0.567
10598SOL    HW232694   2.852   0.602   0.611
10599SOL     OW32695   4.835   7.011   6.082
10599SOL    HW132696   4.735   7.013   6.081
10599SOL    HW232697   4.868   6.919   6.063
10600SOL     OW32698   1.979   2.858   5.298
10600SOL    HW132699   2.044   2.822   5.230
10600SOL    HW232700   2.030   2.885   5.380
10601SOL     OW32701   4.547   6.349   5.118
10601SOL    HW132702   4.474   6.417   5.110
10601SOL    HW232703   4.635   6.396   5.129
10602SOL     OW32704   4.933   2.606   2.205
10602SOL    HW132705   4.947   2.687   2.148
10602SOL    HW232706   4.978   2.528   2.162
10603SOL     OW32707   0.632   5.549   5.086
10603SOL    HW132708   0.585   5.479   5.032
10603SOL    HW232709   0.702   5.593   5.030
10604SOL     OW32710   0.657   4.586   6.644
10604SOL    HW132711   0.558   4.598   6.658
10604SOL    HW232712   0.687   4.503   6.692
10605SOL     OW32713   1.192   4.640   0.410
10605SOL    HW132714   1.184   4.674   0.503
10605SOL    HW232715   1.156   4.547   0.404
10606SOL     OW32716   1.539   1.038   2.009
10606SOL    HW132717   1.631   1.060   2.042
10606SOL    HW232718   1.545   0.968   1.938
10607SOL     OW32719   5.638   4.136   6.997
10607SOL    HW132720   5.707   4.174   0.040
10607SOL    HW232721   5.553   4.123   0.028
10608SOL     OW32722   5.563   6.219   2.588
10608SOL    HW132723   5.615   6.225   2.503
10608SOL    HW232724   5.622   6.240   2.666
10609SOL     OW32725   3.877   6.723   3.170
10609SOL    HW132726   3.878   6.738   3.071
10609SOL    HW232727   3.954   6.664   3.195
10610SOL     OW32728   2.189   4.956   5.114
10610SOL    HW132729   2.205   5.052   5.091
10610SOL    HW232730   2.092   4.942   5.133
10611SOL     OW32731   4.628   2.328   5.936
10611SOL    HW132732   4.573   2.276   6.002
10611SOL    HW232733   4.680   2.398   5.985
10612SOL     OW32734   2.078   0.642   1.540
10612SOL    HW132735   2.147   0.710   1.515
10612SOL    HW232736   2.068   0.575   1.467
10613SOL     OW32737   1.498   6.212   0.277
10613SOL    HW132738   1.504   6.222   0.376
10613SOL    HW232739   1.565   6.144   0.247
10614SOL     OW32740   0.558   1.000   2.932
10614SOL    HW132741   0.625   0.929   2.911
10614SOL    HW232742   0.561   1.070   2.860
10615SOL     OW32743   0.468   6.186   5.751
10615SOL    HW132744   0.559   6.206   5.788
10615SOL    HW232745   0.467   6.094   5.712
10616SOL     OW32746   3.494   5.477   1.563
10616SOL    HW132747   3.508   5.515   1.472
10616SOL    HW232748   3.397   5.481   1.587
10617SOL     OW32749   6.341   2.148   6.281
10617SOL    HW132750   6.341   2.091   6.364
10617SOL    HW232751   6.396   2.230   6.297
10618SOL     OW32752   6.954   3.968   1.166
10618SOL    HW132753   6.866   3.926   1.145
10618SOL    HW232754   6.941   4.047   1.225
10619SOL     OW32755   0.476   3.409   3.961
10619SOL    HW132756   0.386   3.439   3.928
10619SOL    HW232757   0.468   3.372   4.053
10620SOL     OW32758   1.660   5.104   3.734
10620SOL    HW132759   1.719   5.025   3.717
10620SOL    HW232760   1.649   5.117   3.833
10621SOL     OW32761   3.589   0.947   0.618
10621SOL    HW132762   3.548   1.033   0.588
10621SOL    HW232763   3.544   0.916   0.702
10622SOL     OW32764   4.456   2.453   0.653
10622SOL    HW132765   4.480   2.469   0.749
10622SOL    HW232766   4.534   2.478   0.594
10623SOL     OW32767   6.828   1.498   4.173
10623SOL    HW132768   6.880   1.506   4.258
10623SOL    HW232769   6.748   1.557   4.177
10624SOL     OW32770   2.461   1.727   3.541
10624SOL    HW132771   2.445   1.800   3.608
10624SOL    HW232772   2.523   1.659   3.581
10625SOL     OW32773   1.142   2.613   1.489
10625SOL    HW132774   1.057   2.645   1.447
10625SOL    HW232775   1.199   2.568   1.420
10626SOL     OW32776   0.076   2.163   3.055
10626SOL    HW132777   0.029   2.161   3.144
10626SOL    HW232778   0.139   2.240   3.053
10627SOL     OW32779   3.121   5.662   4.476
10627SOL    HW132780   3.044   5.602   4.496
10627SOL    HW232781   3.168   5.630   4.393
10628SOL     OW32782   0.429   0.018   5.164
10628SOL    HW132783   0.386   7.010   5.077
10628SOL    HW232784   0.448   0.116   5.163
10629SOL     OW32785   3.276   4.356   6.790
10629SOL    HW132786   3.213   4.290   6.830
10629SOL    HW232787   3.265   4.444   6.836
10630SOL     OW32788   5.351   1.411   1.630
10630SOL    HW132789   5.346   1.497   1.680
10630SOL    HW232790   5.350   1.430   1.531
10631SOL     OW32791   1.612   6.957   4.206
10631SOL    HW132792   1.701   6.934   4.247
10631SOL    HW232793   1.553   6.997   4.276
10632SOL     OW32794   6.731   2.903   0.421
10632SOL    HW132795   6.805   2.970   0.432
10632SOL    HW232796   6.769   2.819   0.381
10633SOL     OW32797   1.711   4.882   6.789
10633SOL    HW132798   1.801   4.920   6.767
10633SOL    HW232799   1.722   4.789   6.824
10634SOL     OW32800   3.262   6.184   2.532
10634SOL    HW132801   3.357   6.152   2.533
10634SOL    HW232802   3.208   6.128   2.468
10635SOL     OW32803   0.648   0.600   1.341
10635SOL    HW132804   0.676   0.586   1.435
10635SOL    HW232805   0.728   0.596   1.281
10636SOL     OW32806   4.978   1.864   6.791
10636SOL    HW132807   4.931   1.846   6.878
10636SOL    HW232808   4.959   1.958   6.762
10637SOL     OW32809   3.291   3.538   6.854
10637SOL    HW132810   3.367   3.599   6.833
10637SOL    HW232811   3.229   3.583   6.919
10638SOL     OW32812   6.928   1.408   5.570
10638SOL    HW132813   6.839   1.379   5.607
10638SOL    HW232814   6.937   1.374   5.476
10639SOL     OW32815   3.415   1.744   4.525
10639SOL    HW132816   3.367   1.811   4.581
10639SOL    HW232817   3.470   1.685   4.584
10640SOL     OW32818   4.839   6.434   0.875
10640SOL    HW132819   4.811   6.341   0.896
10640SOL    HW232820   4.923   6.456   0.926
10641SOL     OW32821   3.670   6.637   6.923
10641SOL    HW132822   3.622   6.704   6.867
10641SOL    HW232823   3.706   6.682   7.005
10642SOL     OW32824   0.208   6.087   2.091
10642SOL    HW132825   0.176   6.018   2.156
10642SOL    HW232826   0.279   6.143   2.134
10643SOL     OW32827   3.510   3.432   6.145
10643SOL    HW132828   3.453   3.351   6.133
10643SOL    HW232829   3.557   3.454   6.059
10644SOL     OW32830   4.194   1.454   5.315
10644SOL    HW132831   4.184   1.544   5.273
10644SOL    HW232832   4.110   1.429   5.362
10645SOL     OW32833   1.887   0.788   3.101
10645SOL    HW132834   1.944   0.753   3.026
10645SOL    HW232835   1.838   0.870   3.070
10646SOL     OW32836   6.870   4.654   6.790
10646SOL    HW132837   6.970   4.644   6.792
10646SOL    HW232838   6.829   4.565   6.770
10647SOL     OW32839   6.280   6.103   1.268
10647SOL    HW132840   6.287   6.084   1.366
10647SOL    HW232841   6.337   6.037   1.219
10648SOL     OW32842   4.389   3.651   6.090
10648SOL    HW132843   4.389   3.716   6.166
10648SOL    HW232844   4.349   3.694   6.009
10649SOL     OW32845   6.719   4.745   6.223
10649SOL    HW132846   6.818   4.734   6.227
10649SOL    HW232847   6.676   4.676   6.281
10650SOL     OW32848   1.750   0.484   5.757
10650SOL    HW132849   1.707   0.397   5.779
10650SOL    HW232850   1.834   0.467   5.705
10651SOL     OW32851   1.302   0.540   5.937
10651SOL    HW132852   1.370   0.523   6.008
10651SOL    HW232853   1.299   0.462   5.874
10652SOL     OW32854   4.785   7.015   0.357
10652SOL    HW132855   4.818   6.931   0.401
10652SOL    HW232856   4.773   0.067   0.427
10653SOL     OW32857   6.015   4.355   3.610
10653SOL    HW132858   5.958   4.434   3.632
10653SOL    HW232859   6.083   4.343   3.683
10654SOL     OW32860   5.296   0.246   1.649
10654SOL    HW132861   5.367   0.186   1.687
10654SOL    HW232862   5.211   0.195   1.642
10655SOL     OW32863   2.929   6.013   0.899
10655SOL    HW132864   2.993   5.938   0.882
10655SOL    HW232865   2.844   5.976   0.938
10656SOL     OW32866   0.359   3.381   5.969
10656SOL    HW132867   0.457   3.401   5.971
10656SOL    HW232868   0.329   3.351   6.059
10657SOL     OW32869   6.220   0.144   7.006
10657SOL    HW132870   6.266   0.145   6.917
10657SOL    HW232871   6.288   0.160   0.059
10658SOL     OW32872   0.131   6.022   3.640
10658SOL    HW132873   0.221   5.998   3.604
10658SOL    HW232874   0.082   5.939   3.666
10659SOL     OW32875   5.998   1.312   1.566
10659SOL    HW132876   6.030   1.224   1.531
10659SOL    HW232877   5.916   1.298   1.621
10660SOL     OW32878   4.209   5.180   4.788
10660SOL    HW132879   4.160   5.147   4.707
10660SOL    HW232880   4.163   5.148   4.871
10661SOL     OW32881   0.031   0.930   2.117
10661SOL    HW132882   0.074   0.900   2.033
10661SOL    HW232883   6.951   0.919   2.110
10662SOL     OW32884   0.413   2.431   0.470
10662SOL    HW132885   0.361   2.397   0.391
10662SOL    HW232886   0.501   2.384   0.475
10663SOL     OW32887   1.088   2.610   2.624
10663SOL    HW132888   1.133   2.521   2.615
10663SOL    HW232889   1.046   2.634   2.537
10664SOL     OW32890   2.049   5.400   6.452
10664SOL    HW132891   2.043   5.342   6.533
10664SOL    HW232892   2.115   5.362   6.388
10665SOL     OW32893   5.907   2.020   6.513
10665SOL    HW132894   5.869   2.031   6.605
10665SOL    HW232895   5.882   2.100   6.458
10666SOL     OW32896   0.154   6.088   0.658
10666SOL    HW132897   0.253   6.084   0.645
10666SOL    HW232898   0.108   6.086   0.569
10667SOL     OW32899   3.506   2.468   5.591
10667SOL    HW132900   3.416   2.500   5.619
10667SOL    HW232901   3.566   2.546   5.575
10668SOL     OW32902   1.420   6.763   6.534
10668SOL    HW132903   1.457   6.826   6.603
10668SOL    HW232904   1.475   6.680   6.532
10669SOL     OW32905   1.995   5.767   6.242
10669SOL    HW132906   2.070   5.725   6.293
10669SOL    HW232907   1.943   5.696   6.194
10670SOL     OW32908   5.835   4.151   5.582
10670SOL    HW132909   5.763   4.119   5.643
10670SOL    HW232910   5.817   4.246   5.557
10671SOL     OW32911   2.337   2.853   3.669
10671SOL    HW132912   2.299   2.919   3.604
10671SOL    HW232913   2.265   2.792   3.701
10672SOL     OW32914   6.715   2.558   0.737
10672SOL    HW132915   6.677   2.619   0.806
10672SOL    HW232916   6.724   2.608   0.651
10673SOL     OW32917   3.235   3.990   3.523
10673SOL    HW132918   3.307   4.021   3.461
10673SOL    HW232919   3.177   3.923   3.477
10674SOL     OW32920   3.905   1.520   2.679
10674SOL    HW132921   3.845   1.560   2.749
10674SOL    HW232922   3.983   1.580   2.662
10675SOL     OW32923   1.474   1.789   5.465
10675SOL    HW132924   1.531   1.867   5.440
10675SOL    HW232925   1.493   1.762   5.559
10676SOL     OW32926   6.314   0.693   6.869
10676SOL    HW132927   6.222   0.663   6.841
10676SOL    HW232928   6.369   0.712   6.788
10677SOL     OW32929   4.824   0.602   6.400
10677SOL    HW132930   4.810   0.647   6.312
10677SOL    HW232931   4.906   0.545   6.396
10678SOL     OW32932   2.385   5.607   3.915
10678SOL    HW132933   2.439   5.523   3.907
10678SOL    HW232934   2.309   5.591   3.978
10679SOL     OW32935   6.116   5.116   4.151
10679SOL    HW132936   6.095   5.209   4.181
10679SOL    HW232937   6.037   5.056   4.167
10680SOL     OW32938   0.200   2.394   3.378
10680SOL    HW132939   0.274   2.367   3.317
10680SOL    HW232940   0.234   2.399   3.472
10681SOL     OW32941   0.667   3.017   6.785
10681SOL    HW132942   0.744   2.991   6.726
10681SOL    HW232943   0.643   2.939   6.843
10682SOL     OW32944   6.429   2.336   3.629
10682SOL    HW132945   6.446   2.426   3.590
10682SOL    HW232946   6.488   2.269   3.583
10683SOL     OW32947   0.872   0.229   4.055
10683SOL    HW132948   0.882   0.327   4.038
10683SOL    HW232949   0.847   0.215   4.151
10684SOL     OW32950   5.102   6.271   0.817
10684SOL    HW132951   5.112   6.353   0.873
10684SOL    HW232952   5.058   6.294   0.731
10685SOL     OW32953   6.762   2.122   3.926
10685SOL    HW132954   6.769   2.064   3.845
10685SOL    HW232955   6.763   2.066   4.008
10686SOL     OW32956   5.680   4.137   1.537
10686SOL    HW132957   5.683   4.208   1.466
10686SOL    HW232958   5.721   4.053   1.501
10687SOL     OW32959   0.427   5.094   1.154
10687SOL    HW132960   0.507   5.101   1.213
10687SOL    HW232961   0.417   5.177   1.100
10688SOL     OW32962   1.811   5.229   1.303
10688SOL    HW132963   1.856   5.153   1.257
10688SOL    HW232964   1.777   5.294   1.235
10689SOL     OW32965   6.936   0.916   1.825
10689SOL    HW132966   6.964   1.008   1.854
10689SOL    HW232967   6.857   0.924   1.763
10690SOL     OW32968   3.842   0.482   2.744
10690SOL    HW132969   3.871   0.577   2.754
10690SOL    HW232970   3.904   0.423   2.797
10691SOL     OW32971   5.512   1.723   1.377
10691SOL    HW132972   5.602   1.733   1.419
10691SOL    HW232973   5.498   1.627   1.349
10692SOL     OW32974   5.673   6.485   3.929
10692SOL    HW132975   5.716   6.564   3.885
10692SOL    HW232976   5.609   6.517   3.999
10693SOL     OW32977   4.151   2.137   4.535
10693SOL    HW132978   4.115   2.227   4.510
10693SOL    HW232979   4.238   2.122   4.488
10694SOL     OW32980   3.160   6.567   0.162
10694SOL    HW132981   3.125   6.516   0.241
10694SOL    HW232982   3.259   6.576   0.170
10695SOL     OW32983   5.745   2.854   5.629
10695SOL    HW132984   5.653   2.887   5.608
10695SOL    HW232985   5.794   2.834   5.544
10696SOL     OW32986   6.715   0.711   0.994
10696SOL    HW132987   6.719   0.624   0.944
10696SOL    HW232988   6.675   0.782   0.935
10697SOL     OW32989   3.217   6.131   2.854
10697SOL    HW132990   3.132   6.183   2.861
10697SOL    HW232991   3.207   6.044   2.902
10698SOL     OW32992   3.836   6.948   3.599
10698SOL    HW132993   3.808   6.871   3.541
10698SOL    HW232994   3.758   6.977   3.655
10699SOL     OW32995   0.188   3.966   3.230
10699SOL    HW132996   0.113   4.013   3.185
10699SOL    HW232997   0.151   3.901   3.297
10700SOL     OW32998   0.240   2.735   3.392
10700SOL    HW132999   0.330   2.696   3.372
10700SOL    HW233000   0.169   2.681   3.347
10701SOL     OW33001   2.381   6.749   1.614
10701SOL    HW133002   2.383   6.849   1.611
10701SOL    HW233003   2.303   6.718   1.668
10702SOL     OW33004   4.835   1.743   1.259
10702SOL    HW133005   4.921   1.789   1.281
10702SOL    HW233006   4.766   1.810   1.234
10703SOL     OW33007   3.352   4.147   4.455
10703SOL    HW133008   3.420   4.153   4.527
10703SOL    HW233009   3.260   4.147   4.496
10704SOL     OW33010   5.325   5.179   1.265
10704SOL    HW133011   5.248   5.223   1.218
10704SOL    HW233012   5.392   5.148   1.197
10705SOL     OW33013   0.988   3.136   6.969
10705SOL    HW133014   0.974   3.041   6.997
10705SOL    HW233015   0.904   3.188   6.984
10706SOL     OW33016   2.969   3.497   0.294
10706SOL    HW133017   2.982   3.441   0.212
10706SOL    HW233018   3.025   3.461   0.368
10707SOL     OW33019   6.412   0.878   6.671
10707SOL    HW133020   6.442   0.805   6.610
10707SOL    HW233021   6.314   0.893   6.659
10708SOL     OW33022   4.389   3.372   1.359
10708SOL    HW133023   4.356   3.278   1.350
10708SOL    HW233024   4.336   3.419   1.429
10709SOL     OW33025   0.811   1.206   5.658
10709SOL    HW133026   0.759   1.125   5.686
10709SOL    HW233027   0.747   1.281   5.639
10710SOL     OW33028   6.665   6.761   3.653
10710SOL    HW133029   6.649   6.696   3.578
10710SOL    HW233030   6.668   6.711   3.740
10711SOL     OW33031   2.070   4.084   5.112
10711SOL    HW133032   2.073   4.158   5.179
10711SOL    HW233033   2.162   4.065   5.078
10712SOL     OW33034   3.833   2.139   5.639
10712SOL    HW133035   3.866   2.055   5.682
10712SOL    HW233036   3.838   2.214   5.705
10713SOL     OW33037   2.584   0.283   0.139
10713SOL    HW133038   2.578   0.248   0.232
10713SOL    HW233039   2.549   0.214   0.075
10714SOL     OW33040   5.036   5.437   4.509
10714SOL    HW133041   5.042   5.450   4.608
10714SOL    HW233042   5.043   5.525   4.463
10715SOL     OW33043   5.720   6.932   2.490
10715SOL    HW133044   5.797   6.951   2.429
10715SOL    HW233045   5.652   6.877   2.441
10716SOL     OW33046   6.514   2.085   2.814
10716SOL    HW133047   6.482   2.178   2.794
10716SOL    HW233048   6.521   2.073   2.913
10717SOL     OW33049   7.012   6.655   1.024
10717SOL    HW133050   0.062   6.726   1.008
10717SOL    HW233051   6.999   6.603   0.939
10718SOL     OW33052   0.882   4.661   5.365
10718SOL    HW133053   0.965   4.626   5.323
10718SOL    HW233054   0.831   4.585   5.405
10719SOL     OW33055   3.705   6.443   3.349
10719SOL    HW133056   3.649   6.389   3.412
10719SOL    HW233057   3.789   6.471   3.395
10720SOL     OW33058   1.587   3.345   5.935
10720SOL    HW133059   1.600   3.247   5.954
10720SOL    HW233060   1.675   3.391   5.938
10721SOL     OW33061   5.571   0.836   4.251
10721SOL    HW133062   5.527   0.925   4.247
10721SOL    HW233063   5.510   0.771   4.297
10722SOL     OW33064   0.544   5.142   0.828
10722SOL    HW133065   0.531   5.043   0.823
10722SOL    HW233066   0.462   5.185   0.867
10723SOL     OW33067   0.085   4.822   6.120
10723SOL    HW133068   0.178   4.827   6.156
10723SOL    HW233069   0.030   4.761   6.178
10724SOL     OW33070   3.788   6.613   5.578
10724SOL    HW133071   3.823   6.688   5.632
10724SOL    HW233072   3.705   6.641   5.530
10725SOL     OW33073   6.611   0.222   4.853
10725SOL    HW133074   6.645   0.316   4.858
10725SOL    HW233075   6.585   0.202   4.759
10726SOL     OW33076   6.843   0.672   3.646
10726SOL    HW133077   6.763   0.700   3.699
10726SOL    HW233078   6.846   0.573   3.638
10727SOL     OW33079   5.388   5.717   5.756
10727SOL    HW133080   5.334   5.744   5.836
10727SOL    HW233081   5.424   5.625   5.770
10728SOL     OW33082   5.155   5.799   4.716
10728SOL    HW133083   5.181   5.844   4.802
10728SOL    HW233084   5.056   5.803   4.704
10729SOL     OW33085   6.539   3.554   4.413
10729SOL    HW133086   6.593   3.566   4.496
10729SOL    HW233087   6.484   3.471   4.420
10730SOL     OW33088   0.750   6.183   4.218
10730SOL    HW133089   0.772   6.235   4.301
10730SOL    HW233090   0.687   6.236   4.161
10731SOL     OW33091   5.019   4.037   5.355
10731SOL    HW133092   4.963   4.090   5.291
10731SOL    HW233093   4.961   3.999   5.427
10732SOL     OW33094   5.494   5.778   2.135
10732SOL    HW133095   5.417   5.716   2.151
10732SOL    HW233096   5.490   5.853   2.201
10733SOL     OW33097   0.802   1.603   6.153
10733SOL    HW133098   0.793   1.596   6.054
10733SOL    HW233099   0.802   1.700   6.179
10734SOL     OW33100   0.447   1.073   4.367
10734SOL    HW133101   0.353   1.060   4.399
10734SOL    HW233102   0.499   1.123   4.437
10735SOL     OW33103   0.526   0.753   2.052
10735SOL    HW133104   0.530   0.785   1.958
10735SOL    HW233105   0.512   0.831   2.113
10736SOL     OW33106   5.502   5.900   4.447
10736SOL    HW133107   5.520   5.803   4.463
10736SOL    HW233108   5.403   5.915   4.444
10737SOL     OW33109   5.623   1.077   0.647
10737SOL    HW133110   5.714   1.071   0.605
10737SOL    HW233111   5.595   0.986   0.678
10738SOL     OW33112   0.838   6.501   2.479
10738SOL    HW133113   0.938   6.508   2.473
10738SOL    HW233114   0.804   6.448   2.402
10739SOL     OW33115   5.091   2.884   4.132
10739SOL    HW133116   5.107   2.823   4.210
10739SOL    HW233117   5.177   2.900   4.085
10740SOL     OW33118   3.183   1.020   6.433
10740SOL    HW133119   3.270   1.046   6.392
10740SOL    HW233120   3.145   1.099   6.482
10741SOL     OW33121   2.543   2.597   3.759
10741SOL    HW133122   2.476   2.570   3.828
10741SOL    HW233123   2.517   2.684   3.719
10742SOL     OW33124   6.991   0.029   2.438
10742SOL    HW133125   6.902   0.074   2.449
10742SOL    HW233126   0.037   0.068   2.503
10743SOL     OW33127   4.042   2.853   6.112
10743SOL    HW133128   4.082   2.772   6.157
10743SOL    HW233129   4.113   2.923   6.103
10744SOL     OW33130   1.519   1.374   0.836
10744SOL    HW133131   1.535   1.462   0.791
10744SOL    HW233132   1.483   1.308   0.770
10745SOL     OW33133   4.066   5.559   2.230
10745SOL    HW133134   4.128   5.551   2.309
10745SOL    HW233135   4.046   5.655   2.212
10746SOL     OW33136   2.631   5.424   5.251
10746SOL    HW133137   2.726   5.398   5.265
10746SOL    HW233138   2.574   5.383   5.322
10747SOL     OW33139   6.816   0.087   4.988
10747SOL    HW133140   6.807   0.121   5.082
10747SOL    HW233141   6.733   0.108   4.937
10748SOL     OW33142   3.671   6.060   2.071
10748SOL    HW133143   3.630   6.043   1.981
10748SOL    HW233144   3.770   6.051   2.065
10749SOL     OW33145   5.253   2.437   2.426
10749SOL    HW133146   5.175   2.376   2.412
10749SOL    HW233147   5.334   2.399   2.380
10750SOL     OW33148   3.597   1.906   4.049
10750SOL    HW133149   3.578   1.938   4.142
10750SOL    HW233150   3.559   1.814   4.037
10751SOL     OW33151   5.688   6.263   3.637
10751SOL    HW133152   5.628   6.187   3.660
10751SOL    HW233153   5.634   6.347   3.627
10752SOL     OW33154   6.904   6.158   6.438
10752SOL    HW133155   6.874   6.063   6.446
10752SOL    HW233156   6.999   6.166   6.470
10753SOL     OW33157   5.085   0.076   4.704
10753SOL    HW133158   5.092   0.003   4.636
10753SOL    HW233159   5.159   0.141   4.691
10754SOL     OW33160   6.351   5.733   1.621
10754SOL    HW133161   6.310   5.746   1.531
10754SOL    HW233162   6.285   5.692   1.683
10755SOL     OW33163   0.589   1.359   2.273
10755SOL    HW133164   0.583   1.452   2.237
10755SOL    HW233165   0.503   1.311   2.256
10756SOL     OW33166   0.885   6.605   0.050
10756SOL    HW133167   0.973   6.633   0.012
10756SOL    HW233168   0.817   6.676   0.033
10757SOL     OW33169   0.026   2.116   2.270
10757SOL    HW133170   6.993   2.073   2.196
10757SOL    HW233171   7.010   2.085   2.358
10758SOL     OW33172   0.267   1.485   1.204
10758SOL    HW133173   0.342   1.550   1.199
10758SOL    HW233174   0.270   1.438   1.292
10759SOL     OW33175   3.872   5.308   5.769
10759SOL    HW133176   3.796   5.359   5.810
10759SOL    HW233177   3.888   5.342   5.676
10760SOL     OW33178   1.291   4.800   6.463
10760SOL    HW133179   1.203   4.840   6.438
10760SOL    HW233180   1.303   4.803   6.562
10761SOL     OW33181   1.729   0.643   0.050
10761SOL    HW133182   1.680   0.680   0.129
10761SOL    HW233183   1.685   0.557   0.022
10762SOL     OW33184   1.518   5.559   0.969
10762SOL    HW133185   1.563   5.607   0.893
10762SOL    HW233186   1.508   5.462   0.946
10763SOL     OW33187   5.389   1.213   1.821
10763SOL    HW133188   5.405   1.288   1.758
10763SOL    HW233189   5.303   1.228   1.870
10764SOL     OW33190   5.113   6.900   4.042
10764SOL    HW133191   5.016   6.925   4.048
10764SOL    HW233192   5.121   6.801   4.030
10765SOL     OW33193   0.189   2.816   2.154
10765SOL    HW133194   0.124   2.754   2.197
10765SOL    HW233195   0.242   2.863   2.225
10766SOL     OW33196   3.461   5.613   6.736
10766SOL    HW133197   3.549   5.653   6.761
10766SOL    HW233198   3.393   5.638   6.805
10767SOL     OW33199   0.979   5.642   0.029
10767SOL    HW133200   0.991   5.740   0.040
10767SOL    HW233201   0.935   5.624   6.960
10768SOL     OW33202   6.377   6.381   6.744
10768SOL    HW133203   6.302   6.331   6.787
10768SOL    HW233204   6.414   6.327   6.668
10769SOL     OW33205   2.878   3.546   4.648
10769SOL    HW133206   2.841   3.454   4.636
10769SOL    HW233207   2.833   3.590   4.726
10770SOL     OW33208   4.696   0.563   4.425
10770SOL    HW133209   4.629   0.493   4.399
10770SOL    HW233210   4.788   0.522   4.424
10771SOL     OW33211   5.360   6.297   5.608
10771SOL    HW133212   5.352   6.339   5.517
10771SOL    HW233213   5.457   6.287   5.631
10772SOL     OW33214   4.927   3.401   4.109
10772SOL    HW133215   4.842   3.396   4.161
10772SOL    HW233216   4.964   3.309   4.096
10773SOL     OW33217   0.889   3.509   0.319
10773SOL    HW133218   0.948   3.488   0.241
10773SOL    HW233219   0.940   3.495   0.404
10774SOL     OW33220   6.674   2.824   1.208
10774SOL    HW133221   6.602   2.780   1.262
10774SOL    HW233222   6.654   2.922   1.201
10775SOL     OW33223   1.995   4.266   6.177
10775SOL    HW133224   1.995   4.365   6.190
10775SOL    HW233225   2.089   4.232   6.178
10776SOL     OW33226   0.325   3.887   3.652
10776SOL    HW133227   0.408   3.842   3.687
10776SOL    HW233228   0.332   3.896   3.552
10777SOL     OW33229   0.598   6.904   1.718
10777SOL    HW133230   0.684   6.904   1.666
10777SOL    HW233231   0.521   6.917   1.655
10778SOL     OW33232   4.917   6.608   3.304
10778SOL    HW133233   4.942   6.690   3.356
10778SOL    HW233234   4.826   6.621   3.264
10779SOL     OW33235   5.640   2.867   5.257
10779SOL    HW133236   5.705   2.810   5.307
10779SOL    HW233237   5.683   2.955   5.236
10780SOL     OW33238   0.875   5.768   4.644
10780SOL    HW133239   0.833   5.749   4.733
10780SOL    HW233240   0.816   5.731   4.571
10781SOL     OW33241   6.058   2.656   5.829
10781SOL    HW133242   6.006   2.572   5.813
10781SOL    HW233243   6.008   2.734   5.793
10782SOL     OW33244   1.835   3.353   4.858
10782SOL    HW133245   1.858   3.262   4.893
10782SOL    HW233246   1.739   3.372   4.876
10783SOL     OW33247   1.639   4.079   4.454
10783SOL    HW133248   1.579   4.158   4.436
10783SOL    HW233249   1.733   4.111   4.465
10784SOL     OW33250   4.703   5.716   3.565
10784SOL    HW133251   4.724   5.781   3.638
10784SOL    HW233252   4.787   5.690   3.518
10785SOL     OW33253   1.532   5.632   1.841
10785SOL    HW133254   1.583   5.550   1.867
10785SOL    HW233255   1.434   5.611   1.837
10786SOL     OW33256   4.885   1.213   2.450
10786SOL    HW133257   4.816   1.272   2.491
10786SOL    HW233258   4.948   1.181   2.521
10787SOL     OW33259   3.206   1.221   3.671
10787SOL    HW133260   3.212   1.287   3.596
10787SOL    HW233261   3.268   1.249   3.744
10788SOL     OW33262   1.453   2.697   6.683
10788SOL    HW133263   1.367   2.742   6.658
10788SOL    HW233264   1.457   2.686   6.782
10789SOL     OW33265   0.178   2.690   2.679
10789SOL    HW133266   0.193   2.598   2.715
10789SOL    HW233267   0.209   2.694   2.584
10790SOL     OW33268   6.760   3.576   4.604
10790SOL    HW133269   6.721   3.542   4.689
10790SOL    HW233270   6.817   3.505   4.563
10791SOL     OW33271   2.194   2.921   3.351
10791SOL    HW133272   2.099   2.897   3.336
10791SOL    HW233273   2.200   2.991   3.423
10792SOL     OW33274   3.028   1.008   1.844
10792SOL    HW133275   2.938   1.047   1.866
10792SOL    HW233276   3.028   0.973   1.751
10793SOL     OW33277   3.830   2.146   3.241
10793SOL    HW133278   3.848   2.114   3.334
10793SOL    HW233279   3.916   2.147   3.189
10794SOL     OW33280   5.025   2.955   0.119
10794SOL    HW133281   5.070   2.870   0.093
10794SOL    HW233282   5.036   3.022   0.046
10795SOL     OW33283   6.191   2.494   3.475
10795SOL    HW133284   6.153   2.438   3.549
10795SOL    HW233285   6.195   2.440   3.391
10796SOL     OW33286   6.972   2.102   6.870
10796SOL    HW133287   6.968   2.194   6.909
10796SOL    HW233288   6.992   2.108   6.772
10797SOL     OW33289   5.754   4.737   6.783
10797SOL    HW133290   5.831   4.740   6.847
10797SOL    HW233291   5.772   4.798   6.707
10798SOL     OW33292   2.784   5.784   0.601
10798SOL    HW133293   2.776   5.880   0.575
10798SOL    HW233294   2.865   5.745   0.557
10799SOL     OW33295   2.053   0.734   2.871
10799SOL    HW133296   2.100   0.655   2.909
10799SOL    HW233297   2.014   0.710   2.782
10800SOL     OW33298   1.131   0.392   5.366
10800SOL    HW133299   1.202   0.442   5.416
10800SOL    HW233300   1.137   0.295   5.390
10801SOL     OW33301   2.686   6.476   6.724
10801SOL    HW133302   2.735   6.397   6.761
10801SOL    HW233303   2.690   6.552   6.789
10802SOL     OW33304   1.346   5.079   3.237
10802SOL    HW133305   1.312   4.987   3.219
10802SOL    HW233306   1.441   5.074   3.268
10803SOL     OW33307   0.435   4.246   4.550
10803SOL    HW133308   0.426   4.341   4.577
10803SOL    HW233309   0.521   4.209   4.585
10804SOL     OW33310   5.283   5.354   5.916
10804SOL    HW133311   5.361   5.396   5.870
10804SOL    HW233312   5.274   5.259   5.889
10805SOL     OW33313   5.960   5.497   6.506
10805SOL    HW133314   5.984   5.520   6.600
10805SOL    HW233315   5.977   5.576   6.447
10806SOL     OW33316   6.623   3.087   5.062
10806SOL    HW133317   6.705   3.050   5.018
10806SOL    HW233318   6.644   3.107   5.158
10807SOL     OW33319   4.206   2.793   5.345
10807SOL    HW133320   4.155   2.721   5.299
10807SOL    HW233321   4.143   2.859   5.385
10808SOL     OW33322   0.498   2.312   0.955
10808SOL    HW133323   0.444   2.345   0.877
10808SOL    HW233324   0.456   2.344   1.040
10809SOL     OW33325   0.720   0.474   3.538
10809SOL    HW133326   0.772   0.545   3.586
10809SOL    HW233327   0.647   0.442   3.597
10810SOL     OW33328   2.015   1.740   6.435
10810SOL    HW133329   1.956   1.680   6.381
10810SOL    HW233330   2.102   1.753   6.387
10811SOL     OW33331   4.555   4.867   6.034
10811SOL    HW133332   4.505   4.948   6.065
10811SOL    HW233333   4.505   4.823   5.960
10812SOL     OW33334   6.526   3.148   2.128
10812SOL    HW133335   6.595   3.085   2.164
10812SOL    HW233336   6.469   3.100   2.061
10813SOL     OW33337   2.808   5.882   2.226
10813SOL    HW133338   2.808   5.980   2.246
10813SOL    HW233339   2.780   5.831   2.308
10814SOL     OW33340   2.080   5.937   4.332
10814SOL    HW133341   2.130   5.861   4.373
10814SOL    HW233342   1.993   5.948   4.379
10815SOL     OW33343   5.509   2.801   6.103
10815SOL    HW133344   5.494   2.887   6.055
10815SOL    HW233345   5.448   2.731   6.066
10816SOL     OW33346   2.103   2.668   1.214
10816SOL    HW133347   2.111   2.591   1.276
10816SOL    HW233348   2.093   2.635   1.120
10817SOL     OW33349   3.770   1.368   1.902
10817SOL    HW133350   3.804   1.451   1.859
10817SOL    HW233351   3.837   1.295   1.889
10818SOL     OW33352   4.441   3.598   5.754
10818SOL    HW133353   4.351   3.567   5.786
10818SOL    HW233354   4.435   3.626   5.659
10819SOL     OW33355   2.101   3.422   4.856
10819SOL    HW133356   2.006   3.391   4.863
10819SOL    HW233357   2.162   3.344   4.848
10820SOL     OW33358   0.478   6.020   4.954
10820SOL    HW133359   0.386   6.006   4.917
10820SOL    HW233360   0.473   6.036   5.052
10821SOL     OW33361   0.085   0.727   6.188
10821SOL    HW133362   0.065   0.659   6.259
10821SOL    HW233363   0.155   0.691   6.127
10822SOL     OW33364   0.108   5.404   6.020
10822SOL    HW133365   0.128   5.489   6.070
10822SOL    HW233366   0.173   5.394   5.945
10823SOL     OW33367   2.701   2.265   0.423
10823SOL    HW133368   2.639   2.343   0.423
10823SOL    HW233369   2.752   2.262   0.337
10824SOL     OW33370   5.063   1.551   4.532
10824SOL    HW133371   5.042   1.640   4.573
10824SOL    HW233372   5.160   1.545   4.512
10825SOL     OW33373   4.125   1.800   2.188
10825SOL    HW133374   4.054   1.804   2.257
10825SOL    HW233375   4.209   1.763   2.228
10826SOL     OW33376   0.210   3.560   0.619
10826SOL    HW133377   0.303   3.525   0.614
10826SOL    HW233378   0.183   3.597   0.530
10827SOL     OW33379   0.156   3.697   4.647
10827SOL    HW133380   0.253   3.720   4.655
10827SOL    HW233381   0.143   3.599   4.665
10828SOL     OW33382   3.261   4.571   6.960
10828SOL    HW133383   3.251   4.547   0.038
10828SOL    HW233384   3.357   4.562   6.933
10829SOL     OW33385   1.791   3.784   1.208
10829SOL    HW133386   1.814   3.807   1.113
10829SOL    HW233387   1.817   3.690   1.226
10830SOL     OW33388   6.540   0.722   3.669
10830SOL    HW133389   6.602   0.693   3.596
10830SOL    HW233390   6.497   0.809   3.643
10831SOL     OW33391   5.221   3.140   2.388
10831SOL    HW133392   5.166   3.057   2.374
10831SOL    HW233393   5.288   3.123   2.461
10832SOL     OW33394   1.679   2.706   2.425
10832SOL    HW133395   1.692   2.702   2.524
10832SOL    HW233396   1.581   2.716   2.404
10833SOL     OW33397   3.305   0.348   5.066
10833SOL    HW133398   3.221   0.314   5.107
10833SOL    HW233399   3.298   0.341   4.966
10834SOL     OW33400   6.549   2.353   5.792
10834SOL    HW133401   6.471   2.366   5.853
10834SOL    HW233402   6.549   2.425   5.722
10835SOL     OW33403   0.609   1.022   0.867
10835SOL    HW133404   0.701   1.048   0.838
10835SOL    HW233405   0.561   0.979   0.790
10836SOL     OW33406   6.998   0.958   1.421
10836SOL    HW133407   6.955   0.952   1.511
10836SOL    HW233408   6.929   0.941   1.351
10837SOL     OW33409   1.559   4.971   0.636
10837SOL    HW133410   1.656   4.944   0.637
10837SOL    HW233411   1.506   4.904   0.688
10838SOL     OW33412   6.216   6.472   1.027
10838SOL    HW133413   6.305   6.472   0.980
10838SOL    HW233414   6.227   6.506   1.120
10839SOL     OW33415   2.604   1.195   6.537
10839SOL    HW133416   2.536   1.209   6.465
10839SOL    HW233417   2.565   1.139   6.610
10840SOL     OW33418   0.832   0.677   3.720
10840SOL    HW133419   0.893   0.746   3.757
10840SOL    HW233420   0.750   0.670   3.777
10841SOL     OW33421   4.396   4.198   6.880
10841SOL    HW133422   4.416   4.285   6.835
10841SOL    HW233423   4.393   4.212   6.979
10842SOL     OW33424   6.070   1.806   2.537
10842SOL    HW133425   6.030   1.721   2.573
10842SOL    HW233426   6.116   1.787   2.450
10843SOL     OW33427   1.050   2.325   1.518
10843SOL    HW133428   1.148   2.342   1.522
10843SOL    HW233429   1.016   2.306   1.610
10844SOL     OW33430   4.337   6.294   3.350
10844SOL    HW133431   4.360   6.254   3.438
10844SOL    HW233432   4.279   6.374   3.363
10845SOL     OW33433   2.515   3.625   1.064
10845SOL    HW133434   2.578   3.576   1.125
10845SOL    HW233435   2.421   3.611   1.095
10846SOL     OW33436   3.015   1.711   2.152
10846SOL    HW133437   3.081   1.778   2.119
10846SOL    HW233438   3.061   1.648   2.215
10847SOL     OW33439   5.354   2.116   4.847
10847SOL    HW133440   5.333   2.021   4.823
10847SOL    HW233441   5.317   2.137   4.937
10848SOL     OW33442   2.260   0.220   6.255
10848SOL    HW133443   2.272   0.155   6.181
10848SOL    HW233444   2.285   0.177   6.342
10849SOL     OW33445   0.736   4.785   5.031
10849SOL    HW133446   0.729   4.850   5.107
10849SOL    HW233447   0.644   4.760   5.000
10850SOL     OW33448   6.237   1.129   3.487
10850SOL    HW133449   6.212   1.066   3.414
10850SOL    HW233450   6.156   1.148   3.543
10851SOL     OW33451   5.237   2.988   0.530
10851SOL    HW133452   5.177   2.975   0.609
10851SOL    HW233453   5.255   2.899   0.487
10852SOL     OW33454   6.083   1.859   5.771
10852SOL    HW133455   6.012   1.922   5.802
10852SOL    HW233456   6.105   1.878   5.675
10853SOL     OW33457   1.143   6.847   5.445
10853SOL    HW133458   1.173   6.782   5.515
10853SOL    HW233459   1.045   6.864   5.455
10854SOL     OW33460   5.704   6.431   6.980
10854SOL    HW133461   5.724   6.525   7.007
10854SOL    HW233462   5.766   6.403   6.907
10855SOL     OW33463   0.469   6.248   6.835
10855SOL    HW133464   0.450   6.161   6.880
10855SOL    HW233465   0.498   6.315   6.904
10856SOL     OW33466   4.132   0.256   6.641
10856SOL    HW133467   4.198   0.331   6.636
10856SOL    HW233468   4.175   0.177   6.683
10857SOL     OW33469   5.959   6.637   4.653
10857SOL    HW133470   5.888   6.691   4.698
10857SOL    HW233471   5.954   6.542   4.684
10858SOL     OW33472   1.687   2.562   1.258
10858SOL    HW133473   1.737   2.475   1.257
10858SOL    HW233474   1.752   2.638   1.251
10859SOL     OW33475   2.253   4.961   2.374
10859SOL    HW133476   2.345   4.929   2.348
10859SOL    HW233477   2.220   4.908   2.451
10860SOL     OW33478   5.635   1.309   2.456
10860SOL    HW133479   5.547   1.317   2.504
10860SOL    HW233480   5.691   1.239   2.500
10861SOL     OW33481   2.753   4.750   1.190
10861SOL    HW133482   2.763   4.707   1.100
10861SOL    HW233483   2.803   4.697   1.258
10862SOL     OW33484   3.582   4.627   5.598
10862SOL    HW133485   3.484   4.615   5.608
10862SOL    HW233486   3.610   4.714   5.639
10863SOL     OW33487   0.345   0.405   4.451
10863SOL    HW133488   0.317   0.312   4.427
10863SOL    HW233489   0.276   0.447   4.509
10864SOL     OW33490   2.938   3.328   2.427
10864SOL    HW133491   2.925   3.305   2.330
10864SOL    HW233492   2.916   3.248   2.483
10865SOL     OW33493   3.665   2.060   2.495
10865SOL    HW133494   3.734   2.021   2.556
10865SOL    HW233495   3.711   2.110   2.421
10866SOL     OW33496   0.454   3.591   4.988
10866SOL    HW133497   0.514   3.574   5.066
10866SOL    HW233498   0.360   3.604   5.021
10867SOL     OW33499   5.368   3.263   0.381
10867SOL    HW133500   5.450   3.218   0.346
10867SOL    HW233501   5.305   3.194   0.417
10868SOL     OW33502   6.741   0.658   5.937
10868SOL    HW133503   6.688   0.577   5.959
10868SOL    HW233504   6.749   0.667   5.838
10869NA      NA33505   6.772   1.555   0.229
10870NA      NA33506   5.047   4.684   4.780
10871NA      NA33507   1.448   4.674   2.766
10872NA      NA33508   6.446   3.692   3.663
10873NA      NA33509   4.197   2.377   5.328
10874NA      NA33510   2.628   3.576   6.820
10875NA      NA33511   1.440   5.292   0.477
10876NA      NA33512   4.312   4.802   1.873
10877NA      NA33513   5.553   3.679   1.204
10878NA      NA33514   3.662   1.903   0.769
10879NA      NA33515   4.899   5.977   1.300
10880NA      NA33516   2.640   6.378   4.108
10881NA      NA33517   3.595   5.889   2.833
10882NA      NA33518   4.589   5.069   5.501
   7.01883   7.01883   7.01883
