Generated by trjconv : CNT in water t= 359.00000
33518
    1C        C    1   2.846   2.775   4.749
    1C        C    2   2.899   2.726   4.870
    1C        C    3   2.838   2.773   4.987
    1C        C    4   2.851   2.781   4.261
    1C        C    5   2.902   2.731   4.383
    1C        C    6   2.845   2.775   4.505
    1C        C    7   3.014   2.645   4.627
    1C        C    8   2.899   2.728   4.627
    1C        C    9   3.077   2.610   4.748
    1C        C   10   3.012   2.642   4.869
    1C        C   11   3.185   2.500   4.978
    1C        C   12   3.058   2.558   4.972
    1C        C   13   2.853   2.777   3.774
    1C        C   14   2.900   2.725   3.897
    1C        C   15   2.848   2.778   4.017
    1C        C   16   3.018   2.650   4.137
    1C        C   17   2.902   2.732   4.139
    1C        C   18   3.083   2.622   4.259
    1C        C   19   3.021   2.655   4.382
    1C        C   20   3.209   2.562   4.505
    1C        C   21   3.079   2.615   4.505
    1C        C   22   3.278   2.538   4.626
    1C        C   23   3.208   2.554   4.748
    1C        C   24   3.414   2.482   4.866
    1C        C   25   3.273   2.508   4.866
    1C        C   26   3.491   2.482   4.984
    1C        C   27   2.859   2.778   3.284
    1C        C   28   2.912   2.734   3.407
    1C        C   29   2.855   2.778   3.529
    1C        C   30   3.020   2.648   3.651
    1C        C   31   2.905   2.729   3.652
    1C        C   32   3.082   2.614   3.774
    1C        C   33   3.019   2.648   3.896
    1C        C   34   3.210   2.553   4.019
    1C        C   35   3.080   2.609   4.017
    1C        C   36   3.278   2.537   4.142
    1C        C   37   3.212   2.565   4.264
    1C        C   38   3.419   2.509   4.384
    1C        C   39   3.282   2.544   4.385
    1C        C   40   3.489   2.501   4.506
    1C        C   41   3.414   2.502   4.626
    1C        C   42   3.630   2.480   4.747
    1C        C   43   3.488   2.481   4.745
    1C        C   44   3.704   2.491   4.867
    1C        C   45   3.630   2.478   4.985
    1C        C   46   2.842   2.763   2.796
    1C        C   47   2.899   2.716   2.917
    1C        C   48   2.847   2.767   3.038
    1C        C   49   3.020   2.646   3.163
    1C        C   50   2.903   2.725   3.161
    1C        C   51   3.086   2.613   3.284
    1C        C   52   3.025   2.648   3.407
    1C        C   53   3.210   2.551   3.530
    1C        C   54   3.081   2.609   3.530
    1C        C   55   3.279   2.533   3.652
    1C        C   56   3.212   2.557   3.774
    1C        C   57   3.417   2.506   3.896
    1C        C   58   3.278   2.534   3.897
    1C        C   59   3.487   2.497   4.019
    1C        C   60   3.416   2.507   4.140
    1C        C   61   3.629   2.508   4.261
    1C        C   62   3.488   2.498   4.261
    1C        C   63   3.701   2.512   4.382
    1C        C   64   3.630   2.504   4.504
    1C        C   65   3.835   2.544   4.626
    1C        C   66   3.701   2.498   4.626
    1C        C   67   3.904   2.564   4.747
    1C        C   68   3.840   2.529   4.868
    1C        C   69   4.053   2.590   4.981
    1C        C   70   3.924   2.537   4.980
    1C        C   71   2.827   2.738   2.312
    1C        C   72   2.891   2.700   2.432
    1C        C   73   2.838   2.752   2.552
    1C        C   74   3.010   2.632   2.678
    1C        C   75   2.893   2.710   2.676
    1C        C   76   3.077   2.602   2.799
    1C        C   77   3.015   2.636   2.921
    1C        C   78   3.213   2.554   3.040
    1C        C   79   3.081   2.605   3.042
    1C        C   80   3.280   2.533   3.162
    1C        C   81   3.213   2.552   3.286
    1C        C   82   3.416   2.496   3.406
    1C        C   83   3.279   2.529   3.409
    1C        C   84   3.486   2.497   3.528
    1C        C   85   3.418   2.510   3.651
    1C        C   86   3.629   2.504   3.770
    1C        C   87   3.488   2.504   3.774
    1C        C   88   3.698   2.512   3.893
    1C        C   89   3.628   2.499   4.016
    1C        C   90   3.834   2.550   4.139
    1C        C   91   3.697   2.516   4.138
    1C        C   92   3.904   2.572   4.260
    1C        C   93   3.838   2.547   4.382
    1C        C   94   4.029   2.636   4.501
    1C        C   95   3.902   2.574   4.505
    1C        C   96   4.089   2.675   4.623
    1C        C   97   4.029   2.631   4.743
    1C        C   98   4.196   2.764   4.863
    1C        C   99   4.097   2.660   4.864
    1C        C  100   4.212   2.846   4.975
    1C        C  101   2.818   2.730   2.074
    1C        C  102   2.992   2.597   2.193
    1C        C  103   2.875   2.679   2.192
    1C        C  104   3.067   2.579   2.313
    1C        C  105   3.009   2.622   2.434
    1C        C  106   3.205   2.544   2.555
    1C        C  107   3.073   2.593   2.557
    1C        C  108   3.275   2.523   2.676
    1C        C  109   3.205   2.542   2.797
    1C        C  110   3.414   2.495   2.916
    1C        C  111   3.275   2.520   2.918
    1C        C  112   3.485   2.491   3.038
    1C        C  113   3.418   2.501   3.161
    1C        C  114   3.629   2.500   3.282
    1C        C  115   3.488   2.492   3.284
    1C        C  116   3.697   2.512   3.405
    1C        C  117   3.628   2.502   3.527
    1C        C  118   3.836   2.546   3.649
    1C        C  119   3.701   2.506   3.648
    1C        C  120   3.900   2.572   3.772
    1C        C  121   3.835   2.546   3.894
    1C        C  122   4.026   2.638   4.010
    1C        C  123   3.899   2.577   4.016
    1C        C  124   4.086   2.674   4.133
    1C        C  125   4.031   2.634   4.257
    1C        C  126   4.198   2.765   4.377
    1C        C  127   4.092   2.672   4.379
    1C        C  128   4.241   2.823   4.499
    1C        C  129   4.191   2.773   4.621
    1C        C  130   4.325   2.938   4.743
    1C        C  131   4.248   2.818   4.742
    1C        C  132   4.356   3.005   4.863
    1C        C  133   4.281   2.967   4.975
    1C        C  134   3.175   2.469   2.086
    1C        C  135   3.042   2.512   2.089
    1C        C  136   3.261   2.479   2.196
    1C        C  137   3.196   2.521   2.314
    1C        C  138   3.408   2.481   2.428
    1C        C  139   3.269   2.506   2.435
    1C        C  140   3.481   2.478   2.548
    1C        C  141   3.413   2.492   2.672
    1C        C  142   3.625   2.489   2.793
    1C        C  143   3.484   2.488   2.794
    1C        C  144   3.697   2.497   2.914
    1C        C  145   3.627   2.489   3.036
    1C        C  146   3.831   2.542   3.156
    1C        C  147   3.697   2.499   3.158
    1C        C  148   3.900   2.567   3.277
    1C        C  149   3.835   2.543   3.400
    1C        C  150   4.025   2.630   3.522
    1C        C  151   3.899   2.567   3.524
    1C        C  152   4.084   2.673   3.642
    1C        C  153   4.025   2.638   3.766
    1C        C  154   4.195   2.764   3.890
    1C        C  155   4.086   2.675   3.888
    1C        C  156   4.246   2.813   4.013
    1C        C  157   4.196   2.763   4.135
    1C        C  158   4.339   2.923   4.257
    1C        C  159   4.251   2.813   4.255
    1C        C  160   4.379   2.985   4.378
    1C        C  161   4.333   2.930   4.500
    1C        C  162   4.439   3.116   4.616
    1C        C  163   4.370   2.993   4.621
    1C        C  164   4.468   3.184   4.737
    1C        C  165   4.431   3.124   4.859
    1C        C  166   4.517   3.320   4.977
    1C        C  167   4.483   3.185   4.974
    1C        C  168   3.478   2.444   2.074
    1C        C  169   3.401   2.458   2.190
    1C        C  170   3.621   2.472   2.308
    1C        C  171   3.479   2.462   2.307
    1C        C  172   3.693   2.491   2.428
    1C        C  173   3.622   2.482   2.550
    1C        C  174   3.829   2.540   2.666
    1C        C  175   3.695   2.495   2.670
    1C        C  176   3.895   2.567   2.788
    1C        C  177   3.832   2.540   2.911
    1C        C  178   4.027   2.622   3.032
    1C        C  179   3.901   2.559   3.033
    1C        C  180   4.086   2.664   3.153
    1C        C  181   4.026   2.631   3.276
    1C        C  182   4.194   2.757   3.400
    1C        C  183   4.086   2.666   3.399
    1C        C  184   4.246   2.807   3.521
    1C        C  185   4.197   2.759   3.645
    1C        C  186   4.332   2.923   3.768
    1C        C  187   4.246   2.811   3.767
    1C        C  188   4.377   2.979   3.889
    1C        C  189   4.334   2.923   4.012
    1C        C  190   4.445   3.105   4.133
    1C        C  191   4.375   2.982   4.134
    1C        C  192   4.477   3.173   4.252
    1C        C  193   4.444   3.110   4.375
    1C        C  194   4.508   3.317   4.495
    1C        C  195   4.469   3.181   4.494
    1C        C  196   4.523   3.387   4.617
    1C        C  197   4.517   3.318   4.739
    1C        C  198   4.561   3.534   4.853
    1C        C  199   4.532   3.393   4.859
    1C        C  200   4.586   3.617   4.966
    1C        C  201   3.616   2.422   2.073
    1C        C  202   3.829   2.511   2.184
    1C        C  203   3.693   2.466   2.186
    1C        C  204   3.899   2.545   2.303
    1C        C  205   3.830   2.525   2.425
    1C        C  206   4.022   2.624   2.542
    1C        C  207   3.898   2.557   2.544
    1C        C  208   4.085   2.653   2.666
    1C        C  209   4.026   2.620   2.790
    1C        C  210   4.197   2.750   2.909
    1C        C  211   4.089   2.659   2.910
    1C        C  212   4.250   2.799   3.030
    1C        C  213   4.195   2.754   3.152
    1C        C  214   4.330   2.915   3.274
    1C        C  215   4.243   2.803   3.275
    1C        C  216   4.370   2.973   3.396
    1C        C  217   4.333   2.918   3.521
    1C        C  218   4.435   3.104   3.643
    1C        C  219   4.374   2.976   3.644
    1C        C  220   4.463   3.171   3.764
    1C        C  221   4.442   3.104   3.886
    1C        C  222   4.503   3.306   4.007
    1C        C  223   4.469   3.168   4.009
    1C        C  224   4.514   3.381   4.126
    1C        C  225   4.507   3.311   4.249
    1C        C  226   4.526   3.523   4.368
    1C        C  227   4.520   3.382   4.371
    1C        C  228   4.519   3.595   4.489
    1C        C  229   4.532   3.528   4.613
    1C        C  230   4.504   3.742   4.728
    1C        C  231   4.541   3.605   4.731
    1C        C  232   4.491   3.816   4.848
    1C        C  233   4.547   3.751   4.959
    1C        C  234   4.018   2.613   2.063
    1C        C  235   3.893   2.552   2.067
    1C        C  236   4.085   2.651   2.181
    1C        C  237   4.028   2.605   2.302
    1C        C  238   4.206   2.732   2.422
    1C        C  239   4.087   2.654   2.420
    1C        C  240   4.255   2.784   2.544
    1C        C  241   4.194   2.742   2.665
    1C        C  242   4.340   2.902   2.785
    1C        C  243   4.244   2.798   2.784
    1C        C  244   4.383   2.960   2.907
    1C        C  245   4.342   2.907   3.031
    1C        C  246   4.440   3.096   3.149
    1C        C  247   4.372   2.972   3.152
    1C        C  248   4.459   3.162   3.273
    1C        C  249   4.433   3.099   3.396
    1C        C  250   4.497   3.302   3.518
    1C        C  251   4.454   3.168   3.518
    1C        C  252   4.508   3.374   3.639
    1C        C  253   4.503   3.307   3.763
    1C        C  254   4.522   3.518   3.882
    1C        C  255   4.517   3.376   3.885
    1C        C  256   4.520   3.593   4.001
    1C        C  257   4.526   3.521   4.122
    1C        C  258   4.497   3.732   4.245
    1C        C  259   4.520   3.592   4.245
    1C        C  260   4.478   3.803   4.366
    1C        C  261   4.491   3.733   4.488
    1C        C  262   4.425   3.940   4.604
    1C        C  263   4.482   3.811   4.606
    1C        C  264   4.398   4.008   4.724
    1C        C  265   4.433   3.945   4.846
    1C        C  266   4.316   4.130   4.961
    1C        C  267   4.390   4.012   4.961
    1C        C  268   4.265   2.778   2.065
    1C        C  269   4.198   2.735   2.180
    1C        C  270   4.348   2.891   2.305
    1C        C  271   4.258   2.781   2.300
    1C        C  272   4.390   2.953   2.424
    1C        C  273   4.349   2.889   2.543
    1C        C  274   4.448   3.081   2.661
    1C        C  275   4.387   2.954   2.663
    1C        C  276   4.473   3.151   2.781
    1C        C  277   4.443   3.088   2.904
    1C        C  278   4.506   3.293   3.026
    1C        C  279   4.470   3.156   3.025
    1C        C  280   4.511   3.367   3.146
    1C        C  281   4.498   3.298   3.269
    1C        C  282   4.511   3.508   3.391
    1C        C  283   4.504   3.367   3.392
    1C        C  284   4.514   3.582   3.511
    1C        C  285   4.513   3.515   3.636
    1C        C  286   4.495   3.725   3.753
    1C        C  287   4.514   3.585   3.758
    1C        C  288   4.477   3.794   3.875
    1C        C  289   4.497   3.733   4.001
    1C        C  290   4.425   3.931   4.117
    1C        C  291   4.479   3.801   4.123
    1C        C  292   4.393   3.996   4.239
    1C        C  293   4.424   3.933   4.361
    1C        C  294   4.326   4.126   4.481
    1C        C  295   4.392   4.001   4.481
    1C        C  296   4.283   4.187   4.601
    1C        C  297   4.330   4.133   4.723
    1C        C  298   4.198   4.311   4.844
    1C        C  299   4.283   4.196   4.842
    1C        C  300   4.174   4.406   4.948
    1C        C  301   4.351   2.886   2.064
    1C        C  302   4.466   3.071   2.178
    1C        C  303   4.395   2.947   2.183
    1C        C  304   4.486   3.145   2.298
    1C        C  305   4.453   3.079   2.418
    1C        C  306   4.508   3.286   2.538
    1C        C  307   4.476   3.149   2.540
    1C        C  308   4.521   3.358   2.659
    1C        C  309   4.507   3.288   2.782
    1C        C  310   4.529   3.501   2.900
    1C        C  311   4.521   3.359   2.903
    1C        C  312   4.520   3.574   3.020
    1C        C  313   4.516   3.508   3.145
    1C        C  314   4.486   3.717   3.266
    1C        C  315   4.508   3.578   3.268
    1C        C  316   4.473   3.789   3.387
    1C        C  317   4.489   3.721   3.510
    1C        C  318   4.431   3.928   3.629
    1C        C  319   4.477   3.794   3.630
    1C        C  320   4.397   3.991   3.751
    1C        C  321   4.425   3.925   3.873
    1C        C  322   4.320   4.112   3.994
    1C        C  323   4.397   3.994   3.994
    1C        C  324   4.276   4.170   4.115
    1C        C  325   4.318   4.116   4.238
    1C        C  326   4.188   4.287   4.358
    1C        C  327   4.280   4.179   4.358
    1C        C  328   4.141   4.344   4.478
    1C        C  329   4.188   4.292   4.600
    1C        C  330   4.028   4.437   4.715
    1C        C  331   4.139   4.349   4.720
    1C        C  332   3.972   4.492   4.832
    1C        C  333   4.057   4.483   4.943
    1C        C  334   4.553   3.269   2.063
    1C        C  335   4.529   3.131   2.064
    1C        C  336   4.545   3.352   2.176
    1C        C  337   4.525   3.282   2.297
    1C        C  338   4.536   3.497   2.417
    1C        C  339   4.524   3.356   2.417
    1C        C  340   4.524   3.573   2.536
    1C        C  341   4.527   3.499   2.656
    1C        C  342   4.495   3.710   2.777
    1C        C  343   4.519   3.571   2.778
    1C        C  344   4.474   3.782   2.897
    1C        C  345   4.488   3.712   3.018
    1C        C  346   4.429   3.915   3.140
    1C        C  347   4.474   3.781   3.140
    1C        C  348   4.397   3.982   3.260
    1C        C  349   4.427   3.922   3.384
    1C        C  350   4.317   4.104   3.504
    1C        C  351   4.398   3.988   3.506
    1C        C  352   4.271   4.159   3.626
    1C        C  353   4.316   4.107   3.749
    1C        C  354   4.173   4.264   3.868
    1C        C  355   4.274   4.166   3.871
    1C        C  356   4.123   4.314   3.991
    1C        C  357   4.177   4.271   4.114
    1C        C  358   4.009   4.398   4.233
    1C        C  359   4.130   4.326   4.235
    1C        C  360   3.955   4.448   4.354
    1C        C  361   4.022   4.421   4.475
    1C        C  362   3.829   4.518   4.597
    1C        C  363   3.961   4.468   4.594
    1C        C  364   3.765   4.549   4.719
    1C        C  365   3.841   4.545   4.838
    1C        C  366   3.628   4.595   4.953
    1C        C  367   3.765   4.570   4.953
    1C        C  368   4.520   3.567   2.057
    1C        C  369   4.530   3.492   2.175
    1C        C  370   4.508   3.706   2.290
    1C        C  371   4.532   3.567   2.295
    1C        C  372   4.488   3.781   2.409
    1C        C  373   4.503   3.712   2.531
    1C        C  374   4.429   3.910   2.652
    1C        C  375   4.480   3.779   2.654
    1C        C  376   4.392   3.974   2.773
    1C        C  377   4.426   3.915   2.897
    1C        C  378   4.321   4.100   3.014
    1C        C  379   4.398   3.981   3.018
    1C        C  380   4.274   4.155   3.135
    1C        C  381   4.317   4.099   3.257
    1C        C  382   4.176   4.257   3.379
    1C        C  383   4.276   4.157   3.379
    1C        C  384   4.122   4.306   3.500
    1C        C  385   4.175   4.262   3.624
    1C        C  386   4.006   4.391   3.745
    1C        C  387   4.122   4.311   3.745
    1C        C  388   3.945   4.428   3.867
    1C        C  389   4.011   4.400   3.988
    1C        C  390   3.820   4.491   4.111
    1C        C  391   3.950   4.437   4.111
    1C        C  392   3.752   4.514   4.232
    1C        C  393   3.824   4.501   4.353
    1C        C  394   3.619   4.548   4.476
    1C        C  395   3.759   4.531   4.475
    1C        C  396   3.550   4.562   4.599
    1C        C  397   3.626   4.571   4.718
    1C        C  398   3.411   4.559   4.844
    1C        C  399   3.550   4.583   4.837
    1C        C  400   3.344   4.520   4.961
    1C        C  401   4.503   3.705   2.053
    1C        C  402   4.462   3.917   2.169
    1C        C  403   4.496   3.780   2.171
    1C        C  404   4.415   3.980   2.286
    1C        C  405   4.442   3.914   2.408
    1C        C  406   4.327   4.094   2.526
    1C        C  407   4.403   3.975   2.529
    1C        C  408   4.277   4.149   2.646
    1C        C  409   4.315   4.092   2.769
    1C        C  410   4.171   4.248   2.889
    1C        C  411   4.274   4.151   2.891
    1C        C  412   4.122   4.298   3.012
    1C        C  413   4.175   4.256   3.136
    1C        C  414   4.003   4.380   3.256
    1C        C  415   4.121   4.303   3.258
    1C        C  416   3.942   4.415   3.379
    1C        C  417   4.001   4.379   3.502
    1C        C  418   3.812   4.478   3.622
    1C        C  419   3.941   4.420   3.623
    1C        C  420   3.745   4.499   3.745
    1C        C  421   3.815   4.485   3.866
    1C        C  422   3.612   4.540   3.990
    1C        C  423   3.751   4.513   3.989
    1C        C  424   3.544   4.546   4.113
    1C        C  425   3.613   4.542   4.236
    1C        C  426   3.401   4.555   4.359
    1C        C  427   3.542   4.553   4.358
    1C        C  428   3.332   4.546   4.482
    1C        C  429   3.409   4.554   4.601
    1C        C  430   3.200   4.521   4.724
    1C        C  431   3.340   4.546   4.723
    1C        C  432   3.128   4.498   4.845
    1C        C  433   3.207   4.497   4.961
    1C        C  434   4.388   4.124   2.053
    1C        C  435   4.448   3.997   2.055
    1C        C  436   4.303   4.161   2.162
    1C        C  437   4.341   4.102   2.286
    1C        C  438   4.186   4.255   2.403
    1C        C  439   4.287   4.156   2.405
    1C        C  440   4.129   4.300   2.523
    1C        C  441   4.177   4.249   2.646
    1C        C  442   4.002   4.372   2.767
    1C        C  443   4.122   4.297   2.766
    1C        C  444   3.941   4.409   2.889
    1C        C  445   4.002   4.372   3.011
    1C        C  446   3.812   4.468   3.133
    1C        C  447   3.941   4.409   3.133
    1C        C  448   3.747   4.492   3.256
    1C        C  449   3.813   4.474   3.379
    1C        C  450   3.608   4.534   3.497
    1C        C  451   3.746   4.504   3.500
    1C        C  452   3.541   4.539   3.622
    1C        C  453   3.608   4.535   3.746
    1C        C  454   3.398   4.547   3.869
    1C        C  455   3.539   4.548   3.869
    1C        C  456   3.331   4.538   3.993
    1C        C  457   3.403   4.543   4.115
    1C        C  458   3.194   4.508   4.236
    1C        C  459   3.332   4.542   4.237
    1C        C  460   3.132   4.484   4.360
    1C        C  461   3.195   4.512   4.484
    1C        C  462   3.001   4.432   4.608
    1C        C  463   3.126   4.496   4.606
    1C        C  464   2.939   4.393   4.730
    1C        C  465   2.997   4.441   4.850
    1C        C  466   2.803   4.339   4.963
    1C        C  467   2.907   4.433   4.962
    1C        C  468   4.121   4.287   2.045
    1C        C  469   4.188   4.247   2.161
    1C        C  470   4.004   4.364   2.282
    1C        C  471   4.126   4.291   2.280
    1C        C  472   3.941   4.402   2.403
    1C        C  473   4.006   4.370   2.524
    1C        C  474   3.813   4.466   2.645
    1C        C  475   3.942   4.408   2.644
    1C        C  476   3.745   4.491   2.766
    1C        C  477   3.814   4.471   2.889
    1C        C  478   3.605   4.513   3.012
    1C        C  479   3.745   4.490   3.010
    1C        C  480   3.535   4.527   3.134
    1C        C  481   3.608   4.519   3.254
    1C        C  482   3.395   4.537   3.379
    1C        C  483   3.537   4.533   3.375
    1C        C  484   3.327   4.540   3.503
    1C        C  485   3.400   4.546   3.624
    1C        C  486   3.191   4.509   3.748
    1C        C  487   3.329   4.541   3.746
    1C        C  488   3.127   4.479   3.870
    1C        C  489   3.194   4.503   3.992
    1C        C  490   3.010   4.406   4.119
    1C        C  491   3.126   4.486   4.114
    1C        C  492   2.952   4.374   4.244
    1C        C  493   3.004   4.424   4.365
    1C        C  494   2.831   4.303   4.486
    1C        C  495   2.940   4.392   4.487
    1C        C  496   2.777   4.255   4.607
    1C        C  497   2.827   4.306   4.729
    1C        C  498   2.669   4.163   4.849
    1C        C  499   2.757   4.274   4.848
    1C        C  500   2.600   4.112   4.960
    1C        C  501   4.002   4.359   2.043
    1C        C  502   3.816   4.468   2.157
    1C        C  503   3.943   4.406   2.161
    1C        C  504   3.747   4.487   2.278
    1C        C  505   3.811   4.457   2.400
    1C        C  506   3.607   4.512   2.520
    1C        C  507   3.745   4.483   2.522
    1C        C  508   3.536   4.519   2.643
    1C        C  509   3.606   4.516   2.765
    1C        C  510   3.396   4.525   2.888
    1C        C  511   3.537   4.518   2.888
    1C        C  512   3.326   4.526   3.011
    1C        C  513   3.395   4.539   3.133
    1C        C  514   3.189   4.498   3.258
    1C        C  515   3.325   4.534   3.256
    1C        C  516   3.127   4.471   3.382
    1C        C  517   3.190   4.505   3.503
    1C        C  518   3.000   4.415   3.627
    1C        C  519   3.125   4.480   3.626
    1C        C  520   2.941   4.373   3.749
    1C        C  521   3.002   4.413   3.870
    1C        C  522   2.845   4.277   3.997
    1C        C  523   2.952   4.369   3.995
    1C        C  524   2.797   4.229   4.121
    1C        C  525   2.846   4.281   4.243
    1C        C  526   2.701   4.131   4.365
    1C        C  527   2.786   4.243   4.366
    1C        C  528   2.657   4.078   4.489
    1C        C  529   2.693   4.141   4.610
    1C        C  530   2.581   3.962   4.730
    1C        C  531   2.644   4.089   4.732
    1C        C  532   2.540   3.902   4.852
    1C        C  533   2.530   3.991   4.964
    1C        C  534   3.616   4.558   2.041
    1C        C  535   3.748   4.512   2.042
    1C        C  536   3.535   4.539   2.158
    1C        C  537   3.607   4.516   2.278
    1C        C  538   3.393   4.518   2.401
    1C        C  539   3.535   4.518   2.399
    1C        C  540   3.324   4.515   2.524
    1C        C  541   3.395   4.517   2.646
    1C        C  542   3.185   4.482   2.766
    1C        C  543   3.323   4.513   2.768
    1C        C  544   3.119   4.468   2.890
    1C        C  545   3.188   4.494   3.011
    1C        C  546   3.001   4.404   3.138
    1C        C  547   3.124   4.473   3.135
    1C        C  548   2.942   4.365   3.261
    1C        C  549   3.003   4.402   3.383
    1C        C  550   2.835   4.279   3.507
    1C        C  551   2.941   4.371   3.506
    1C        C  552   2.784   4.230   3.630
    1C        C  553   2.836   4.279   3.751
    1C        C  554   2.706   4.115   3.876
    1C        C  555   2.793   4.227   3.875
    1C        C  556   2.669   4.059   4.001
    1C        C  557   2.702   4.125   4.122
    1C        C  558   2.594   3.944   4.249
    1C        C  559   2.659   4.070   4.245
    1C        C  560   2.559   3.883   4.371
    1C        C  561   2.587   3.956   4.489
    1C        C  562   2.526   3.752   4.615
    1C        C  563   2.563   3.889   4.611
    1C        C  564   2.513   3.684   4.738
    1C        C  565   2.518   3.760   4.858
    1C        C  566   2.535   3.549   4.978
    1C        C  567   2.521   3.688   4.977
    1C        C  568   3.330   4.487   2.039
    1C        C  569   3.393   4.525   2.158
    1C        C  570   3.183   4.483   2.281
    1C        C  571   3.321   4.517   2.280
    1C        C  572   3.116   4.463   2.404
    1C        C  573   3.185   4.491   2.524
    1C        C  574   2.988   4.405   2.648
    1C        C  575   3.116   4.466   2.645
    1C        C  576   2.931   4.364   2.771
    1C        C  577   2.995   4.401   2.892
    1C        C  578   2.832   4.274   3.019
    1C        C  579   2.940   4.365   3.017
    1C        C  580   2.780   4.225   3.141
    1C        C  581   2.833   4.276   3.262
    1C        C  582   2.697   4.117   3.386
    1C        C  583   2.784   4.228   3.386
    1C        C  584   2.663   4.055   3.508
    1C        C  585   2.697   4.118   3.630
    1C        C  586   2.590   3.938   3.758
    1C        C  587   2.658   4.062   3.754
    1C        C  588   2.572   3.872   3.881
    1C        C  589   2.604   3.934   4.004
    1C        C  590   2.535   3.738   4.127
    1C        C  591   2.576   3.873   4.128
    1C        C  592   2.518   3.673   4.252
    1C        C  593   2.527   3.745   4.373
    1C        C  594   2.502   3.536   4.497
    1C        C  595   2.513   3.677   4.496
    1C        C  596   2.513   3.468   4.621
    1C        C  597   2.518   3.542   4.741
    1C        C  598   2.537   3.330   4.864
    1C        C  599   2.529   3.471   4.862
    1C        C  600   2.533   3.251   4.979
    1C        C  601   3.198   4.443   2.043
    1C        C  602   2.986   4.395   2.164
    1C        C  603   3.119   4.446   2.159
    1C        C  604   2.925   4.359   2.288
    1C        C  605   2.990   4.399   2.406
    1C        C  606   2.823   4.269   2.532
    1C        C  607   2.927   4.365   2.528
    1C        C  608   2.774   4.219   2.655
    1C        C  609   2.826   4.271   2.776
    1C        C  610   2.689   4.111   2.897
    1C        C  611   2.778   4.222   2.900
    1C        C  612   2.648   4.056   3.020
    1C        C  613   2.694   4.113   3.141
    1C        C  614   2.598   3.927   3.267
    1C        C  615   2.658   4.055   3.265
    1C        C  616   2.571   3.865   3.391
    1C        C  617   2.593   3.932   3.514
    1C        C  618   2.529   3.733   3.639
    1C        C  619   2.564   3.870   3.637
    1C        C  620   2.513   3.665   3.762
    1C        C  621   2.529   3.737   3.882
    1C        C  622   2.505   3.527   4.013
    1C        C  623   2.520   3.667   4.005
    1C        C  624   2.507   3.456   4.135
    1C        C  625   2.509   3.532   4.254
    1C        C  626   2.538   3.323   4.380
    1C        C  627   2.515   3.463   4.377
    1C        C  628   2.559   3.257   4.503
    1C        C  629   2.536   3.329   4.623
    1C        C  630   2.597   3.122   4.746
    1C        C  631   2.552   3.257   4.744
    1C        C  632   2.620   3.054   4.868
    1C        C  633   2.566   3.115   4.986
    1C        C  634   2.784   4.309   2.061
    1C        C  635   2.895   4.394   2.053
    1C        C  636   2.747   4.232   2.171
    1C        C  637   2.811   4.273   2.289
    1C        C  638   2.680   4.108   2.411
    1C        C  639   2.768   4.219   2.412
    1C        C  640   2.641   4.052   2.535
    1C        C  641   2.686   4.109   2.656
    1C        C  642   2.589   3.920   2.778
    1C        C  643   2.645   4.049   2.778
    1C        C  644   2.568   3.856   2.902
    1C        C  645   2.595   3.925   3.022
    1C        C  646   2.529   3.725   3.150
    1C        C  647   2.572   3.860   3.146
    1C        C  648   2.512   3.659   3.274
    1C        C  649   2.528   3.731   3.395
    1C        C  650   2.506   3.521   3.521
    1C        C  651   2.515   3.662   3.517
    1C        C  652   2.512   3.453   3.644
    1C        C  653   2.501   3.524   3.766
    1C        C  654   2.522   3.317   3.893
    1C        C  655   2.502   3.457   3.890
    1C        C  656   2.541   3.249   4.015
    1C        C  657   2.520   3.315   4.138
    1C        C  658   2.583   3.113   4.260
    1C        C  659   2.546   3.249   4.260
    1C        C  660   2.626   3.055   4.382
    1C        C  661   2.601   3.122   4.504
    1C        C  662   2.709   2.939   4.627
    1C        C  663   2.630   3.056   4.625
    1C        C  664   2.752   2.881   4.749
    1C        C  665   2.695   2.932   4.869
    1C        C  666   2.743   2.875   4.988
    1C        C  667   2.687   4.023   2.056
    1C        C  668   2.687   4.104   2.171
    1C        C  669   2.591   3.911   2.290
    1C        C  670   2.645   4.043   2.291
    1C        C  671   2.565   3.849   2.414
    1C        C  672   2.587   3.922   2.533
    1C        C  673   2.525   3.719   2.661
    1C        C  674   2.561   3.856   2.655
    1C        C  675   2.509   3.652   2.783
    1C        C  676   2.524   3.722   2.905
    1C        C  677   2.498   3.514   3.031
    1C        C  678   2.512   3.655   3.029
    1C        C  679   2.502   3.446   3.155
    1C        C  680   2.500   3.518   3.276
    1C        C  681   2.530   3.310   3.402
    1C        C  682   2.506   3.449   3.399
    1C        C  683   2.554   3.245   3.526
    1C        C  684   2.541   3.314   3.648
    1C        C  685   2.600   3.117   3.774
    1C        C  686   2.547   3.248   3.773
    1C        C  687   2.638   3.057   3.896
    1C        C  688   2.599   3.119   4.016
    1C        C  689   2.708   2.940   4.142
    1C        C  690   2.623   3.053   4.139
    1C        C  691   2.756   2.885   4.263
    1C        C  692   2.711   2.942   4.385
    1C        C  693   2.755   2.884   4.506
    1C        C  694   2.636   3.892   2.055
    1C        C  695   2.528   3.706   2.178
    1C        C  696   2.582   3.836   2.171
    1C        C  697   2.510   3.638   2.301
    1C        C  698   2.525   3.713   2.419
    1C        C  699   2.485   3.505   2.544
    1C        C  700   2.509   3.645   2.542
    1C        C  701   2.496   3.438   2.667
    1C        C  702   2.501   3.511   2.788
    1C        C  703   2.524   3.302   2.913
    1C        C  704   2.498   3.440   2.910
    1C        C  705   2.540   3.235   3.036
    1C        C  706   2.531   3.308   3.157
    1C        C  707   2.597   3.109   3.281
    1C        C  708   2.546   3.241   3.280
    1C        C  709   2.635   3.051   3.404
    1C        C  710   2.610   3.115   3.527
    1C        C  711   2.719   2.940   3.651
    1C        C  712   2.637   3.055   3.652
    1C        C  713   2.761   2.884   3.774
    1C        C  714   2.717   2.940   3.896
    1C        C  715   2.759   2.887   4.021
    1C        C  716   2.443   3.503   2.064
    1C        C  717   2.492   3.634   2.063
    1C        C  718   2.462   3.425   2.182
    1C        C  719   2.488   3.497   2.302
    1C        C  720   2.503   3.290   2.427
    1C        C  721   2.478   3.429   2.425
    1C        C  722   2.533   3.225   2.549
    1C        C  723   2.527   3.300   2.669
    1C        C  724   2.596   3.101   2.791
    1C        C  725   2.542   3.232   2.792
    1C        C  726   2.624   3.039   2.915
    1C        C  727   2.594   3.104   3.036
    1C        C  728   2.710   2.929   3.161
    1C        C  729   2.626   3.043   3.160
    1C        C  730   2.759   2.878   3.283
    1C        C  731   2.715   2.934   3.405
    1C        C  732   2.759   2.881   3.528
    1C        C  733   2.490   3.199   2.072
    1C        C  734   2.489   3.284   2.183
    1C        C  735   2.583   3.093   2.306
    1C        C  736   2.518   3.219   2.306
    1C        C  737   2.620   3.028   2.426
    1C        C  738   2.593   3.097   2.547
    1C        C  739   2.695   2.913   2.672
    1C        C  740   2.622   3.034   2.670
    1C        C  741   2.741   2.862   2.795
    1C        C  742   2.701   2.920   2.917
    1C        C  743   2.752   2.871   3.040
    1C        C  744   2.544   3.071   2.074
    1C        C  745   2.686   2.903   2.189
    1C        C  746   2.610   3.021   2.187
    1C        C  747   2.733   2.845   2.309
    1C        C  748   2.696   2.910   2.429
    1C        C  749   2.741   2.855   2.552
    1C        C  750   2.736   2.841   2.073
    1C        C  751   3.654   2.305   1.991
    1C        O  752   3.690   2.195   2.040
    1C        O  753   3.690   2.336   1.859
    1C        C  754   4.610   3.064   1.960
    1C        O  755   4.583   3.066   1.837
    1C        O  756   4.746   3.036   1.974
    1C        C  757   4.462   4.215   1.963
    1C        O  758   4.580   4.252   1.988
    1C        O  759   4.448   4.197   1.825
    1C        C  760   3.596   4.688   1.972
    1C        O  761   3.623   4.791   2.039
    1C        O  762   3.625   4.690   1.835
    1C        C  763   2.895   4.485   1.937
    1C        O  764   2.920   4.433   1.824
    1C        O  765   2.811   4.596   1.923
    1C        C  766   2.335   3.475   1.967
    1C        O  767   2.338   3.520   1.849
    1C        O  768   2.204   3.460   2.014
    1C        C  769   4.697   3.584   5.059
    1C        O  770   4.680   3.553   5.180
    1C        O  771   4.827   3.633   5.048
    1C        C  772   4.251   4.428   5.073
    1C        O  773   4.210   4.395   5.188
    1C        O  774   4.364   4.510   5.086
    1C        C  775   4.149   2.520   5.069
    1C        O  776   4.181   2.400   5.047
    1C        O  777   4.184   2.555   5.200
    1C        C  778   2.907   4.515   5.085
    1C        O  779   2.865   4.633   5.080
    1C        O  780   2.923   4.462   5.213
    1C        C  781   2.461   3.036   5.054
    1C        O  782   2.353   2.999   5.001
    1C        O  783   2.460   3.023   5.192
    1C        C  784   2.414   3.984   5.056
    1C        O  785   2.297   3.985   5.008
    1C        O  786   2.440   3.962   5.191
    1C        C  787   2.946   2.442   2.001
    1C        O  788   2.951   2.478   1.880
    1C        O  789   2.887   2.318   2.022
    1C        C  790   3.186   2.386   5.073
    1C        O  791   3.186   2.267   5.032
    1C        O  792   3.204   2.408   5.211
    1C        H  793   4.241   3.040   5.041
    1C        H  794   4.194   2.802   5.071
    1C        H  795   4.501   3.131   5.065
    1C        H  796   4.502   3.367   5.072
    1C        H  797   4.577   3.810   5.044
    1C        H  798   4.462   4.010   5.040
    1C        H  799   4.318   4.186   5.052
    1C        H  800   4.023   4.525   5.035
    1C        H  801   3.805   4.534   5.045
    1C        H  802   3.591   4.660   5.028
    1C        H  803   3.408   4.475   5.034
    1C        H  804   3.159   4.476   5.055
    1C        H  805   3.902   2.464   5.056
    1C        H  806   3.670   2.478   5.084
    1C        H  807   2.981   2.517   5.032
    1C        H  808   3.448   2.470   5.081
    1C        H  809   2.885   2.749   5.080
    1C        H  810   2.675   2.876   5.070
    1C        H  811   2.476   3.290   5.061
    1C        H  812   2.579   3.514   5.069
    1C        H  813   2.472   3.727   5.064
    1C        H  814   2.584   4.177   5.044
    1C        H  815   2.761   4.323   5.060
    1C        H  816   2.735   2.899   1.983
    1C        H  817   2.798   2.661   1.994
    1C        H  818   3.207   2.399   2.012
    1C        H  819   3.435   2.468   1.978
    1C        H  820   3.842   2.563   1.974
    1C        H  821   4.079   2.578   1.982
    1C        H  822   4.247   2.719   1.977
    1C        H  823   4.409   2.904   1.976
    1C        H  824   4.580   3.313   1.970
    1C        H  825   4.548   3.517   1.966
    1C        H  826   4.553   3.756   1.972
    1C        H  827   3.790   4.503   1.944
    1C        H  828   3.950   4.368   1.950
    1C        H  829   4.136   4.223   1.960
    1C        H  830   4.494   3.964   1.964
    1C        H  831   2.625   3.842   1.961
    1C        H  832   2.679   4.076   1.964
    1C        H  833   2.727   4.299   1.971
    1C        H  834   3.387   4.465   1.952
    1C        H  835   3.149   4.448   1.949
    1C        H  836   2.553   3.020   1.981
    1C        H  837   2.430   3.222   1.986
    1C        H  838   2.472   3.696   1.978
    2V3OU   H29  839   2.812   3.560   3.752
    2V3OU   C27  840   2.795   3.503   3.847
    2V3OU   H27  841   2.737   3.566   3.920
    2V3OU   H28  842   2.741   3.409   3.822
    2V3OU   O11  843   2.914   3.472   3.919
    2V3OU   C15  844   2.928   3.402   4.037
    2V3OU   C13  845   3.054   3.375   4.094
    2V3OU   C14  846   3.082   3.268   4.180
    2V3OU   C16  847   2.982   3.181   4.220
    2V3OU    H6  848   2.995   3.099   4.292
    2V3OU   C12  849   3.215   3.235   4.236
    2V3OU    O2  850   3.245   3.128   4.293
    2V3OU   C10  851   3.327   3.316   4.185
    2V3OU    C8  852   3.458   3.273   4.205
    2V3OU   O10  853   3.493   3.153   4.258
    2V3OU   H26  854   3.409   3.123   4.295
    2V3OU    C6  855   3.568   3.352   4.158
    2V3OU    C5  856   3.541   3.469   4.087
    2V3OU    C4  857   3.705   3.297   4.174
    2V3OU    H4  858   3.720   3.232   4.265
    2V3OU    H5  859   3.708   3.228   4.085
    2V3OU    C2  860   3.815   3.403   4.162
    2V3OU    O6  861   3.806   3.477   4.283
    2V3OU   H21  862   3.769   3.561   4.251
    2V3OU    C3  863   3.785   3.500   4.048
    2V3OU    H2  864   3.867   3.576   4.039
    2V3OU    H3  865   3.775   3.439   3.955
    2V3OU   C25  866   3.947   3.328   4.139
    2V3OU    O7  867   3.997   3.297   4.031
    2V3OU   C26  868   4.030   3.292   4.261
    2V3OU   H22  869   4.070   3.384   4.309
    2V3OU   H23  870   4.119   3.230   4.229
    2V3OU    O8  871   3.956   3.210   4.348
    2V3OU   H24  872   3.920   3.275   4.411
    2V3OU    C1  873   3.650   3.569   4.059
    2V3OU    H1  874   3.626   3.627   3.965
    2V3OU    O3  875   3.662   3.658   4.171
    2V3OU   C19  876   3.618   3.793   4.157
    2V3OU    H9  877   3.520   3.808   4.102
    2V3OU    O4  878   3.714   3.850   4.071
    2V3OU   C20  879   3.845   3.876   4.121
    2V3OU   H10  880   3.900   3.777   4.133
    2V3OU   C24  881   3.610   3.856   4.296
    2V3OU   H16  882   3.551   3.787   4.362
    2V3OU   H17  883   3.566   3.959   4.289
    2V3OU   C23  884   3.751   3.878   4.352
    2V3OU   H15  885   3.793   3.775   4.373
    2V3OU    N1  886   3.743   3.953   4.475
    2V3OU   H19  887   3.810   3.932   4.546
    2V3OU   H20  888   3.653   3.927   4.510
    2V3OU   C21  889   3.852   3.948   4.256
    2V3OU   H11  890   3.948   3.919   4.307
    2V3OU    O5  891   3.831   4.088   4.260
    2V3OU   H18  892   3.784   4.095   4.345
    2V3OU   C22  893   3.921   3.948   4.011
    2V3OU   H12  894   3.867   4.043   3.984
    2V3OU   H13  895   3.908   3.890   3.916
    2V3OU   H14  896   4.028   3.958   4.040
    2V3OU   C11  897   3.162   3.474   4.076
    2V3OU    O1  898   3.133   3.584   4.025
    2V3OU    C9  899   3.300   3.431   4.107
    2V3OU    C7  900   3.406   3.507   4.059
    2V3OU    O9  901   3.388   3.620   3.982
    2V3OU   H25  902   3.291   3.632   3.987
    2V3OU   C17  903   2.829   3.318   4.093
    2V3OU    H7  904   2.731   3.362   4.074
    2V3OU   C18  905   2.852   3.215   4.182
    2V3OU    H8  906   2.791   3.173   4.263
    3SOL     OW  907   2.904   4.461   5.496
    3SOL    HW1  908   2.900   4.458   5.396
    3SOL    HW2  909   2.885   4.370   5.533
    4SOL     OW  910   6.872   6.733   0.034
    4SOL    HW1  911   6.808   6.739   0.111
    4SOL    HW2  912   6.823   6.750   6.975
    5SOL     OW  913   5.019   1.470   2.526
    5SOL    HW1  914   5.101   1.472   2.468
    5SOL    HW2  915   5.017   1.384   2.577
    6SOL     OW  916   5.265   2.182   2.756
    6SOL    HW1  917   5.263   2.250   2.684
    6SOL    HW2  918   5.344   2.198   2.815
    7SOL     OW  919   1.103   4.214   4.926
    7SOL    HW1  920   1.074   4.119   4.916
    7SOL    HW2  921   1.156   4.242   4.846
    8SOL     OW  922   2.685   2.207   5.178
    8SOL    HW1  923   2.630   2.289   5.159
    8SOL    HW2  924   2.729   2.177   5.093
    9SOL     OW  925   6.505   1.732   6.004
    9SOL    HW1  926   6.444   1.661   5.968
    9SOL    HW2  927   6.524   1.799   5.932
   10SOL     OW  928   3.688   5.011   4.119
   10SOL    HW1  929   3.650   4.969   4.036
   10SOL    HW2  930   3.716   5.105   4.098
   11SOL     OW  931   1.711   0.735   0.356
   11SOL    HW1  932   1.742   0.786   0.437
   11SOL    HW2  933   1.731   0.638   0.368
   12SOL     OW  934   2.634   4.726   3.820
   12SOL    HW1  935   2.587   4.784   3.754
   12SOL    HW2  936   2.649   4.777   3.905
   13SOL     OW  937   3.103   6.171   2.899
   13SOL    HW1  938   3.070   6.231   2.827
   13SOL    HW2  939   3.033   6.163   2.970
   14SOL     OW  940   4.397   4.942   5.945
   14SOL    HW1  941   4.330   4.873   5.920
   14SOL    HW2  942   4.416   4.937   6.043
   15SOL     OW  943   0.548   6.463   6.407
   15SOL    HW1  944   0.480   6.536   6.411
   15SOL    HW2  945   0.522   6.389   6.469
   16SOL     OW  946   5.129   2.602   6.171
   16SOL    HW1  947   5.205   2.547   6.137
   16SOL    HW2  948   5.043   2.569   6.131
   17SOL     OW  949   6.064   0.558   6.093
   17SOL    HW1  950   6.050   0.459   6.099
   17SOL    HW2  951   5.987   0.600   6.044
   18SOL     OW  952   3.587   1.439   5.327
   18SOL    HW1  953   3.630   1.524   5.296
   18SOL    HW2  954   3.657   1.369   5.340
   19SOL     OW  955   0.493   1.857   2.568
   19SOL    HW1  956   0.461   1.907   2.649
   19SOL    HW2  957   0.511   1.922   2.494
   20SOL     OW  958   6.010   1.814   5.515
   20SOL    HW1  959   6.040   1.904   5.545
   20SOL    HW2  960   5.913   1.803   5.537
   21SOL     OW  961   3.182   0.118   2.883
   21SOL    HW1  962   3.279   0.125   2.906
   21SOL    HW2  963   3.164   0.028   2.843
   22SOL     OW  964   1.082   5.933   5.798
   22SOL    HW1  965   1.012   5.872   5.762
   22SOL    HW2  966   1.147   5.880   5.853
   23SOL     OW  967   4.663   5.158   2.210
   23SOL    HW1  968   4.758   5.170   2.237
   23SOL    HW2  969   4.607   5.231   2.252
   24SOL     OW  970   3.907   0.352   2.369
   24SOL    HW1  971   3.968   0.313   2.438
   24SOL    HW2  972   3.928   0.313   2.280
   25SOL     OW  973   3.123   0.210   4.110
   25SOL    HW1  974   3.035   0.212   4.063
   25SOL    HW2  975   3.150   0.115   4.128
   26SOL     OW  976   1.310   2.161   0.420
   26SOL    HW1  977   1.247   2.093   0.456
   26SOL    HW2  978   1.259   2.240   0.387
   27SOL     OW  979   1.119   1.392   2.230
   27SOL    HW1  980   1.212   1.359   2.214
   27SOL    HW2  981   1.113   1.433   2.321
   28SOL     OW  982   1.402   1.034   4.424
   28SOL    HW1  983   1.356   1.120   4.401
   28SOL    HW2  984   1.446   0.997   4.342
   29SOL     OW  985   6.027   1.083   1.109
   29SOL    HW1  986   6.070   0.998   1.079
   29SOL    HW2  987   5.944   1.099   1.055
   30SOL     OW  988   3.629   0.675   4.769
   30SOL    HW1  989   3.608   0.639   4.678
   30SOL    HW2  990   3.728   0.672   4.784
   31SOL     OW  991   0.089   2.204   5.175
   31SOL    HW1  992   0.185   2.218   5.199
   31SOL    HW2  993   0.081   2.124   5.116
   32SOL     OW  994   1.536   1.517   2.294
   32SOL    HW1  995   1.597   1.525   2.373
   32SOL    HW2  996   1.441   1.523   2.325
   33SOL     OW  997   0.111   3.733   5.368
   33SOL    HW1  998   0.099   3.746   5.269
   33SOL    HW2  999   0.161   3.810   5.406
   34SOL     OW 1000   2.563   5.294   5.182
   34SOL    HW1 1001   2.573   5.209   5.234
   34SOL    HW2 1002   2.549   5.272   5.086
   35SOL     OW 1003   4.344   1.559   5.585
   35SOL    HW1 1004   4.334   1.461   5.602
   35SOL    HW2 1005   4.336   1.576   5.486
   36SOL     OW 1006   5.111   1.275   3.958
   36SOL    HW1 1007   5.051   1.207   3.916
   36SOL    HW2 1008   5.206   1.249   3.945
   37SOL     OW 1009   1.986   1.417   3.826
   37SOL    HW1 1010   1.925   1.455   3.756
   37SOL    HW2 1011   1.960   1.322   3.845
   38SOL     OW 1012   2.368   4.405   1.359
   38SOL    HW1 1013   2.333   4.497   1.376
   38SOL    HW2 1014   2.306   4.338   1.398
   39SOL     OW 1015   6.576   4.385   6.375
   39SOL    HW1 1016   6.514   4.400   6.452
   39SOL    HW2 1017   6.627   4.300   6.389
   40SOL     OW 1018   3.295   0.304   6.137
   40SOL    HW1 1019   3.323   0.219   6.182
   40SOL    HW2 1020   3.270   0.371   6.206
   41SOL     OW 1021   6.428   4.196   2.902
   41SOL    HW1 1022   6.331   4.216   2.885
   41SOL    HW2 1023   6.438   4.099   2.926
   42SOL     OW 1024   2.751   6.792   4.388
   42SOL    HW1 1025   2.836   6.739   4.385
   42SOL    HW2 1026   2.686   6.747   4.448
   43SOL     OW 1027   3.691   6.792   4.937
   43SOL    HW1 1028   3.641   6.804   4.851
   43SOL    HW2 1029   3.785   6.824   4.925
   44SOL     OW 1030   5.854   3.023   4.710
   44SOL    HW1 1031   5.904   2.939   4.689
   44SOL    HW2 1032   5.855   3.038   4.809
   45SOL     OW 1033   4.349   5.805   2.131
   45SOL    HW1 1034   4.294   5.887   2.147
   45SOL    HW2 1035   4.429   5.828   2.076
   46SOL     OW 1036   0.617   2.811   4.078
   46SOL    HW1 1037   0.624   2.843   3.984
   46SOL    HW2 1038   0.606   2.889   4.139
   47SOL     OW 1039   5.056   4.253   1.720
   47SOL    HW1 1040   5.051   4.175   1.657
   47SOL    HW2 1041   5.010   4.332   1.678
   48SOL     OW 1042   0.644   2.352   6.635
   48SOL    HW1 1043   0.723   2.314   6.586
   48SOL    HW2 1044   0.609   2.431   6.585
   49SOL     OW 1045   5.137   2.697   1.152
   49SOL    HW1 1046   5.208   2.688   1.223
   49SOL    HW2 1047   5.081   2.615   1.151
   50SOL     OW 1048   6.160   2.030   6.054
   50SOL    HW1 1049   6.133   2.058   5.961
   50SOL    HW2 1050   6.130   1.936   6.069
   51SOL     OW 1051   1.872   5.302   2.727
   51SOL    HW1 1052   1.845   5.241   2.652
   51SOL    HW2 1053   1.942   5.258   2.783
   52SOL     OW 1054   5.759   2.280   1.374
   52SOL    HW1 1055   5.740   2.202   1.314
   52SOL    HW2 1056   5.767   2.363   1.320
   53SOL     OW 1057   5.265   0.153   3.015
   53SOL    HW1 1058   5.255   0.251   3.001
   53SOL    HW2 1059   5.181   0.117   3.056
   54SOL     OW 1060   5.335   6.447   0.309
   54SOL    HW1 1061   5.389   6.524   0.277
   54SOL    HW2 1062   5.396   6.374   0.340
   55SOL     OW 1063   1.599   2.380   5.905
   55SOL    HW1 1064   1.618   2.287   5.873
   55SOL    HW2 1065   1.643   2.394   5.994
   56SOL     OW 1066   1.706   1.545   0.893
   56SOL    HW1 1067   1.621   1.530   0.943
   56SOL    HW2 1068   1.686   1.589   0.806
   57SOL     OW 1069   3.716   1.016   6.704
   57SOL    HW1 1070   3.733   1.110   6.734
   57SOL    HW2 1071   3.782   0.955   6.748
   58SOL     OW 1072   0.956   0.880   6.779
   58SOL    HW1 1073   0.937   0.978   6.767
   58SOL    HW2 1074   1.047   0.869   6.819
   59SOL     OW 1075   6.446   3.605   6.083
   59SOL    HW1 1076   6.514   3.534   6.102
   59SOL    HW2 1077   6.491   3.694   6.079
   60SOL     OW 1078   5.615   1.592   3.612
   60SOL    HW1 1079   5.702   1.572   3.658
   60SOL    HW2 1080   5.634   1.628   3.521
   61SOL     OW 1081   0.208   1.002   4.602
   61SOL    HW1 1082   0.225   0.991   4.504
   61SOL    HW2 1083   0.263   1.079   4.635
   62SOL     OW 1084   0.951   1.224   1.515
   62SOL    HW1 1085   0.934   1.306   1.461
   62SOL    HW2 1086   1.049   1.211   1.526
   63SOL     OW 1087   3.972   0.070   4.561
   63SOL    HW1 1088   4.002   0.103   4.651
   63SOL    HW2 1089   4.044   0.015   4.520
   64SOL     OW 1090   1.434   3.592   6.204
   64SOL    HW1 1091   1.461   3.653   6.129
   64SOL    HW2 1092   1.442   3.641   6.291
   65SOL     OW 1093   0.150   6.950   5.724
   65SOL    HW1 1094   0.111   6.991   5.642
   65SOL    HW2 1095   0.162   7.020   5.795
   66SOL     OW 1096   3.408   0.420   2.885
   66SOL    HW1 1097   3.500   0.410   2.846
   66SOL    HW2 1098   3.410   0.391   2.981
   67SOL     OW 1099   0.310   2.244   6.442
   67SOL    HW1 1100   0.321   2.341   6.465
   67SOL    HW2 1101   0.376   2.190   6.494
   68SOL     OW 1102   6.834   1.543   5.829
   68SOL    HW1 1103   6.873   1.629   5.861
   68SOL    HW2 1104   6.873   1.520   5.740
   69SOL     OW 1105   1.464   4.453   6.036
   69SOL    HW1 1106   1.508   4.460   5.947
   69SOL    HW2 1107   1.435   4.358   6.051
   70SOL     OW 1108   5.215   4.353   4.597
   70SOL    HW1 1109   5.293   4.306   4.639
   70SOL    HW2 1110   5.219   4.450   4.618
   71SOL     OW 1111   4.733   2.125   4.116
   71SOL    HW1 1112   4.745   2.223   4.133
   71SOL    HW2 1113   4.800   2.095   4.048
   72SOL     OW 1114   0.283   0.985   3.204
   72SOL    HW1 1115   0.205   1.004   3.144
   72SOL    HW2 1116   0.328   1.070   3.230
   73SOL     OW 1117   3.687   0.384   0.287
   73SOL    HW1 1118   3.595   0.416   0.264
   73SOL    HW2 1119   3.739   0.459   0.327
   74SOL     OW 1120   2.352   1.910   6.206
   74SOL    HW1 1121   2.351   1.810   6.201
   74SOL    HW2 1122   2.262   1.945   6.182
   75SOL     OW 1123   4.410   1.740   1.495
   75SOL    HW1 1124   4.485   1.788   1.541
   75SOL    HW2 1125   4.442   1.707   1.406
   76SOL     OW 1126   2.648   4.577   5.972
   76SOL    HW1 1127   2.675   4.490   5.932
   76SOL    HW2 1128   2.706   4.650   5.937
   77SOL     OW 1129   1.847   5.322   3.935
   77SOL    HW1 1130   1.864   5.228   3.904
   77SOL    HW2 1131   1.852   5.325   4.035
   78SOL     OW 1132   4.324   1.210   1.211
   78SOL    HW1 1133   4.406   1.261   1.186
   78SOL    HW2 1134   4.349   1.132   1.269
   79SOL     OW 1135   2.645   5.801   2.138
   79SOL    HW1 1136   2.685   5.855   2.212
   79SOL    HW2 1137   2.718   5.772   2.076
   80SOL     OW 1138   4.761   2.087   5.041
   80SOL    HW1 1139   4.742   2.176   4.999
   80SOL    HW2 1140   4.755   2.095   5.141
   81SOL     OW 1141   1.860   0.187   0.319
   81SOL    HW1 1142   1.890   0.181   0.415
   81SOL    HW2 1143   1.819   0.100   0.292
   82SOL     OW 1144   0.692   6.134   1.956
   82SOL    HW1 1145   0.657   6.219   1.917
   82SOL    HW2 1146   0.616   6.079   1.989
   83SOL     OW 1147   6.860   1.885   5.654
   83SOL    HW1 1148   6.950   1.910   5.618
   83SOL    HW2 1149   6.810   1.833   5.585
   84SOL     OW 1150   6.251   3.612   3.179
   84SOL    HW1 1151   6.241   3.711   3.165
   84SOL    HW2 1152   6.291   3.595   3.269
   85SOL     OW 1153   1.971   6.991   3.839
   85SOL    HW1 1154   1.966   0.019   3.756
   85SOL    HW2 1155   2.007   0.020   3.914
   86SOL     OW 1156   6.545   1.055   6.745
   86SOL    HW1 1157   6.599   1.139   6.742
   86SOL    HW2 1158   6.508   1.041   6.837
   87SOL     OW 1159   4.372   4.645   0.206
   87SOL    HW1 1160   4.273   4.631   0.195
   87SOL    HW2 1161   4.397   4.629   0.301
   88SOL     OW 1162   2.816   2.278   5.847
   88SOL    HW1 1163   2.818   2.366   5.800
   88SOL    HW2 1164   2.730   2.269   5.898
   89SOL     OW 1165   3.022   3.919   1.705
   89SOL    HW1 1166   3.115   3.896   1.678
   89SOL    HW2 1167   3.019   4.013   1.739
   90SOL     OW 1168   4.848   4.163   2.374
   90SOL    HW1 1169   4.879   4.257   2.391
   90SOL    HW2 1170   4.752   4.165   2.345
   91SOL     OW 1171   5.845   6.090   6.154
   91SOL    HW1 1172   5.755   6.050   6.137
   91SOL    HW2 1173   5.909   6.019   6.181
   92SOL     OW 1174   5.221   3.806   0.253
   92SOL    HW1 1175   5.155   3.770   0.319
   92SOL    HW2 1176   5.223   3.906   0.259
   93SOL     OW 1177   3.071   3.388   0.623
   93SOL    HW1 1178   3.008   3.440   0.566
   93SOL    HW2 1179   3.117   3.449   0.687
   94SOL     OW 1180   2.308   6.730   0.449
   94SOL    HW1 1181   2.384   6.732   0.384
   94SOL    HW2 1182   2.233   6.676   0.411
   95SOL     OW 1183   0.861   0.540   4.357
   95SOL    HW1 1184   0.822   0.479   4.426
   95SOL    HW2 1185   0.941   0.587   4.395
   96SOL     OW 1186   5.146   4.973   7.009
   96SOL    HW1 1187   5.231   5.025   7.009
   96SOL    HW2 1188   5.094   4.993   6.925
   97SOL     OW 1189   2.051   4.868   5.449
   97SOL    HW1 1190   1.997   4.949   5.428
   97SOL    HW2 1191   2.050   4.806   5.370
   98SOL     OW 1192   0.834   2.548   1.252
   98SOL    HW1 1193   0.875   2.482   1.316
   98SOL    HW2 1194   0.906   2.590   1.197
   99SOL     OW 1195   3.475   3.989   3.265
   99SOL    HW1 1196   3.533   3.915   3.301
   99SOL    HW2 1197   3.427   4.034   3.341
  100SOL     OW 1198   6.829   0.474   4.192
  100SOL    HW1 1199   6.842   0.534   4.113
  100SOL    HW2 1200   6.910   0.416   4.203
  101SOL     OW 1201   0.907   4.816   2.767
  101SOL    HW1 1202   0.980   4.762   2.808
  101SOL    HW2 1203   0.842   4.844   2.838
  102SOL     OW 1204   2.618   6.160   2.116
  102SOL    HW1 1205   2.667   6.221   2.054
  102SOL    HW2 1206   2.562   6.214   2.179
  103SOL     OW 1207   1.571   1.285   1.964
  103SOL    HW1 1208   1.608   1.217   2.027
  103SOL    HW2 1209   1.632   1.364   1.961
  104SOL     OW 1210   1.691   4.817   2.275
  104SOL    HW1 1211   1.597   4.786   2.283
  104SOL    HW2 1212   1.722   4.808   2.181
  105SOL     OW 1213   5.003   1.194   6.343
  105SOL    HW1 1214   4.968   1.235   6.427
  105SOL    HW2 1215   5.012   1.095   6.356
  106SOL     OW 1216   5.149   5.349   1.642
  106SOL    HW1 1217   5.157   5.256   1.607
  106SOL    HW2 1218   5.126   5.347   1.739
  107SOL     OW 1219   6.673   0.814   0.100
  107SOL    HW1 1220   6.639   0.900   0.137
  107SOL    HW2 1221   6.605   0.775   0.038
  108SOL     OW 1222   2.822   6.807   4.834
  108SOL    HW1 1223   2.821   6.905   4.816
  108SOL    HW2 1224   2.770   6.759   4.762
  109SOL     OW 1225   3.870   1.153   3.019
  109SOL    HW1 1226   3.821   1.079   3.065
  109SOL    HW2 1227   3.808   1.230   3.003
  110SOL     OW 1228   2.062   4.735   5.218
  110SOL    HW1 1229   1.998   4.760   5.145
  110SOL    HW2 1230   2.107   4.648   5.195
  111SOL     OW 1231   0.040   1.331   2.597
  111SOL    HW1 1232   0.065   1.266   2.525
  111SOL    HW2 1233   6.994   1.292   2.654
  112SOL     OW 1234   4.396   6.463   6.527
  112SOL    HW1 1235   4.452   6.388   6.562
  112SOL    HW2 1236   4.304   6.456   6.565
  113SOL     OW 1237   6.538   5.110   3.060
  113SOL    HW1 1238   6.581   5.199   3.076
  113SOL    HW2 1239   6.449   5.107   3.105
  114SOL     OW 1240   1.016   4.974   3.228
  114SOL    HW1 1241   1.116   4.970   3.229
  114SOL    HW2 1242   0.987   5.053   3.174
  115SOL     OW 1243   6.106   1.376   3.496
  115SOL    HW1 1244   6.013   1.409   3.508
  115SOL    HW2 1245   6.138   1.396   3.404
  116SOL     OW 1246   0.149   6.148   1.201
  116SOL    HW1 1247   0.249   6.145   1.189
  116SOL    HW2 1248   0.115   6.055   1.215
  117SOL     OW 1249   2.763   1.432   7.000
  117SOL    HW1 1250   2.765   1.521   6.954
  117SOL    HW2 1251   2.784   1.445   0.070
  118SOL     OW 1252   1.773   1.481   3.605
  118SOL    HW1 1253   1.814   1.482   3.514
  118SOL    HW2 1254   1.751   1.574   3.633
  119SOL     OW 1255   0.631   6.646   6.807
  119SOL    HW1 1256   0.629   6.719   6.875
  119SOL    HW2 1257   0.546   6.593   6.812
  120SOL     OW 1258   4.759   0.185   5.137
  120SOL    HW1 1259   4.799   0.274   5.159
  120SOL    HW2 1260   4.792   0.117   5.202
  121SOL     OW 1261   1.260   4.062   0.078
  121SOL    HW1 1262   1.261   4.116   7.020
  121SOL    HW2 1263   1.337   4.091   0.135
  122SOL     OW 1264   1.281   3.831   0.551
  122SOL    HW1 1265   1.317   3.835   0.457
  122SOL    HW2 1266   1.296   3.920   0.595
  123SOL     OW 1267   1.246   0.665   1.285
  123SOL    HW1 1268   1.321   0.603   1.263
  123SOL    HW2 1269   1.275   0.759   1.271
  124SOL     OW 1270   3.127   2.583   0.651
  124SOL    HW1 1271   3.188   2.625   0.718
  124SOL    HW2 1272   3.167   2.592   0.559
  125SOL     OW 1273   3.407   2.856   0.082
  125SOL    HW1 1274   3.311   2.881   0.077
  125SOL    HW2 1275   3.463   2.932   0.048
  126SOL     OW 1276   2.954   3.340   3.412
  126SOL    HW1 1277   2.983   3.257   3.364
  126SOL    HW2 1278   2.889   3.390   3.354
  127SOL     OW 1279   6.636   6.112   5.604
  127SOL    HW1 1280   6.716   6.120   5.544
  127SOL    HW2 1281   6.646   6.176   5.680
  128SOL     OW 1282   4.870   3.763   2.158
  128SOL    HW1 1283   4.969   3.774   2.171
  128SOL    HW2 1284   4.824   3.761   2.246
  129SOL     OW 1285   2.392   5.083   0.830
  129SOL    HW1 1286   2.446   5.109   0.750
  129SOL    HW2 1287   2.313   5.143   0.839
  130SOL     OW 1288   6.070   1.427   4.112
  130SOL    HW1 1289   6.007   1.497   4.079
  130SOL    HW2 1290   6.137   1.468   4.173
  131SOL     OW 1291   6.169   0.863   4.020
  131SOL    HW1 1292   6.110   0.782   4.017
  131SOL    HW2 1293   6.242   0.853   3.952
  132SOL     OW 1294   3.221   3.634   1.757
  132SOL    HW1 1295   3.309   3.593   1.779
  132SOL    HW2 1296   3.233   3.732   1.744
  133SOL     OW 1297   5.045   1.595   3.689
  133SOL    HW1 1298   5.023   1.646   3.772
  133SOL    HW2 1299   5.116   1.644   3.637
  134SOL     OW 1300   0.108   0.452   2.726
  134SOL    HW1 1301   0.197   0.489   2.752
  134SOL    HW2 1302   0.079   0.490   2.638
  135SOL     OW 1303   4.883   3.632   4.566
  135SOL    HW1 1304   4.900   3.694   4.643
  135SOL    HW2 1305   4.856   3.542   4.600
  136SOL     OW 1306   2.495   5.696   4.674
  136SOL    HW1 1307   2.517   5.762   4.603
  136SOL    HW2 1308   2.474   5.745   4.759
  137SOL     OW 1309   4.411   1.175   4.350
  137SOL    HW1 1310   4.491   1.123   4.378
  137SOL    HW2 1311   4.331   1.115   4.346
  138SOL     OW 1312   0.683   5.416   3.677
  138SOL    HW1 1313   0.653   5.495   3.731
  138SOL    HW2 1314   0.717   5.446   3.588
  139SOL     OW 1315   2.084   5.646   6.949
  139SOL    HW1 1316   2.020   5.616   6.877
  139SOL    HW2 1317   2.053   5.611   0.010
  140SOL     OW 1318   1.664   6.955   2.952
  140SOL    HW1 1319   1.590   6.972   2.887
  140SOL    HW2 1320   1.731   0.002   2.947
  141SOL     OW 1321   6.736   3.402   0.048
  141SOL    HW1 1322   6.744   3.499   0.024
  141SOL    HW2 1323   6.642   3.383   0.077
  142SOL     OW 1324   2.330   3.829   1.398
  142SOL    HW1 1325   2.299   3.919   1.429
  142SOL    HW2 1326   2.368   3.778   1.475
  143SOL     OW 1327   5.943   6.395   1.127
  143SOL    HW1 1328   5.976   6.379   1.034
  143SOL    HW2 1329   5.942   6.493   1.146
  144SOL     OW 1330   3.199   4.867   3.879
  144SOL    HW1 1331   3.105   4.838   3.893
  144SOL    HW2 1332   3.210   4.903   3.787
  145SOL     OW 1333   0.787   4.408   2.731
  145SOL    HW1 1334   0.737   4.322   2.742
  145SOL    HW2 1335   0.792   4.455   2.819
  146SOL     OW 1336   5.838   1.187   5.819
  146SOL    HW1 1337   5.782   1.189   5.902
  146SOL    HW2 1338   5.926   1.232   5.836
  147SOL     OW 1339   4.782   1.398   4.656
  147SOL    HW1 1340   4.781   1.498   4.667
  147SOL    HW2 1341   4.837   1.357   4.728
  148SOL     OW 1342   1.355   5.167   1.520
  148SOL    HW1 1343   1.449   5.201   1.531
  148SOL    HW2 1344   1.294   5.219   1.579
  149SOL     OW 1345   2.884   2.178   5.374
  149SOL    HW1 1346   2.968   2.152   5.327
  149SOL    HW2 1347   2.811   2.195   5.307
  150SOL     OW 1348   3.977   1.098   5.644
  150SOL    HW1 1349   4.049   1.037   5.612
  150SOL    HW2 1350   3.892   1.077   5.596
  151SOL     OW 1351   4.218   1.455   1.474
  151SOL    HW1 1352   4.158   1.517   1.423
  151SOL    HW2 1353   4.313   1.475   1.450
  152SOL     OW 1354   0.095   1.459   6.586
  152SOL    HW1 1355   0.191   1.487   6.575
  152SOL    HW2 1356   0.060   1.426   6.498
  153SOL     OW 1357   3.304   1.030   3.293
  153SOL    HW1 1358   3.385   1.063   3.245
  153SOL    HW2 1359   3.318   0.934   3.318
  154SOL     OW 1360   6.922   2.382   0.792
  154SOL    HW1 1361   6.955   2.472   0.764
  154SOL    HW2 1362   6.925   2.374   0.891
  155SOL     OW 1363   0.371   0.362   1.551
  155SOL    HW1 1364   0.278   0.390   1.528
  155SOL    HW2 1365   0.374   0.334   1.647
  156SOL     OW 1366   6.210   1.256   0.422
  156SOL    HW1 1367   6.245   1.163   0.421
  156SOL    HW2 1368   6.110   1.255   0.415
  157SOL     OW 1369   5.934   2.733   6.928
  157SOL    HW1 1370   5.847   2.761   6.967
  157SOL    HW2 1371   6.006   2.738   6.997
  158SOL     OW 1372   1.568   2.471   2.089
  158SOL    HW1 1373   1.511   2.515   2.158
  158SOL    HW2 1374   1.527   2.385   2.061
  159SOL     OW 1375   4.777   4.793   0.891
  159SOL    HW1 1376   4.862   4.816   0.844
  159SOL    HW2 1377   4.795   4.781   0.988
  160SOL     OW 1378   6.667   0.456   0.665
  160SOL    HW1 1379   6.647   0.466   0.762
  160SOL    HW2 1380   6.582   0.445   0.614
  161SOL     OW 1381   1.233   6.417   1.237
  161SOL    HW1 1382   1.140   6.389   1.216
  161SOL    HW2 1383   1.295   6.387   1.164
  162SOL     OW 1384   2.412   6.125   0.256
  162SOL    HW1 1385   2.324   6.105   0.299
  162SOL    HW2 1386   2.484   6.128   0.325
  163SOL     OW 1387   6.875   5.191   3.138
  163SOL    HW1 1388   6.873   5.156   3.231
  163SOL    HW2 1389   6.799   5.255   3.125
  164SOL     OW 1390   1.667   1.750   3.047
  164SOL    HW1 1391   1.619   1.837   3.034
  164SOL    HW2 1392   1.711   1.749   3.137
  165SOL     OW 1393   6.309   5.380   2.562
  165SOL    HW1 1394   6.292   5.459   2.503
  165SOL    HW2 1395   6.252   5.303   2.532
  166SOL     OW 1396   6.483   3.789   1.152
  166SOL    HW1 1397   6.428   3.759   1.229
  166SOL    HW2 1398   6.485   3.889   1.149
  167SOL     OW 1399   5.199   1.843   6.355
  167SOL    HW1 1400   5.257   1.765   6.332
  167SOL    HW2 1401   5.215   1.917   6.289
  168SOL     OW 1402   3.941   2.843   1.685
  168SOL    HW1 1403   3.992   2.925   1.712
  168SOL    HW2 1404   3.954   2.771   1.753
  169SOL     OW 1405   6.318   2.685   0.354
  169SOL    HW1 1406   6.329   2.762   0.291
  169SOL    HW2 1407   6.363   2.604   0.316
  170SOL     OW 1408   0.575   5.663   3.832
  170SOL    HW1 1409   0.618   5.600   3.896
  170SOL    HW2 1410   0.558   5.750   3.877
  171SOL     OW 1411   1.743   3.167   0.075
  171SOL    HW1 1412   1.721   3.139   0.169
  171SOL    HW2 1413   1.841   3.154   0.059
  172SOL     OW 1414   5.617   2.385   2.356
  172SOL    HW1 1415   5.591   2.482   2.349
  172SOL    HW2 1416   5.689   2.375   2.424
  173SOL     OW 1417   5.558   1.083   4.967
  173SOL    HW1 1418   5.518   1.122   5.050
  173SOL    HW2 1419   5.542   1.144   4.890
  174SOL     OW 1420   5.175   5.385   5.174
  174SOL    HW1 1421   5.187   5.401   5.272
  174SOL    HW2 1422   5.253   5.334   5.139
  175SOL     OW 1423   2.800   0.832   0.996
  175SOL    HW1 1424   2.713   0.844   0.949
  175SOL    HW2 1425   2.873   0.818   0.929
  176SOL     OW 1426   4.824   5.421   2.783
  176SOL    HW1 1427   4.860   5.366   2.858
  176SOL    HW2 1428   4.783   5.361   2.715
  177SOL     OW 1429   5.389   2.134   5.550
  177SOL    HW1 1430   5.363   2.054   5.496
  177SOL    HW2 1431   5.342   2.215   5.515
  178SOL     OW 1432   2.427   5.316   4.678
  178SOL    HW1 1433   2.341   5.296   4.725
  178SOL    HW2 1434   2.420   5.287   4.583
  179SOL     OW 1435   4.049   6.225   0.477
  179SOL    HW1 1436   4.001   6.163   0.415
  179SOL    HW2 1437   4.010   6.217   0.569
  180SOL     OW 1438   2.682   6.556   0.329
  180SOL    HW1 1439   2.634   6.543   0.415
  180SOL    HW2 1440   2.692   6.467   0.283
  181SOL     OW 1441   2.975   2.519   5.345
  181SOL    HW1 1442   2.895   2.461   5.357
  181SOL    HW2 1443   3.047   2.467   5.300
  182SOL     OW 1444   4.919   3.281   0.256
  182SOL    HW1 1445   4.832   3.331   0.258
  182SOL    HW2 1446   4.919   3.216   0.180
  183SOL     OW 1447   4.002   2.217   4.293
  183SOL    HW1 1448   3.914   2.200   4.248
  183SOL    HW2 1449   4.064   2.261   4.229
  184SOL     OW 1450   1.008   6.713   3.202
  184SOL    HW1 1451   0.926   6.658   3.213
  184SOL    HW2 1452   1.018   6.774   3.281
  185SOL     OW 1453   1.005   1.847   4.210
  185SOL    HW1 1454   1.012   1.945   4.190
  185SOL    HW2 1455   1.056   1.795   4.142
  186SOL     OW 1456   5.845   5.895   4.266
  186SOL    HW1 1457   5.863   5.827   4.195
  186SOL    HW2 1458   5.798   5.853   4.343
  187SOL     OW 1459   4.714   5.629   2.899
  187SOL    HW1 1460   4.683   5.700   2.837
  187SOL    HW2 1461   4.747   5.550   2.846
  188SOL     OW 1462   1.321   2.119   3.148
  188SOL    HW1 1463   1.322   2.212   3.186
  188SOL    HW2 1464   1.247   2.066   3.190
  189SOL     OW 1465   6.747   5.043   6.331
  189SOL    HW1 1466   6.710   5.129   6.366
  189SOL    HW2 1467   6.713   5.027   6.238
  190SOL     OW 1468   6.559   4.889   6.560
  190SOL    HW1 1469   6.567   4.798   6.601
  190SOL    HW2 1470   6.618   4.894   6.480
  191SOL     OW 1471   6.614   1.694   5.693
  191SOL    HW1 1472   6.686   1.672   5.759
  191SOL    HW2 1473   6.598   1.615   5.634
  192SOL     OW 1474   0.330   3.967   1.164
  192SOL    HW1 1475   0.259   4.031   1.194
  192SOL    HW2 1476   0.304   3.926   1.077
  193SOL     OW 1477   3.844   4.633   6.016
  193SOL    HW1 1478   3.786   4.664   5.941
  193SOL    HW2 1479   3.787   4.603   6.092
  194SOL     OW 1480   4.318   0.089   1.875
  194SOL    HW1 1481   4.378   0.123   1.803
  194SOL    HW2 1482   4.254   0.162   1.902
  195SOL     OW 1483   3.038   0.712   3.008
  195SOL    HW1 1484   3.065   0.617   2.992
  195SOL    HW2 1485   2.983   0.745   2.931
  196SOL     OW 1486   2.743   0.959   6.669
  196SOL    HW1 1487   2.740   0.906   6.754
  196SOL    HW2 1488   2.697   0.908   6.597
  197SOL     OW 1489   2.396   5.869   6.749
  197SOL    HW1 1490   2.434   5.955   6.784
  197SOL    HW2 1491   2.331   5.889   6.676
  198SOL     OW 1492   4.437   6.014   0.868
  198SOL    HW1 1493   4.412   5.934   0.813
  198SOL    HW2 1494   4.409   5.999   0.963
  199SOL     OW 1495   6.577   1.111   1.982
  199SOL    HW1 1496   6.549   1.015   1.987
  199SOL    HW2 1497   6.546   1.160   2.063
  200SOL     OW 1498   1.110   3.431   2.391
  200SOL    HW1 1499   1.030   3.414   2.449
  200SOL    HW2 1500   1.108   3.525   2.357
  201SOL     OW 1501   2.441   6.955   6.662
  201SOL    HW1 1502   2.411   7.012   6.586
  201SOL    HW2 1503   2.382   6.970   6.741
  202SOL     OW 1504   5.076   0.228   5.194
  202SOL    HW1 1505   5.018   0.306   5.170
  202SOL    HW2 1506   5.051   0.195   5.285
  203SOL     OW 1507   4.909   2.607   5.839
  203SOL    HW1 1508   4.995   2.646   5.804
  203SOL    HW2 1509   4.850   2.681   5.871
  204SOL     OW 1510   1.332   6.987   0.108
  204SOL    HW1 1511   1.361   6.900   0.068
  204SOL    HW2 1512   1.233   6.994   0.105
  205SOL     OW 1513   0.601   1.975   1.376
  205SOL    HW1 1514   0.591   1.882   1.342
  205SOL    HW2 1515   0.696   1.992   1.401
  206SOL     OW 1516   0.466   4.708   1.580
  206SOL    HW1 1517   0.399   4.684   1.510
  206SOL    HW2 1518   0.472   4.808   1.588
  207SOL     OW 1519   4.260   0.354   5.045
  207SOL    HW1 1520   4.242   0.452   5.048
  207SOL    HW2 1521   4.354   0.338   5.014
  208SOL     OW 1522   5.094   4.378   5.584
  208SOL    HW1 1523   5.179   4.325   5.581
  208SOL    HW2 1524   5.095   4.437   5.664
  209SOL     OW 1525   0.677   6.116   5.430
  209SOL    HW1 1526   0.709   6.066   5.511
  209SOL    HW2 1527   0.593   6.165   5.452
  210SOL     OW 1528   4.335   2.340   2.096
  210SOL    HW1 1529   4.394   2.402   2.044
  210SOL    HW2 1530   4.289   2.278   2.032
  211SOL     OW 1531   0.953   0.317   3.146
  211SOL    HW1 1532   0.970   0.399   3.090
  211SOL    HW2 1533   1.034   0.298   3.202
  212SOL     OW 1534   1.860   4.798   2.485
  212SOL    HW1 1535   1.840   4.857   2.563
  212SOL    HW2 1536   1.790   4.811   2.415
  213SOL     OW 1537   4.642   1.070   6.260
  213SOL    HW1 1538   4.613   1.108   6.172
  213SOL    HW2 1539   4.695   0.987   6.245
  214SOL     OW 1540   1.905   6.196   3.051
  214SOL    HW1 1541   2.001   6.222   3.050
  214SOL    HW2 1542   1.888   6.128   2.980
  215SOL     OW 1543   3.627   3.697   1.786
  215SOL    HW1 1544   3.584   3.735   1.869
  215SOL    HW2 1545   3.581   3.612   1.762
  216SOL     OW 1546   1.515   0.069   5.117
  216SOL    HW1 1547   1.475   0.157   5.093
  216SOL    HW2 1548   1.443   7.026   5.117
  217SOL     OW 1549   1.522   2.785   4.073
  217SOL    HW1 1550   1.428   2.752   4.067
  217SOL    HW2 1551   1.536   2.857   4.005
  218SOL     OW 1552   1.465   2.732   4.828
  218SOL    HW1 1553   1.484   2.828   4.810
  218SOL    HW2 1554   1.374   2.723   4.870
  219SOL     OW 1555   3.420   4.287   6.379
  219SOL    HW1 1556   3.438   4.373   6.426
  219SOL    HW2 1557   3.391   4.306   6.285
  220SOL     OW 1558   2.988   5.713   6.940
  220SOL    HW1 1559   2.960   5.800   6.900
  220SOL    HW2 1560   3.067   5.677   6.891
  221SOL     OW 1561   5.468   3.996   3.214
  221SOL    HW1 1562   5.540   3.944   3.168
  221SOL    HW2 1563   5.492   4.093   3.215
  222SOL     OW 1564   1.549   5.275   5.452
  222SOL    HW1 1565   1.466   5.327   5.431
  222SOL    HW2 1566   1.629   5.330   5.432
  223SOL     OW 1567   0.686   3.132   1.340
  223SOL    HW1 1568   0.664   3.223   1.376
  223SOL    HW2 1569   0.720   3.140   1.246
  224SOL     OW 1570   2.700   2.336   3.497
  224SOL    HW1 1571   2.623   2.400   3.493
  224SOL    HW2 1572   2.748   2.348   3.584
  225SOL     OW 1573   5.668   0.800   6.518
  225SOL    HW1 1574   5.761   0.800   6.481
  225SOL    HW2 1575   5.633   0.894   6.519
  226SOL     OW 1576   0.858   6.792   0.178
  226SOL    HW1 1577   0.849   6.700   0.138
  226SOL    HW2 1578   0.890   6.855   0.107
  227SOL     OW 1579   0.956   4.074   3.635
  227SOL    HW1 1580   0.955   4.083   3.535
  227SOL    HW2 1581   0.867   4.102   3.671
  228SOL     OW 1582   3.689   0.342   4.711
  228SOL    HW1 1583   3.599   0.373   4.742
  228SOL    HW2 1584   3.709   0.252   4.750
  229SOL     OW 1585   6.251   5.955   1.387
  229SOL    HW1 1586   6.160   5.958   1.344
  229SOL    HW2 1587   6.254   6.021   1.463
  230SOL     OW 1588   2.172   4.652   3.418
  230SOL    HW1 1589   2.250   4.627   3.476
  230SOL    HW2 1590   2.205   4.693   3.333
  231SOL     OW 1591   6.067   2.805   5.874
  231SOL    HW1 1592   6.157   2.774   5.904
  231SOL    HW2 1593   6.066   2.815   5.775
  232SOL     OW 1594   0.806   4.121   5.857
  232SOL    HW1 1595   0.818   4.178   5.939
  232SOL    HW2 1596   0.846   4.031   5.873
  233SOL     OW 1597   1.974   0.409   4.787
  233SOL    HW1 1598   1.897   0.346   4.784
  233SOL    HW2 1599   1.942   0.502   4.766
  234SOL     OW 1600   2.614   5.410   6.190
  234SOL    HW1 1601   2.532   5.355   6.179
  234SOL    HW2 1602   2.686   5.375   6.130
  235SOL     OW 1603   3.868   3.255   2.765
  235SOL    HW1 1604   3.863   3.155   2.768
  235SOL    HW2 1605   3.960   3.285   2.792
  236SOL     OW 1606   6.807   3.142   6.992
  236SOL    HW1 1607   6.777   3.237   6.997
  236SOL    HW2 1608   6.852   3.117   0.052
  237SOL     OW 1609   0.710   6.656   0.580
  237SOL    HW1 1610   0.737   6.685   0.671
  237SOL    HW2 1611   0.709   6.556   0.576
  238SOL     OW 1612   6.128   3.077   1.132
  238SOL    HW1 1613   6.051   3.066   1.069
  238SOL    HW2 1614   6.214   3.068   1.080
  239SOL     OW 1615   6.582   5.028   6.941
  239SOL    HW1 1616   6.503   4.984   6.898
  239SOL    HW2 1617   6.558   5.055   0.008
  240SOL     OW 1618   0.790   3.446   6.109
  240SOL    HW1 1619   0.884   3.467   6.081
  240SOL    HW2 1620   0.789   3.411   6.202
  241SOL     OW 1621   0.907   0.691   3.747
  241SOL    HW1 1622   0.955   0.605   3.733
  241SOL    HW2 1623   0.895   0.737   3.658
  242SOL     OW 1624   1.214   2.633   5.384
  242SOL    HW1 1625   1.145   2.642   5.312
  242SOL    HW2 1626   1.180   2.572   5.456
  243SOL     OW 1627   4.427   0.181   5.999
  243SOL    HW1 1628   4.334   0.196   5.966
  243SOL    HW2 1629   4.437   0.085   6.028
  244SOL     OW 1630   4.583   2.673   4.511
  244SOL    HW1 1631   4.499   2.622   4.531
  244SOL    HW2 1632   4.617   2.646   4.421
  245SOL     OW 1633   6.607   2.345   4.658
  245SOL    HW1 1634   6.613   2.398   4.742
  245SOL    HW2 1635   6.559   2.259   4.675
  246SOL     OW 1636   5.144   3.872   3.579
  246SOL    HW1 1637   5.212   3.876   3.506
  246SOL    HW2 1638   5.165   3.941   3.648
  247SOL     OW 1639   2.717   1.908   3.230
  247SOL    HW1 1640   2.716   1.935   3.327
  247SOL    HW2 1641   2.673   1.979   3.175
  248SOL     OW 1642   4.341   2.099   4.495
  248SOL    HW1 1643   4.294   2.082   4.408
  248SOL    HW2 1644   4.324   2.192   4.525
  249SOL     OW 1645   3.036   6.647   4.923
  249SOL    HW1 1646   3.017   6.587   5.001
  249SOL    HW2 1647   2.960   6.709   4.910
  250SOL     OW 1648   5.431   1.741   5.672
  250SOL    HW1 1649   5.359   1.787   5.620
  250SOL    HW2 1650   5.401   1.727   5.766
  251SOL     OW 1651   4.376   3.392   6.150
  251SOL    HW1 1652   4.317   3.365   6.225
  251SOL    HW2 1653   4.382   3.317   6.084
  252SOL     OW 1654   0.300   1.204   5.611
  252SOL    HW1 1655   0.292   1.303   5.601
  252SOL    HW2 1656   0.353   1.168   5.534
  253SOL     OW 1657   1.923   3.832   0.724
  253SOL    HW1 1658   1.857   3.899   0.756
  253SOL    HW2 1659   1.875   3.749   0.694
  254SOL     OW 1660   6.394   2.474   4.338
  254SOL    HW1 1661   6.486   2.508   4.320
  254SOL    HW2 1662   6.364   2.504   4.428
  255SOL     OW 1663   3.186   1.555   4.225
  255SOL    HW1 1664   3.193   1.568   4.126
  255SOL    HW2 1665   3.257   1.610   4.271
  256SOL     OW 1666   0.038   5.167   0.086
  256SOL    HW1 1667   6.986   5.206   0.133
  256SOL    HW2 1668   0.023   5.172   7.013
  257SOL     OW 1669   3.146   5.493   5.630
  257SOL    HW1 1670   3.158   5.531   5.538
  257SOL    HW2 1671   3.183   5.557   5.697
  258SOL     OW 1672   5.170   4.274   5.008
  258SOL    HW1 1673   5.159   4.208   4.933
  258SOL    HW2 1674   5.100   4.258   5.077
  259SOL     OW 1675   1.183   2.784   2.393
  259SOL    HW1 1676   1.179   2.876   2.355
  259SOL    HW2 1677   1.185   2.789   2.493
  260SOL     OW 1678   4.970   0.144   0.376
  260SOL    HW1 1679   4.984   0.232   0.423
  260SOL    HW2 1680   4.889   0.099   0.414
  261SOL     OW 1681   0.599   3.394   1.406
  261SOL    HW1 1682   0.675   3.455   1.380
  261SOL    HW2 1683   0.524   3.448   1.442
  262SOL     OW 1684   0.892   3.359   2.639
  262SOL    HW1 1685   0.796   3.387   2.631
  262SOL    HW2 1686   0.907   3.274   2.589
  263SOL     OW 1687   0.035   2.100   4.565
  263SOL    HW1 1688   0.108   2.141   4.619
  263SOL    HW2 1689   6.973   2.128   4.602
  264SOL     OW 1690   0.295   3.337   5.573
  264SOL    HW1 1691   0.295   3.341   5.673
  264SOL    HW2 1692   0.339   3.252   5.543
  265SOL     OW 1693   4.648   4.369   3.841
  265SOL    HW1 1694   4.704   4.448   3.867
  265SOL    HW2 1695   4.605   4.330   3.923
  266SOL     OW 1696   3.492   2.059   0.039
  266SOL    HW1 1697   3.395   2.070   0.018
  266SOL    HW2 1698   3.523   1.968   0.008
  267SOL     OW 1699   1.512   2.410   0.258
  267SOL    HW1 1700   1.549   2.318   0.246
  267SOL    HW2 1701   1.551   2.472   0.189
  268SOL     OW 1702   4.474   4.835   4.838
  268SOL    HW1 1703   4.417   4.813   4.918
  268SOL    HW2 1704   4.436   4.790   4.757
  269SOL     OW 1705   1.684   1.630   6.624
  269SOL    HW1 1706   1.613   1.561   6.639
  269SOL    HW2 1707   1.664   1.711   6.679
  270SOL     OW 1708   5.211   1.101   2.283
  270SOL    HW1 1709   5.154   1.022   2.260
  270SOL    HW2 1710   5.269   1.078   2.362
  271SOL     OW 1711   2.251   1.026   0.979
  271SOL    HW1 1712   2.267   0.929   0.959
  271SOL    HW2 1713   2.338   1.075   0.976
  272SOL     OW 1714   3.973   5.451   4.482
  272SOL    HW1 1715   4.063   5.462   4.441
  272SOL    HW2 1716   3.960   5.518   4.554
  273SOL     OW 1717   1.064   5.400   5.488
  273SOL    HW1 1718   1.079   5.301   5.480
  273SOL    HW2 1719   1.149   5.448   5.465
  274SOL     OW 1720   5.005   2.943   3.456
  274SOL    HW1 1721   4.962   2.955   3.366
  274SOL    HW2 1722   5.102   2.923   3.445
  275SOL     OW 1723   0.418   5.690   6.261
  275SOL    HW1 1724   0.404   5.749   6.340
  275SOL    HW2 1725   0.351   5.711   6.190
  276SOL     OW 1726   6.896   5.381   4.147
  276SOL    HW1 1727   6.927   5.442   4.075
  276SOL    HW2 1728   6.864   5.295   4.108
  277SOL     OW 1729   2.843   0.740   6.016
  277SOL    HW1 1730   2.752   0.760   6.052
  277SOL    HW2 1731   2.895   0.690   6.084
  278SOL     OW 1732   5.232   4.541   2.899
  278SOL    HW1 1733   5.190   4.462   2.854
  278SOL    HW2 1734   5.164   4.589   2.953
  279SOL     OW 1735   6.523   3.189   4.060
  279SOL    HW1 1736   6.501   3.196   3.963
  279SOL    HW2 1737   6.526   3.093   4.087
  280SOL     OW 1738   4.591   6.371   3.798
  280SOL    HW1 1739   4.594   6.272   3.808
  280SOL    HW2 1740   4.646   6.414   3.870
  281SOL     OW 1741   3.792   5.261   4.062
  281SOL    HW1 1742   3.834   5.204   3.991
  281SOL    HW2 1743   3.772   5.352   4.023
  282SOL     OW 1744   4.019   1.367   6.115
  282SOL    HW1 1745   3.969   1.434   6.061
  282SOL    HW2 1746   3.976   1.357   6.205
  283SOL     OW 1747   5.937   0.186   5.055
  283SOL    HW1 1748   5.839   0.180   5.038
  283SOL    HW2 1749   5.987   0.175   4.969
  284SOL     OW 1750   0.794   4.759   4.169
  284SOL    HW1 1751   0.807   4.858   4.178
  284SOL    HW2 1752   0.706   4.733   4.208
  285SOL     OW 1753   5.960   0.009   0.275
  285SOL    HW1 1754   5.970   0.080   0.345
  285SOL    HW2 1755   5.871   6.992   0.284
  286SOL     OW 1756   3.340   5.227   5.022
  286SOL    HW1 1757   3.298   5.198   5.108
  286SOL    HW2 1758   3.365   5.146   4.969
  287SOL     OW 1759   1.605   5.893   6.154
  287SOL    HW1 1760   1.603   5.992   6.143
  287SOL    HW2 1761   1.530   5.864   6.214
  288SOL     OW 1762   3.978   0.666   1.302
  288SOL    HW1 1763   3.950   0.571   1.292
  288SOL    HW2 1764   4.014   0.681   1.394
  289SOL     OW 1765   1.412   5.134   5.940
  289SOL    HW1 1766   1.338   5.110   5.877
  289SOL    HW2 1767   1.405   5.230   5.965
  290SOL     OW 1768   4.155   0.242   2.925
  290SOL    HW1 1769   4.085   0.174   2.949
  290SOL    HW2 1770   4.238   0.195   2.896
  291SOL     OW 1771   3.785   0.750   4.213
  291SOL    HW1 1772   3.835   0.777   4.131
  291SOL    HW2 1773   3.697   0.709   4.186
  292SOL     OW 1774   4.091   0.447   3.858
  292SOL    HW1 1775   4.079   0.348   3.844
  292SOL    HW2 1776   4.072   0.469   3.954
  293SOL     OW 1777   4.650   6.526   2.724
  293SOL    HW1 1778   4.726   6.487   2.777
  293SOL    HW2 1779   4.580   6.560   2.786
  294SOL     OW 1780   5.835   6.342   5.793
  294SOL    HW1 1781   5.921   6.392   5.802
  294SOL    HW2 1782   5.769   6.397   5.742
  295SOL     OW 1783   0.989   2.665   5.228
  295SOL    HW1 1784   0.917   2.606   5.192
  295SOL    HW2 1785   0.966   2.761   5.210
  296SOL     OW 1786   6.026   1.358   1.018
  296SOL    HW1 1787   6.053   1.267   1.050
  296SOL    HW2 1788   6.101   1.422   1.035
  297SOL     OW 1789   4.947   5.286   3.434
  297SOL    HW1 1790   4.847   5.286   3.428
  297SOL    HW2 1791   4.979   5.379   3.453
  298SOL     OW 1792   4.271   0.599   1.022
  298SOL    HW1 1793   4.320   0.513   1.003
  298SOL    HW2 1794   4.173   0.582   1.019
  299SOL     OW 1795   3.541   1.784   0.605
  299SOL    HW1 1796   3.495   1.869   0.632
  299SOL    HW2 1797   3.575   1.792   0.511
  300SOL     OW 1798   3.117   1.178   2.350
  300SOL    HW1 1799   3.049   1.246   2.378
  300SOL    HW2 1800   3.071   1.101   2.307
  301SOL     OW 1801   5.003   6.696   1.441
  301SOL    HW1 1802   5.011   6.613   1.386
  301SOL    HW2 1803   4.919   6.693   1.495
  302SOL     OW 1804   0.067   6.765   1.617
  302SOL    HW1 1805   7.011   6.710   1.629
  302SOL    HW2 1806   0.135   6.713   1.566
  303SOL     OW 1807   5.755   5.858   2.014
  303SOL    HW1 1808   5.735   5.803   2.095
  303SOL    HW2 1809   5.682   5.925   1.999
  304SOL     OW 1810   1.468   6.850   5.568
  304SOL    HW1 1811   1.461   6.778   5.498
  304SOL    HW2 1812   1.560   6.850   5.606
  305SOL     OW 1813   1.453   3.391   1.115
  305SOL    HW1 1814   1.524   3.380   1.046
  305SOL    HW2 1815   1.432   3.488   1.127
  306SOL     OW 1816   0.530   0.804   2.225
  306SOL    HW1 1817   0.455   0.867   2.203
  306SOL    HW2 1818   0.618   0.852   2.212
  307SOL     OW 1819   3.309   3.957   0.775
  307SOL    HW1 1820   3.241   4.029   0.786
  307SOL    HW2 1821   3.265   3.873   0.743
  308SOL     OW 1822   5.625   2.747   4.800
  308SOL    HW1 1823   5.608   2.839   4.767
  308SOL    HW2 1824   5.629   2.684   4.722
  309SOL     OW 1825   0.884   6.360   6.873
  309SOL    HW1 1826   0.946   6.417   6.819
  309SOL    HW2 1827   0.836   6.418   6.940
  310SOL     OW 1828   5.982   6.516   4.356
  310SOL    HW1 1829   6.066   6.560   4.324
  310SOL    HW2 1830   6.004   6.455   4.433
  311SOL     OW 1831   2.324   4.763   2.361
  311SOL    HW1 1832   2.405   4.821   2.355
  311SOL    HW2 1833   2.242   4.818   2.352
  312SOL     OW 1834   4.463   2.452   3.709
  312SOL    HW1 1835   4.427   2.484   3.622
  312SOL    HW2 1836   4.558   2.482   3.720
  313SOL     OW 1837   3.391   3.872   2.650
  313SOL    HW1 1838   3.462   3.934   2.617
  313SOL    HW2 1839   3.303   3.901   2.613
  314SOL     OW 1840   1.748   5.700   5.733
  314SOL    HW1 1841   1.828   5.659   5.689
  314SOL    HW2 1842   1.723   5.785   5.686
  315SOL     OW 1843   0.346   1.552   3.085
  315SOL    HW1 1844   0.276   1.544   3.156
  315SOL    HW2 1845   0.342   1.473   3.025
  316SOL     OW 1846   4.490   1.599   4.625
  316SOL    HW1 1847   4.452   1.682   4.585
  316SOL    HW2 1848   4.588   1.610   4.640
  317SOL     OW 1849   1.580   1.585   2.018
  317SOL    HW1 1850   1.544   1.676   2.000
  317SOL    HW2 1851   1.543   1.551   2.105
  318SOL     OW 1852   6.574   0.341   6.239
  318SOL    HW1 1853   6.519   0.418   6.272
  318SOL    HW2 1854   6.557   0.261   6.296
  319SOL     OW 1855   6.847   2.337   3.009
  319SOL    HW1 1856   6.886   2.299   3.093
  319SOL    HW2 1857   6.918   2.341   2.938
  320SOL     OW 1858   6.141   2.324   6.993
  320SOL    HW1 1859   6.047   2.334   7.026
  320SOL    HW2 1860   6.141   2.291   6.899
  321SOL     OW 1861   3.708   2.755   0.567
  321SOL    HW1 1862   3.778   2.819   0.534
  321SOL    HW2 1863   3.649   2.728   0.491
  322SOL     OW 1864   3.890   3.023   4.978
  322SOL    HW1 1865   3.801   2.976   4.973
  322SOL    HW2 1866   3.908   3.068   4.891
  323SOL     OW 1867   1.181   2.490   4.124
  323SOL    HW1 1868   1.116   2.427   4.081
  323SOL    HW2 1869   1.206   2.455   4.215
  324SOL     OW 1870   2.138   6.577   3.519
  324SOL    HW1 1871   2.056   6.578   3.462
  324SOL    HW2 1872   2.129   6.646   3.591
  325SOL     OW 1873   1.457   3.562   2.688
  325SOL    HW1 1874   1.481   3.616   2.607
  325SOL    HW2 1875   1.522   3.581   2.762
  326SOL     OW 1876   1.738   4.196   5.926
  326SOL    HW1 1877   1.778   4.278   5.884
  326SOL    HW2 1878   1.749   4.200   6.025
  327SOL     OW 1879   2.601   4.616   2.347
  327SOL    HW1 1880   2.653   4.577   2.271
  327SOL    HW2 1881   2.541   4.546   2.386
  328SOL     OW 1882   2.089   4.646   1.493
  328SOL    HW1 1883   2.097   4.547   1.500
  328SOL    HW2 1884   2.165   4.683   1.440
  329SOL     OW 1885   2.840   3.934   6.534
  329SOL    HW1 1886   2.914   3.981   6.582
  329SOL    HW2 1887   2.775   3.898   6.601
  330SOL     OW 1888   3.905   6.023   0.315
  330SOL    HW1 1889   3.847   6.105   0.317
  330SOL    HW2 1890   3.893   5.976   0.228
  331SOL     OW 1891   5.359   4.877   0.943
  331SOL    HW1 1892   5.361   4.798   1.005
  331SOL    HW2 1893   5.447   4.924   0.948
  332SOL     OW 1894   5.616   2.184   3.552
  332SOL    HW1 1895   5.606   2.106   3.614
  332SOL    HW2 1896   5.552   2.174   3.476
  333SOL     OW 1897   4.231   0.621   5.093
  333SOL    HW1 1898   4.201   0.702   5.042
  333SOL    HW2 1899   4.167   0.605   5.169
  334SOL     OW 1900   3.744   3.002   1.484
  334SOL    HW1 1901   3.647   3.011   1.461
  334SOL    HW2 1902   3.754   2.945   1.565
  335SOL     OW 1903   4.658   0.452   6.701
  335SOL    HW1 1904   4.566   0.430   6.734
  335SOL    HW2 1905   4.709   0.367   6.688
  336SOL     OW 1906   2.733   1.919   2.881
  336SOL    HW1 1907   2.662   1.953   2.819
  336SOL    HW2 1908   2.778   1.997   2.925
  337SOL     OW 1909   1.276   2.538   5.941
  337SOL    HW1 1910   1.194   2.587   5.910
  337SOL    HW2 1911   1.352   2.559   5.881
  338SOL     OW 1912   3.724   3.526   0.748
  338SOL    HW1 1913   3.772   3.444   0.718
  338SOL    HW2 1914   3.721   3.529   0.848
  339SOL     OW 1915   4.033   4.860   4.397
  339SOL    HW1 1916   3.944   4.906   4.404
  339SOL    HW2 1917   4.074   4.854   4.488
  340SOL     OW 1918   4.933   3.431   5.188
  340SOL    HW1 1919   4.907   3.357   5.127
  340SOL    HW2 1920   4.864   3.504   5.184
  341SOL     OW 1921   5.922   5.879   4.640
  341SOL    HW1 1922   5.938   5.976   4.660
  341SOL    HW2 1923   5.827   5.867   4.612
  342SOL     OW 1924   4.815   3.157   0.880
  342SOL    HW1 1925   4.862   3.091   0.939
  342SOL    HW2 1926   4.717   3.138   0.882
  343SOL     OW 1927   0.170   6.652   2.077
  343SOL    HW1 1928   0.133   6.701   1.998
  343SOL    HW2 1929   0.134   6.692   2.161
  344SOL     OW 1930   1.385   2.304   1.908
  344SOL    HW1 1931   1.411   2.347   1.821
  344SOL    HW2 1932   1.286   2.299   1.915
  345SOL     OW 1933   6.375   2.110   4.123
  345SOL    HW1 1934   6.290   2.162   4.127
  345SOL    HW2 1935   6.451   2.172   4.107
  346SOL     OW 1936   1.805   0.483   2.549
  346SOL    HW1 1937   1.826   0.436   2.635
  346SOL    HW2 1938   1.890   0.513   2.506
  347SOL     OW 1939   2.913   6.047   0.038
  347SOL    HW1 1940   3.001   6.091   0.024
  347SOL    HW2 1941   2.875   6.074   0.127
  348SOL     OW 1942   4.893   5.256   2.996
  348SOL    HW1 1943   4.936   5.167   2.979
  348SOL    HW2 1944   4.915   5.286   3.089
  349SOL     OW 1945   6.871   4.176   2.439
  349SOL    HW1 1946   6.970   4.172   2.448
  349SOL    HW2 1947   6.843   4.269   2.416
  350SOL     OW 1948   2.857   2.914   0.463
  350SOL    HW1 1949   2.907   2.971   0.397
  350SOL    HW2 1950   2.760   2.934   0.457
  351SOL     OW 1951   2.766   3.237   0.719
  351SOL    HW1 1952   2.825   3.317   0.708
  351SOL    HW2 1953   2.818   3.163   0.763
  352SOL     OW 1954   3.346   6.368   3.736
  352SOL    HW1 1955   3.379   6.454   3.698
  352SOL    HW2 1956   3.406   6.337   3.810
  353SOL     OW 1957   3.048   0.449   6.345
  353SOL    HW1 1958   3.147   0.444   6.333
  353SOL    HW2 1959   3.018   0.544   6.334
  354SOL     OW 1960   4.622   2.762   0.679
  354SOL    HW1 1961   4.566   2.837   0.645
  354SOL    HW2 1962   4.675   2.724   0.603
  355SOL     OW 1963   1.836   3.520   2.306
  355SOL    HW1 1964   1.870   3.520   2.400
  355SOL    HW2 1965   1.746   3.478   2.303
  356SOL     OW 1966   2.072   0.882   4.368
  356SOL    HW1 1967   2.130   0.801   4.383
  356SOL    HW2 1968   2.011   0.895   4.446
  357SOL     OW 1969   0.345   6.118   4.424
  357SOL    HW1 1970   0.370   6.192   4.362
  357SOL    HW2 1971   0.385   6.135   4.514
  358SOL     OW 1972   4.752   6.489   0.568
  358SOL    HW1 1973   4.827   6.514   0.507
  358SOL    HW2 1974   4.672   6.545   0.547
  359SOL     OW 1975   3.206   0.991   2.081
  359SOL    HW1 1976   3.192   1.079   2.037
  359SOL    HW2 1977   3.167   0.918   2.024
  360SOL     OW 1978   1.302   4.270   4.046
  360SOL    HW1 1979   1.243   4.219   4.109
  360SOL    HW2 1980   1.339   4.208   3.977
  361SOL     OW 1981   6.953   6.145   2.777
  361SOL    HW1 1982   6.933   6.242   2.773
  361SOL    HW2 1983   6.874   6.096   2.813
  362SOL     OW 1984   3.421   3.592   0.797
  362SOL    HW1 1985   3.514   3.578   0.761
  362SOL    HW2 1986   3.390   3.509   0.843
  363SOL     OW 1987   6.173   4.905   2.892
  363SOL    HW1 1988   6.171   5.000   2.861
  363SOL    HW2 1989   6.097   4.888   2.955
  364SOL     OW 1990   0.189   5.136   6.659
  364SOL    HW1 1991   0.152   5.173   6.573
  364SOL    HW2 1992   0.189   5.036   6.654
  365SOL     OW 1993   4.352   1.057   1.438
  365SOL    HW1 1994   4.373   0.966   1.474
  365SOL    HW2 1995   4.432   1.116   1.452
  366SOL     OW 1996   5.598   2.627   0.238
  366SOL    HW1 1997   5.647   2.713   0.253
  366SOL    HW2 1998   5.514   2.645   0.187
  367SOL     OW 1999   6.146   2.443   6.615
  367SOL    HW1 2000   6.135   2.366   6.678
  367SOL    HW2 2001   6.228   2.495   6.639
  368SOL     OW 2002   6.871   2.605   5.703
  368SOL    HW1 2003   6.851   2.546   5.781
  368SOL    HW2 2004   6.937   2.560   5.643
  369SOL     OW 2005   5.975   4.586   2.952
  369SOL    HW1 2006   5.919   4.547   2.879
  369SOL    HW2 2007   6.068   4.599   2.920
  370SOL     OW 2008   0.671   2.118   3.913
  370SOL    HW1 2009   0.602   2.164   3.857
  370SOL    HW2 2010   0.644   2.024   3.930
  371SOL     OW 2011   2.039   4.302   6.785
  371SOL    HW1 2012   2.114   4.365   6.803
  371SOL    HW2 2013   1.969   4.348   6.730
  372SOL     OW 2014   1.938   6.852   5.280
  372SOL    HW1 2015   1.902   6.769   5.322
  372SOL    HW2 2016   1.877   6.929   5.298
  373SOL     OW 2017   5.277   6.113   5.217
  373SOL    HW1 2018   5.243   6.042   5.279
  373SOL    HW2 2019   5.246   6.203   5.249
  374SOL     OW 2020   2.417   2.359   3.083
  374SOL    HW1 2021   2.404   2.275   3.135
  374SOL    HW2 2022   2.513   2.367   3.057
  375SOL     OW 2023   1.342   4.727   4.203
  375SOL    HW1 2024   1.341   4.763   4.297
  375SOL    HW2 2025   1.267   4.768   4.151
  376SOL     OW 2026   1.398   1.766   5.120
  376SOL    HW1 2027   1.479   1.820   5.098
  376SOL    HW2 2028   1.317   1.808   5.078
  377SOL     OW 2029   2.002   2.405   6.932
  377SOL    HW1 2030   1.943   2.432   7.008
  377SOL    HW2 2031   1.998   2.306   6.920
  378SOL     OW 2032   3.972   1.634   0.150
  378SOL    HW1 2033   3.954   1.573   0.227
  378SOL    HW2 2034   4.056   1.605   0.103
  379SOL     OW 2035   5.204   2.609   6.796
  379SOL    HW1 2036   5.129   2.646   6.852
  379SOL    HW2 2037   5.290   2.618   6.845
  380SOL     OW 2038   3.470   0.941   1.275
  380SOL    HW1 2039   3.527   1.011   1.316
  380SOL    HW2 2040   3.517   0.853   1.279
  381SOL     OW 2041   1.598   3.923   3.894
  381SOL    HW1 2042   1.692   3.957   3.901
  381SOL    HW2 2043   1.599   3.826   3.872
  382SOL     OW 2044   5.689   0.600   6.978
  382SOL    HW1 2045   5.626   0.525   6.956
  382SOL    HW2 2046   5.782   0.564   6.981
  383SOL     OW 2047   4.068   3.894   0.474
  383SOL    HW1 2048   4.106   3.928   0.560
  383SOL    HW2 2049   3.997   3.826   0.493
  384SOL     OW 2050   0.072   5.342   4.655
  384SOL    HW1 2051   0.163   5.342   4.614
  384SOL    HW2 2052   0.007   5.386   4.592
  385SOL     OW 2053   3.353   5.939   6.092
  385SOL    HW1 2054   3.254   5.952   6.088
  385SOL    HW2 2055   3.382   5.877   6.020
  386SOL     OW 2056   3.503   0.327   4.286
  386SOL    HW1 2057   3.574   0.384   4.328
  386SOL    HW2 2058   3.463   0.376   4.209
  387SOL     OW 2059   0.712   5.764   2.278
  387SOL    HW1 2060   0.703   5.863   2.281
  387SOL    HW2 2061   0.754   5.736   2.192
  388SOL     OW 2062   1.949   2.206   6.522
  388SOL    HW1 2063   1.961   2.239   6.615
  388SOL    HW2 2064   2.039   2.188   6.481
  389SOL     OW 2065   3.331   3.586   2.245
  389SOL    HW1 2066   3.329   3.561   2.148
  389SOL    HW2 2067   3.315   3.504   2.300
  390SOL     OW 2068   3.136   0.732   3.649
  390SOL    HW1 2069   3.117   0.680   3.732
  390SOL    HW2 2070   3.082   0.695   3.573
  391SOL     OW 2071   2.160   2.391   6.222
  391SOL    HW1 2072   2.162   2.300   6.264
  391SOL    HW2 2073   2.180   2.383   6.125
  392SOL     OW 2074   1.516   4.160   0.213
  392SOL    HW1 2075   1.535   4.248   0.170
  392SOL    HW2 2076   1.561   4.156   0.302
  393SOL     OW 2077   0.605   4.917   6.290
  393SOL    HW1 2078   0.695   4.925   6.248
  393SOL    HW2 2079   0.589   4.823   6.318
  394SOL     OW 2080   0.520   0.643   6.887
  394SOL    HW1 2081   0.481   0.733   6.864
  394SOL    HW2 2082   0.619   0.647   6.880
  395SOL     OW 2083   4.960   3.875   3.145
  395SOL    HW1 2084   5.049   3.919   3.137
  395SOL    HW2 2085   4.894   3.922   3.086
  396SOL     OW 2086   4.031   3.827   1.961
  396SOL    HW1 2087   3.972   3.755   1.924
  396SOL    HW2 2088   4.060   3.887   1.887
  397SOL     OW 2089   4.192   2.460   5.719
  397SOL    HW1 2090   4.102   2.419   5.702
  397SOL    HW2 2091   4.248   2.397   5.771
  398SOL     OW 2092   0.555   6.143   2.552
  398SOL    HW1 2093   0.544   6.170   2.648
  398SOL    HW2 2094   0.649   6.159   2.523
  399SOL     OW 2095   5.338   6.432   3.132
  399SOL    HW1 2096   5.347   6.401   3.037
  399SOL    HW2 2097   5.399   6.510   3.147
  400SOL     OW 2098   5.833   6.673   5.339
  400SOL    HW1 2099   5.770   6.595   5.341
  400SOL    HW2 2100   5.793   6.750   5.389
  401SOL     OW 2101   5.042   0.968   5.122
  401SOL    HW1 2102   5.015   0.963   5.218
  401SOL    HW2 2103   5.058   0.876   5.087
  402SOL     OW 2104   6.154   0.308   3.237
  402SOL    HW1 2105   6.069   0.321   3.287
  402SOL    HW2 2106   6.141   0.239   3.166
  403SOL     OW 2107   4.338   2.102   4.940
  403SOL    HW1 2108   4.302   2.180   4.889
  403SOL    HW2 2109   4.407   2.133   5.004
  404SOL     OW 2110   1.780   5.974   4.245
  404SOL    HW1 2111   1.822   5.922   4.171
  404SOL    HW2 2112   1.688   5.941   4.262
  405SOL     OW 2113   1.650   3.968   1.809
  405SOL    HW1 2114   1.668   3.941   1.904
  405SOL    HW2 2115   1.736   3.994   1.765
  406SOL     OW 2116   0.828   3.840   3.909
  406SOL    HW1 2117   0.872   3.859   3.996
  406SOL    HW2 2118   0.729   3.840   3.921
  407SOL     OW 2119   2.028   0.123   3.625
  407SOL    HW1 2120   2.041   0.060   3.548
  407SOL    HW2 2121   2.015   0.216   3.590
  408SOL     OW 2122   0.735   2.153   3.164
  408SOL    HW1 2123   0.707   2.223   3.099
  408SOL    HW2 2124   0.702   2.178   3.255
  409SOL     OW 2125   5.989   2.614   1.007
  409SOL    HW1 2126   5.953   2.654   0.922
  409SOL    HW2 2127   6.023   2.522   0.988
  410SOL     OW 2128   1.759   0.466   0.399
  410SOL    HW1 2129   1.662   0.446   0.394
  410SOL    HW2 2130   1.811   0.390   0.359
  411SOL     OW 2131   5.412   6.540   6.621
  411SOL    HW1 2132   5.357   6.610   6.574
  411SOL    HW2 2133   5.475   6.498   6.556
  412SOL     OW 2134   5.574   6.584   3.447
  412SOL    HW1 2135   5.526   6.525   3.382
  412SOL    HW2 2136   5.512   6.610   3.521
  413SOL     OW 2137   5.396   5.432   1.833
  413SOL    HW1 2138   5.462   5.504   1.854
  413SOL    HW2 2139   5.328   5.428   1.907
  414SOL     OW 2140   3.748   4.924   3.668
  414SOL    HW1 2141   3.785   4.901   3.759
  414SOL    HW2 2142   3.812   4.984   3.621
  415SOL     OW 2143   1.084   5.978   6.553
  415SOL    HW1 2144   1.080   6.003   6.456
  415SOL    HW2 2145   1.102   6.060   6.607
  416SOL     OW 2146   4.974   5.545   4.059
  416SOL    HW1 2147   5.015   5.608   4.124
  416SOL    HW2 2148   5.009   5.453   4.074
  417SOL     OW 2149   2.171   4.988   0.635
  417SOL    HW1 2150   2.194   4.962   0.729
  417SOL    HW2 2151   2.239   4.948   0.573
  418SOL     OW 2152   4.163   5.995   2.119
  418SOL    HW1 2153   4.175   6.081   2.168
  418SOL    HW2 2154   4.196   6.004   2.026
  419SOL     OW 2155   1.656   0.015   0.980
  419SOL    HW1 2156   1.598   6.975   1.027
  419SOL    HW2 2157   1.604   0.061   0.908
  420SOL     OW 2158   6.303   2.081   0.585
  420SOL    HW1 2159   6.221   2.051   0.537
  420SOL    HW2 2160   6.323   2.018   0.660
  421SOL     OW 2161   0.235   4.959   5.964
  421SOL    HW1 2162   0.142   4.963   6.001
  421SOL    HW2 2163   0.275   4.870   5.986
  422SOL     OW 2164   5.290   4.570   0.562
  422SOL    HW1 2165   5.329   4.488   0.520
  422SOL    HW2 2166   5.215   4.604   0.505
  423SOL     OW 2167   1.011   2.590   0.259
  423SOL    HW1 2168   0.956   2.548   0.188
  423SOL    HW2 2169   1.004   2.690   0.252
  424SOL     OW 2170   2.819   3.520   1.354
  424SOL    HW1 2171   2.867   3.606   1.337
  424SOL    HW2 2172   2.872   3.444   1.317
  425SOL     OW 2173   5.797   1.048   2.040
  425SOL    HW1 2174   5.742   1.102   1.975
  425SOL    HW2 2175   5.737   0.999   2.102
  426SOL     OW 2176   4.731   2.537   3.710
  426SOL    HW1 2177   4.697   2.600   3.780
  426SOL    HW2 2178   4.828   2.554   3.694
  427SOL     OW 2179   5.175   5.184   2.706
  427SOL    HW1 2180   5.194   5.095   2.666
  427SOL    HW2 2181   5.077   5.194   2.723
  428SOL     OW 2182   4.401   0.616   4.591
  428SOL    HW1 2183   4.500   0.630   4.596
  428SOL    HW2 2184   4.381   0.518   4.594
  429SOL     OW 2185   2.567   3.790   0.780
  429SOL    HW1 2186   2.485   3.755   0.825
  429SOL    HW2 2187   2.581   3.886   0.807
  430SOL     OW 2188   6.576   0.282   4.223
  430SOL    HW1 2189   6.647   0.351   4.209
  430SOL    HW2 2190   6.617   0.191   4.214
  431SOL     OW 2191   3.599   6.810   0.330
  431SOL    HW1 2192   3.687   6.826   0.374
  431SOL    HW2 2193   3.596   6.858   0.242
  432SOL     OW 2194   6.556   1.681   1.499
  432SOL    HW1 2195   6.582   1.704   1.405
  432SOL    HW2 2196   6.638   1.671   1.555
  433SOL     OW 2197   3.387   6.164   4.513
  433SOL    HW1 2198   3.416   6.220   4.435
  433SOL    HW2 2199   3.300   6.119   4.491
  434SOL     OW 2200   3.657   6.304   1.985
  434SOL    HW1 2201   3.730   6.255   1.937
  434SOL    HW2 2202   3.677   6.307   2.083
  435SOL     OW 2203   5.272   2.361   5.437
  435SOL    HW1 2204   5.200   2.406   5.384
  435SOL    HW2 2205   5.320   2.429   5.492
  436SOL     OW 2206   3.213   6.161   1.007
  436SOL    HW1 2207   3.188   6.237   1.066
  436SOL    HW2 2208   3.271   6.097   1.058
  437SOL     OW 2209   1.249   0.024   6.391
  437SOL    HW1 2210   1.238   6.995   6.308
  437SOL    HW2 2211   1.191   0.106   6.384
  438SOL     OW 2212   2.106   3.354   2.334
  438SOL    HW1 2213   2.164   3.275   2.356
  438SOL    HW2 2214   2.024   3.351   2.391
  439SOL     OW 2215   5.866   4.293   3.530
  439SOL    HW1 2216   5.791   4.309   3.594
  439SOL    HW2 2217   5.848   4.209   3.479
  440SOL     OW 2218   1.596   1.297   5.107
  440SOL    HW1 2219   1.635   1.285   5.016
  440SOL    HW2 2220   1.616   1.390   5.140
  441SOL     OW 2221   1.234   2.591   3.611
  441SOL    HW1 2222   1.251   2.500   3.649
  441SOL    HW2 2223   1.137   2.600   3.585
  442SOL     OW 2224   2.936   5.173   6.275
  442SOL    HW1 2225   2.904   5.120   6.196
  442SOL    HW2 2226   2.885   5.145   6.357
  443SOL     OW 2227   6.450   4.091   4.482
  443SOL    HW1 2228   6.503   4.031   4.541
  443SOL    HW2 2229   6.385   4.144   4.537
  444SOL     OW 2230   5.330   1.707   5.955
  444SOL    HW1 2231   5.237   1.688   5.988
  444SOL    HW2 2232   5.385   1.743   6.030
  445SOL     OW 2233   0.992   5.313   2.686
  445SOL    HW1 2234   0.947   5.251   2.622
  445SOL    HW2 2235   0.965   5.407   2.666
  446SOL     OW 2236   4.161   4.736   3.585
  446SOL    HW1 2237   4.244   4.705   3.537
  446SOL    HW2 2238   4.170   4.715   3.682
  447SOL     OW 2239   0.900   2.616   6.464
  447SOL    HW1 2240   0.952   2.637   6.381
  447SOL    HW2 2241   0.923   2.682   6.535
  448SOL     OW 2242   3.102   0.647   4.172
  448SOL    HW1 2243   3.146   0.658   4.261
  448SOL    HW2 2244   3.040   0.724   4.155
  449SOL     OW 2245   4.508   0.862   4.354
  449SOL    HW1 2246   4.583   0.918   4.391
  449SOL    HW2 2247   4.476   0.800   4.425
  450SOL     OW 2248   1.459   5.857   3.792
  450SOL    HW1 2249   1.526   5.788   3.766
  450SOL    HW2 2250   1.504   5.945   3.803
  451SOL     OW 2251   1.969   1.943   3.609
  451SOL    HW1 2252   1.963   2.042   3.595
  451SOL    HW2 2253   2.045   1.906   3.556
  452SOL     OW 2254   6.414   6.492   1.093
  452SOL    HW1 2255   6.380   6.464   1.183
  452SOL    HW2 2256   6.448   6.412   1.044
  453SOL     OW 2257   3.698   1.110   4.911
  453SOL    HW1 2258   3.749   1.117   4.825
  453SOL    HW2 2259   3.759   1.126   4.988
  454SOL     OW 2260   7.007   5.151   6.232
  454SOL    HW1 2261   0.014   5.081   6.169
  454SOL    HW2 2262   6.918   5.123   6.268
  455SOL     OW 2263   6.044   2.665   2.727
  455SOL    HW1 2264   6.064   2.675   2.629
  455SOL    HW2 2265   6.125   2.690   2.780
  456SOL     OW 2266   5.794   6.391   4.181
  456SOL    HW1 2267   5.868   6.443   4.223
  456SOL    HW2 2268   5.707   6.435   4.201
  457SOL     OW 2269   1.854   3.362   3.768
  457SOL    HW1 2270   1.916   3.351   3.691
  457SOL    HW2 2271   1.831   3.459   3.779
  458SOL     OW 2272   4.398   5.532   3.395
  458SOL    HW1 2273   4.476   5.593   3.413
  458SOL    HW2 2274   4.369   5.543   3.300
  459SOL     OW 2275   1.728   0.036   5.297
  459SOL    HW1 2276   1.693   0.051   5.389
  459SOL    HW2 2277   1.652   0.033   5.232
  460SOL     OW 2278   1.718   0.131   3.766
  460SOL    HW1 2279   1.725   0.085   3.855
  460SOL    HW2 2280   1.743   0.227   3.776
  461SOL     OW 2281   5.806   6.930   6.044
  461SOL    HW1 2282   5.779   7.000   5.978
  461SOL    HW2 2283   5.903   6.943   6.067
  462SOL     OW 2284   3.370   3.048   6.323
  462SOL    HW1 2285   3.408   3.112   6.390
  462SOL    HW2 2286   3.285   3.085   6.286
  463SOL     OW 2287   6.633   5.692   2.896
  463SOL    HW1 2288   6.692   5.706   2.817
  463SOL    HW2 2289   6.548   5.744   2.885
  464SOL     OW 2290   2.212   2.016   5.152
  464SOL    HW1 2291   2.305   1.983   5.139
  464SOL    HW2 2292   2.193   2.024   5.250
  465SOL     OW 2293   0.681   2.573   5.662
  465SOL    HW1 2294   0.767   2.522   5.662
  465SOL    HW2 2295   0.656   2.595   5.567
  466SOL     OW 2296   0.807   5.713   3.184
  466SOL    HW1 2297   0.762   5.757   3.262
  466SOL    HW2 2298   0.879   5.772   3.149
  467SOL     OW 2299   1.694   1.521   0.550
  467SOL    HW1 2300   1.728   1.614   0.534
  467SOL    HW2 2301   1.743   1.457   0.490
  468SOL     OW 2302   3.641   6.891   0.048
  468SOL    HW1 2303   3.706   6.941   7.018
  468SOL    HW2 2304   3.661   6.793   0.043
  469SOL     OW 2305   2.609   3.924   6.957
  469SOL    HW1 2306   2.510   3.922   6.971
  469SOL    HW2 2307   2.630   3.888   6.866
  470SOL     OW 2308   4.531   0.368   2.132
  470SOL    HW1 2309   4.434   0.383   2.146
  470SOL    HW2 2310   4.553   0.273   2.153
  471SOL     OW 2311   2.539   2.236   4.051
  471SOL    HW1 2312   2.507   2.319   4.097
  471SOL    HW2 2313   2.495   2.230   3.961
  472SOL     OW 2314   5.231   3.642   6.622
  472SOL    HW1 2315   5.300   3.575   6.650
  472SOL    HW2 2316   5.155   3.639   6.687
  473SOL     OW 2317   1.200   3.089   2.892
  473SOL    HW1 2318   1.191   3.032   2.810
  473SOL    HW2 2319   1.197   3.185   2.865
  474SOL     OW 2320   5.432   5.598   4.100
  474SOL    HW1 2321   5.449   5.623   4.004
  474SOL    HW2 2322   5.375   5.668   4.143
  475SOL     OW 2323   5.586   0.815   6.790
  475SOL    HW1 2324   5.622   0.751   6.859
  475SOL    HW2 2325   5.600   0.776   6.699
  476SOL     OW 2326   6.619   3.891   3.354
  476SOL    HW1 2327   6.714   3.861   3.347
  476SOL    HW2 2328   6.558   3.814   3.335
  477SOL     OW 2329   2.089   5.039   3.726
  477SOL    HW1 2330   2.123   5.095   3.801
  477SOL    HW2 2331   2.089   4.943   3.754
  478SOL     OW 2332   3.435   6.895   1.673
  478SOL    HW1 2333   3.349   6.861   1.710
  478SOL    HW2 2334   3.478   6.956   1.740
  479SOL     OW 2335   4.165   2.456   6.071
  479SOL    HW1 2336   4.132   2.394   6.142
  479SOL    HW2 2337   4.263   2.471   6.083
  480SOL     OW 2338   2.227   1.267   6.767
  480SOL    HW1 2339   2.315   1.220   6.768
  480SOL    HW2 2340   2.230   1.343   6.702
  481SOL     OW 2341   1.715   6.874   0.521
  481SOL    HW1 2342   1.794   6.885   0.461
  481SOL    HW2 2343   1.634   6.855   0.466
  482SOL     OW 2344   4.551   4.980   3.055
  482SOL    HW1 2345   4.564   5.001   2.958
  482SOL    HW2 2346   4.458   4.947   3.070
  483SOL     OW 2347   6.508   0.864   2.011
  483SOL    HW1 2348   6.414   0.848   2.043
  483SOL    HW2 2349   6.571   0.810   2.067
  484SOL     OW 2350   1.696   3.425   5.097
  484SOL    HW1 2351   1.720   3.496   5.162
  484SOL    HW2 2352   1.734   3.337   5.128
  485SOL     OW 2353   3.845   5.220   2.562
  485SOL    HW1 2354   3.893   5.161   2.626
  485SOL    HW2 2355   3.836   5.311   2.600
  486SOL     OW 2356   6.752   1.714   0.459
  486SOL    HW1 2357   6.803   1.791   0.421
  486SOL    HW2 2358   6.694   1.746   0.534
  487SOL     OW 2359   1.120   0.580   1.065
  487SOL    HW1 2360   1.140   0.613   1.157
  487SOL    HW2 2361   1.192   0.611   1.002
  488SOL     OW 2362   0.945   1.439   2.464
  488SOL    HW1 2363   0.867   1.426   2.403
  488SOL    HW2 2364   0.916   1.492   2.544
  489SOL     OW 2365   3.235   6.377   6.569
  489SOL    HW1 2366   3.216   6.470   6.539
  489SOL    HW2 2367   3.326   6.349   6.539
  490SOL     OW 2368   6.174   5.681   3.516
  490SOL    HW1 2369   6.168   5.780   3.519
  490SOL    HW2 2370   6.082   5.642   3.507
  491SOL     OW 2371   0.271   3.162   2.827
  491SOL    HW1 2372   0.326   3.245   2.831
  491SOL    HW2 2373   0.193   3.176   2.765
  492SOL     OW 2374   2.165   0.578   5.741
  492SOL    HW1 2375   2.144   0.639   5.665
  492SOL    HW2 2376   2.107   0.600   5.819
  493SOL     OW 2377   5.203   5.888   4.891
  493SOL    HW1 2378   5.282   5.924   4.842
  493SOL    HW2 2379   5.233   5.843   4.975
  494SOL     OW 2380   0.249   0.339   6.827
  494SOL    HW1 2381   0.231   0.271   6.898
  494SOL    HW2 2382   0.278   0.293   6.743
  495SOL     OW 2383   4.839   5.929   3.362
  495SOL    HW1 2384   4.909   5.888   3.420
  495SOL    HW2 2385   4.859   5.908   3.266
  496SOL     OW 2386   5.259   4.031   1.912
  496SOL    HW1 2387   5.285   4.059   1.819
  496SOL    HW2 2388   5.159   4.025   1.918
  497SOL     OW 2389   3.380   1.314   4.495
  497SOL    HW1 2390   3.433   1.229   4.499
  497SOL    HW2 2391   3.384   1.351   4.402
  498SOL     OW 2392   2.399   3.642   1.197
  498SOL    HW1 2393   2.346   3.698   1.260
  498SOL    HW2 2394   2.383   3.545   1.218
  499SOL     OW 2395   2.446   6.659   4.223
  499SOL    HW1 2396   2.474   6.598   4.298
  499SOL    HW2 2397   2.353   6.691   4.239
  500SOL     OW 2398   0.597   3.253   4.370
  500SOL    HW1 2399   0.663   3.303   4.425
  500SOL    HW2 2400   0.529   3.317   4.333
  501SOL     OW 2401   2.956   5.457   1.022
  501SOL    HW1 2402   3.008   5.482   0.940
  501SOL    HW2 2403   2.872   5.411   0.995
  502SOL     OW 2404   0.118   3.955   0.436
  502SOL    HW1 2405   0.116   3.984   0.341
  502SOL    HW2 2406   0.027   3.925   0.464
  503SOL     OW 2407   6.420   5.334   6.501
  503SOL    HW1 2408   6.444   5.407   6.565
  503SOL    HW2 2409   6.408   5.248   6.551
  504SOL     OW 2410   1.396   5.656   2.693
  504SOL    HW1 2411   1.360   5.704   2.772
  504SOL    HW2 2412   1.356   5.694   2.610
  505SOL     OW 2413   2.806   6.160   5.276
  505SOL    HW1 2414   2.752   6.209   5.207
  505SOL    HW2 2415   2.903   6.172   5.257
  506SOL     OW 2416   1.744   5.208   4.636
  506SOL    HW1 2417   1.722   5.111   4.623
  506SOL    HW2 2418   1.678   5.248   4.700
  507SOL     OW 2419   3.251   6.430   2.990
  507SOL    HW1 2420   3.329   6.369   3.000
  507SOL    HW2 2421   3.177   6.398   3.050
  508SOL     OW 2422   6.868   3.743   2.401
  508SOL    HW1 2423   6.829   3.711   2.315
  508SOL    HW2 2424   6.922   3.825   2.386
  509SOL     OW 2425   3.104   0.954   1.616
  509SOL    HW1 2426   3.204   0.950   1.614
  509SOL    HW2 2427   3.066   0.864   1.592
  510SOL     OW 2428   5.785   4.802   0.296
  510SOL    HW1 2429   5.742   4.724   0.250
  510SOL    HW2 2430   5.868   4.772   0.342
  511SOL     OW 2431   0.652   1.397   5.862
  511SOL    HW1 2432   0.594   1.476   5.883
  511SOL    HW2 2433   0.663   1.341   5.944
  512SOL     OW 2434   6.599   2.670   6.961
  512SOL    HW1 2435   6.620   2.687   6.865
  512SOL    HW2 2436   6.564   2.577   6.971
  513SOL     OW 2437   6.141   6.879   3.292
  513SOL    HW1 2438   6.101   6.971   3.291
  513SOL    HW2 2439   6.241   6.887   3.292
  514SOL     OW 2440   6.159   2.433   4.012
  514SOL    HW1 2441   6.143   2.368   4.087
  514SOL    HW2 2442   6.079   2.493   4.003
  515SOL     OW 2443   1.305   0.658   6.487
  515SOL    HW1 2444   1.320   0.559   6.484
  515SOL    HW2 2445   1.358   0.697   6.563
  516SOL     OW 2446   2.399   5.108   2.286
  516SOL    HW1 2447   2.334   5.132   2.358
  516SOL    HW2 2448   2.465   5.042   2.322
  517SOL     OW 2449   4.862   5.363   2.332
  517SOL    HW1 2450   4.809   5.441   2.300
  517SOL    HW2 2451   4.959   5.386   2.333
  518SOL     OW 2452   2.405   2.503   2.877
  518SOL    HW1 2453   2.440   2.439   2.809
  518SOL    HW2 2454   2.402   2.459   2.967
  519SOL     OW 2455   0.713   0.754   4.867
  519SOL    HW1 2456   0.776   0.783   4.795
  519SOL    HW2 2457   0.622   0.793   4.849
  520SOL     OW 2458   6.237   4.305   0.359
  520SOL    HW1 2459   6.289   4.311   0.274
  520SOL    HW2 2460   6.262   4.381   0.419
  521SOL     OW 2461   6.096   4.034   4.948
  521SOL    HW1 2462   6.195   4.022   4.950
  521SOL    HW2 2463   6.053   3.952   4.908
  522SOL     OW 2464   3.656   3.033   4.754
  522SOL    HW1 2465   3.755   3.026   4.739
  522SOL    HW2 2466   3.628   2.964   4.822
  523SOL     OW 2467   0.351   4.958   1.865
  523SOL    HW1 2468   0.400   5.015   1.931
  523SOL    HW2 2469   0.267   5.003   1.838
  524SOL     OW 2470   6.998   1.225   1.023
  524SOL    HW1 2471   0.038   1.269   1.084
  524SOL    HW2 2472   0.020   1.165   0.960
  525SOL     OW 2473   2.043   3.192   5.924
  525SOL    HW1 2474   2.032   3.210   6.022
  525SOL    HW2 2475   2.139   3.171   5.905
  526SOL     OW 2476   4.216   6.321   4.566
  526SOL    HW1 2477   4.209   6.227   4.599
  526SOL    HW2 2478   4.125   6.363   4.566
  527SOL     OW 2479   6.654   2.369   6.950
  527SOL    HW1 2480   6.609   2.333   0.005
  527SOL    HW2 2481   6.736   2.419   6.977
  528SOL     OW 2482   0.746   1.851   3.235
  528SOL    HW1 2483   0.742   1.947   3.208
  528SOL    HW2 2484   0.763   1.845   3.334
  529SOL     OW 2485   1.806   6.806   3.967
  529SOL    HW1 2486   1.869   6.869   3.920
  529SOL    HW2 2487   1.730   6.784   3.906
  530SOL     OW 2488   3.272   2.993   4.530
  530SOL    HW1 2489   3.369   2.968   4.530
  530SOL    HW2 2490   3.239   2.997   4.435
  531SOL     OW 2491   0.727   0.989   3.124
  531SOL    HW1 2492   0.642   0.936   3.132
  531SOL    HW2 2493   0.752   0.996   3.027
  532SOL     OW 2494   1.396   2.269   0.000
  532SOL    HW1 2495   1.306   2.224   0.001
  532SOL    HW2 2496   1.388   2.362   0.035
  533SOL     OW 2497   4.715   6.985   3.823
  533SOL    HW1 2498   4.805   7.012   3.858
  533SOL    HW2 2499   4.711   6.886   3.814
  534SOL     OW 2500   5.073   6.210   2.763
  534SOL    HW1 2501   5.015   6.130   2.781
  534SOL    HW2 2502   5.167   6.180   2.744
  535SOL     OW 2503   0.853   3.809   4.239
  535SOL    HW1 2504   0.945   3.839   4.213
  535SOL    HW2 2505   0.823   3.861   4.319
  536SOL     OW 2506   6.770   5.355   1.709
  536SOL    HW1 2507   6.759   5.358   1.610
  536SOL    HW2 2508   6.698   5.410   1.752
  537SOL     OW 2509   2.092   6.340   4.351
  537SOL    HW1 2510   2.190   6.360   4.348
  537SOL    HW2 2511   2.074   6.252   4.308
  538SOL     OW 2512   1.233   4.246   2.688
  538SOL    HW1 2513   1.307   4.187   2.722
  538SOL    HW2 2514   1.167   4.262   2.761
  539SOL     OW 2515   1.397   6.531   0.822
  539SOL    HW1 2516   1.317   6.590   0.822
  539SOL    HW2 2517   1.382   6.455   0.758
  540SOL     OW 2518   0.862   0.224   2.844
  540SOL    HW1 2519   0.777   0.259   2.803
  540SOL    HW2 2520   0.907   0.297   2.894
  541SOL     OW 2521   3.817   6.412   4.212
  541SOL    HW1 2522   3.899   6.463   4.240
  541SOL    HW2 2523   3.766   6.466   4.145
  542SOL     OW 2524   6.617   0.383   7.023
  542SOL    HW1 2525   6.592   0.303   0.050
  542SOL    HW2 2526   6.551   0.456   0.012
  543SOL     OW 2527   1.554   4.113   5.646
  543SOL    HW1 2528   1.579   4.181   5.716
  543SOL    HW2 2529   1.477   4.058   5.680
  544SOL     OW 2530   2.509   3.753   0.176
  544SOL    HW1 2531   2.588   3.779   0.120
  544SOL    HW2 2532   2.446   3.830   0.182
  545SOL     OW 2533   2.977   0.454   2.686
  545SOL    HW1 2534   2.892   0.487   2.727
  545SOL    HW2 2535   2.981   0.484   2.590
  546SOL     OW 2536   1.570   3.246   0.916
  546SOL    HW1 2537   1.522   3.194   0.845
  546SOL    HW2 2538   1.669   3.234   0.905
  547SOL     OW 2539   3.170   1.533   7.020
  547SOL    HW1 2540   3.125   1.446   7.001
  547SOL    HW2 2541   3.234   1.521   0.069
  548SOL     OW 2542   3.846   2.984   2.740
  548SOL    HW1 2543   3.823   2.952   2.832
  548SOL    HW2 2544   3.778   2.948   2.675
  549SOL     OW 2545   4.637   3.388   1.052
  549SOL    HW1 2546   4.634   3.302   1.002
  549SOL    HW2 2547   4.609   3.372   1.147
  550SOL     OW 2548   6.057   4.246   3.286
  550SOL    HW1 2549   6.003   4.278   3.364
  550SOL    HW2 2550   5.997   4.202   3.219
  551SOL     OW 2551   1.195   0.600   1.557
  551SOL    HW1 2552   1.208   0.634   1.464
  551SOL    HW2 2553   1.132   0.660   1.606
  552SOL     OW 2554   4.833   4.678   0.040
  552SOL    HW1 2555   4.765   4.607   0.023
  552SOL    HW2 2556   4.890   4.690   6.986
  553SOL     OW 2557   1.812   6.687   2.370
  553SOL    HW1 2558   1.834   6.784   2.379
  553SOL    HW2 2559   1.714   6.677   2.350
  554SOL     OW 2560   5.651   6.738   5.944
  554SOL    HW1 2561   5.712   6.785   6.008
  554SOL    HW2 2562   5.641   6.642   5.972
  555SOL     OW 2563   1.860   5.629   2.945
  555SOL    HW1 2564   1.761   5.613   2.946
  555SOL    HW2 2565   1.899   5.590   2.861
  556SOL     OW 2566   5.118   2.347   3.496
  556SOL    HW1 2567   5.073   2.407   3.430
  556SOL    HW2 2568   5.165   2.402   3.564
  557SOL     OW 2569   0.394   4.639   0.120
  557SOL    HW1 2570   0.376   4.546   0.152
  557SOL    HW2 2571   0.492   4.657   0.125
  558SOL     OW 2572   2.944   3.448   4.438
  558SOL    HW1 2573   2.968   3.375   4.501
  558SOL    HW2 2574   2.924   3.409   4.348
  559SOL     OW 2575   6.557   5.478   6.697
  559SOL    HW1 2576   6.651   5.443   6.704
  559SOL    HW2 2577   6.505   5.450   6.778
  560SOL     OW 2578   4.322   5.268   0.651
  560SOL    HW1 2579   4.248   5.225   0.702
  560SOL    HW2 2580   4.285   5.319   0.573
  561SOL     OW 2581   6.037   1.132   0.186
  561SOL    HW1 2582   5.980   1.066   0.137
  561SOL    HW2 2583   6.130   1.130   0.148
  562SOL     OW 2584   5.082   0.630   5.808
  562SOL    HW1 2585   5.085   0.657   5.712
  562SOL    HW2 2586   5.163   0.666   5.855
  563SOL     OW 2587   1.928   0.445   3.149
  563SOL    HW1 2588   1.987   0.366   3.136
  563SOL    HW2 2589   1.845   0.417   3.198
  564SOL     OW 2590   2.848   1.922   6.614
  564SOL    HW1 2591   2.945   1.944   6.603
  564SOL    HW2 2592   2.832   1.885   6.705
  565SOL     OW 2593   3.564   2.772   5.810
  565SOL    HW1 2594   3.601   2.728   5.892
  565SOL    HW2 2595   3.496   2.712   5.768
  566SOL     OW 2596   6.076   4.296   4.572
  566SOL    HW1 2597   6.040   4.365   4.634
  566SOL    HW2 2598   6.057   4.322   4.477
  567SOL     OW 2599   3.929   3.882   2.528
  567SOL    HW1 2600   3.885   3.925   2.449
  567SOL    HW2 2601   3.897   3.926   2.612
  568SOL     OW 2602   4.103   2.131   0.078
  568SOL    HW1 2603   4.038   2.060   0.052
  568SOL    HW2 2604   4.054   2.212   0.110
  569SOL     OW 2605   1.330   3.274   6.763
  569SOL    HW1 2606   1.373   3.185   6.750
  569SOL    HW2 2607   1.393   3.346   6.734
  570SOL     OW 2608   2.624   6.250   6.726
  570SOL    HW1 2609   2.525   6.241   6.736
  570SOL    HW2 2610   2.653   6.212   6.639
  571SOL     OW 2611   2.711   0.147   2.534
  571SOL    HW1 2612   2.738   0.160   2.439
  571SOL    HW2 2613   2.787   0.171   2.594
  572SOL     OW 2614   2.438   4.908   5.913
  572SOL    HW1 2615   2.454   4.847   5.836
  572SOL    HW2 2616   2.367   4.974   5.890
  573SOL     OW 2617   5.092   1.245   5.117
  573SOL    HW1 2618   5.061   1.150   5.119
  573SOL    HW2 2619   5.088   1.283   5.209
  574SOL     OW 2620   2.942   2.210   4.344
  574SOL    HW1 2621   2.942   2.181   4.248
  574SOL    HW2 2622   2.942   2.130   4.403
  575SOL     OW 2623   5.950   3.056   0.241
  575SOL    HW1 2624   5.924   3.114   0.318
  575SOL    HW2 2625   6.049   3.057   0.230
  576SOL     OW 2626   0.896   2.038   2.828
  576SOL    HW1 2627   0.798   2.054   2.837
  576SOL    HW2 2628   0.921   2.045   2.731
  577SOL     OW 2629   2.174   1.035   3.436
  577SOL    HW1 2630   2.083   1.023   3.395
  577SOL    HW2 2631   2.244   1.002   3.373
  578SOL     OW 2632   6.610   4.624   3.349
  578SOL    HW1 2633   6.644   4.559   3.281
  578SOL    HW2 2634   6.636   4.594   3.440
  579SOL     OW 2635   1.782   3.409   1.757
  579SOL    HW1 2636   1.746   3.372   1.671
  579SOL    HW2 2637   1.880   3.425   1.748
  580SOL     OW 2638   0.097   4.484   6.835
  580SOL    HW1 2639   0.031   4.552   6.865
  580SOL    HW2 2640   0.189   4.520   6.843
  581SOL     OW 2641   3.097   3.713   2.359
  581SOL    HW1 2642   3.181   3.681   2.315
  581SOL    HW2 2643   3.021   3.701   2.295
  582SOL     OW 2644   5.900   4.974   2.483
  582SOL    HW1 2645   5.813   4.957   2.529
  582SOL    HW2 2646   5.903   4.925   2.396
  583SOL     OW 2647   2.664   5.524   6.445
  583SOL    HW1 2648   2.605   5.551   6.522
  583SOL    HW2 2649   2.612   5.465   6.383
  584SOL     OW 2650   1.733   3.990   6.556
  584SOL    HW1 2651   1.783   4.052   6.496
  584SOL    HW2 2652   1.697   4.041   6.634
  585SOL     OW 2653   5.799   2.801   6.511
  585SOL    HW1 2654   5.844   2.820   6.424
  585SOL    HW2 2655   5.833   2.714   6.547
  586SOL     OW 2656   3.351   1.293   6.316
  586SOL    HW1 2657   3.416   1.328   6.384
  586SOL    HW2 2658   3.334   1.196   6.333
  587SOL     OW 2659   2.802   2.359   4.837
  587SOL    HW1 2660   2.730   2.387   4.774
  587SOL    HW2 2661   2.813   2.428   4.908
  588SOL     OW 2662   2.520   4.596   0.772
  588SOL    HW1 2663   2.506   4.653   0.853
  588SOL    HW2 2664   2.431   4.572   0.733
  589SOL     OW 2665   3.477   5.276   1.557
  589SOL    HW1 2666   3.396   5.264   1.614
  589SOL    HW2 2667   3.478   5.368   1.519
  590SOL     OW 2668   5.792   2.857   1.664
  590SOL    HW1 2669   5.697   2.865   1.693
  590SOL    HW2 2670   5.806   2.769   1.618
  591SOL     OW 2671   3.589   5.916   3.823
  591SOL    HW1 2672   3.492   5.940   3.822
  591SOL    HW2 2673   3.640   5.988   3.869
  592SOL     OW 2674   3.541   0.327   1.478
  592SOL    HW1 2675   3.500   0.406   1.523
  592SOL    HW2 2676   3.548   0.345   1.379
  593SOL     OW 2677   5.036   2.408   3.792
  593SOL    HW1 2678   5.114   2.372   3.843
  593SOL    HW2 2679   5.028   2.361   3.704
  594SOL     OW 2680   4.799   2.163   6.325
  594SOL    HW1 2681   4.766   2.248   6.367
  594SOL    HW2 2682   4.734   2.090   6.342
  595SOL     OW 2683   5.569   0.366   3.706
  595SOL    HW1 2684   5.561   0.288   3.645
  595SOL    HW2 2685   5.660   0.406   3.697
  596SOL     OW 2686   1.149   4.006   2.267
  596SOL    HW1 2687   1.111   4.039   2.180
  596SOL    HW2 2688   1.222   4.069   2.296
  597SOL     OW 2689   4.053   6.932   6.102
  597SOL    HW1 2690   4.054   6.936   6.202
  597SOL    HW2 2691   3.961   6.951   6.069
  598SOL     OW 2692   3.319   4.357   6.677
  598SOL    HW1 2693   3.380   4.425   6.636
  598SOL    HW2 2694   3.272   4.307   6.605
  599SOL     OW 2695   2.044   6.504   2.817
  599SOL    HW1 2696   1.981   6.519   2.894
  599SOL    HW2 2697   2.008   6.551   2.736
  600SOL     OW 2698   0.937   0.794   0.980
  600SOL    HW1 2699   0.939   0.846   1.066
  600SOL    HW2 2700   0.994   0.712   0.989
  601SOL     OW 2701   3.336   6.624   4.309
  601SOL    HW1 2702   3.354   6.717   4.338
  601SOL    HW2 2703   3.240   6.615   4.281
  602SOL     OW 2704   1.485   2.745   6.979
  602SOL    HW1 2705   1.418   2.722   0.023
  602SOL    HW2 2706   1.496   2.667   6.917
  603SOL     OW 2707   4.285   1.586   3.478
  603SOL    HW1 2708   4.334   1.507   3.514
  603SOL    HW2 2709   4.283   1.658   3.547
  604SOL     OW 2710   0.608   3.807   1.448
  604SOL    HW1 2711   0.594   3.781   1.543
  604SOL    HW2 2712   0.519   3.817   1.403
  605SOL     OW 2713   6.461   5.555   3.111
  605SOL    HW1 2714   6.397   5.623   3.145
  605SOL    HW2 2715   6.527   5.598   3.050
  606SOL     OW 2716   5.383   0.449   6.235
  606SOL    HW1 2717   5.348   0.508   6.162
  606SOL    HW2 2718   5.452   0.498   6.288
  607SOL     OW 2719   5.036   0.767   5.547
  607SOL    HW1 2720   4.973   0.813   5.610
  607SOL    HW2 2721   5.056   0.826   5.470
  608SOL     OW 2722   3.938   6.361   0.050
  608SOL    HW1 2723   3.958   6.459   0.054
  608SOL    HW2 2724   3.896   6.333   0.137
  609SOL     OW 2725   3.838   3.046   3.958
  609SOL    HW1 2726   3.779   3.018   4.034
  609SOL    HW2 2727   3.932   3.019   3.978
  610SOL     OW 2728   5.453   2.227   2.180
  610SOL    HW1 2729   5.379   2.170   2.217
  610SOL    HW2 2730   5.498   2.275   2.255
  611SOL     OW 2731   1.642   0.346   6.456
  611SOL    HW1 2732   1.674   0.421   6.514
  611SOL    HW2 2733   1.695   0.344   6.371
  612SOL     OW 2734   3.968   6.519   5.959
  612SOL    HW1 2735   4.040   6.450   5.958
  612SOL    HW2 2736   3.951   6.548   6.054
  613SOL     OW 2737   4.053   6.566   5.712
  613SOL    HW1 2738   4.025   6.658   5.684
  613SOL    HW2 2739   3.996   6.536   5.788
  614SOL     OW 2740   5.986   3.899   0.905
  614SOL    HW1 2741   5.935   3.979   0.938
  614SOL    HW2 2742   6.029   3.922   0.818
  615SOL     OW 2743   0.522   1.866   0.938
  615SOL    HW1 2744   0.423   1.859   0.955
  615SOL    HW2 2745   0.557   1.776   0.911
  616SOL     OW 2746   6.453   1.628   2.954
  616SOL    HW1 2747   6.471   1.573   2.872
  616SOL    HW2 2748   6.382   1.696   2.934
  617SOL     OW 2749   6.986   3.897   6.777
  617SOL    HW1 2750   6.913   3.831   6.794
  617SOL    HW2 2751   0.048   3.856   6.799
  618SOL     OW 2752   0.260   3.255   0.041
  618SOL    HW1 2753   0.165   3.285   0.051
  618SOL    HW2 2754   0.307   3.262   0.129
  619SOL     OW 2755   4.448   0.079   6.717
  619SOL    HW1 2756   4.435   0.162   6.662
  619SOL    HW2 2757   4.534   0.084   6.766
  620SOL     OW 2758   5.773   2.776   1.206
  620SOL    HW1 2759   5.778   2.833   1.288
  620SOL    HW2 2760   5.748   2.832   1.127
  621SOL     OW 2761   1.625   0.089   5.568
  621SOL    HW1 2762   1.568   0.151   5.622
  621SOL    HW2 2763   1.638   0.003   5.618
  622SOL     OW 2764   0.631   1.671   5.103
  622SOL    HW1 2765   0.638   1.637   5.009
  622SOL    HW2 2766   0.557   1.738   5.109
  623SOL     OW 2767   0.173   6.384   5.640
  623SOL    HW1 2768   0.253   6.375   5.698
  623SOL    HW2 2769   0.196   6.438   5.559
  624SOL     OW 2770   6.326   0.972   0.479
  624SOL    HW1 2771   6.424   0.961   0.491
  624SOL    HW2 2772   6.278   0.935   0.558
  625SOL     OW 2773   1.848   2.172   1.045
  625SOL    HW1 2774   1.844   2.166   1.144
  625SOL    HW2 2775   1.837   2.080   1.005
  626SOL     OW 2776   0.382   6.024   2.860
  626SOL    HW1 2777   0.309   5.974   2.907
  626SOL    HW2 2778   0.453   6.049   2.927
  627SOL     OW 2779   6.236   6.494   0.624
  627SOL    HW1 2780   6.273   6.568   0.680
  627SOL    HW2 2781   6.309   6.431   0.599
  628SOL     OW 2782   5.706   4.325   4.976
  628SOL    HW1 2783   5.750   4.244   4.939
  628SOL    HW2 2784   5.776   4.387   5.013
  629SOL     OW 2785   0.957   1.120   6.933
  629SOL    HW1 2786   0.972   1.202   6.878
  629SOL    HW2 2787   1.045   1.077   6.954
  630SOL     OW 2788   0.460   2.347   0.703
  630SOL    HW1 2789   0.418   2.271   0.751
  630SOL    HW2 2790   0.554   2.360   0.736
  631SOL     OW 2791   3.852   1.231   4.668
  631SOL    HW1 2792   3.886   1.300   4.604
  631SOL    HW2 2793   3.835   1.146   4.620
  632SOL     OW 2794   5.350   2.454   0.947
  632SOL    HW1 2795   5.307   2.376   0.993
  632SOL    HW2 2796   5.439   2.426   0.910
  633SOL     OW 2797   3.223   4.532   0.050
  633SOL    HW1 2798   3.230   4.613   7.018
  633SOL    HW2 2799   3.273   4.549   0.135
  634SOL     OW 2800   3.228   3.618   2.800
  634SOL    HW1 2801   3.295   3.692   2.792
  634SOL    HW2 2802   3.189   3.618   2.892
  635SOL     OW 2803   4.895   6.254   0.440
  635SOL    HW1 2804   4.889   6.177   0.376
  635SOL    HW2 2805   4.816   6.253   0.501
  636SOL     OW 2806   2.646   6.811   5.963
  636SOL    HW1 2807   2.621   6.906   5.945
  636SOL    HW2 2808   2.598   6.778   6.044
  637SOL     OW 2809   6.814   3.020   2.661
  637SOL    HW1 2810   6.783   2.925   2.667
  637SOL    HW2 2811   6.912   3.022   2.639
  638SOL     OW 2812   6.020   3.282   3.512
  638SOL    HW1 2813   6.021   3.349   3.438
  638SOL    HW2 2814   5.949   3.306   3.578
  639SOL     OW 2815   5.131   4.110   2.785
  639SOL    HW1 2816   5.221   4.068   2.769
  639SOL    HW2 2817   5.062   4.038   2.794
  640SOL     OW 2818   6.952   4.932   3.133
  640SOL    HW1 2819   6.945   5.031   3.129
  640SOL    HW2 2820   6.861   4.892   3.139
  641SOL     OW 2821   0.534   4.739   4.754
  641SOL    HW1 2822   0.553   4.799   4.832
  641SOL    HW2 2823   0.438   4.711   4.757
  642SOL     OW 2824   0.994   3.220   4.390
  642SOL    HW1 2825   1.073   3.174   4.430
  642SOL    HW2 2826   0.970   3.177   4.303
  643SOL     OW 2827   6.497   0.632   6.935
  643SOL    HW1 2828   6.562   0.701   6.902
  643SOL    HW2 2829   6.460   0.581   6.857
  644SOL     OW 2830   1.081   0.466   4.669
  644SOL    HW1 2831   1.108   0.380   4.627
  644SOL    HW2 2832   1.159   0.505   4.718
  645SOL     OW 2833   3.562   6.185   4.744
  645SOL    HW1 2834   3.542   6.224   4.834
  645SOL    HW2 2835   3.480   6.190   4.687
  646SOL     OW 2836   3.337   0.642   4.701
  646SOL    HW1 2837   3.340   0.722   4.641
  646SOL    HW2 2838   3.337   0.672   4.796
  647SOL     OW 2839   5.259   1.954   4.804
  647SOL    HW1 2840   5.287   1.932   4.711
  647SOL    HW2 2841   5.159   1.962   4.809
  648SOL     OW 2842   6.864   4.350   3.844
  648SOL    HW1 2843   6.800   4.276   3.825
  648SOL    HW2 2844   6.906   4.381   3.759
  649SOL     OW 2845   2.207   3.544   0.463
  649SOL    HW1 2846   2.264   3.626   0.454
  649SOL    HW2 2847   2.129   3.551   0.401
  650SOL     OW 2848   6.420   4.822   0.705
  650SOL    HW1 2849   6.394   4.850   0.797
  650SOL    HW2 2850   6.445   4.903   0.651
  651SOL     OW 2851   1.624   0.889   5.962
  651SOL    HW1 2852   1.655   0.795   5.978
  651SOL    HW2 2853   1.566   0.891   5.881
  652SOL     OW 2854   4.792   0.124   3.033
  652SOL    HW1 2855   4.734   0.045   3.053
  652SOL    HW2 2856   4.868   0.128   3.098
  653SOL     OW 2857   0.391   6.185   0.101
  653SOL    HW1 2858   0.329   6.107   0.097
  653SOL    HW2 2859   0.484   6.154   0.119
  654SOL     OW 2860   0.864   6.266   6.195
  654SOL    HW1 2861   0.855   6.221   6.106
  654SOL    HW2 2862   0.824   6.207   6.265
  655SOL     OW 2863   6.366   5.548   1.559
  655SOL    HW1 2864   6.287   5.498   1.594
  655SOL    HW2 2865   6.336   5.615   1.492
  656SOL     OW 2866   2.098   6.534   0.480
  656SOL    HW1 2867   2.102   6.538   0.580
  656SOL    HW2 2868   2.010   6.497   0.451
  657SOL     OW 2869   3.096   4.126   0.776
  657SOL    HW1 2870   3.026   4.056   0.785
  657SOL    HW2 2871   3.076   4.202   0.838
  658SOL     OW 2872   1.257   4.033   5.238
  658SOL    HW1 2873   1.181   4.074   5.187
  658SOL    HW2 2874   1.332   4.099   5.246
  659SOL     OW 2875   2.659   6.125   4.685
  659SOL    HW1 2876   2.645   6.033   4.724
  659SOL    HW2 2877   2.646   6.193   4.757
  660SOL     OW 2878   4.498   4.395   2.734
  660SOL    HW1 2879   4.513   4.453   2.654
  660SOL    HW2 2880   4.404   4.359   2.732
  661SOL     OW 2881   4.875   3.884   4.455
  661SOL    HW1 2882   4.840   3.925   4.371
  661SOL    HW2 2883   4.860   3.785   4.452
  662SOL     OW 2884   4.129   0.691   5.531
  662SOL    HW1 2885   4.144   0.674   5.628
  662SOL    HW2 2886   4.189   0.765   5.500
  663SOL     OW 2887   0.821   4.310   0.553
  663SOL    HW1 2888   0.813   4.287   0.455
  663SOL    HW2 2889   0.915   4.337   0.573
  664SOL     OW 2890   1.673   5.495   6.501
  664SOL    HW1 2891   1.658   5.540   6.413
  664SOL    HW2 2892   1.746   5.427   6.493
  665SOL     OW 2893   4.263   5.379   1.000
  665SOL    HW1 2894   4.261   5.475   1.028
  665SOL    HW2 2895   4.357   5.344   1.007
  666SOL     OW 2896   4.698   2.402   1.138
  666SOL    HW1 2897   4.777   2.408   1.078
  666SOL    HW2 2898   4.648   2.318   1.119
  667SOL     OW 2899   6.669   3.933   4.135
  667SOL    HW1 2900   6.618   4.019   4.126
  667SOL    HW2 2901   6.683   3.892   4.045
  668SOL     OW 2902   5.090   5.381   6.906
  668SOL    HW1 2903   5.067   5.468   6.863
  668SOL    HW2 2904   5.171   5.392   6.965
  669SOL     OW 2905   3.215   5.924   2.903
  669SOL    HW1 2906   3.180   6.014   2.929
  669SOL    HW2 2907   3.221   5.918   2.804
  670SOL     OW 2908   3.241   2.845   2.012
  670SOL    HW1 2909   3.171   2.775   2.003
  670SOL    HW2 2910   3.332   2.804   2.003
  671SOL     OW 2911   2.399   6.110   6.864
  671SOL    HW1 2912   2.486   6.143   6.902
  671SOL    HW2 2913   2.326   6.173   6.888
  672SOL     OW 2914   0.547   4.092   1.896
  672SOL    HW1 2915   0.627   4.142   1.929
  672SOL    HW2 2916   0.541   4.004   1.943
  673SOL     OW 2917   5.347   0.386   1.260
  673SOL    HW1 2918   5.248   0.398   1.269
  673SOL    HW2 2919   5.394   0.440   1.329
  674SOL     OW 2920   6.631   3.485   4.732
  674SOL    HW1 2921   6.558   3.529   4.784
  674SOL    HW2 2922   6.621   3.507   4.635
  675SOL     OW 2923   0.044   1.198   5.080
  675SOL    HW1 2924   0.096   1.158   5.155
  675SOL    HW2 2925   7.020   1.127   5.031
  676SOL     OW 2926   3.028   4.838   3.223
  676SOL    HW1 2927   2.997   4.745   3.204
  676SOL    HW2 2928   3.121   4.849   3.188
  677SOL     OW 2929   6.014   1.033   6.001
  677SOL    HW1 2930   5.944   1.035   5.929
  677SOL    HW2 2931   6.084   1.101   5.982
  678SOL     OW 2932   1.375   1.451   5.350
  678SOL    HW1 2933   1.472   1.467   5.336
  678SOL    HW2 2934   1.326   1.470   5.265
  679SOL     OW 2935   4.836   0.947   3.912
  679SOL    HW1 2936   4.904   0.969   3.842
  679SOL    HW2 2937   4.744   0.957   3.874
  680SOL     OW 2938   5.355   5.035   5.957
  680SOL    HW1 2939   5.360   5.094   6.037
  680SOL    HW2 2940   5.431   5.055   5.895
  681SOL     OW 2941   6.340   0.309   1.001
  681SOL    HW1 2942   6.415   0.286   1.063
  681SOL    HW2 2943   6.344   0.250   0.921
  682SOL     OW 2944   1.708   6.798   6.559
  682SOL    HW1 2945   1.768   6.878   6.563
  682SOL    HW2 2946   1.623   6.823   6.512
  683SOL     OW 2947   3.566   1.094   6.497
  683SOL    HW1 2948   3.612   1.175   6.462
  683SOL    HW2 2949   3.633   1.031   6.537
  684SOL     OW 2950   5.778   1.235   6.308
  684SOL    HW1 2951   5.793   1.329   6.338
  684SOL    HW2 2952   5.865   1.194   6.280
  685SOL     OW 2953   5.099   6.909   5.145
  685SOL    HW1 2954   5.065   6.865   5.062
  685SOL    HW2 2955   5.148   6.993   5.121
  686SOL     OW 2956   5.729   3.211   3.308
  686SOL    HW1 2957   5.655   3.276   3.290
  686SOL    HW2 2958   5.732   3.190   3.406
  687SOL     OW 2959   6.783   2.516   5.202
  687SOL    HW1 2960   6.736   2.576   5.138
  687SOL    HW2 2961   6.763   2.544   5.296
  688SOL     OW 2962   1.425   3.409   0.657
  688SOL    HW1 2963   1.473   3.428   0.571
  688SOL    HW2 2964   1.388   3.316   0.656
  689SOL     OW 2965   0.522   4.507   5.276
  689SOL    HW1 2966   0.596   4.440   5.271
  689SOL    HW2 2967   0.561   4.597   5.294
  690SOL     OW 2968   0.794   3.236   3.614
  690SOL    HW1 2969   0.716   3.196   3.566
  690SOL    HW2 2970   0.814   3.327   3.576
  691SOL     OW 2971   2.519   1.674   6.085
  691SOL    HW1 2972   2.571   1.737   6.143
  691SOL    HW2 2973   2.460   1.617   6.142
  692SOL     OW 2974   3.511   6.221   3.469
  692SOL    HW1 2975   3.538   6.125   3.465
  692SOL    HW2 2976   3.447   6.235   3.545
  693SOL     OW 2977   6.715   1.659   2.709
  693SOL    HW1 2978   6.660   1.627   2.631
  693SOL    HW2 2979   6.810   1.670   2.680
  694SOL     OW 2980   3.445   6.166   2.357
  694SOL    HW1 2981   3.419   6.190   2.450
  694SOL    HW2 2982   3.369   6.184   2.295
  695SOL     OW 2983   4.340   5.168   6.320
  695SOL    HW1 2984   4.359   5.074   6.350
  695SOL    HW2 2985   4.336   5.228   6.399
  696SOL     OW 2986   3.370   5.182   1.781
  696SOL    HW1 2987   3.456   5.182   1.833
  696SOL    HW2 2988   3.320   5.267   1.800
  697SOL     OW 2989   1.213   2.803   4.423
  697SOL    HW1 2990   1.161   2.726   4.460
  697SOL    HW2 2991   1.296   2.769   4.379
  698SOL     OW 2992   5.647   6.761   6.479
  698SOL    HW1 2993   5.598   6.777   6.565
  698SOL    HW2 2994   5.671   6.848   6.437
  699SOL     OW 2995   0.736   3.932   0.036
  699SOL    HW1 2996   0.697   3.842   0.015
  699SOL    HW2 2997   0.707   3.961   0.127
  700SOL     OW 2998   2.899   1.610   4.220
  700SOL    HW1 2999   2.994   1.579   4.213
  700SOL    HW2 3000   2.851   1.591   4.134
  701SOL     OW 3001   6.985   4.143   5.514
  701SOL    HW1 3002   6.888   4.153   5.490
  701SOL    HW2 3003   0.007   4.101   5.438
  702SOL     OW 3004   5.639   5.714   6.004
  702SOL    HW1 3005   5.570   5.771   6.049
  702SOL    HW2 3006   5.623   5.715   5.905
  703SOL     OW 3007   4.065   4.055   6.547
  703SOL    HW1 3008   4.003   4.022   6.618
  703SOL    HW2 3009   4.075   4.154   6.555
  704SOL     OW 3010   1.809   1.769   6.428
  704SOL    HW1 3011   1.902   1.787   6.459
  704SOL    HW2 3012   1.765   1.705   6.491
  705SOL     OW 3013   5.358   6.660   3.603
  705SOL    HW1 3014   5.393   6.741   3.652
  705SOL    HW2 3015   5.263   6.643   3.631
  706SOL     OW 3016   4.414   1.950   3.269
  706SOL    HW1 3017   4.420   2.031   3.211
  706SOL    HW2 3018   4.377   1.976   3.359
  707SOL     OW 3019   4.259   0.373   2.366
  707SOL    HW1 3020   4.258   0.277   2.395
  707SOL    HW2 3021   4.260   0.432   2.446
  708SOL     OW 3022   4.088   0.435   1.669
  708SOL    HW1 3023   3.999   0.427   1.626
  708SOL    HW2 3024   4.093   0.372   1.747
  709SOL     OW 3025   0.869   5.107   0.117
  709SOL    HW1 3026   0.968   5.102   0.104
  709SOL    HW2 3027   0.837   5.024   0.164
  710SOL     OW 3028   3.677   3.370   2.263
  710SOL    HW1 3029   3.658   3.361   2.361
  710SOL    HW2 3030   3.768   3.334   2.243
  711SOL     OW 3031   0.770   2.033   5.911
  711SOL    HW1 3032   0.870   2.030   5.916
  711SOL    HW2 3033   0.740   2.128   5.901
  712SOL     OW 3034   2.372   3.966   0.331
  712SOL    HW1 3035   2.304   4.008   0.391
  712SOL    HW2 3036   2.419   3.892   0.381
  713SOL     OW 3037   2.882   3.482   0.165
  713SOL    HW1 3038   2.870   3.574   0.202
  713SOL    HW2 3039   2.846   3.415   0.229
  714SOL     OW 3040   6.645   5.456   4.835
  714SOL    HW1 3041   6.601   5.493   4.917
  714SOL    HW2 3042   6.589   5.382   4.797
  715SOL     OW 3043   5.363   6.154   0.691
  715SOL    HW1 3044   5.356   6.250   0.665
  715SOL    HW2 3045   5.379   6.147   0.789
  716SOL     OW 3046   1.394   6.846   0.607
  716SOL    HW1 3047   1.413   6.908   0.531
  716SOL    HW2 3048   1.359   6.899   0.685
  717SOL     OW 3049   5.829   5.009   6.593
  717SOL    HW1 3050   5.753   5.047   6.539
  717SOL    HW2 3051   5.853   5.072   6.666
  718SOL     OW 3052   4.523   2.200   5.625
  718SOL    HW1 3053   4.578   2.283   5.634
  718SOL    HW2 3054   4.550   2.151   5.542
  719SOL     OW 3055   6.560   2.714   1.044
  719SOL    HW1 3056   6.633   2.780   1.026
  719SOL    HW2 3057   6.586   2.624   1.007
  720SOL     OW 3058   3.534   1.166   6.033
  720SOL    HW1 3059   3.435   1.159   6.018
  720SOL    HW2 3060   3.571   1.075   6.049
  721SOL     OW 3061   2.033   0.122   4.055
  721SOL    HW1 3062   1.987   0.057   4.116
  721SOL    HW2 3063   2.051   0.207   4.104
  722SOL     OW 3064   2.740   0.030   5.090
  722SOL    HW1 3065   2.671   6.988   5.070
  722SOL    HW2 3066   2.708   0.088   5.165
  723SOL     OW 3067   2.104   3.562   2.787
  723SOL    HW1 3068   2.187   3.615   2.767
  723SOL    HW2 3069   2.129   3.479   2.837
  724SOL     OW 3070   1.265   1.958   4.538
  724SOL    HW1 3071   1.211   1.883   4.575
  724SOL    HW2 3072   1.213   2.004   4.466
  725SOL     OW 3073   3.023   5.572   1.549
  725SOL    HW1 3074   3.017   5.554   1.450
  725SOL    HW2 3075   3.014   5.486   1.598
  726SOL     OW 3076   3.865   4.818   1.013
  726SOL    HW1 3077   3.875   4.855   0.921
  726SOL    HW2 3078   3.934   4.859   1.074
  727SOL     OW 3079   5.028   5.321   5.777
  727SOL    HW1 3080   4.998   5.227   5.760
  727SOL    HW2 3081   4.990   5.381   5.707
  728SOL     OW 3082   0.265   3.391   5.206
  728SOL    HW1 3083   0.186   3.360   5.258
  728SOL    HW2 3084   0.237   3.462   5.142
  729SOL     OW 3085   2.364   1.592   0.140
  729SOL    HW1 3086   2.282   1.536   0.127
  729SOL    HW2 3087   2.350   1.652   0.218
  730SOL     OW 3088   5.777   0.830   3.478
  730SOL    HW1 3089   5.862   0.879   3.459
  730SOL    HW2 3090   5.748   0.848   3.572
  731SOL     OW 3091   5.932   3.939   5.941
  731SOL    HW1 3092   5.957   4.019   5.995
  731SOL    HW2 3093   5.914   3.862   6.002
  732SOL     OW 3094   1.122   3.190   1.317
  732SOL    HW1 3095   1.191   3.164   1.384
  732SOL    HW2 3096   1.166   3.220   1.233
  733SOL     OW 3097   6.031   4.698   5.122
  733SOL    HW1 3098   6.051   4.657   5.211
  733SOL    HW2 3099   5.959   4.766   5.132
  734SOL     OW 3100   7.015   4.407   2.561
  734SOL    HW1 3101   0.025   4.348   2.633
  734SOL    HW2 3102   6.992   4.496   2.599
  735SOL     OW 3103   3.845   3.153   0.605
  735SOL    HW1 3104   3.889   3.235   0.570
  735SOL    HW2 3105   3.896   3.072   0.577
  736SOL     OW 3106   6.943   6.698   2.311
  736SOL    HW1 3107   6.935   6.706   2.410
  736SOL    HW2 3108   6.934   6.789   2.269
  737SOL     OW 3109   4.128   2.474   6.601
  737SOL    HW1 3110   4.146   2.563   6.641
  737SOL    HW2 3111   4.030   2.462   6.587
  738SOL     OW 3112   2.053   3.944   2.118
  738SOL    HW1 3113   2.103   3.880   2.059
  738SOL    HW2 3114   1.971   3.975   2.071
  739SOL     OW 3115   3.843   6.722   4.496
  739SOL    HW1 3116   3.871   6.763   4.409
  739SOL    HW2 3117   3.779   6.647   4.478
  740SOL     OW 3118   4.600   6.649   0.243
  740SOL    HW1 3119   4.551   6.608   0.320
  740SOL    HW2 3120   4.691   6.608   0.235
  741SOL     OW 3121   2.338   6.135   3.364
  741SOL    HW1 3122   2.255   6.094   3.402
  741SOL    HW2 3123   2.312   6.212   3.305
  742SOL     OW 3124   1.951   6.745   1.940
  742SOL    HW1 3125   1.950   6.703   1.849
  742SOL    HW2 3126   1.938   6.674   2.010
  743SOL     OW 3127   1.629   4.201   5.019
  743SOL    HW1 3128   1.697   4.196   4.946
  743SOL    HW2 3129   1.566   4.123   5.011
  744SOL     OW 3130   5.304   6.724   6.457
  744SOL    HW1 3131   5.378   6.752   6.395
  744SOL    HW2 3132   5.229   6.686   6.403
  745SOL     OW 3133   1.061   5.195   4.104
  745SOL    HW1 3134   1.135   5.254   4.135
  745SOL    HW2 3135   1.097   5.104   4.081
  746SOL     OW 3136   1.042   5.035   6.072
  746SOL    HW1 3137   1.102   5.071   6.000
  746SOL    HW2 3138   1.089   5.040   6.160
  747SOL     OW 3139   4.757   5.771   4.856
  747SOL    HW1 3140   4.670   5.771   4.906
  747SOL    HW2 3141   4.803   5.683   4.868
  748SOL     OW 3142   3.518   5.138   2.635
  748SOL    HW1 3143   3.424   5.130   2.603
  748SOL    HW2 3144   3.538   5.234   2.656
  749SOL     OW 3145   6.394   4.023   4.886
  749SOL    HW1 3146   6.460   4.079   4.936
  749SOL    HW2 3147   6.369   4.069   4.801
  750SOL     OW 3148   1.786   2.741   0.676
  750SOL    HW1 3149   1.853   2.815   0.676
  750SOL    HW2 3150   1.833   2.653   0.678
  751SOL     OW 3151   3.816   2.118   6.086
  751SOL    HW1 3152   3.768   2.093   6.002
  751SOL    HW2 3153   3.914   2.103   6.074
  752SOL     OW 3154   3.920   2.329   1.753
  752SOL    HW1 3155   3.916   2.354   1.656
  752SOL    HW2 3156   3.828   2.305   1.784
  753SOL     OW 3157   1.429   3.228   4.017
  753SOL    HW1 3158   1.529   3.229   4.013
  753SOL    HW2 3159   1.400   3.269   4.103
  754SOL     OW 3160   5.474   2.755   6.573
  754SOL    HW1 3161   5.526   2.758   6.487
  754SOL    HW2 3162   5.392   2.698   6.560
  755SOL     OW 3163   1.459   5.411   6.039
  755SOL    HW1 3164   1.539   5.379   6.088
  755SOL    HW2 3165   1.377   5.400   6.096
  756SOL     OW 3166   3.496   0.187   1.113
  756SOL    HW1 3167   3.486   0.284   1.132
  756SOL    HW2 3168   3.553   0.175   1.032
  757SOL     OW 3169   0.150   6.145   3.133
  757SOL    HW1 3170   0.060   6.154   3.176
  757SOL    HW2 3171   0.148   6.070   3.068
  758SOL     OW 3172   4.034   0.827   2.177
  758SOL    HW1 3173   4.064   0.818   2.272
  758SOL    HW2 3174   4.009   0.736   2.142
  759SOL     OW 3175   0.595   0.881   0.342
  759SOL    HW1 3176   0.516   0.937   0.317
  759SOL    HW2 3177   0.569   0.785   0.344
  760SOL     OW 3178   4.765   0.233   5.915
  760SOL    HW1 3179   4.846   0.292   5.917
  760SOL    HW2 3180   4.759   0.181   6.000
  761SOL     OW 3181   5.160   3.950   5.548
  761SOL    HW1 3182   5.214   3.866   5.540
  761SOL    HW2 3183   5.100   3.943   5.628
  762SOL     OW 3184   1.712   0.026   4.947
  762SOL    HW1 3185   1.646   0.037   5.022
  762SOL    HW2 3186   1.804   0.043   4.981
  763SOL     OW 3187   4.536   5.374   7.000
  763SOL    HW1 3188   4.520   5.280   0.005
  763SOL    HW2 3189   4.603   5.418   0.033
  764SOL     OW 3190   4.200   0.748   4.052
  764SOL    HW1 3191   4.286   0.795   4.072
  764SOL    HW2 3192   4.149   0.736   4.137
  765SOL     OW 3193   1.288   5.942   1.385
  765SOL    HW1 3194   1.322   6.035   1.393
  765SOL    HW2 3195   1.324   5.900   1.302
  766SOL     OW 3196   1.355   3.156   0.730
  766SOL    HW1 3197   1.303   3.073   0.708
  766SOL    HW2 3198   1.294   3.224   0.771
  767SOL     OW 3199   6.152   5.815   2.836
  767SOL    HW1 3200   6.120   5.835   2.743
  767SOL    HW2 3201   6.179   5.719   2.842
  768SOL     OW 3202   2.152   6.869   2.149
  768SOL    HW1 3203   2.122   6.775   2.164
  768SOL    HW2 3204   2.239   6.869   2.100
  769SOL     OW 3205   3.172   0.760   4.914
  769SOL    HW1 3206   3.083   0.743   4.872
  769SOL    HW2 3207   3.169   0.848   4.963
  770SOL     OW 3208   2.434   4.355   3.105
  770SOL    HW1 3209   2.506   4.422   3.085
  770SOL    HW2 3210   2.402   4.314   3.019
  771SOL     OW 3211   2.573   5.916   2.550
  771SOL    HW1 3212   2.474   5.919   2.561
  771SOL    HW2 3213   2.614   5.866   2.626
  772SOL     OW 3214   6.660   5.267   0.610
  772SOL    HW1 3215   6.697   5.303   0.524
  772SOL    HW2 3216   6.672   5.168   0.612
  773SOL     OW 3217   7.001   3.835   3.876
  773SOL    HW1 3218   0.031   3.753   3.884
  773SOL    HW2 3219   7.014   3.892   3.957
  774SOL     OW 3220   1.136   1.657   2.190
  774SOL    HW1 3221   1.210   1.663   2.256
  774SOL    HW2 3222   1.119   1.561   2.166
  775SOL     OW 3223   1.000   2.072   3.132
  775SOL    HW1 3224   1.032   1.991   3.084
  775SOL    HW2 3225   0.900   2.074   3.131
  776SOL     OW 3226   0.020   0.764   5.676
  776SOL    HW1 3227   6.976   0.829   5.702
  776SOL    HW2 3228   0.040   0.773   5.578
  777SOL     OW 3229   3.281   5.335   0.915
  777SOL    HW1 3230   3.295   5.433   0.923
  777SOL    HW2 3231   3.339   5.299   0.841
  778SOL     OW 3232   3.693   1.871   3.155
  778SOL    HW1 3233   3.593   1.876   3.147
  778SOL    HW2 3234   3.732   1.850   3.065
  779SOL     OW 3235   0.327   1.972   2.772
  779SOL    HW1 3236   0.288   2.045   2.829
  779SOL    HW2 3237   0.253   1.926   2.722
  780SOL     OW 3238   6.261   3.641   3.692
  780SOL    HW1 3239   6.168   3.621   3.723
  780SOL    HW2 3240   6.327   3.588   3.746
  781SOL     OW 3241   5.438   1.418   6.632
  781SOL    HW1 3242   5.388   1.505   6.625
  781SOL    HW2 3243   5.532   1.436   6.659
  782SOL     OW 3244   1.158   3.648   6.807
  782SOL    HW1 3245   1.242   3.698   6.829
  782SOL    HW2 3246   1.161   3.616   6.713
  783SOL     OW 3247   4.124   4.907   1.440
  783SOL    HW1 3248   4.152   4.929   1.534
  783SOL    HW2 3249   4.138   4.809   1.423
  784SOL     OW 3250   5.203   6.107   6.892
  784SOL    HW1 3251   5.199   6.186   6.954
  784SOL    HW2 3252   5.130   6.043   6.915
  785SOL     OW 3253   6.837   2.965   3.192
  785SOL    HW1 3254   6.863   2.895   3.126
  785SOL    HW2 3255   6.914   3.027   3.206
  786SOL     OW 3256   1.385   1.021   0.849
  786SOL    HW1 3257   1.402   1.028   0.948
  786SOL    HW2 3258   1.296   1.059   0.827
  787SOL     OW 3259   2.834   0.740   6.881
  787SOL    HW1 3260   2.912   0.703   6.831
  787SOL    HW2 3261   2.831   0.700   6.972
  788SOL     OW 3262   3.076   2.118   5.216
  788SOL    HW1 3263   3.114   2.188   5.156
  788SOL    HW2 3264   3.149   2.057   5.247
  789SOL     OW 3265   5.245   4.026   0.732
  789SOL    HW1 3266   5.301   4.010   0.813
  789SOL    HW2 3267   5.165   4.080   0.757
  790SOL     OW 3268   2.654   0.532   4.222
  790SOL    HW1 3269   2.608   0.563   4.139
  790SOL    HW2 3270   2.730   0.472   4.199
  791SOL     OW 3271   3.202   5.969   3.278
  791SOL    HW1 3272   3.274   5.977   3.346
  791SOL    HW2 3273   3.236   5.918   3.199
  792SOL     OW 3274   0.124   0.724   2.191
  792SOL    HW1 3275   0.122   0.630   2.226
  792SOL    HW2 3276   0.197   0.732   2.123
  793SOL     OW 3277   5.059   6.270   2.450
  793SOL    HW1 3278   5.129   6.218   2.499
  793SOL    HW2 3279   5.096   6.303   2.363
  794SOL     OW 3280   3.195   3.414   5.320
  794SOL    HW1 3281   3.262   3.385   5.251
  794SOL    HW2 3282   3.194   3.514   5.325
  795SOL     OW 3283   3.833   6.432   4.927
  795SOL    HW1 3284   3.795   6.444   4.835
  795SOL    HW2 3285   3.776   6.482   4.992
  796SOL     OW 3286   1.247   1.914   6.411
  796SOL    HW1 3287   1.237   1.997   6.466
  796SOL    HW2 3288   1.343   1.888   6.408
  797SOL     OW 3289   5.022   2.649   2.204
  797SOL    HW1 3290   4.942   2.690   2.161
  797SOL    HW2 3291   5.002   2.631   2.301
  798SOL     OW 3292   5.049   0.208   1.394
  798SOL    HW1 3293   5.039   0.306   1.410
  798SOL    HW2 3294   4.993   0.182   1.315
  799SOL     OW 3295   6.049   1.611   4.771
  799SOL    HW1 3296   6.128   1.554   4.790
  799SOL    HW2 3297   6.077   1.707   4.765
  800SOL     OW 3298   5.270   1.402   2.356
  800SOL    HW1 3299   5.341   1.412   2.286
  800SOL    HW2 3300   5.225   1.313   2.345
  801SOL     OW 3301   2.011   3.294   4.094
  801SOL    HW1 3302   2.044   3.314   4.001
  801SOL    HW2 3303   2.011   3.196   4.109
  802SOL     OW 3304   4.541   0.580   0.625
  802SOL    HW1 3305   4.455   0.628   0.643
  802SOL    HW2 3306   4.567   0.592   0.529
  803SOL     OW 3307   6.995   6.097   4.750
  803SOL    HW1 3308   0.022   6.015   4.767
  803SOL    HW2 3309   0.016   6.155   4.684
  804SOL     OW 3310   6.076   6.317   6.940
  804SOL    HW1 3311   5.987   6.351   6.911
  804SOL    HW2 3312   6.098   6.234   6.888
  805SOL     OW 3313   3.546   1.448   5.603
  805SOL    HW1 3314   3.553   1.456   5.503
  805SOL    HW2 3315   3.636   1.459   5.644
  806SOL     OW 3316   5.002   1.508   4.068
  806SOL    HW1 3317   5.044   1.521   4.158
  806SOL    HW2 3318   5.061   1.451   4.011
  807SOL     OW 3319   0.739   1.533   4.562
  807SOL    HW1 3320   0.794   1.581   4.493
  807SOL    HW2 3321   0.645   1.524   4.529
  808SOL     OW 3322   4.300   3.608   6.533
  808SOL    HW1 3323   4.301   3.639   6.438
  808SOL    HW2 3324   4.379   3.548   6.550
  809SOL     OW 3325   0.196   4.482   1.668
  809SOL    HW1 3326   0.249   4.413   1.717
  809SOL    HW2 3327   0.160   4.549   1.734
  810SOL     OW 3328   3.575   2.825   1.063
  810SOL    HW1 3329   3.663   2.871   1.063
  810SOL    HW2 3330   3.523   2.851   1.144
  811SOL     OW 3331   3.950   5.865   4.231
  811SOL    HW1 3332   3.877   5.820   4.282
  811SOL    HW2 3333   3.928   5.864   4.134
  812SOL     OW 3334   0.347   1.897   1.503
  812SOL    HW1 3335   0.430   1.939   1.466
  812SOL    HW2 3336   0.369   1.853   1.591
  813SOL     OW 3337   3.822   5.253   4.351
  813SOL    HW1 3338   3.823   5.243   4.251
  813SOL    HW2 3339   3.883   5.328   4.377
  814SOL     OW 3340   5.637   5.908   2.530
  814SOL    HW1 3341   5.671   5.953   2.612
  814SOL    HW2 3342   5.660   5.811   2.533
  815SOL     OW 3343   0.050   3.059   3.250
  815SOL    HW1 3344   0.097   3.033   3.165
  815SOL    HW2 3345   0.047   2.980   3.311
  816SOL     OW 3346   6.899   6.490   0.172
  816SOL    HW1 3347   6.969   6.520   0.236
  816SOL    HW2 3348   6.901   6.547   0.090
  817SOL     OW 3349   2.239   4.091   1.476
  817SOL    HW1 3350   2.179   4.170   1.490
  817SOL    HW2 3351   2.327   4.122   1.439
  818SOL     OW 3352   6.493   2.869   1.736
  818SOL    HW1 3353   6.430   2.796   1.708
  818SOL    HW2 3354   6.551   2.894   1.658
  819SOL     OW 3355   5.522   2.933   3.500
  819SOL    HW1 3356   5.620   2.916   3.509
  819SOL    HW2 3357   5.497   3.013   3.554
  820SOL     OW 3358   2.723   2.588   6.260
  820SOL    HW1 3359   2.762   2.680   6.252
  820SOL    HW2 3360   2.650   2.577   6.194
  821SOL     OW 3361   2.035   3.911   0.469
  821SOL    HW1 3362   1.998   3.877   0.555
  821SOL    HW2 3363   1.986   3.869   0.393
  822SOL     OW 3364   1.334   4.781   4.479
  822SOL    HW1 3365   1.315   4.879   4.468
  822SOL    HW2 3366   1.290   4.748   4.562
  823SOL     OW 3367   4.527   3.924   6.429
  823SOL    HW1 3368   4.612   3.953   6.384
  823SOL    HW2 3369   4.477   4.005   6.460
  824SOL     OW 3370   5.459   1.179   5.417
  824SOL    HW1 3371   5.471   1.081   5.400
  824SOL    HW2 3372   5.429   1.193   5.511
  825SOL     OW 3373   1.263   4.096   1.115
  825SOL    HW1 3374   1.287   4.193   1.117
  825SOL    HW2 3375   1.207   4.074   1.195
  826SOL     OW 3376   5.512   3.220   6.510
  826SOL    HW1 3377   5.460   3.234   6.426
  826SOL    HW2 3378   5.598   3.173   6.489
  827SOL     OW 3379   3.576   5.714   6.359
  827SOL    HW1 3380   3.585   5.680   6.266
  827SOL    HW2 3381   3.666   5.712   6.404
  828SOL     OW 3382   5.531   6.466   5.999
  828SOL    HW1 3383   5.519   6.398   5.926
  828SOL    HW2 3384   5.457   6.457   6.065
  829SOL     OW 3385   2.983   3.792   3.965
  829SOL    HW1 3386   2.976   3.829   4.058
  829SOL    HW2 3387   3.015   3.697   3.969
  830SOL     OW 3388   5.201   4.834   6.580
  830SOL    HW1 3389   5.238   4.852   6.671
  830SOL    HW2 3390   5.271   4.852   6.511
  831SOL     OW 3391   6.072   0.934   5.586
  831SOL    HW1 3392   5.993   0.995   5.583
  831SOL    HW2 3393   6.063   0.864   5.516
  832SOL     OW 3394   2.445   1.151   1.288
  832SOL    HW1 3395   2.457   1.058   1.252
  832SOL    HW2 3396   2.470   1.152   1.385
  833SOL     OW 3397   0.321   4.641   6.472
  833SOL    HW1 3398   0.416   4.662   6.449
  833SOL    HW2 3399   0.276   4.723   6.508
  834SOL     OW 3400   2.723   3.462   1.022
  834SOL    HW1 3401   2.712   3.495   0.929
  834SOL    HW2 3402   2.692   3.531   1.087
  835SOL     OW 3403   3.093   0.498   4.736
  835SOL    HW1 3404   3.192   0.505   4.721
  835SOL    HW2 3405   3.075   0.431   4.808
  836SOL     OW 3406   3.398   6.621   0.319
  836SOL    HW1 3407   3.461   6.694   0.345
  836SOL    HW2 3408   3.377   6.565   0.399
  837SOL     OW 3409   5.245   6.354   0.007
  837SOL    HW1 3410   5.279   6.425   0.069
  837SOL    HW2 3411   5.313   6.336   6.963
  838SOL     OW 3412   1.178   6.698   4.987
  838SOL    HW1 3413   1.124   6.688   4.903
  838SOL    HW2 3414   1.119   6.735   5.060
  839SOL     OW 3415   2.656   2.317   2.201
  839SOL    HW1 3416   2.742   2.314   2.149
  839SOL    HW2 3417   2.659   2.393   2.265
  840SOL     OW 3418   5.730   6.986   6.322
  840SOL    HW1 3419   5.662   0.030   6.305
  840SOL    HW2 3420   5.749   6.937   6.237
  841SOL     OW 3421   4.734   5.055   0.868
  841SOL    HW1 3422   4.790   5.080   0.947
  841SOL    HW2 3423   4.737   4.956   0.854
  842SOL     OW 3424   4.333   5.071   4.227
  842SOL    HW1 3425   4.262   5.040   4.163
  842SOL    HW2 3426   4.408   5.005   4.227
  843SOL     OW 3427   3.350   1.603   6.836
  843SOL    HW1 3428   3.268   1.594   6.892
  843SOL    HW2 3429   3.324   1.614   6.740
  844SOL     OW 3430   5.380   0.072   1.072
  844SOL    HW1 3431   5.392   0.156   1.021
  844SOL    HW2 3432   5.420   7.022   1.022
  845SOL     OW 3433   5.660   3.475   5.017
  845SOL    HW1 3434   5.726   3.504   5.087
  845SOL    HW2 3435   5.587   3.543   5.011
  846SOL     OW 3436   3.385   1.608   0.206
  846SOL    HW1 3437   3.344   1.598   0.297
  846SOL    HW2 3438   3.462   1.544   0.197
  847SOL     OW 3439   0.562   3.824   0.368
  847SOL    HW1 3440   0.582   3.734   0.329
  847SOL    HW2 3441   0.619   3.838   0.449
  848SOL     OW 3442   6.209   1.014   6.649
  848SOL    HW1 3443   6.235   1.097   6.601
  848SOL    HW2 3444   6.110   1.011   6.660
  849SOL     OW 3445   0.952   4.808   5.530
  849SOL    HW1 3446   0.965   4.711   5.548
  849SOL    HW2 3447   0.978   4.828   5.435
  850SOL     OW 3448   5.414   1.465   3.906
  850SOL    HW1 3449   5.400   1.367   3.921
  850SOL    HW2 3450   5.377   1.490   3.816
  851SOL     OW 3451   6.833   1.065   1.213
  851SOL    HW1 3452   6.781   1.107   1.287
  851SOL    HW2 3453   6.881   1.136   1.161
  852SOL     OW 3454   1.613   2.142   0.334
  852SOL    HW1 3455   1.687   2.143   0.402
  852SOL    HW2 3456   1.525   2.146   0.380
  853SOL     OW 3457   1.538   4.383   2.155
  853SOL    HW1 3458   1.512   4.356   2.248
  853SOL    HW2 3459   1.609   4.322   2.121
  854SOL     OW 3460   4.767   5.914   2.357
  854SOL    HW1 3461   4.815   5.885   2.274
  854SOL    HW2 3462   4.672   5.881   2.353
  855SOL     OW 3463   6.823   0.133   0.929
  855SOL    HW1 3464   6.847   0.193   1.005
  855SOL    HW2 3465   6.767   0.057   0.963
  856SOL     OW 3466   1.648   1.910   5.093
  856SOL    HW1 3467   1.711   1.974   5.050
  856SOL    HW2 3468   1.695   1.860   5.165
  857SOL     OW 3469   5.826   4.344   1.525
  857SOL    HW1 3470   5.733   4.307   1.524
  857SOL    HW2 3471   5.835   4.417   1.458
  858SOL     OW 3472   2.642   4.482   1.409
  858SOL    HW1 3473   2.567   4.457   1.347
  858SOL    HW2 3474   2.718   4.419   1.395
  859SOL     OW 3475   4.752   5.280   6.840
  859SOL    HW1 3476   4.843   5.321   6.849
  859SOL    HW2 3477   4.683   5.345   6.874
  860SOL     OW 3478   4.380   4.541   0.946
  860SOL    HW1 3479   4.385   4.455   0.997
  860SOL    HW2 3480   4.469   4.561   0.905
  861SOL     OW 3481   2.231   0.230   4.869
  861SOL    HW1 3482   2.269   0.146   4.907
  861SOL    HW2 3483   2.254   0.307   4.928
  862SOL     OW 3484   6.977   5.009   6.007
  862SOL    HW1 3485   6.972   4.909   6.000
  862SOL    HW2 3486   6.917   5.050   5.938
  863SOL     OW 3487   1.065   0.878   0.494
  863SOL    HW1 3488   1.035   0.973   0.494
  863SOL    HW2 3489   1.060   0.842   0.587
  864SOL     OW 3490   4.882   4.526   3.837
  864SOL    HW1 3491   4.891   4.617   3.796
  864SOL    HW2 3492   4.952   4.466   3.798
  865SOL     OW 3493   2.122   6.169   5.043
  865SOL    HW1 3494   2.196   6.130   4.988
  865SOL    HW2 3495   2.042   6.184   4.985
  866SOL     OW 3496   2.303   2.398   1.778
  866SOL    HW1 3497   2.258   2.422   1.864
  866SOL    HW2 3498   2.401   2.419   1.784
  867SOL     OW 3499   4.021   2.927   1.227
  867SOL    HW1 3500   3.978   2.861   1.288
  867SOL    HW2 3501   4.119   2.906   1.218
  868SOL     OW 3502   5.671   6.310   1.394
  868SOL    HW1 3503   5.757   6.360   1.409
  868SOL    HW2 3504   5.618   6.309   1.479
  869SOL     OW 3505   6.624   5.348   3.188
  869SOL    HW1 3506   6.603   5.329   3.283
  869SOL    HW2 3507   6.573   5.428   3.157
  870SOL     OW 3508   5.556   3.259   0.053
  870SOL    HW1 3509   5.645   3.214   0.064
  870SOL    HW2 3510   5.517   3.233   6.991
  871SOL     OW 3511   5.621   3.623   1.610
  871SOL    HW1 3512   5.530   3.609   1.649
  871SOL    HW2 3513   5.687   3.641   1.683
  872SOL     OW 3514   6.161   4.101   4.070
  872SOL    HW1 3515   6.218   4.060   4.141
  872SOL    HW2 3516   6.082   4.146   4.113
  873SOL     OW 3517   5.573   0.172   3.513
  873SOL    HW1 3518   5.607   0.080   3.494
  873SOL    HW2 3519   5.547   0.216   3.427
  874SOL     OW 3520   1.625   4.666   5.345
  874SOL    HW1 3521   1.562   4.604   5.391
  874SOL    HW2 3522   1.716   4.626   5.343
  875SOL     OW 3523   4.380   3.841   0.918
  875SOL    HW1 3524   4.395   3.746   0.946
  875SOL    HW2 3525   4.341   3.893   0.994
  876SOL     OW 3526   0.479   5.983   3.703
  876SOL    HW1 3527   0.473   5.952   3.798
  876SOL    HW2 3528   0.508   6.079   3.700
  877SOL     OW 3529   3.484   4.903   0.144
  877SOL    HW1 3530   3.456   4.863   0.230
  877SOL    HW2 3531   3.505   4.831   0.078
  878SOL     OW 3532   4.218   6.090   6.079
  878SOL    HW1 3533   4.164   6.016   6.038
  878SOL    HW2 3534   4.163   6.139   6.146
  879SOL     OW 3535   3.391   1.959   1.939
  879SOL    HW1 3536   3.401   1.996   1.847
  879SOL    HW2 3537   3.440   2.018   2.004
  880SOL     OW 3538   3.044   4.839   0.163
  880SOL    HW1 3539   2.950   4.830   0.197
  880SOL    HW2 3540   3.054   4.785   0.079
  881SOL     OW 3541   4.089   4.600   5.317
  881SOL    HW1 3542   4.132   4.531   5.259
  881SOL    HW2 3543   4.035   4.556   5.388
  882SOL     OW 3544   1.503   1.226   4.156
  882SOL    HW1 3545   1.500   1.128   4.137
  882SOL    HW2 3546   1.595   1.261   4.138
  883SOL     OW 3547   4.888   5.199   4.788
  883SOL    HW1 3548   4.977   5.208   4.832
  883SOL    HW2 3549   4.848   5.110   4.811
  884SOL     OW 3550   0.381   3.491   1.627
  884SOL    HW1 3551   0.354   3.396   1.611
  884SOL    HW2 3552   0.376   3.511   1.724
  885SOL     OW 3553   5.237   5.757   6.684
  885SOL    HW1 3554   5.292   5.758   6.601
  885SOL    HW2 3555   5.294   5.726   6.761
  886SOL     OW 3556   4.014   0.015   0.594
  886SOL    HW1 3557   3.939   0.074   0.623
  886SOL    HW2 3558   4.057   7.000   0.674
  887SOL     OW 3559   4.423   6.972   4.888
  887SOL    HW1 3560   4.407   6.874   4.887
  887SOL    HW2 3561   4.450   7.001   4.980
  888SOL     OW 3562   6.064   6.498   3.474
  888SOL    HW1 3563   5.993   6.461   3.534
  888SOL    HW2 3564   6.107   6.423   3.423
  889SOL     OW 3565   0.801   6.521   6.320
  889SOL    HW1 3566   0.854   6.437   6.312
  889SOL    HW2 3567   0.709   6.499   6.353
  890SOL     OW 3568   2.789   4.973   1.969
  890SOL    HW1 3569   2.741   4.943   1.887
  890SOL    HW2 3570   2.778   4.904   2.041
  891SOL     OW 3571   6.034   3.683   1.609
  891SOL    HW1 3572   6.111   3.729   1.654
  891SOL    HW2 3573   6.008   3.734   1.527
  892SOL     OW 3574   3.738   3.961   0.608
  892SOL    HW1 3575   3.656   3.976   0.553
  892SOL    HW2 3576   3.779   3.873   0.582
  893SOL     OW 3577   2.529   0.887   2.019
  893SOL    HW1 3578   2.516   0.793   2.050
  893SOL    HW2 3579   2.627   0.904   2.005
  894SOL     OW 3580   1.793   3.373   4.229
  894SOL    HW1 3581   1.722   3.315   4.270
  894SOL    HW2 3582   1.877   3.321   4.220
  895SOL     OW 3583   2.013   5.824   4.843
  895SOL    HW1 3584   1.952   5.900   4.824
  895SOL    HW2 3585   1.960   5.742   4.864
  896SOL     OW 3586   5.638   6.006   2.281
  896SOL    HW1 3587   5.565   5.951   2.240
  896SOL    HW2 3588   5.652   5.977   2.375
  897SOL     OW 3589   5.693   0.650   0.240
  897SOL    HW1 3590   5.704   0.637   0.141
  897SOL    HW2 3591   5.596   0.644   0.263
  898SOL     OW 3592   3.869   5.706   3.482
  898SOL    HW1 3593   3.960   5.671   3.456
  898SOL    HW2 3594   3.856   5.797   3.443
  899SOL     OW 3595   0.440   5.214   6.914
  899SOL    HW1 3596   0.537   5.224   6.937
  899SOL    HW2 3597   0.384   5.232   6.995
  900SOL     OW 3598   5.186   6.016   1.449
  900SOL    HW1 3599   5.185   6.111   1.479
  900SOL    HW2 3600   5.126   6.005   1.369
  901SOL     OW 3601   0.436   1.083   5.423
  901SOL    HW1 3602   0.482   1.139   5.354
  901SOL    HW2 3603   0.496   1.009   5.452
  902SOL     OW 3604   0.236   1.623   6.010
  902SOL    HW1 3605   0.238   1.679   6.093
  902SOL    HW2 3606   0.166   1.657   5.948
  903SOL     OW 3607   6.502   3.794   6.379
  903SOL    HW1 3608   6.545   3.769   6.292
  903SOL    HW2 3609   6.432   3.726   6.403
  904SOL     OW 3610   1.499   2.051   4.286
  904SOL    HW1 3611   1.441   2.087   4.213
  904SOL    HW2 3612   1.498   1.952   4.284
  905SOL     OW 3613   4.767   2.876   6.138
  905SOL    HW1 3614   4.705   2.918   6.204
  905SOL    HW2 3615   4.716   2.849   6.056
  906SOL     OW 3616   0.301   3.620   6.284
  906SOL    HW1 3617   0.323   3.717   6.295
  906SOL    HW2 3618   0.328   3.589   6.192
  907SOL     OW 3619   5.464   2.719   3.679
  907SOL    HW1 3620   5.506   2.785   3.741
  907SOL    HW2 3621   5.460   2.758   3.587
  908SOL     OW 3622   1.811   6.560   3.701
  908SOL    HW1 3623   1.779   6.651   3.728
  908SOL    HW2 3624   1.887   6.532   3.760
  909SOL     OW 3625   2.323   0.544   1.193
  909SOL    HW1 3626   2.251   0.476   1.186
  909SOL    HW2 3627   2.404   0.513   1.143
  910SOL     OW 3628   2.481   0.041   0.754
  910SOL    HW1 3629   2.494   0.094   0.838
  910SOL    HW2 3630   2.561   0.053   0.695
  911SOL     OW 3631   6.500   5.723   1.102
  911SOL    HW1 3632   6.548   5.810   1.087
  911SOL    HW2 3633   6.553   5.648   1.062
  912SOL     OW 3634   6.512   0.923   4.979
  912SOL    HW1 3635   6.445   0.918   5.053
  912SOL    HW2 3636   6.519   0.834   4.934
  913SOL     OW 3637   2.294   0.317   3.679
  913SOL    HW1 3638   2.317   0.232   3.727
  913SOL    HW2 3639   2.377   0.370   3.663
  914SOL     OW 3640   2.625   5.662   5.584
  914SOL    HW1 3641   2.711   5.622   5.617
  914SOL    HW2 3642   2.588   5.724   5.653
  915SOL     OW 3643   0.979   3.454   1.105
  915SOL    HW1 3644   1.036   3.503   1.171
  915SOL    HW2 3645   0.934   3.520   1.045
  916SOL     OW 3646   1.208   2.448   2.758
  916SOL    HW1 3647   1.289   2.407   2.800
  916SOL    HW2 3648   1.176   2.524   2.814
  917SOL     OW 3649   4.560   0.752   1.491
  917SOL    HW1 3650   4.469   0.720   1.518
  917SOL    HW2 3651   4.627   0.680   1.507
  918SOL     OW 3652   2.368   5.974   0.056
  918SOL    HW1 3653   2.400   6.017   6.998
  918SOL    HW2 3654   2.386   6.035   0.133
  919SOL     OW 3655   0.429   5.568   2.328
  919SOL    HW1 3656   0.477   5.600   2.410
  919SOL    HW2 3657   0.384   5.646   2.284
  920SOL     OW 3658   1.809   0.450   2.842
  920SOL    HW1 3659   1.762   0.534   2.814
  920SOL    HW2 3660   1.870   0.471   2.919
  921SOL     OW 3661   5.469   4.602   4.037
  921SOL    HW1 3662   5.562   4.587   4.072
  921SOL    HW2 3663   5.470   4.678   3.972
  922SOL     OW 3664   3.774   2.801   6.457
  922SOL    HW1 3665   3.708   2.805   6.382
  922SOL    HW2 3666   3.740   2.855   6.534
  923SOL     OW 3667   3.158   5.532   0.216
  923SOL    HW1 3668   3.074   5.485   0.189
  923SOL    HW2 3669   3.153   5.628   0.187
  924SOL     OW 3670   5.518   3.383   2.037
  924SOL    HW1 3671   5.504   3.294   1.995
  924SOL    HW2 3672   5.616   3.399   2.051
  925SOL     OW 3673   6.748   1.766   5.440
  925SOL    HW1 3674   6.693   1.688   5.469
  925SOL    HW2 3675   6.823   1.734   5.382
  926SOL     OW 3676   5.693   1.102   6.669
  926SOL    HW1 3677   5.661   1.101   6.574
  926SOL    HW2 3678   5.656   1.022   6.717
  927SOL     OW 3679   5.486   4.263   3.914
  927SOL    HW1 3680   5.387   4.259   3.923
  927SOL    HW2 3681   5.528   4.218   3.993
  928SOL     OW 3682   2.096   0.744   0.644
  928SOL    HW1 3683   2.070   0.718   0.551
  928SOL    HW2 3684   2.049   0.829   0.669
  929SOL     OW 3685   7.005   1.630   0.930
  929SOL    HW1 3686   0.038   1.621   0.850
  929SOL    HW2 3687   6.916   1.588   0.909
  930SOL     OW 3688   6.340   5.775   4.685
  930SOL    HW1 3689   6.248   5.788   4.721
  930SOL    HW2 3690   6.338   5.702   4.616
  931SOL     OW 3691   0.098   3.328   3.874
  931SOL    HW1 3692   0.082   3.274   3.791
  931SOL    HW2 3693   0.194   3.324   3.899
  932SOL     OW 3694   2.555   6.491   1.768
  932SOL    HW1 3695   2.468   6.520   1.808
  932SOL    HW2 3696   2.595   6.418   1.824
  933SOL     OW 3697   0.717   5.039   2.248
  933SOL    HW1 3698   0.712   4.986   2.333
  933SOL    HW2 3699   0.754   5.129   2.266
  934SOL     OW 3700   2.266   0.704   4.290
  934SOL    HW1 3701   2.341   0.769   4.298
  934SOL    HW2 3702   2.255   0.677   4.195
  935SOL     OW 3703   5.044   4.229   5.233
  935SOL    HW1 3704   5.013   4.309   5.284
  935SOL    HW2 3705   5.055   4.151   5.295
  936SOL     OW 3706   1.101   0.086   5.747
  936SOL    HW1 3707   1.020   0.143   5.731
  936SOL    HW2 3708   1.157   0.083   5.664
  937SOL     OW 3709   4.947   1.911   5.449
  937SOL    HW1 3710   4.897   1.837   5.405
  937SOL    HW2 3711   4.890   1.993   5.452
  938SOL     OW 3712   0.167   5.183   5.816
  938SOL    HW1 3713   0.192   5.091   5.845
  938SOL    HW2 3714   0.067   5.191   5.813
  939SOL     OW 3715   5.217   1.448   5.627
  939SOL    HW1 3716   5.269   1.455   5.541
  939SOL    HW2 3717   5.193   1.539   5.659
  940SOL     OW 3718   6.684   3.234   2.537
  940SOL    HW1 3719   6.701   3.224   2.439
  940SOL    HW2 3720   6.726   3.159   2.586
  941SOL     OW 3721   6.364   0.839   3.818
  941SOL    HW1 3722   6.336   0.777   3.745
  941SOL    HW2 3723   6.463   0.829   3.835
  942SOL     OW 3724   4.903   0.764   4.106
  942SOL    HW1 3725   5.003   0.763   4.107
  942SOL    HW2 3726   4.870   0.830   4.039
  943SOL     OW 3727   1.233   3.094   3.480
  943SOL    HW1 3728   1.238   3.024   3.552
  943SOL    HW2 3729   1.196   3.178   3.519
  944SOL     OW 3730   6.188   3.281   6.507
  944SOL    HW1 3731   6.122   3.347   6.470
  944SOL    HW2 3732   6.150   3.238   6.589
  945SOL     OW 3733   6.496   4.306   5.753
  945SOL    HW1 3734   6.594   4.303   5.776
  945SOL    HW2 3735   6.461   4.213   5.745
  946SOL     OW 3736   5.387   2.772   6.071
  946SOL    HW1 3737   5.448   2.840   6.110
  946SOL    HW2 3738   5.312   2.753   6.135
  947SOL     OW 3739   3.123   3.690   5.262
  947SOL    HW1 3740   3.174   3.725   5.183
  947SOL    HW2 3741   3.030   3.726   5.260
  948SOL     OW 3742   4.714   1.106   1.023
  948SOL    HW1 3743   4.720   1.088   0.925
  948SOL    HW2 3744   4.649   1.043   1.065
  949SOL     OW 3745   7.011   6.300   6.435
  949SOL    HW1 3746   0.062   6.247   6.400
  949SOL    HW2 3747   0.014   6.393   6.454
  950SOL     OW 3748   4.130   5.103   2.303
  950SOL    HW1 3749   4.106   5.030   2.366
  950SOL    HW2 3750   4.179   5.065   2.225
  951SOL     OW 3751   1.832   0.736   2.196
  951SOL    HW1 3752   1.915   0.759   2.146
  951SOL    HW2 3753   1.752   0.757   2.140
  952SOL     OW 3754   5.424   1.333   1.761
  952SOL    HW1 3755   5.358   1.291   1.698
  952SOL    HW2 3756   5.375   1.393   1.824
  953SOL     OW 3757   5.015   5.715   5.084
  953SOL    HW1 3758   5.108   5.721   5.119
  953SOL    HW2 3759   4.954   5.682   5.155
  954SOL     OW 3760   5.125   6.059   0.657
  954SOL    HW1 3761   5.055   6.130   0.664
  954SOL    HW2 3762   5.215   6.101   0.655
  955SOL     OW 3763   0.729   4.961   3.253
  955SOL    HW1 3764   0.711   4.939   3.349
  955SOL    HW2 3765   0.827   4.973   3.240
  956SOL     OW 3766   0.807   1.718   2.205
  956SOL    HW1 3767   0.788   1.640   2.145
  956SOL    HW2 3768   0.883   1.771   2.169
  957SOL     OW 3769   1.684   4.496   4.050
  957SOL    HW1 3770   1.633   4.431   4.106
  957SOL    HW2 3771   1.733   4.448   3.978
  958SOL     OW 3772   4.704   2.567   1.339
  958SOL    HW1 3773   4.615   2.591   1.376
  958SOL    HW2 3774   4.693   2.503   1.263
  959SOL     OW 3775   2.512   4.973   2.859
  959SOL    HW1 3776   2.539   5.069   2.866
  959SOL    HW2 3777   2.421   4.961   2.900
  960SOL     OW 3778   0.078   6.173   4.114
  960SOL    HW1 3779   0.041   6.137   4.029
  960SOL    HW2 3780   0.120   6.099   4.166
  961SOL     OW 3781   5.020   6.412   3.139
  961SOL    HW1 3782   4.996   6.496   3.090
  961SOL    HW2 3783   5.120   6.403   3.143
  962SOL     OW 3784   1.687   1.541   3.999
  962SOL    HW1 3785   1.727   1.631   3.978
  962SOL    HW2 3786   1.662   1.537   4.096
  963SOL     OW 3787   6.000   1.110   6.250
  963SOL    HW1 3788   6.016   1.086   6.154
  963SOL    HW2 3789   6.077   1.165   6.283
  964SOL     OW 3790   6.200   3.367   0.479
  964SOL    HW1 3791   6.280   3.386   0.536
  964SOL    HW2 3792   6.225   3.305   0.405
  965SOL     OW 3793   5.471   1.632   1.027
  965SOL    HW1 3794   5.382   1.662   1.059
  965SOL    HW2 3795   5.543   1.674   1.083
  966SOL     OW 3796   6.437   1.805   2.249
  966SOL    HW1 3797   6.501   1.737   2.213
  966SOL    HW2 3798   6.362   1.819   2.184
  967SOL     OW 3799   1.452   5.282   0.812
  967SOL    HW1 3800   1.545   5.246   0.824
  967SOL    HW2 3801   1.429   5.283   0.715
  968SOL     OW 3802   4.478   2.535   1.951
  968SOL    HW1 3803   4.571   2.572   1.950
  968SOL    HW2 3804   4.434   2.553   1.863
  969SOL     OW 3805   4.319   5.810   6.010
  969SOL    HW1 3806   4.386   5.775   6.076
  969SOL    HW2 3807   4.364   5.875   5.949
  970SOL     OW 3808   4.527   0.907   4.978
  970SOL    HW1 3809   4.494   0.887   5.070
  970SOL    HW2 3810   4.474   0.982   4.938
  971SOL     OW 3811   0.365   2.036   3.210
  971SOL    HW1 3812   0.443   2.023   3.149
  971SOL    HW2 3813   0.371   1.970   3.285
  972SOL     OW 3814   5.506   3.733   1.025
  972SOL    HW1 3815   5.565   3.690   1.094
  972SOL    HW2 3816   5.412   3.736   1.058
  973SOL     OW 3817   0.196   4.402   6.487
  973SOL    HW1 3818   0.262   4.477   6.491
  973SOL    HW2 3819   0.221   4.332   6.553
  974SOL     OW 3820   4.278   0.664   2.572
  974SOL    HW1 3821   4.227   0.743   2.538
  974SOL    HW2 3822   4.216   0.601   2.618
  975SOL     OW 3823   1.945   5.421   6.532
  975SOL    HW1 3824   2.012   5.381   6.595
  975SOL    HW2 3825   1.992   5.465   6.456
  976SOL     OW 3826   5.870   3.068   2.663
  976SOL    HW1 3827   5.816   3.006   2.720
  976SOL    HW2 3828   5.955   3.092   2.712
  977SOL     OW 3829   2.831   1.346   3.681
  977SOL    HW1 3830   2.731   1.347   3.684
  977SOL    HW2 3831   2.866   1.436   3.708
  978SOL     OW 3832   4.861   4.229   5.623
  978SOL    HW1 3833   4.836   4.243   5.719
  978SOL    HW2 3834   4.930   4.296   5.597
  979SOL     OW 3835   6.871   1.660   2.236
  979SOL    HW1 3836   6.878   1.758   2.253
  979SOL    HW2 3837   6.955   1.614   2.268
  980SOL     OW 3838   4.671   2.130   3.768
  980SOL    HW1 3839   4.742   2.185   3.723
  980SOL    HW2 3840   4.582   2.153   3.729
  981SOL     OW 3841   1.689   1.463   4.891
  981SOL    HW1 3842   1.775   1.472   4.943
  981SOL    HW2 3843   1.694   1.383   4.832
  982SOL     OW 3844   2.330   1.887   3.860
  982SOL    HW1 3845   2.318   1.961   3.926
  982SOL    HW2 3846   2.410   1.906   3.804
  983SOL     OW 3847   5.965   2.054   3.046
  983SOL    HW1 3848   6.029   2.044   2.969
  983SOL    HW2 3849   5.935   2.149   3.052
  984SOL     OW 3850   3.619   0.864   3.934
  984SOL    HW1 3851   3.593   0.817   4.019
  984SOL    HW2 3852   3.693   0.928   3.953
  985SOL     OW 3853   5.582   4.749   6.623
  985SOL    HW1 3854   5.519   4.800   6.565
  985SOL    HW2 3855   5.589   4.794   6.712
  986SOL     OW 3856   5.586   5.142   0.474
  986SOL    HW1 3857   5.517   5.208   0.503
  986SOL    HW2 3858   5.542   5.059   0.439
  987SOL     OW 3859   4.471   6.378   1.375
  987SOL    HW1 3860   4.532   6.356   1.451
  987SOL    HW2 3861   4.513   6.351   1.289
  988SOL     OW 3862   3.695   3.268   1.268
  988SOL    HW1 3863   3.659   3.272   1.175
  988SOL    HW2 3864   3.779   3.213   1.268
  989SOL     OW 3865   6.803   0.898   5.360
  989SOL    HW1 3866   6.801   0.904   5.260
  989SOL    HW2 3867   6.818   0.989   5.399
  990SOL     OW 3868   4.452   0.463   2.725
  990SOL    HW1 3869   4.525   0.415   2.775
  990SOL    HW2 3870   4.467   0.562   2.731
  991SOL     OW 3871   1.582   2.727   5.083
  991SOL    HW1 3872   1.676   2.696   5.074
  991SOL    HW2 3873   1.541   2.736   4.992
  992SOL     OW 3874   0.990   4.395   0.937
  992SOL    HW1 3875   0.927   4.338   0.883
  992SOL    HW2 3876   0.949   4.413   1.027
  993SOL     OW 3877   1.549   5.550   2.280
  993SOL    HW1 3878   1.579   5.580   2.371
  993SOL    HW2 3879   1.615   5.485   2.243
  994SOL     OW 3880   3.305   3.385   2.432
  994SOL    HW1 3881   3.307   3.407   2.529
  994SOL    HW2 3882   3.334   3.290   2.418
  995SOL     OW 3883   2.762   2.116   6.233
  995SOL    HW1 3884   2.777   2.168   6.317
  995SOL    HW2 3885   2.664   2.107   6.216
  996SOL     OW 3886   1.609   4.340   4.419
  996SOL    HW1 3887   1.561   4.394   4.349
  996SOL    HW2 3888   1.675   4.398   4.467
  997SOL     OW 3889   6.767   0.595   1.803
  997SOL    HW1 3890   6.671   0.579   1.825
  997SOL    HW2 3891   6.803   0.667   1.863
  998SOL     OW 3892   4.996   6.326   3.866
  998SOL    HW1 3893   4.912   6.355   3.913
  998SOL    HW2 3894   4.974   6.299   3.773
  999SOL     OW 3895   5.881   4.918   1.459
  999SOL    HW1 3896   5.795   4.917   1.509
  999SOL    HW2 3897   5.945   4.855   1.502
 1000SOL     OW 3898   1.428   1.134   2.417
 1000SOL    HW1 3899   1.393   1.180   2.336
 1000SOL    HW2 3900   1.528   1.130   2.414
 1001SOL     OW 3901   6.058   6.807   0.184
 1001SOL    HW1 3902   6.027   6.795   0.089
 1001SOL    HW2 3903   6.033   6.898   0.216
 1002SOL     OW 3904   6.113   1.855   6.445
 1002SOL    HW1 3905   6.164   1.938   6.467
 1002SOL    HW2 3906   6.052   1.832   6.521
 1003SOL     OW 3907   2.297   6.632   1.802
 1003SOL    HW1 3908   2.310   6.655   1.705
 1003SOL    HW2 3909   2.313   6.713   1.858
 1004SOL     OW 3910   0.122   0.583   1.244
 1004SOL    HW1 3911   0.156   0.527   1.168
 1004SOL    HW2 3912   0.033   0.623   1.220
 1005SOL     OW 3913   0.416   1.620   2.755
 1005SOL    HW1 3914   0.457   1.693   2.702
 1005SOL    HW2 3915   0.472   1.600   2.835
 1006SOL     OW 3916   1.519   5.931   1.769
 1006SOL    HW1 3917   1.490   5.862   1.702
 1006SOL    HW2 3918   1.484   6.020   1.743
 1007SOL     OW 3919   5.552   6.903   4.217
 1007SOL    HW1 3920   5.616   6.839   4.173
 1007SOL    HW2 3921   5.462   6.896   4.174
 1008SOL     OW 3922   2.071   3.116   4.745
 1008SOL    HW1 3923   2.147   3.059   4.716
 1008SOL    HW2 3924   2.100   3.212   4.746
 1009SOL     OW 3925   0.701   6.163   4.359
 1009SOL    HW1 3926   0.650   6.234   4.407
 1009SOL    HW2 3927   0.750   6.106   4.425
 1010SOL     OW 3928   3.691   2.258   6.298
 1010SOL    HW1 3929   3.726   2.209   6.218
 1010SOL    HW2 3930   3.592   2.271   6.288
 1011SOL     OW 3931   2.921   5.115   2.302
 1011SOL    HW1 3932   2.843   5.144   2.246
 1011SOL    HW2 3933   2.949   5.190   2.361
 1012SOL     OW 3934   0.053   6.622   0.325
 1012SOL    HW1 3935   0.116   6.686   0.282
 1012SOL    HW2 3936   0.098   6.578   0.403
 1013SOL     OW 3937   0.295   1.514   6.360
 1013SOL    HW1 3938   0.380   1.477   6.321
 1013SOL    HW2 3939   0.219   1.453   6.338
 1014SOL     OW 3940   5.250   5.420   6.591
 1014SOL    HW1 3941   5.266   5.325   6.619
 1014SOL    HW2 3942   5.187   5.464   6.655
 1015SOL     OW 3943   2.107   6.814   5.629
 1015SOL    HW1 3944   2.148   6.809   5.538
 1015SOL    HW2 3945   2.176   6.843   5.695
 1016SOL     OW 3946   2.528   3.508   0.337
 1016SOL    HW1 3947   2.531   3.589   0.278
 1016SOL    HW2 3948   2.468   3.439   0.295
 1017SOL     OW 3949   4.386   2.695   0.917
 1017SOL    HW1 3950   4.343   2.655   0.836
 1017SOL    HW2 3951   4.479   2.659   0.926
 1018SOL     OW 3952   1.567   3.236   3.725
 1018SOL    HW1 3953   1.603   3.225   3.817
 1018SOL    HW2 3954   1.467   3.241   3.729
 1019SOL     OW 3955   1.348   0.429   0.105
 1019SOL    HW1 3956   1.259   0.469   0.124
 1019SOL    HW2 3957   1.415   0.502   0.088
 1020SOL     OW 3958   1.064   6.714   1.234
 1020SOL    HW1 3959   1.026   6.806   1.239
 1020SOL    HW2 3960   1.162   6.717   1.254
 1021SOL     OW 3961   5.805   0.868   1.309
 1021SOL    HW1 3962   5.782   0.872   1.212
 1021SOL    HW2 3963   5.794   0.959   1.350
 1022SOL     OW 3964   4.214   4.751   6.262
 1022SOL    HW1 3965   4.244   4.656   6.254
 1022SOL    HW2 3966   4.121   4.753   6.301
 1023SOL     OW 3967   6.563   6.940   1.746
 1023SOL    HW1 3968   6.610   7.026   1.727
 1023SOL    HW2 3969   6.611   6.892   1.821
 1024SOL     OW 3970   5.807   3.569   3.989
 1024SOL    HW1 3971   5.818   3.514   4.072
 1024SOL    HW2 3972   5.717   3.552   3.950
 1025SOL     OW 3973   3.390   4.175   0.659
 1025SOL    HW1 3974   3.386   4.081   0.694
 1025SOL    HW2 3975   3.369   4.174   0.561
 1026SOL     OW 3976   2.227   1.790   1.306
 1026SOL    HW1 3977   2.172   1.708   1.319
 1026SOL    HW2 3978   2.250   1.801   1.210
 1027SOL     OW 3979   2.416   6.059   1.044
 1027SOL    HW1 3980   2.403   5.969   1.087
 1027SOL    HW2 3981   2.507   6.064   1.004
 1028SOL     OW 3982   4.235   5.996   0.303
 1028SOL    HW1 3983   4.138   6.007   0.280
 1028SOL    HW2 3984   4.269   5.911   0.264
 1029SOL     OW 3985   2.013   0.623   0.368
 1029SOL    HW1 3986   2.010   0.539   0.422
 1029SOL    HW2 3987   1.936   0.626   0.305
 1030SOL     OW 3988   3.584   3.604   1.314
 1030SOL    HW1 3989   3.548   3.518   1.351
 1030SOL    HW2 3990   3.673   3.624   1.356
 1031SOL     OW 3991   5.426   5.435   0.602
 1031SOL    HW1 3992   5.465   5.368   0.666
 1031SOL    HW2 3993   5.359   5.389   0.543
 1032SOL     OW 3994   1.684   1.742   4.572
 1032SOL    HW1 3995   1.698   1.647   4.545
 1032SOL    HW2 3996   1.652   1.745   4.666
 1033SOL     OW 3997   1.894   6.400   1.417
 1033SOL    HW1 3998   1.813   6.392   1.358
 1033SOL    HW2 3999   1.869   6.381   1.512
 1034SOL     OW 4000   1.204   5.641   5.247
 1034SOL    HW1 4001   1.286   5.656   5.191
 1034SOL    HW2 4002   1.163   5.729   5.270
 1035SOL     OW 4003   2.575   1.320   3.720
 1035SOL    HW1 4004   2.566   1.411   3.760
 1035SOL    HW2 4005   2.485   1.277   3.714
 1036SOL     OW 4006   3.433   0.619   1.457
 1036SOL    HW1 4007   3.385   0.655   1.377
 1036SOL    HW2 4008   3.496   0.689   1.491
 1037SOL     OW 4009   2.532   0.783   1.626
 1037SOL    HW1 4010   2.599   0.850   1.655
 1037SOL    HW2 4011   2.563   0.691   1.650
 1038SOL     OW 4012   1.333   0.959   5.805
 1038SOL    HW1 4013   1.303   0.994   5.893
 1038SOL    HW2 4014   1.370   0.867   5.817
 1039SOL     OW 4015   3.953   3.059   5.849
 1039SOL    HW1 4016   3.927   3.042   5.944
 1039SOL    HW2 4017   3.980   2.973   5.805
 1040SOL     OW 4018   5.062   3.036   2.491
 1040SOL    HW1 4019   5.094   3.106   2.555
 1040SOL    HW2 4020   5.140   2.984   2.456
 1041SOL     OW 4021   6.725   6.895   4.015
 1041SOL    HW1 4022   6.763   6.983   3.985
 1041SOL    HW2 4023   6.695   6.843   3.935
 1042SOL     OW 4024   3.431   4.944   2.174
 1042SOL    HW1 4025   3.511   4.901   2.132
 1042SOL    HW2 4026   3.370   4.977   2.102
 1043SOL     OW 4027   4.762   1.180   5.339
 1043SOL    HW1 4028   4.733   1.240   5.265
 1043SOL    HW2 4029   4.747   1.225   5.427
 1044SOL     OW 4030   4.722   4.327   1.746
 1044SOL    HW1 4031   4.740   4.253   1.681
 1044SOL    HW2 4032   4.672   4.292   1.825
 1045SOL     OW 4033   2.559   6.886   2.585
 1045SOL    HW1 4034   2.634   6.951   2.573
 1045SOL    HW2 4035   2.478   6.934   2.619
 1046SOL     OW 4036   2.034   6.965   0.045
 1046SOL    HW1 4037   2.091   6.993   0.123
 1046SOL    HW2 4038   1.938   6.984   0.066
 1047SOL     OW 4039   1.256   6.142   2.930
 1047SOL    HW1 4040   1.248   6.240   2.911
 1047SOL    HW2 4041   1.280   6.093   2.846
 1048SOL     OW 4042   4.969   5.495   5.566
 1048SOL    HW1 4043   4.949   5.593   5.560
 1048SOL    HW2 4044   4.886   5.443   5.545
 1049SOL     OW 4045   6.911   5.018   4.473
 1049SOL    HW1 4046   6.888   5.003   4.569
 1049SOL    HW2 4047   6.842   5.078   4.431
 1050SOL     OW 4048   3.127   5.276   0.620
 1050SOL    HW1 4049   3.086   5.192   0.655
 1050SOL    HW2 4050   3.064   5.320   0.556
 1051SOL     OW 4051   2.863   5.124   0.425
 1051SOL    HW1 4052   2.804   5.133   0.344
 1051SOL    HW2 4053   2.882   5.215   0.462
 1052SOL     OW 4054   4.427   6.758   4.355
 1052SOL    HW1 4055   4.371   6.742   4.436
 1052SOL    HW2 4056   4.399   6.694   4.283
 1053SOL     OW 4057   5.162   5.363   2.924
 1053SOL    HW1 4058   5.086   5.326   2.977
 1053SOL    HW2 4059   5.202   5.291   2.867
 1054SOL     OW 4060   2.921   4.633   6.124
 1054SOL    HW1 4061   3.006   4.638   6.072
 1054SOL    HW2 4062   2.929   4.562   6.194
 1055SOL     OW 4063   5.939   6.935   4.415
 1055SOL    HW1 4064   6.034   6.961   4.399
 1055SOL    HW2 4065   5.878   7.000   4.371
 1056SOL     OW 4066   1.484   5.541   5.618
 1056SOL    HW1 4067   1.455   5.583   5.704
 1056SOL    HW2 4068   1.570   5.581   5.589
 1057SOL     OW 4069   3.223   3.377   2.703
 1057SOL    HW1 4070   3.257   3.310   2.769
 1057SOL    HW2 4071   3.217   3.467   2.747
 1058SOL     OW 4072   5.086   1.553   1.789
 1058SOL    HW1 4073   5.170   1.543   1.842
 1058SOL    HW2 4074   5.008   1.529   1.846
 1059SOL     OW 4075   2.106   0.743   0.931
 1059SOL    HW1 4076   2.127   0.660   0.982
 1059SOL    HW2 4077   2.114   0.724   0.833
 1060SOL     OW 4078   0.307   2.969   4.789
 1060SOL    HW1 4079   0.342   3.012   4.706
 1060SOL    HW2 4080   0.368   2.989   4.866
 1061SOL     OW 4081   5.048   3.817   1.334
 1061SOL    HW1 4082   5.043   3.851   1.240
 1061SOL    HW2 4083   5.143   3.798   1.358
 1062SOL     OW 4084   6.645   5.040   5.598
 1062SOL    HW1 4085   6.572   5.009   5.660
 1062SOL    HW2 4086   6.608   5.108   5.535
 1063SOL     OW 4087   1.003   4.313   1.698
 1063SOL    HW1 4088   1.051   4.226   1.687
 1063SOL    HW2 4089   1.045   4.365   1.773
 1064SOL     OW 4090   1.201   4.077   1.720
 1064SOL    HW1 4091   1.273   4.134   1.760
 1064SOL    HW2 4092   1.180   4.001   1.781
 1065SOL     OW 4093   4.536   0.410   4.309
 1065SOL    HW1 4094   4.597   0.483   4.342
 1065SOL    HW2 4095   4.512   0.428   4.214
 1066SOL     OW 4096   5.487   1.045   4.195
 1066SOL    HW1 4097   5.455   1.065   4.287
 1066SOL    HW2 4098   5.500   0.947   4.184
 1067SOL     OW 4099   1.628   2.883   0.269
 1067SOL    HW1 4100   1.575   2.802   0.293
 1067SOL    HW2 4101   1.565   2.961   0.256
 1068SOL     OW 4102   5.262   4.282   2.105
 1068SOL    HW1 4103   5.292   4.305   2.197
 1068SOL    HW2 4104   5.248   4.183   2.098
 1069SOL     OW 4105   4.864   5.255   1.470
 1069SOL    HW1 4106   4.825   5.269   1.561
 1069SOL    HW2 4107   4.791   5.240   1.404
 1070SOL     OW 4108   1.514   0.593   0.715
 1070SOL    HW1 4109   1.523   0.495   0.729
 1070SOL    HW2 4110   1.605   0.633   0.704
 1071SOL     OW 4111   3.608   6.997   3.479
 1071SOL    HW1 4112   3.584   6.905   3.511
 1071SOL    HW2 4113   3.615   6.997   3.380
 1072SOL     OW 4114   1.692   5.990   1.036
 1072SOL    HW1 4115   1.775   5.973   0.983
 1072SOL    HW2 4116   1.717   6.001   1.133
 1073SOL     OW 4117   3.398   6.234   2.611
 1073SOL    HW1 4118   3.408   6.197   2.703
 1073SOL    HW2 4119   3.336   6.313   2.613
 1074SOL     OW 4120   2.129   5.216   0.851
 1074SOL    HW1 4121   2.144   5.289   0.918
 1074SOL    HW2 4122   2.075   5.252   0.774
 1075SOL     OW 4123   4.283   6.386   3.439
 1075SOL    HW1 4124   4.326   6.299   3.413
 1075SOL    HW2 4125   4.341   6.462   3.408
 1076SOL     OW 4126   0.430   4.445   4.719
 1076SOL    HW1 4127   0.337   4.421   4.746
 1076SOL    HW2 4128   0.437   4.544   4.706
 1077SOL     OW 4129   6.354   0.228   0.077
 1077SOL    HW1 4130   6.368   0.309   0.134
 1077SOL    HW2 4131   6.337   0.255   7.009
 1078SOL     OW 4132   1.973   0.896   2.494
 1078SOL    HW1 4133   1.989   0.902   2.395
 1078SOL    HW2 4134   2.025   0.818   2.530
 1079SOL     OW 4135   1.667   5.604   2.528
 1079SOL    HW1 4136   1.746   5.565   2.481
 1079SOL    HW2 4137   1.623   5.534   2.584
 1080SOL     OW 4138   2.123   4.255   3.278
 1080SOL    HW1 4139   2.187   4.219   3.346
 1080SOL    HW2 4140   2.172   4.275   3.193
 1081SOL     OW 4141   0.092   0.074   5.482
 1081SOL    HW1 4142   0.094   0.067   5.383
 1081SOL    HW2 4143   0.017   0.134   5.511
 1082SOL     OW 4144   2.524   0.931   5.379
 1082SOL    HW1 4145   2.497   0.969   5.467
 1082SOL    HW2 4146   2.623   0.941   5.368
 1083SOL     OW 4147   3.844   4.080   1.254
 1083SOL    HW1 4148   3.784   4.124   1.321
 1083SOL    HW2 4149   3.791   4.057   1.172
 1084SOL     OW 4150   6.615   6.142   0.544
 1084SOL    HW1 4151   6.682   6.136   0.470
 1084SOL    HW2 4152   6.627   6.064   0.606
 1085SOL     OW 4153   2.138   4.426   2.962
 1085SOL    HW1 4154   2.199   4.496   2.998
 1085SOL    HW2 4155   2.191   4.356   2.916
 1086SOL     OW 4156   6.749   6.052   2.949
 1086SOL    HW1 4157   6.679   6.118   2.922
 1086SOL    HW2 4158   6.786   6.077   3.038
 1087SOL     OW 4159   5.820   2.470   5.642
 1087SOL    HW1 4160   5.906   2.511   5.612
 1087SOL    HW2 4161   5.814   2.475   5.742
 1088SOL     OW 4162   5.906   4.756   3.324
 1088SOL    HW1 4163   5.976   4.824   3.304
 1088SOL    HW2 4164   5.818   4.802   3.339
 1089SOL     OW 4165   1.391   6.937   4.551
 1089SOL    HW1 4166   1.299   6.915   4.518
 1089SOL    HW2 4167   1.391   6.935   4.651
 1090SOL     OW 4168   2.955   1.578   3.689
 1090SOL    HW1 4169   3.043   1.533   3.703
 1090SOL    HW2 4170   2.970   1.669   3.650
 1091SOL     OW 4171   1.724   3.058   4.606
 1091SOL    HW1 4172   1.754   2.985   4.545
 1091SOL    HW2 4173   1.790   3.133   4.605
 1092SOL     OW 4174   3.012   3.616   0.813
 1092SOL    HW1 4175   3.038   3.552   0.885
 1092SOL    HW2 4176   2.918   3.597   0.784
 1093SOL     OW 4177   1.695   2.272   2.777
 1093SOL    HW1 4178   1.737   2.267   2.868
 1093SOL    HW2 4179   1.747   2.334   2.719
 1094SOL     OW 4180   1.186   6.855   3.013
 1094SOL    HW1 4181   1.254   6.801   2.964
 1094SOL    HW2 4182   1.143   6.798   3.084
 1095SOL     OW 4183   6.856   2.249   5.697
 1095SOL    HW1 4184   6.858   2.288   5.789
 1095SOL    HW2 4185   6.777   2.189   5.689
 1096SOL     OW 4186   3.806   4.585   1.675
 1096SOL    HW1 4187   3.750   4.627   1.746
 1096SOL    HW2 4188   3.827   4.654   1.605
 1097SOL     OW 4189   0.962   4.400   4.234
 1097SOL    HW1 4190   0.932   4.306   4.249
 1097SOL    HW2 4191   0.993   4.439   4.320
 1098SOL     OW 4192   5.269   3.041   0.667
 1098SOL    HW1 4193   5.177   3.081   0.660
 1098SOL    HW2 4194   5.291   3.025   0.764
 1099SOL     OW 4195   3.988   1.408   4.502
 1099SOL    HW1 4196   4.086   1.426   4.500
 1099SOL    HW2 4197   3.938   1.486   4.466
 1100SOL     OW 4198   2.655   2.332   6.734
 1100SOL    HW1 4199   2.725   2.403   6.731
 1100SOL    HW2 4200   2.564   2.375   6.740
 1101SOL     OW 4201   5.399   2.933   0.914
 1101SOL    HW1 4202   5.394   2.844   0.869
 1101SOL    HW2 4203   5.323   2.943   0.978
 1102SOL     OW 4204   1.321   5.538   3.046
 1102SOL    HW1 4205   1.257   5.494   2.983
 1102SOL    HW2 4206   1.334   5.479   3.126
 1103SOL     OW 4207   3.236   1.171   1.324
 1103SOL    HW1 4208   3.137   1.160   1.317
 1103SOL    HW2 4209   3.280   1.125   1.248
 1104SOL     OW 4210   1.966   3.503   6.322
 1104SOL    HW1 4211   1.940   3.581   6.265
 1104SOL    HW2 4212   2.037   3.531   6.386
 1105SOL     OW 4213   5.140   3.633   5.136
 1105SOL    HW1 4214   5.122   3.649   5.234
 1105SOL    HW2 4215   5.058   3.595   5.093
 1106SOL     OW 4216   0.938   1.628   0.663
 1106SOL    HW1 4217   1.014   1.677   0.706
 1106SOL    HW2 4218   0.865   1.693   0.641
 1107SOL     OW 4219   0.891   0.509   6.654
 1107SOL    HW1 4220   0.904   0.606   6.631
 1107SOL    HW2 4221   0.800   0.480   6.623
 1108SOL     OW 4222   2.492   0.349   6.231
 1108SOL    HW1 4223   2.553   0.282   6.275
 1108SOL    HW2 4224   2.510   0.351   6.133
 1109SOL     OW 4225   4.459   5.526   4.792
 1109SOL    HW1 4226   4.474   5.540   4.890
 1109SOL    HW2 4227   4.526   5.461   4.757
 1110SOL     OW 4228   2.975   1.424   2.495
 1110SOL    HW1 4229   3.050   1.431   2.561
 1110SOL    HW2 4230   2.904   1.490   2.519
 1111SOL     OW 4231   5.753   5.631   6.999
 1111SOL    HW1 4232   5.696   5.635   6.917
 1111SOL    HW2 4233   5.763   5.722   0.011
 1112SOL     OW 4234   6.146   1.083   2.488
 1112SOL    HW1 4235   6.227   1.079   2.430
 1112SOL    HW2 4236   6.148   1.009   2.555
 1113SOL     OW 4237   6.073   3.322   2.317
 1113SOL    HW1 4238   6.046   3.361   2.405
 1113SOL    HW2 4239   6.144   3.378   2.276
 1114SOL     OW 4240   4.461   0.949   6.436
 1114SOL    HW1 4241   4.539   0.990   6.388
 1114SOL    HW2 4242   4.450   0.993   6.525
 1115SOL     OW 4243   3.971   3.187   6.996
 1115SOL    HW1 4244   3.922   3.208   6.912
 1115SOL    HW2 4245   3.916   3.124   0.025
 1116SOL     OW 4246   5.667   5.590   4.243
 1116SOL    HW1 4247   5.574   5.602   4.209
 1116SOL    HW2 4248   5.729   5.576   4.165
 1117SOL     OW 4249   2.087   2.821   1.724
 1117SOL    HW1 4250   2.172   2.787   1.684
 1117SOL    HW2 4251   2.009   2.777   1.680
 1118SOL     OW 4252   1.594   4.883   1.665
 1118SOL    HW1 4253   1.591   4.855   1.762
 1118SOL    HW2 4254   1.550   4.812   1.609
 1119SOL     OW 4255   4.081   4.341   1.599
 1119SOL    HW1 4256   4.129   4.292   1.527
 1119SOL    HW2 4257   4.122   4.432   1.611
 1120SOL     OW 4258   5.051   6.337   5.209
 1120SOL    HW1 4259   4.979   6.332   5.279
 1120SOL    HW2 4260   5.042   6.423   5.159
 1121SOL     OW 4261   5.136   4.095   2.461
 1121SOL    HW1 4262   5.077   4.175   2.447
 1121SOL    HW2 4263   5.210   4.120   2.524
 1122SOL     OW 4264   4.979   3.434   5.613
 1122SOL    HW1 4265   4.941   3.395   5.696
 1122SOL    HW2 4266   4.964   3.533   5.612
 1123SOL     OW 4267   5.452   1.891   2.023
 1123SOL    HW1 4268   5.414   1.905   1.932
 1123SOL    HW2 4269   5.530   1.829   2.017
 1124SOL     OW 4270   6.031   3.900   5.260
 1124SOL    HW1 4271   5.966   3.962   5.304
 1124SOL    HW2 4272   6.095   3.953   5.205
 1125SOL     OW 4273   1.955   1.475   4.997
 1125SOL    HW1 4274   1.983   1.538   5.070
 1125SOL    HW2 4275   2.030   1.466   4.931
 1126SOL     OW 4276   5.728   6.872   0.653
 1126SOL    HW1 4277   5.640   6.911   0.627
 1126SOL    HW2 4278   5.797   6.945   0.656
 1127SOL     OW 4279   5.166   5.546   4.834
 1127SOL    HW1 4280   5.086   5.569   4.890
 1127SOL    HW2 4281   5.244   5.602   4.863
 1128SOL     OW 4282   4.860   2.169   5.441
 1128SOL    HW1 4283   4.913   2.218   5.372
 1128SOL    HW2 4284   4.880   2.207   5.531
 1129SOL     OW 4285   3.938   0.268   0.214
 1129SOL    HW1 4286   3.860   0.325   0.241
 1129SOL    HW2 4287   3.928   0.177   0.252
 1130SOL     OW 4288   1.953   3.993   1.029
 1130SOL    HW1 4289   1.911   4.021   0.942
 1130SOL    HW2 4290   1.886   3.944   1.085
 1131SOL     OW 4291   0.849   6.253   5.674
 1131SOL    HW1 4292   0.896   6.181   5.623
 1131SOL    HW2 4293   0.783   6.299   5.614
 1132SOL     OW 4294   4.692   0.088   6.827
 1132SOL    HW1 4295   4.753   0.009   6.827
 1132SOL    HW2 4296   4.651   0.098   6.918
 1133SOL     OW 4297   0.142   1.352   0.695
 1133SOL    HW1 4298   0.235   1.384   0.681
 1133SOL    HW2 4299   0.141   1.282   0.767
 1134SOL     OW 4300   5.660   1.848   0.613
 1134SOL    HW1 4301   5.683   1.871   0.519
 1134SOL    HW2 4302   5.571   1.888   0.637
 1135SOL     OW 4303   3.104   1.531   3.031
 1135SOL    HW1 4304   3.071   1.492   2.945
 1135SOL    HW2 4305   3.196   1.568   3.018
 1136SOL     OW 4306   3.261   5.103   5.240
 1136SOL    HW1 4307   3.286   5.006   5.241
 1136SOL    HW2 4308   3.274   5.142   5.331
 1137SOL     OW 4309   1.269   2.840   0.152
 1137SOL    HW1 4310   1.228   2.895   0.079
 1137SOL    HW2 4311   1.218   2.855   0.237
 1138SOL     OW 4312   0.942   1.686   6.613
 1138SOL    HW1 4313   0.996   1.617   6.565
 1138SOL    HW2 4314   0.967   1.777   6.581
 1139SOL     OW 4315   2.217   6.249   1.703
 1139SOL    HW1 4316   2.257   6.294   1.783
 1139SOL    HW2 4317   2.265   6.279   1.621
 1140SOL     OW 4318   3.644   1.507   1.893
 1140SOL    HW1 4319   3.550   1.494   1.926
 1140SOL    HW2 4320   3.643   1.563   1.811
 1141SOL     OW 4321   6.618   6.033   6.221
 1141SOL    HW1 4322   6.645   6.112   6.276
 1141SOL    HW2 4323   6.519   6.024   6.221
 1142SOL     OW 4324   4.384   0.344   4.536
 1142SOL    HW1 4325   4.384   0.247   4.559
 1142SOL    HW2 4326   4.425   0.357   4.446
 1143SOL     OW 4327   3.019   2.073   2.664
 1143SOL    HW1 4328   3.094   2.015   2.695
 1143SOL    HW2 4329   3.005   2.061   2.566
 1144SOL     OW 4330   6.661   4.971   4.817
 1144SOL    HW1 4331   6.637   4.903   4.887
 1144SOL    HW2 4332   6.760   4.970   4.804
 1145SOL     OW 4333   0.299   4.037   2.850
 1145SOL    HW1 4334   0.386   3.996   2.822
 1145SOL    HW2 4335   0.231   3.965   2.863
 1146SOL     OW 4336   5.215   0.650   0.646
 1146SOL    HW1 4337   5.219   0.634   0.547
 1146SOL    HW2 4338   5.306   0.678   0.678
 1147SOL     OW 4339   0.904   4.846   0.527
 1147SOL    HW1 4340   0.929   4.930   0.575
 1147SOL    HW2 4341   0.988   4.797   0.501
 1148SOL     OW 4342   3.563   0.010   0.538
 1148SOL    HW1 4343   3.517   6.983   0.468
 1148SOL    HW2 4344   3.509   0.009   0.622
 1149SOL     OW 4345   5.651   3.627   3.252
 1149SOL    HW1 4346   5.743   3.601   3.283
 1149SOL    HW2 4347   5.592   3.644   3.330
 1150SOL     OW 4348   1.056   4.051   0.776
 1150SOL    HW1 4349   1.046   4.139   0.730
 1150SOL    HW2 4350   1.149   4.016   0.760
 1151SOL     OW 4351   5.023   5.581   6.735
 1151SOL    HW1 4352   5.083   5.660   6.737
 1151SOL    HW2 4353   4.995   5.563   6.640
 1152SOL     OW 4354   0.687   5.977   5.689
 1152SOL    HW1 4355   0.596   5.960   5.728
 1152SOL    HW2 4356   0.752   5.912   5.727
 1153SOL     OW 4357   2.383   0.036   1.783
 1153SOL    HW1 4358   2.307   7.002   1.757
 1153SOL    HW2 4359   2.385   0.114   1.720
 1154SOL     OW 4360   0.433   3.497   2.107
 1154SOL    HW1 4361   0.453   3.423   2.171
 1154SOL    HW2 4362   0.374   3.464   2.034
 1155SOL     OW 4363   3.057   5.344   6.942
 1155SOL    HW1 4364   3.150   5.352   6.978
 1155SOL    HW2 4365   3.054   5.272   6.873
 1156SOL     OW 4366   2.048   0.572   4.452
 1156SOL    HW1 4367   1.969   0.555   4.394
 1156SOL    HW2 4368   2.018   0.609   4.540
 1157SOL     OW 4369   5.995   1.520   4.424
 1157SOL    HW1 4370   6.066   1.450   4.435
 1157SOL    HW2 4371   6.028   1.606   4.462
 1158SOL     OW 4372   0.190   5.340   5.543
 1158SOL    HW1 4373   0.190   5.419   5.604
 1158SOL    HW2 4374   0.165   5.369   5.451
 1159SOL     OW 4375   5.500   0.126   3.136
 1159SOL    HW1 4376   5.540   0.213   3.164
 1159SOL    HW2 4377   5.422   0.143   3.076
 1160SOL     OW 4378   4.005   4.002   1.730
 1160SOL    HW1 4379   3.924   3.946   1.711
 1160SOL    HW2 4380   3.993   4.093   1.691
 1161SOL     OW 4381   5.156   0.241   5.966
 1161SOL    HW1 4382   5.101   0.280   5.892
 1161SOL    HW2 4383   5.211   0.166   5.930
 1162SOL     OW 4384   3.951   2.884   0.454
 1162SOL    HW1 4385   4.023   2.951   0.471
 1162SOL    HW2 4386   3.990   2.807   0.402
 1163SOL     OW 4387   5.412   3.154   1.902
 1163SOL    HW1 4388   5.341   3.146   1.832
 1163SOL    HW2 4389   5.400   3.083   1.971
 1164SOL     OW 4390   5.035   2.640   3.938
 1164SOL    HW1 4391   5.056   2.570   3.869
 1164SOL    HW2 4392   5.073   2.612   4.026
 1165SOL     OW 4393   2.277   4.700   4.029
 1165SOL    HW1 4394   2.228   4.614   4.044
 1165SOL    HW2 4395   2.211   4.775   4.028
 1166SOL     OW 4396   3.734   0.696   0.127
 1166SOL    HW1 4397   3.742   0.655   0.218
 1166SOL    HW2 4398   3.798   0.651   0.064
 1167SOL     OW 4399   3.366   0.275   6.516
 1167SOL    HW1 4400   3.355   0.235   6.607
 1167SOL    HW2 4401   3.398   0.205   6.453
 1168SOL     OW 4402   6.941   6.968   2.249
 1168SOL    HW1 4403   6.976   6.979   2.156
 1168SOL    HW2 4404   6.871   0.010   2.267
 1169SOL     OW 4405   6.407   2.880   0.060
 1169SOL    HW1 4406   6.480   2.811   0.057
 1169SOL    HW2 4407   6.359   2.882   6.999
 1170SOL     OW 4408   4.579   0.810   2.157
 1170SOL    HW1 4409   4.549   0.751   2.231
 1170SOL    HW2 4410   4.515   0.886   2.147
 1171SOL     OW 4411   2.282   6.537   6.947
 1171SOL    HW1 4412   2.201   6.582   6.985
 1171SOL    HW2 4413   2.338   6.501   7.021
 1172SOL     OW 4414   3.674   4.150   3.096
 1172SOL    HW1 4415   3.646   4.138   3.001
 1172SOL    HW2 4416   3.598   4.124   3.156
 1173SOL     OW 4417   3.034   0.089   6.132
 1173SOL    HW1 4418   2.957   0.084   6.068
 1173SOL    HW2 4419   3.074   7.025   6.145
 1174SOL     OW 4420   2.983   5.009   0.693
 1174SOL    HW1 4421   2.957   4.980   0.785
 1174SOL    HW2 4422   2.901   5.021   0.637
 1175SOL     OW 4423   5.122   3.432   6.479
 1175SOL    HW1 4424   5.132   3.340   6.518
 1175SOL    HW2 4425   5.172   3.498   6.535
 1176SOL     OW 4426   5.879   4.080   0.560
 1176SOL    HW1 4427   5.930   4.106   0.478
 1176SOL    HW2 4428   5.796   4.136   0.566
 1177SOL     OW 4429   6.928   1.648   5.267
 1177SOL    HW1 4430   7.026   1.642   5.247
 1177SOL    HW2 4431   6.879   1.578   5.216
 1178SOL     OW 4432   3.948   3.317   1.106
 1178SOL    HW1 4433   3.974   3.261   1.028
 1178SOL    HW2 4434   4.030   3.341   1.159
 1179SOL     OW 4435   2.963   5.421   0.474
 1179SOL    HW1 4436   2.880   5.476   0.484
 1179SOL    HW2 4437   3.019   5.460   0.400
 1180SOL     OW 4438   2.976   0.185   3.545
 1180SOL    HW1 4439   2.994   0.265   3.601
 1180SOL    HW2 4440   2.973   0.103   3.603
 1181SOL     OW 4441   0.222   2.812   5.139
 1181SOL    HW1 4442   0.229   2.760   5.054
 1181SOL    HW2 4443   0.283   2.891   5.136
 1182SOL     OW 4444   1.900   5.258   3.450
 1182SOL    HW1 4445   1.925   5.288   3.542
 1182SOL    HW2 4446   1.872   5.338   3.396
 1183SOL     OW 4447   3.637   5.414   2.447
 1183SOL    HW1 4448   3.631   5.464   2.534
 1183SOL    HW2 4449   3.556   5.357   2.437
 1184SOL     OW 4450   3.898   1.551   5.246
 1184SOL    HW1 4451   3.918   1.526   5.341
 1184SOL    HW2 4452   3.821   1.615   5.243
 1185SOL     OW 4453   2.121   0.102   0.249
 1185SOL    HW1 4454   2.043   0.142   0.296
 1185SOL    HW2 4455   2.193   0.081   0.315
 1186SOL     OW 4456   5.983   6.496   6.278
 1186SOL    HW1 4457   5.979   6.465   6.183
 1186SOL    HW2 4458   5.955   6.592   6.283
 1187SOL     OW 4459   5.450   6.009   4.830
 1187SOL    HW1 4460   5.511   5.982   4.756
 1187SOL    HW2 4461   5.502   6.012   4.916
 1188SOL     OW 4462   3.476   6.573   6.708
 1188SOL    HW1 4463   3.555   6.520   6.741
 1188SOL    HW2 4464   3.392   6.520   6.723
 1189SOL     OW 4465   5.576   0.360   1.867
 1189SOL    HW1 4466   5.483   0.346   1.899
 1189SOL    HW2 4467   5.592   0.458   1.853
 1190SOL     OW 4468   4.044   4.830   5.035
 1190SOL    HW1 4469   4.019   4.821   5.132
 1190SOL    HW2 4470   3.961   4.843   4.980
 1191SOL     OW 4471   4.270   5.450   5.168
 1191SOL    HW1 4472   4.226   5.474   5.081
 1191SOL    HW2 4473   4.304   5.533   5.212
 1192SOL     OW 4474   5.572   5.243   2.806
 1192SOL    HW1 4475   5.546   5.298   2.885
 1192SOL    HW2 4476   5.516   5.268   2.727
 1193SOL     OW 4477   6.605   0.414   4.550
 1193SOL    HW1 4478   6.657   0.382   4.630
 1193SOL    HW2 4479   6.611   0.345   4.478
 1194SOL     OW 4480   0.086   1.368   1.230
 1194SOL    HW1 4481   0.117   1.292   1.288
 1194SOL    HW2 4482   7.026   1.403   1.265
 1195SOL     OW 4483   5.989   2.251   0.692
 1195SOL    HW1 4484   6.014   2.286   0.782
 1195SOL    HW2 4485   5.953   2.158   0.701
 1196SOL     OW 4486   6.928   4.439   1.965
 1196SOL    HW1 4487   6.947   4.464   2.060
 1196SOL    HW2 4488   6.949   4.516   1.905
 1197SOL     OW 4489   4.101   6.007   5.075
 1197SOL    HW1 4490   4.028   6.074   5.064
 1197SOL    HW2 4491   4.115   5.989   5.173
 1198SOL     OW 4492   2.217   2.813   2.707
 1198SOL    HW1 4493   2.205   2.907   2.674
 1198SOL    HW2 4494   2.210   2.750   2.629
 1199SOL     OW 4495   3.805   2.923   3.001
 1199SOL    HW1 4496   3.770   2.977   3.078
 1199SOL    HW2 4497   3.795   2.825   3.022
 1200SOL     OW 4498   3.482   4.140   4.925
 1200SOL    HW1 4499   3.522   4.163   5.014
 1200SOL    HW2 4500   3.555   4.130   4.858
 1201SOL     OW 4501   0.386   1.319   4.354
 1201SOL    HW1 4502   0.455   1.254   4.385
 1201SOL    HW2 4503   0.330   1.276   4.283
 1202SOL     OW 4504   6.444   1.030   5.918
 1202SOL    HW1 4505   6.398   0.963   5.976
 1202SOL    HW2 4506   6.518   0.985   5.868
 1203SOL     OW 4507   6.452   6.703   1.788
 1203SOL    HW1 4508   6.482   6.798   1.779
 1203SOL    HW2 4509   6.360   6.701   1.828
 1204SOL     OW 4510   4.433   1.617   0.642
 1204SOL    HW1 4511   4.440   1.549   0.570
 1204SOL    HW2 4512   4.351   1.672   0.629
 1205SOL     OW 4513   4.046   3.678   6.484
 1205SOL    HW1 4514   3.990   3.716   6.557
 1205SOL    HW2 4515   4.135   3.650   6.521
 1206SOL     OW 4516   0.995   1.988   4.798
 1206SOL    HW1 4517   0.939   2.069   4.817
 1206SOL    HW2 4518   0.950   1.932   4.728
 1207SOL     OW 4519   0.847   6.832   0.442
 1207SOL    HW1 4520   0.830   6.842   0.344
 1207SOL    HW2 4521   0.782   6.767   0.481
 1208SOL     OW 4522   3.557   4.095   2.553
 1208SOL    HW1 4523   3.480   4.109   2.492
 1208SOL    HW2 4524   3.633   4.053   2.503
 1209SOL     OW 4525   5.571   6.678   4.731
 1209SOL    HW1 4526   5.581   6.740   4.653
 1209SOL    HW2 4527   5.642   6.608   4.727
 1210SOL     OW 4528   4.486   6.700   3.576
 1210SOL    HW1 4529   4.540   6.675   3.656
 1210SOL    HW2 4530   4.395   6.731   3.605
 1211SOL     OW 4531   1.634   2.865   2.995
 1211SOL    HW1 4532   1.673   2.891   3.084
 1211SOL    HW2 4533   1.556   2.924   2.974
 1212SOL     OW 4534   0.192   1.856   5.603
 1212SOL    HW1 4535   0.257   1.832   5.531
 1212SOL    HW2 4536   0.144   1.940   5.577
 1213SOL     OW 4537   5.736   3.339   4.734
 1213SOL    HW1 4538   5.808   3.270   4.730
 1213SOL    HW2 4539   5.716   3.361   4.830
 1214SOL     OW 4540   1.275   3.203   4.750
 1214SOL    HW1 4541   1.320   3.219   4.838
 1214SOL    HW2 4542   1.317   3.262   4.680
 1215SOL     OW 4543   1.793   5.131   2.539
 1215SOL    HW1 4544   1.786   5.058   2.607
 1215SOL    HW2 4545   1.705   5.177   2.531
 1216SOL     OW 4546   0.144   0.165   1.086
 1216SOL    HW1 4547   0.064   0.119   1.126
 1216SOL    HW2 4548   0.190   0.105   1.022
 1217SOL     OW 4549   2.374   5.803   0.863
 1217SOL    HW1 4550   2.325   5.829   0.946
 1217SOL    HW2 4551   2.386   5.703   0.861
 1218SOL     OW 4552   0.630   3.298   4.925
 1218SOL    HW1 4553   0.721   3.263   4.905
 1218SOL    HW2 4554   0.574   3.294   4.842
 1219SOL     OW 4555   4.472   5.270   1.722
 1219SOL    HW1 4556   4.565   5.250   1.751
 1219SOL    HW2 4557   4.448   5.213   1.644
 1220SOL     OW 4558   5.468   3.885   2.887
 1220SOL    HW1 4559   5.506   3.962   2.834
 1220SOL    HW2 4560   5.386   3.851   2.841
 1221SOL     OW 4561   5.868   4.026   6.390
 1221SOL    HW1 4562   5.817   3.949   6.427
 1221SOL    HW2 4563   5.956   3.994   6.356
 1222SOL     OW 4564   6.580   0.217   0.409
 1222SOL    HW1 4565   6.664   0.268   0.423
 1222SOL    HW2 4566   6.510   0.251   0.472
 1223SOL     OW 4567   5.271   1.273   0.842
 1223SOL    HW1 4568   5.240   1.270   0.747
 1223SOL    HW2 4569   5.225   1.347   0.890
 1224SOL     OW 4570   3.159   5.819   0.448
 1224SOL    HW1 4571   3.245   5.862   0.475
 1224SOL    HW2 4572   3.170   5.775   0.359
 1225SOL     OW 4573   3.696   2.688   0.846
 1225SOL    HW1 4574   3.650   2.752   0.908
 1225SOL    HW2 4575   3.717   2.735   0.760
 1226SOL     OW 4576   4.916   5.784   0.814
 1226SOL    HW1 4577   5.014   5.802   0.808
 1226SOL    HW2 4578   4.884   5.806   0.906
 1227SOL     OW 4579   6.099   5.331   6.327
 1227SOL    HW1 4580   6.006   5.314   6.294
 1227SOL    HW2 4581   6.144   5.243   6.346
 1228SOL     OW 4582   3.964   3.396   0.564
 1228SOL    HW1 4583   3.936   3.491   0.573
 1228SOL    HW2 4584   4.018   3.385   0.480
 1229SOL     OW 4585   1.960   6.053   1.505
 1229SOL    HW1 4586   2.006   5.991   1.568
 1229SOL    HW2 4587   2.026   6.093   1.442
 1230SOL     OW 4588   5.624   5.659   2.871
 1230SOL    HW1 4589   5.695   5.676   2.803
 1230SOL    HW2 4590   5.664   5.614   2.951
 1231SOL     OW 4591   1.057   2.040   5.990
 1231SOL    HW1 4592   1.051   1.977   6.067
 1231SOL    HW2 4593   1.033   2.133   6.020
 1232SOL     OW 4594   4.557   0.997   5.246
 1232SOL    HW1 4595   4.471   1.014   5.292
 1232SOL    HW2 4596   4.620   1.072   5.263
 1233SOL     OW 4597   0.920   5.619   3.486
 1233SOL    HW1 4598   0.831   5.659   3.506
 1233SOL    HW2 4599   0.982   5.692   3.456
 1234SOL     OW 4600   6.975   2.528   6.110
 1234SOL    HW1 4601   6.917   2.601   6.073
 1234SOL    HW2 4602   0.035   2.568   6.142
 1235SOL     OW 4603   6.706   4.543   0.596
 1235SOL    HW1 4604   6.666   4.535   0.687
 1235SOL    HW2 4605   6.734   4.638   0.580
 1236SOL     OW 4606   4.015   1.625   1.177
 1236SOL    HW1 4607   3.917   1.633   1.191
 1236SOL    HW2 4608   4.064   1.678   1.247
 1237SOL     OW 4609   1.362   5.890   4.800
 1237SOL    HW1 4610   1.403   5.846   4.879
 1237SOL    HW2 4611   1.359   5.826   4.724
 1238SOL     OW 4612   0.391   0.046   3.868
 1238SOL    HW1 4613   0.306   7.025   3.844
 1238SOL    HW2 4614   0.443   7.016   3.932
 1239SOL     OW 4615   6.027   6.224   5.509
 1239SOL    HW1 4616   6.041   6.191   5.602
 1239SOL    HW2 4617   6.112   6.216   5.457
 1240SOL     OW 4618   6.182   4.990   2.291
 1240SOL    HW1 4619   6.230   5.005   2.205
 1240SOL    HW2 4620   6.228   4.918   2.343
 1241SOL     OW 4621   6.769   4.517   5.063
 1241SOL    HW1 4622   6.822   4.463   5.128
 1241SOL    HW2 4623   6.829   4.550   4.990
 1242SOL     OW 4624   2.137   3.331   0.616
 1242SOL    HW1 4625   2.141   3.360   0.521
 1242SOL    HW2 4626   2.229   3.309   0.649
 1243SOL     OW 4627   0.663   1.276   4.604
 1243SOL    HW1 4628   0.737   1.213   4.628
 1243SOL    HW2 4629   0.701   1.367   4.586
 1244SOL     OW 4630   5.134   6.653   5.237
 1244SOL    HW1 4631   5.149   6.747   5.206
 1244SOL    HW2 4632   5.137   6.651   5.337
 1245SOL     OW 4633   5.496   5.398   0.903
 1245SOL    HW1 4634   5.513   5.392   1.001
 1245SOL    HW2 4635   5.541   5.479   0.866
 1246SOL     OW 4636   3.270   0.971   2.523
 1246SOL    HW1 4637   3.279   0.990   2.621
 1246SOL    HW2 4638   3.264   1.057   2.472
 1247SOL     OW 4639   5.660   0.165   4.996
 1247SOL    HW1 4640   5.688   0.070   4.978
 1247SOL    HW2 4641   5.603   0.168   5.078
 1248SOL     OW 4642   1.299   6.496   4.067
 1248SOL    HW1 4643   1.329   6.462   3.978
 1248SOL    HW2 4644   1.308   6.423   4.135
 1249SOL     OW 4645   6.704   4.057   1.715
 1249SOL    HW1 4646   6.746   4.136   1.759
 1249SOL    HW2 4647   6.740   4.047   1.622
 1250SOL     OW 4648   6.191   3.683   4.101
 1250SOL    HW1 4649   6.151   3.756   4.045
 1250SOL    HW2 4650   6.261   3.721   4.161
 1251SOL     OW 4651   2.140   0.863   3.003
 1251SOL    HW1 4652   2.146   0.795   3.076
 1251SOL    HW2 4653   2.173   0.951   3.037
 1252SOL     OW 4654   3.315   5.292   7.003
 1252SOL    HW1 4655   3.400   5.343   7.019
 1252SOL    HW2 4656   3.314   5.209   0.033
 1253SOL     OW 4657   2.701   0.007   1.323
 1253SOL    HW1 4658   2.713   0.084   1.386
 1253SOL    HW2 4659   2.790   6.999   1.294
 1254SOL     OW 4660   6.397   3.082   2.763
 1254SOL    HW1 4661   6.459   3.043   2.831
 1254SOL    HW2 4662   6.437   3.164   2.723
 1255SOL     OW 4663   5.816   2.653   5.950
 1255SOL    HW1 4664   5.880   2.730   5.944
 1255SOL    HW2 4665   5.727   2.681   5.914
 1256SOL     OW 4666   0.636   6.230   3.627
 1256SOL    HW1 4667   0.615   6.238   3.530
 1256SOL    HW2 4668   0.635   6.321   3.669
 1257SOL     OW 4669   0.159   5.047   4.398
 1257SOL    HW1 4670   0.060   5.050   4.412
 1257SOL    HW2 4671   0.196   5.139   4.402
 1258SOL     OW 4672   1.802   5.938   3.013
 1258SOL    HW1 4673   1.807   5.922   3.112
 1258SOL    HW2 4674   1.851   5.865   2.965
 1259SOL     OW 4675   3.355   6.252   5.683
 1259SOL    HW1 4676   3.364   6.175   5.620
 1259SOL    HW2 4677   3.375   6.337   5.635
 1260SOL     OW 4678   3.201   0.857   1.327
 1260SOL    HW1 4679   3.278   0.898   1.377
 1260SOL    HW2 4680   3.138   0.930   1.299
 1261SOL     OW 4681   0.158   3.968   0.171
 1261SOL    HW1 4682   0.139   3.882   0.123
 1261SOL    HW2 4683   0.232   4.016   0.123
 1262SOL     OW 4684   5.047   5.611   1.605
 1262SOL    HW1 4685   5.097   5.532   1.641
 1262SOL    HW2 4686   4.950   5.603   1.630
 1263SOL     OW 4687   6.511   1.490   0.662
 1263SOL    HW1 4688   6.434   1.483   0.598
 1263SOL    HW2 4689   6.566   1.570   0.639
 1264SOL     OW 4690   1.005   3.706   1.991
 1264SOL    HW1 4691   0.911   3.739   1.975
 1264SOL    HW2 4692   1.013   3.675   2.086
 1265SOL     OW 4693   6.700   4.476   3.558
 1265SOL    HW1 4694   6.774   4.533   3.594
 1265SOL    HW2 4695   6.738   4.388   3.528
 1266SOL     OW 4696   2.225   0.883   3.989
 1266SOL    HW1 4697   2.305   0.921   4.036
 1266SOL    HW2 4698   2.176   0.958   3.943
 1267SOL     OW 4699   5.381   6.224   0.954
 1267SOL    HW1 4700   5.281   6.226   0.953
 1267SOL    HW2 4701   5.414   6.246   1.046
 1268SOL     OW 4702   4.586   2.564   6.711
 1268SOL    HW1 4703   4.578   2.630   6.636
 1268SOL    HW2 4704   4.550   2.476   6.682
 1269SOL     OW 4705   5.672   6.283   5.148
 1269SOL    HW1 4706   5.678   6.356   5.216
 1269SOL    HW2 4707   5.745   6.295   5.080
 1270SOL     OW 4708   2.126   3.462   4.289
 1270SOL    HW1 4709   2.090   3.399   4.221
 1270SOL    HW2 4710   2.162   3.543   4.243
 1271SOL     OW 4711   3.397   2.078   3.796
 1271SOL    HW1 4712   3.410   1.986   3.831
 1271SOL    HW2 4713   3.428   2.083   3.701
 1272SOL     OW 4714   6.298   6.100   1.073
 1272SOL    HW1 4715   6.327   6.179   1.019
 1272SOL    HW2 4716   6.344   6.102   1.162
 1273SOL     OW 4717   1.558   4.787   6.973
 1273SOL    HW1 4718   1.621   4.861   6.999
 1273SOL    HW2 4719   1.473   4.796   7.025
 1274SOL     OW 4720   6.281   2.970   1.543
 1274SOL    HW1 4721   6.184   2.945   1.547
 1274SOL    HW2 4722   6.322   2.929   1.461
 1275SOL     OW 4723   3.976   0.066   3.604
 1275SOL    HW1 4724   3.978   6.999   3.569
 1275SOL    HW2 4725   4.029   0.072   3.688
 1276SOL     OW 4726   0.197   1.028   3.524
 1276SOL    HW1 4727   0.116   1.084   3.543
 1276SOL    HW2 4728   0.168   0.936   3.499
 1277SOL     OW 4729   0.240   0.411   4.953
 1277SOL    HW1 4730   0.217   0.419   5.050
 1277SOL    HW2 4731   0.318   0.350   4.942
 1278SOL     OW 4732   1.294   0.983   5.321
 1278SOL    HW1 4733   1.327   0.993   5.414
 1278SOL    HW2 4734   1.289   0.886   5.298
 1279SOL     OW 4735   2.833   6.013   0.294
 1279SOL    HW1 4736   2.912   6.041   0.348
 1279SOL    HW2 4737   2.857   5.935   0.236
 1280SOL     OW 4738   2.937   6.280   3.691
 1280SOL    HW1 4739   2.974   6.216   3.624
 1280SOL    HW2 4740   2.973   6.372   3.673
 1281SOL     OW 4741   0.986   5.936   3.302
 1281SOL    HW1 4742   0.909   5.988   3.264
 1281SOL    HW2 4743   1.032   5.887   3.228
 1282SOL     OW 4744   0.430   1.129   0.029
 1282SOL    HW1 4745   0.400   1.189   6.982
 1282SOL    HW2 4746   0.506   1.073   7.024
 1283SOL     OW 4747   5.462   2.801   5.219
 1283SOL    HW1 4748   5.494   2.710   5.193
 1283SOL    HW2 4749   5.375   2.793   5.269
 1284SOL     OW 4750   4.266   3.241   1.439
 1284SOL    HW1 4751   4.178   3.194   1.431
 1284SOL    HW2 4752   4.322   3.196   1.507
 1285SOL     OW 4753   5.311   3.539   6.036
 1285SOL    HW1 4754   5.320   3.613   5.970
 1285SOL    HW2 4755   5.218   3.537   6.072
 1286SOL     OW 4756   4.862   4.391   2.753
 1286SOL    HW1 4757   4.821   4.481   2.734
 1286SOL    HW2 4758   4.804   4.319   2.714
 1287SOL     OW 4759   4.615   4.061   5.979
 1287SOL    HW1 4760   4.559   4.070   6.061
 1287SOL    HW2 4761   4.600   3.972   5.937
 1288SOL     OW 4762   6.343   3.909   0.813
 1288SOL    HW1 4763   6.267   3.904   0.747
 1288SOL    HW2 4764   6.336   3.833   0.877
 1289SOL     OW 4765   0.470   5.877   1.733
 1289SOL    HW1 4766   0.496   5.856   1.828
 1289SOL    HW2 4767   0.373   5.855   1.720
 1290SOL     OW 4768   1.437   0.175   0.222
 1290SOL    HW1 4769   1.398   0.243   0.160
 1290SOL    HW2 4770   1.397   0.085   0.203
 1291SOL     OW 4771   0.313   3.334   5.846
 1291SOL    HW1 4772   0.286   3.270   5.918
 1291SOL    HW2 4773   0.410   3.358   5.857
 1292SOL     OW 4774   5.821   5.634   2.693
 1292SOL    HW1 4775   5.861   5.566   2.755
 1292SOL    HW2 4776   5.881   5.714   2.688
 1293SOL     OW 4777   1.795   1.182   6.565
 1293SOL    HW1 4778   1.758   1.138   6.646
 1293SOL    HW2 4779   1.770   1.130   6.483
 1294SOL     OW 4780   1.158   3.585   0.489
 1294SOL    HW1 4781   1.170   3.678   0.523
 1294SOL    HW2 4782   1.204   3.520   0.550
 1295SOL     OW 4783   6.481   3.662   2.685
 1295SOL    HW1 4784   6.569   3.711   2.683
 1295SOL    HW2 4785   6.439   3.672   2.775
 1296SOL     OW 4786   3.916   0.437   5.577
 1296SOL    HW1 4787   3.819   0.427   5.557
 1296SOL    HW2 4788   3.946   0.529   5.553
 1297SOL     OW 4789   6.031   0.637   6.426
 1297SOL    HW1 4790   6.119   0.648   6.472
 1297SOL    HW2 4791   6.047   0.620   6.328
 1298SOL     OW 4792   6.158   3.864   3.124
 1298SOL    HW1 4793   6.215   3.903   3.052
 1298SOL    HW2 4794   6.067   3.842   3.087
 1299SOL     OW 4795   0.716   3.533   2.965
 1299SOL    HW1 4796   0.635   3.480   2.942
 1299SOL    HW2 4797   0.763   3.560   2.881
 1300SOL     OW 4798   3.410   4.089   1.808
 1300SOL    HW1 4799   3.371   4.037   1.884
 1300SOL    HW2 4800   3.501   4.122   1.832
 1301SOL     OW 4801   0.435   6.018   2.015
 1301SOL    HW1 4802   0.445   6.072   2.099
 1301SOL    HW2 4803   0.416   5.923   2.039
 1302SOL     OW 4804   2.534   0.460   5.159
 1302SOL    HW1 4805   2.445   0.452   5.114
 1302SOL    HW2 4806   2.551   0.556   5.182
 1303SOL     OW 4807   4.638   1.967   1.132
 1303SOL    HW1 4808   4.667   1.996   1.223
 1303SOL    HW2 4809   4.586   1.881   1.139
 1304SOL     OW 4810   1.580   1.351   6.607
 1304SOL    HW1 4811   1.504   1.364   6.544
 1304SOL    HW2 4812   1.657   1.311   6.558
 1305SOL     OW 4813   5.811   4.045   6.768
 1305SOL    HW1 4814   5.825   4.088   6.857
 1305SOL    HW2 4815   5.761   4.108   6.708
 1306SOL     OW 4816   0.956   4.525   5.213
 1306SOL    HW1 4817   0.945   4.621   5.237
 1306SOL    HW2 4818   0.981   4.517   5.117
 1307SOL     OW 4819   1.940   2.663   4.641
 1307SOL    HW1 4820   2.015   2.724   4.616
 1307SOL    HW2 4821   1.856   2.716   4.654
 1308SOL     OW 4822   4.468   5.201   4.468
 1308SOL    HW1 4823   4.544   5.211   4.405
 1308SOL    HW2 4824   4.426   5.111   4.456
 1309SOL     OW 4825   5.569   3.528   5.878
 1309SOL    HW1 4826   5.636   3.460   5.908
 1309SOL    HW2 4827   5.591   3.559   5.786
 1310SOL     OW 4828   0.110   3.934   4.850
 1310SOL    HW1 4829   0.013   3.953   4.835
 1310SOL    HW2 4830   0.148   3.890   4.768
 1311SOL     OW 4831   6.758   6.876   3.527
 1311SOL    HW1 4832   6.720   6.848   3.615
 1311SOL    HW2 4833   6.726   6.969   3.505
 1312SOL     OW 4834   1.024   0.342   6.425
 1312SOL    HW1 4835   1.033   0.404   6.503
 1312SOL    HW2 4836   0.995   0.252   6.458
 1313SOL     OW 4837   1.115   4.887   4.911
 1313SOL    HW1 4838   1.087   4.897   5.006
 1313SOL    HW2 4839   1.091   4.970   4.860
 1314SOL     OW 4840   2.925   1.920   5.976
 1314SOL    HW1 4841   2.998   1.857   6.003
 1314SOL    HW2 4842   2.935   2.005   6.027
 1315SOL     OW 4843   0.357   0.981   0.260
 1315SOL    HW1 4844   0.279   0.922   0.278
 1315SOL    HW2 4845   0.346   1.026   0.172
 1316SOL     OW 4846   2.336   6.553   3.966
 1316SOL    HW1 4847   2.323   6.455   3.952
 1316SOL    HW2 4848   2.399   6.567   4.043
 1317SOL     OW 4849   0.522   3.933   4.489
 1317SOL    HW1 4850   0.431   3.932   4.447
 1317SOL    HW2 4851   0.538   3.847   4.537
 1318SOL     OW 4852   0.124   0.317   0.729
 1318SOL    HW1 4853   0.032   0.281   0.711
 1318SOL    HW2 4854   0.192   0.248   0.706
 1319SOL     OW 4855   6.996   0.588   0.259
 1319SOL    HW1 4856   6.927   0.560   0.192
 1319SOL    HW2 4857   0.060   0.564   0.225
 1320SOL     OW 4858   6.256   3.629   0.239
 1320SOL    HW1 4859   6.288   3.669   0.325
 1320SOL    HW2 4860   6.172   3.577   0.256
 1321SOL     OW 4861   4.229   2.381   6.347
 1321SOL    HW1 4862   4.192   2.290   6.363
 1321SOL    HW2 4863   4.206   2.441   6.424
 1322SOL     OW 4864   5.011   0.900   3.532
 1322SOL    HW1 4865   5.077   0.873   3.461
 1322SOL    HW2 4866   4.955   0.821   3.556
 1323SOL     OW 4867   5.208   1.877   5.501
 1323SOL    HW1 4868   5.110   1.896   5.498
 1323SOL    HW2 4869   5.238   1.840   5.413
 1324SOL     OW 4870   1.379   2.905   1.154
 1324SOL    HW1 4871   1.362   2.849   1.072
 1324SOL    HW2 4872   1.384   2.845   1.234
 1325SOL     OW 4873   1.880   7.008   1.978
 1325SOL    HW1 4874   1.932   0.034   2.046
 1325SOL    HW2 4875   1.919   6.916   1.970
 1326SOL     OW 4876   5.194   2.967   4.722
 1326SOL    HW1 4877   5.175   2.941   4.627
 1326SOL    HW2 4878   5.108   2.980   4.771
 1327SOL     OW 4879   2.564   4.907   2.348
 1327SOL    HW1 4880   2.578   4.943   2.440
 1327SOL    HW2 4881   2.643   4.854   2.320
 1328SOL     OW 4882   1.341   2.737   0.910
 1328SOL    HW1 4883   1.293   2.655   0.942
 1328SOL    HW2 4884   1.436   2.715   0.891
 1329SOL     OW 4885   0.412   2.131   0.888
 1329SOL    HW1 4886   0.322   2.096   0.863
 1329SOL    HW2 4887   0.473   2.055   0.908
 1330SOL     OW 4888   6.518   0.904   1.150
 1330SOL    HW1 4889   6.560   0.873   1.235
 1330SOL    HW2 4890   6.578   0.881   1.073
 1331SOL     OW 4891   4.709   2.364   3.302
 1331SOL    HW1 4892   4.767   2.429   3.253
 1331SOL    HW2 4893   4.717   2.274   3.258
 1332SOL     OW 4894   3.948   0.163   6.971
 1332SOL    HW1 4895   3.939   0.230   0.018
 1332SOL    HW2 4896   4.026   0.187   6.914
 1333SOL     OW 4897   3.741   3.651   6.481
 1333SOL    HW1 4898   3.767   3.555   6.472
 1333SOL    HW2 4899   3.705   3.684   6.394
 1334SOL     OW 4900   0.005   2.471   5.122
 1334SOL    HW1 4901   0.028   2.374   5.132
 1334SOL    HW2 4902   6.938   2.487   5.154
 1335SOL     OW 4903   2.997   0.163   2.676
 1335SOL    HW1 4904   3.091   0.138   2.697
 1335SOL    HW2 4905   2.982   0.259   2.698
 1336SOL     OW 4906   2.029   1.329   6.476
 1336SOL    HW1 4907   2.013   1.421   6.512
 1336SOL    HW2 4908   1.952   1.271   6.500
 1337SOL     OW 4909   1.332   1.765   4.806
 1337SOL    HW1 4910   1.274   1.773   4.725
 1337SOL    HW2 4911   1.297   1.693   4.865
 1338SOL     OW 4912   4.182   2.765   5.979
 1338SOL    HW1 4913   4.161   2.859   6.005
 1338SOL    HW2 4914   4.106   2.705   6.008
 1339SOL     OW 4915   1.013   0.004   0.019
 1339SOL    HW1 4916   1.059   0.078   6.997
 1339SOL    HW2 4917   0.918   0.029   0.037
 1340SOL     OW 4918   0.784   1.607   1.557
 1340SOL    HW1 4919   0.809   1.698   1.523
 1340SOL    HW2 4920   0.686   1.594   1.550
 1341SOL     OW 4921   4.184   0.647   5.798
 1341SOL    HW1 4922   4.260   0.712   5.808
 1341SOL    HW2 4923   4.220   0.554   5.800
 1342SOL     OW 4924   2.017   4.721   6.115
 1342SOL    HW1 4925   2.014   4.626   6.146
 1342SOL    HW2 4926   2.105   4.761   6.141
 1343SOL     OW 4927   4.205   5.750   2.594
 1343SOL    HW1 4928   4.178   5.825   2.533
 1343SOL    HW2 4929   4.123   5.709   2.634
 1344SOL     OW 4930   6.686   4.128   3.750
 1344SOL    HW1 4931   6.758   4.066   3.719
 1344SOL    HW2 4932   6.606   4.119   3.692
 1345SOL     OW 4933   1.432   1.715   3.485
 1345SOL    HW1 4934   1.430   1.626   3.531
 1345SOL    HW2 4935   1.506   1.715   3.417
 1346SOL     OW 4936   1.183   0.291   3.297
 1346SOL    HW1 4937   1.232   0.376   3.319
 1346SOL    HW2 4938   1.232   0.213   3.335
 1347SOL     OW 4939   6.214   6.574   4.228
 1347SOL    HW1 4940   6.150   6.645   4.200
 1347SOL    HW2 4941   6.305   6.596   4.194
 1348SOL     OW 4942   5.373   5.766   3.127
 1348SOL    HW1 4943   5.363   5.671   3.155
 1348SOL    HW2 4944   5.298   5.790   3.065
 1349SOL     OW 4945   4.673   2.757   5.889
 1349SOL    HW1 4946   4.614   2.702   5.949
 1349SOL    HW2 4947   4.636   2.754   5.796
 1350SOL     OW 4948   4.138   4.620   7.026
 1350SOL    HW1 4949   4.221   4.662   6.991
 1350SOL    HW2 4950   4.065   4.688   0.001
 1351SOL     OW 4951   6.624   2.171   2.950
 1351SOL    HW1 4952   6.713   2.206   2.978
 1351SOL    HW2 4953   6.629   2.072   2.939
 1352SOL     OW 4954   0.489   0.668   3.304
 1352SOL    HW1 4955   0.392   0.649   3.294
 1352SOL    HW2 4956   0.533   0.594   3.355
 1353SOL     OW 4957   6.130   3.987   5.658
 1353SOL    HW1 4958   6.052   4.037   5.621
 1353SOL    HW2 4959   6.121   3.889   5.638
 1354SOL     OW 4960   0.646   2.199   0.476
 1354SOL    HW1 4961   0.674   2.281   0.527
 1354SOL    HW2 4962   0.642   2.121   0.539
 1355SOL     OW 4963   6.208   2.527   5.720
 1355SOL    HW1 4964   6.288   2.585   5.707
 1355SOL    HW2 4965   6.205   2.495   5.814
 1356SOL     OW 4966   3.028   3.272   3.696
 1356SOL    HW1 4967   2.976   3.330   3.758
 1356SOL    HW2 4968   2.965   3.223   3.635
 1357SOL     OW 4969   1.212   4.293   6.016
 1357SOL    HW1 4970   1.160   4.374   5.992
 1357SOL    HW2 4971   1.239   4.245   5.932
 1358SOL     OW 4972   3.823   1.433   5.700
 1358SOL    HW1 4973   3.856   1.498   5.768
 1358SOL    HW2 4974   3.805   1.345   5.743
 1359SOL     OW 4975   6.647   4.778   1.410
 1359SOL    HW1 4976   6.703   4.811   1.334
 1359SOL    HW2 4977   6.605   4.690   1.385
 1360SOL     OW 4978   4.108   3.329   2.192
 1360SOL    HW1 4979   4.128   3.297   2.285
 1360SOL    HW2 4980   4.093   3.250   2.132
 1361SOL     OW 4981   0.067   6.552   5.894
 1361SOL    HW1 4982   0.150   6.605   5.878
 1361SOL    HW2 4983   7.015   6.601   5.859
 1362SOL     OW 4984   2.934   3.719   4.381
 1362SOL    HW1 4985   2.919   3.628   4.419
 1362SOL    HW2 4986   2.964   3.782   4.454
 1363SOL     OW 4987   6.406   5.999   3.616
 1363SOL    HW1 4988   6.463   5.990   3.698
 1363SOL    HW2 4989   6.447   5.946   3.542
 1364SOL     OW 4990   0.731   2.421   0.606
 1364SOL    HW1 4991   0.693   2.446   0.695
 1364SOL    HW2 4992   0.829   2.402   0.615
 1365SOL     OW 4993   0.605   3.411   5.905
 1365SOL    HW1 4994   0.675   3.421   5.975
 1365SOL    HW2 4995   0.647   3.423   5.814
 1366SOL     OW 4996   0.560   4.193   0.602
 1366SOL    HW1 4997   0.527   4.130   0.673
 1366SOL    HW2 4998   0.658   4.211   0.617
 1367SOL     OW 4999   1.471   5.926   3.200
 1367SOL    HW1 5000   1.553   5.983   3.208
 1367SOL    HW2 5001   1.389   5.983   3.209
 1368SOL     OW 5002   6.625   0.818   3.920
 1368SOL    HW1 5003   6.627   0.724   3.954
 1368SOL    HW2 5004   6.627   0.881   3.998
 1369SOL     OW 5005   2.188   0.003   2.427
 1369SOL    HW1 5006   2.213   6.944   2.381
 1369SOL    HW2 5007   2.114   0.048   2.376
 1370SOL     OW 5008   5.520   2.035   4.084
 1370SOL    HW1 5009   5.470   2.078   4.008
 1370SOL    HW2 5010   5.567   1.954   4.050
 1371SOL     OW 5011   4.969   1.354   4.859
 1371SOL    HW1 5012   4.999   1.322   4.949
 1371SOL    HW2 5013   5.043   1.407   4.816
 1372SOL     OW 5014   1.054   1.896   0.969
 1372SOL    HW1 5015   1.080   1.803   0.995
 1372SOL    HW2 5016   0.955   1.906   0.975
 1373SOL     OW 5017   4.596   2.283   6.949
 1373SOL    HW1 5018   4.554   2.192   6.941
 1373SOL    HW2 5019   4.636   2.308   6.861
 1374SOL     OW 5020   4.743   3.057   0.542
 1374SOL    HW1 5021   4.671   3.005   0.496
 1374SOL    HW2 5022   4.702   3.130   0.596
 1375SOL     OW 5023   0.427   6.926   6.349
 1375SOL    HW1 5024   0.452   6.914   6.445
 1375SOL    HW2 5025   0.495   6.984   6.303
 1376SOL     OW 5026   3.450   4.805   5.524
 1376SOL    HW1 5027   3.540   4.841   5.501
 1376SOL    HW2 5028   3.458   4.709   5.549
 1377SOL     OW 5029   0.949   3.473   3.209
 1377SOL    HW1 5030   0.860   3.511   3.181
 1377SOL    HW2 5031   1.017   3.492   3.138
 1378SOL     OW 5032   5.857   2.490   5.349
 1378SOL    HW1 5033   5.859   2.393   5.372
 1378SOL    HW2 5034   5.928   2.538   5.400
 1379SOL     OW 5035   4.263   5.866   3.112
 1379SOL    HW1 5036   4.280   5.944   3.052
 1379SOL    HW2 5037   4.170   5.831   3.096
 1380SOL     OW 5038   0.316   5.891   3.523
 1380SOL    HW1 5039   0.365   5.931   3.599
 1380SOL    HW2 5040   0.298   5.794   3.542
 1381SOL     OW 5041   5.763   1.686   6.877
 1381SOL    HW1 5042   5.685   1.747   6.864
 1381SOL    HW2 5043   5.777   1.672   6.975
 1382SOL     OW 5044   5.137   3.490   1.341
 1382SOL    HW1 5045   5.135   3.400   1.297
 1382SOL    HW2 5046   5.044   3.525   1.348
 1383SOL     OW 5047   1.287   0.332   1.401
 1383SOL    HW1 5048   1.338   0.417   1.414
 1383SOL    HW2 5049   1.245   0.304   1.488
 1384SOL     OW 5050   4.895   0.332   2.173
 1384SOL    HW1 5051   4.855   0.410   2.126
 1384SOL    HW2 5052   4.906   0.354   2.270
 1385SOL     OW 5053   2.806   4.862   3.639
 1385SOL    HW1 5054   2.880   4.912   3.593
 1385SOL    HW2 5055   2.836   4.835   3.731
 1386SOL     OW 5056   3.112   0.943   4.021
 1386SOL    HW1 5057   3.063   1.017   3.974
 1386SOL    HW2 5058   3.202   0.930   3.980
 1387SOL     OW 5059   4.240   5.322   2.862
 1387SOL    HW1 5060   4.319   5.367   2.905
 1387SOL    HW2 5061   4.265   5.229   2.835
 1388SOL     OW 5062   6.391   6.950   2.466
 1388SOL    HW1 5063   6.322   6.943   2.394
 1388SOL    HW2 5064   6.428   6.860   2.487
 1389SOL     OW 5065   6.156   1.141   3.986
 1389SOL    HW1 5066   6.185   1.186   3.902
 1389SOL    HW2 5067   6.165   1.042   3.975
 1390SOL     OW 5068   0.117   3.491   6.858
 1390SOL    HW1 5069   0.064   3.472   6.775
 1390SOL    HW2 5070   0.077   3.443   6.936
 1391SOL     OW 5071   6.567   6.161   4.790
 1391SOL    HW1 5072   6.470   6.139   4.799
 1391SOL    HW2 5073   6.616   6.084   4.749
 1392SOL     OW 5074   5.040   6.428   5.872
 1392SOL    HW1 5075   5.137   6.450   5.869
 1392SOL    HW2 5076   5.014   6.380   5.788
 1393SOL     OW 5077   6.361   4.812   5.727
 1393SOL    HW1 5078   6.272   4.798   5.769
 1393SOL    HW2 5079   6.354   4.796   5.628
 1394SOL     OW 5080   3.353   5.125   5.784
 1394SOL    HW1 5081   3.324   5.193   5.851
 1394SOL    HW2 5082   3.279   5.109   5.718
 1395SOL     OW 5083   2.472   4.656   5.206
 1395SOL    HW1 5084   2.468   4.582   5.273
 1395SOL    HW2 5085   2.568   4.683   5.192
 1396SOL     OW 5086   1.003   1.428   5.253
 1396SOL    HW1 5087   1.038   1.362   5.319
 1396SOL    HW2 5088   1.071   1.500   5.237
 1397SOL     OW 5089   0.516   6.871   4.011
 1397SOL    HW1 5090   0.494   6.864   4.108
 1397SOL    HW2 5091   0.585   6.801   3.988
 1398SOL     OW 5092   3.237   0.778   6.552
 1398SOL    HW1 5093   3.294   0.714   6.604
 1398SOL    HW2 5094   3.163   0.811   6.611
 1399SOL     OW 5095   3.610   5.579   0.825
 1399SOL    HW1 5096   3.512   5.599   0.833
 1399SOL    HW2 5097   3.626   5.521   0.745
 1400SOL     OW 5098   6.952   1.635   4.023
 1400SOL    HW1 5099   6.994   1.664   3.937
 1400SOL    HW2 5100   7.023   1.613   4.089
 1401SOL     OW 5101   6.235   0.987   4.741
 1401SOL    HW1 5102   6.257   1.058   4.674
 1401SOL    HW2 5103   6.287   0.904   4.720
 1402SOL     OW 5104   6.283   3.632   6.387
 1402SOL    HW1 5105   6.321   3.573   6.458
 1402SOL    HW2 5106   6.268   3.579   6.304
 1403SOL     OW 5107   2.567   2.453   1.756
 1403SOL    HW1 5108   2.621   2.381   1.799
 1403SOL    HW2 5109   2.567   2.441   1.657
 1404SOL     OW 5110   6.484   6.659   0.417
 1404SOL    HW1 5111   6.535   6.609   0.486
 1404SOL    HW2 5112   6.386   6.645   0.432
 1405SOL     OW 5113   2.341   3.351   0.781
 1405SOL    HW1 5114   2.421   3.341   0.722
 1405SOL    HW2 5115   2.361   3.417   0.853
 1406SOL     OW 5116   0.526   5.505   0.761
 1406SOL    HW1 5117   0.436   5.489   0.720
 1406SOL    HW2 5118   0.520   5.583   0.824
 1407SOL     OW 5119   0.484   3.291   2.273
 1407SOL    HW1 5120   0.481   3.295   2.373
 1407SOL    HW2 5121   0.546   3.218   2.245
 1408SOL     OW 5122   5.483   0.822   6.148
 1408SOL    HW1 5123   5.583   0.828   6.144
 1408SOL    HW2 5124   5.452   0.836   6.242
 1409SOL     OW 5125   6.585   0.201   4.887
 1409SOL    HW1 5126   6.663   0.236   4.835
 1409SOL    HW2 5127   6.531   0.278   4.921
 1410SOL     OW 5128   1.153   3.901   6.209
 1410SOL    HW1 5129   1.227   3.874   6.148
 1410SOL    HW2 5130   1.190   3.946   6.290
 1411SOL     OW 5131   3.649   6.866   0.852
 1411SOL    HW1 5132   3.737   6.907   0.876
 1411SOL    HW2 5133   3.583   6.939   0.832
 1412SOL     OW 5134   1.298   2.042   1.018
 1412SOL    HW1 5135   1.346   2.048   0.931
 1412SOL    HW2 5136   1.209   1.999   1.004
 1413SOL     OW 5137   1.835   2.067   5.386
 1413SOL    HW1 5138   1.744   2.084   5.350
 1413SOL    HW2 5139   1.878   2.154   5.412
 1414SOL     OW 5140   2.780   1.315   2.012
 1414SOL    HW1 5141   2.876   1.343   2.022
 1414SOL    HW2 5142   2.724   1.365   2.078
 1415SOL     OW 5143   2.420   1.031   4.166
 1415SOL    HW1 5144   2.493   1.095   4.188
 1415SOL    HW2 5145   2.335   1.060   4.211
 1416SOL     OW 5146   5.157   5.303   4.045
 1416SOL    HW1 5147   5.242   5.275   4.089
 1416SOL    HW2 5148   5.080   5.271   4.100
 1417SOL     OW 5149   3.147   2.352   0.108
 1417SOL    HW1 5150   3.175   2.378   0.015
 1417SOL    HW2 5151   3.223   2.368   0.171
 1418SOL     OW 5152   3.593   4.082   2.829
 1418SOL    HW1 5153   3.588   4.098   2.731
 1418SOL    HW2 5154   3.517   4.023   2.857
 1419SOL     OW 5155   2.722   5.521   3.960
 1419SOL    HW1 5156   2.753   5.450   4.023
 1419SOL    HW2 5157   2.756   5.610   3.991
 1420SOL     OW 5158   2.391   6.771   2.016
 1420SOL    HW1 5159   2.409   6.695   2.077
 1420SOL    HW2 5160   2.474   6.828   2.008
 1421SOL     OW 5161   2.258   4.988   3.258
 1421SOL    HW1 5162   2.193   4.988   3.334
 1421SOL    HW2 5163   2.285   4.895   3.236
 1422SOL     OW 5164   1.433   3.875   0.312
 1422SOL    HW1 5165   1.429   3.920   0.222
 1422SOL    HW2 5166   1.493   3.928   0.372
 1423SOL     OW 5167   4.920   6.258   3.607
 1423SOL    HW1 5168   4.835   6.288   3.562
 1423SOL    HW2 5169   4.913   6.160   3.628
 1424SOL     OW 5170   6.829   5.142   5.748
 1424SOL    HW1 5171   6.789   5.231   5.770
 1424SOL    HW2 5172   6.771   5.094   5.683
 1425SOL     OW 5173   1.958   5.584   5.595
 1425SOL    HW1 5174   2.038   5.632   5.558
 1425SOL    HW2 5175   1.986   5.497   5.635
 1426SOL     OW 5176   1.984   4.111   6.479
 1426SOL    HW1 5177   1.999   4.078   6.572
 1426SOL    HW2 5178   2.037   4.054   6.415
 1427SOL     OW 5179   0.216   0.243   3.614
 1427SOL    HW1 5180   0.288   0.202   3.669
 1427SOL    HW2 5181   0.255   0.290   3.535
 1428SOL     OW 5182   0.454   3.097   6.922
 1428SOL    HW1 5183   0.399   3.168   6.964
 1428SOL    HW2 5184   0.465   3.020   6.985
 1429SOL     OW 5185   4.407   1.657   7.001
 1429SOL    HW1 5186   4.356   1.574   7.026
 1429SOL    HW2 5187   4.504   1.636   6.996
 1430SOL     OW 5188   1.570   4.603   3.671
 1430SOL    HW1 5189   1.622   4.682   3.704
 1430SOL    HW2 5190   1.606   4.574   3.582
 1431SOL     OW 5191   2.805   1.896   0.741
 1431SOL    HW1 5192   2.846   1.864   0.826
 1431SOL    HW2 5193   2.782   1.818   0.683
 1432SOL     OW 5194   2.752   1.703   1.766
 1432SOL    HW1 5195   2.756   1.718   1.667
 1432SOL    HW2 5196   2.732   1.789   1.812
 1433SOL     OW 5197   4.453   0.637   4.933
 1433SOL    HW1 5198   4.468   0.734   4.919
 1433SOL    HW2 5199   4.370   0.623   4.988
 1434SOL     OW 5200   0.676   0.554   5.908
 1434SOL    HW1 5201   0.622   0.573   5.826
 1434SOL    HW2 5202   0.620   0.569   5.989
 1435SOL     OW 5203   6.546   0.033   2.926
 1435SOL    HW1 5204   6.537   0.132   2.911
 1435SOL    HW2 5205   6.583   7.017   2.844
 1436SOL     OW 5206   5.206   4.155   6.632
 1436SOL    HW1 5207   5.259   4.074   6.656
 1436SOL    HW2 5208   5.111   4.142   6.660
 1437SOL     OW 5209   2.990   1.911   4.716
 1437SOL    HW1 5210   3.016   1.858   4.797
 1437SOL    HW2 5211   2.971   2.005   4.743
 1438SOL     OW 5212   2.711   6.198   1.685
 1438SOL    HW1 5213   2.681   6.122   1.743
 1438SOL    HW2 5214   2.654   6.202   1.603
 1439SOL     OW 5215   6.289   5.823   1.006
 1439SOL    HW1 5216   6.363   5.770   1.047
 1439SOL    HW2 5217   6.313   5.920   1.009
 1440SOL     OW 5218   2.856   2.999   7.014
 1440SOL    HW1 5219   2.900   3.065   0.047
 1440SOL    HW2 5220   2.850   3.036   6.921
 1441SOL     OW 5221   6.294   0.599   3.662
 1441SOL    HW1 5222   6.370   0.634   3.608
 1441SOL    HW2 5223   6.207   0.632   3.624
 1442SOL     OW 5224   0.218   5.863   6.611
 1442SOL    HW1 5225   0.229   5.916   6.695
 1442SOL    HW2 5226   0.246   5.769   6.628
 1443SOL     OW 5227   0.702   2.645   4.446
 1443SOL    HW1 5228   0.637   2.607   4.380
 1443SOL    HW2 5229   0.764   2.708   4.399
 1444SOL     OW 5230   5.310   5.605   0.992
 1444SOL    HW1 5231   5.331   5.520   0.943
 1444SOL    HW2 5232   5.393   5.639   1.037
 1445SOL     OW 5233   1.237   2.664   2.926
 1445SOL    HW1 5234   1.148   2.697   2.959
 1445SOL    HW2 5235   1.296   2.644   3.005
 1446SOL     OW 5236   6.094   2.048   0.240
 1446SOL    HW1 5237   6.104   2.016   0.335
 1446SOL    HW2 5238   6.111   2.146   0.236
 1447SOL     OW 5239   6.064   6.203   4.832
 1447SOL    HW1 5240   6.158   6.169   4.832
 1447SOL    HW2 5241   6.024   6.189   4.741
 1448SOL     OW 5242   6.825   2.355   5.437
 1448SOL    HW1 5243   6.842   2.342   5.535
 1448SOL    HW2 5244   6.771   2.438   5.423
 1449SOL     OW 5245   1.018   2.196   6.846
 1449SOL    HW1 5246   0.939   2.240   6.803
 1449SOL    HW2 5247   0.995   2.173   6.941
 1450SOL     OW 5248   1.196   2.511   1.286
 1450SOL    HW1 5249   1.187   2.509   1.187
 1450SOL    HW2 5250   1.110   2.483   1.328
 1451SOL     OW 5251   0.578   7.001   2.091
 1451SOL    HW1 5252   0.572   7.018   2.190
 1451SOL    HW2 5253   0.516   6.926   2.067
 1452SOL     OW 5254   4.418   1.833   5.002
 1452SOL    HW1 5255   4.347   1.794   5.060
 1452SOL    HW2 5256   4.398   1.929   4.983
 1453SOL     OW 5257   6.803   3.610   5.980
 1453SOL    HW1 5258   6.768   3.677   6.045
 1453SOL    HW2 5259   6.890   3.641   5.943
 1454SOL     OW 5260   0.496   2.968   2.366
 1454SOL    HW1 5261   0.555   3.033   2.413
 1454SOL    HW2 5262   0.458   2.903   2.433
 1455SOL     OW 5263   1.480   0.523   1.260
 1455SOL    HW1 5264   1.516   0.581   1.187
 1455SOL    HW2 5265   1.545   0.523   1.337
 1456SOL     OW 5266   6.966   6.263   5.667
 1456SOL    HW1 5267   0.021   6.321   5.674
 1456SOL    HW2 5268   6.919   6.283   5.580
 1457SOL     OW 5269   0.661   6.788   1.721
 1457SOL    HW1 5270   0.644   6.782   1.623
 1457SOL    HW2 5271   0.591   6.846   1.763
 1458SOL     OW 5272   5.699   5.256   4.084
 1458SOL    HW1 5273   5.694   5.253   4.184
 1458SOL    HW2 5274   5.706   5.162   4.049
 1459SOL     OW 5275   3.441   5.895   5.838
 1459SOL    HW1 5276   3.370   5.928   5.775
 1459SOL    HW2 5277   3.516   5.854   5.785
 1460SOL     OW 5278   0.301   6.894   5.386
 1460SOL    HW1 5279   0.204   6.874   5.373
 1460SOL    HW2 5280   0.311   6.972   5.447
 1461SOL     OW 5281   6.280   4.515   2.876
 1461SOL    HW1 5282   6.355   4.575   2.902
 1461SOL    HW2 5283   6.250   4.536   2.783
 1462SOL     OW 5284   1.578   0.549   0.025
 1462SOL    HW1 5285   1.627   0.636   0.018
 1462SOL    HW2 5286   1.640   0.474   0.001
 1463SOL     OW 5287   0.037   5.506   6.515
 1463SOL    HW1 5288   6.999   5.439   6.480
 1463SOL    HW2 5289   0.129   5.485   6.480
 1464SOL     OW 5290   0.010   6.413   2.104
 1464SOL    HW1 5291   0.054   6.499   2.130
 1464SOL    HW2 5292   0.070   6.337   2.129
 1465SOL     OW 5293   1.603   0.557   3.559
 1465SOL    HW1 5294   1.526   0.561   3.621
 1465SOL    HW2 5295   1.674   0.622   3.588
 1466SOL     OW 5296   2.467   2.500   2.580
 1466SOL    HW1 5297   2.476   2.583   2.635
 1466SOL    HW2 5298   2.374   2.493   2.544
 1467SOL     OW 5299   1.886   1.497   2.702
 1467SOL    HW1 5300   1.900   1.545   2.788
 1467SOL    HW2 5301   1.923   1.404   2.708
 1468SOL     OW 5302   3.072   5.646   2.617
 1468SOL    HW1 5303   3.050   5.674   2.523
 1468SOL    HW2 5304   3.001   5.584   2.650
 1469SOL     OW 5305   0.764   0.929   2.249
 1469SOL    HW1 5306   0.856   0.967   2.239
 1469SOL    HW2 5307   0.725   0.958   2.336
 1470SOL     OW 5308   1.010   1.900   2.079
 1470SOL    HW1 5309   1.088   1.848   2.114
 1470SOL    HW2 5310   0.995   1.980   2.137
 1471SOL     OW 5311   0.901   6.966   0.694
 1471SOL    HW1 5312   0.882   6.915   0.610
 1471SOL    HW2 5313   0.893   6.905   0.773
 1472SOL     OW 5314   2.755   5.401   5.441
 1472SOL    HW1 5315   2.699   5.383   5.361
 1472SOL    HW2 5316   2.847   5.366   5.426
 1473SOL     OW 5317   4.158   5.130   5.269
 1473SOL    HW1 5318   4.234   5.190   5.245
 1473SOL    HW2 5319   4.106   5.108   5.187
 1474SOL     OW 5320   5.824   5.253   2.426
 1474SOL    HW1 5321   5.868   5.184   2.484
 1474SOL    HW2 5322   5.838   5.229   2.330
 1475SOL     OW 5323   5.825   0.836   1.841
 1475SOL    HW1 5324   5.896   0.774   1.873
 1475SOL    HW2 5325   5.815   0.911   1.907
 1476SOL     OW 5326   3.351   0.671   1.185
 1476SOL    HW1 5327   3.286   0.744   1.207
 1476SOL    HW2 5328   3.432   0.711   1.141
 1477SOL     OW 5329   2.946   6.832   5.794
 1477SOL    HW1 5330   3.002   6.762   5.751
 1477SOL    HW2 5331   2.956   6.827   5.894
 1478SOL     OW 5332   6.271   5.209   5.844
 1478SOL    HW1 5333   6.310   5.296   5.812
 1478SOL    HW2 5334   6.339   5.137   5.834
 1479SOL     OW 5335   2.008   2.340   0.910
 1479SOL    HW1 5336   2.050   2.375   0.994
 1479SOL    HW2 5337   1.945   2.265   0.934
 1480SOL     OW 5338   3.273   0.904   4.585
 1480SOL    HW1 5339   3.233   0.952   4.663
 1480SOL    HW2 5340   3.201   0.859   4.532
 1481SOL     OW 5341   6.605   3.061   6.836
 1481SOL    HW1 5342   6.679   3.088   6.899
 1481SOL    HW2 5343   6.626   2.972   6.796
 1482SOL     OW 5344   4.292   1.466   1.959
 1482SOL    HW1 5345   4.348   1.547   1.942
 1482SOL    HW2 5346   4.216   1.491   2.019
 1483SOL     OW 5347   4.321   1.847   6.311
 1483SOL    HW1 5348   4.228   1.880   6.298
 1483SOL    HW2 5349   4.363   1.828   6.222
 1484SOL     OW 5350   5.204   4.530   4.161
 1484SOL    HW1 5351   5.220   4.592   4.238
 1484SOL    HW2 5352   5.271   4.547   4.089
 1485SOL     OW 5353   3.716   1.155   4.212
 1485SOL    HW1 5354   3.750   1.141   4.305
 1485SOL    HW2 5355   3.639   1.093   4.196
 1486SOL     OW 5356   5.521   1.119   2.695
 1486SOL    HW1 5357   5.618   1.141   2.701
 1486SOL    HW2 5358   5.468   1.201   2.676
 1487SOL     OW 5359   0.647   2.437   6.908
 1487SOL    HW1 5360   0.639   2.385   6.823
 1487SOL    HW2 5361   0.636   2.535   6.888
 1488SOL     OW 5362   5.486   0.792   3.706
 1488SOL    HW1 5363   5.398   0.837   3.724
 1488SOL    HW2 5364   5.470   0.704   3.661
 1489SOL     OW 5365   3.950   4.809   5.312
 1489SOL    HW1 5366   4.019   4.882   5.318
 1489SOL    HW2 5367   3.996   4.720   5.315
 1490SOL     OW 5368   1.044   3.319   1.749
 1490SOL    HW1 5369   0.966   3.258   1.734
 1490SOL    HW2 5370   1.094   3.331   1.664
 1491SOL     OW 5371   6.392   4.739   2.337
 1491SOL    HW1 5372   6.349   4.715   2.250
 1491SOL    HW2 5373   6.361   4.676   2.408
 1492SOL     OW 5374   6.478   0.949   2.560
 1492SOL    HW1 5375   6.404   0.900   2.606
 1492SOL    HW2 5376   6.565   0.923   2.601
 1493SOL     OW 5377   3.271   6.852   5.854
 1493SOL    HW1 5378   3.303   6.925   5.794
 1493SOL    HW2 5379   3.218   6.892   5.929
 1494SOL     OW 5380   4.668   1.534   6.389
 1494SOL    HW1 5381   4.743   1.556   6.452
 1494SOL    HW2 5382   4.632   1.444   6.411
 1495SOL     OW 5383   0.173   3.101   5.234
 1495SOL    HW1 5384   0.088   3.104   5.182
 1495SOL    HW2 5385   0.248   3.133   5.176
 1496SOL     OW 5386   6.824   1.623   1.616
 1496SOL    HW1 5387   6.863   1.704   1.572
 1496SOL    HW2 5388   6.869   1.607   1.703
 1497SOL     OW 5389   5.699   3.417   2.785
 1497SOL    HW1 5390   5.702   3.348   2.712
 1497SOL    HW2 5391   5.699   3.508   2.744
 1498SOL     OW 5392   2.546   4.815   6.915
 1498SOL    HW1 5393   2.599   4.734   6.939
 1498SOL    HW2 5394   2.455   4.788   6.885
 1499SOL     OW 5395   0.772   2.718   5.871
 1499SOL    HW1 5396   0.731   2.666   5.797
 1499SOL    HW2 5397   0.735   2.687   5.959
 1500SOL     OW 5398   0.050   6.942   0.001
 1500SOL    HW1 5399   7.021   6.885   0.062
 1500SOL    HW2 5400   7.021   6.977   6.954
 1501SOL     OW 5401   5.010   2.383   6.513
 1501SOL    HW1 5402   4.934   2.358   6.453
 1501SOL    HW2 5403   4.974   2.406   6.604
 1502SOL     OW 5404   4.238   0.210   0.194
 1502SOL    HW1 5405   4.267   0.226   0.099
 1502SOL    HW2 5406   4.141   0.230   0.203
 1503SOL     OW 5407   1.165   2.985   1.845
 1503SOL    HW1 5408   1.177   2.896   1.889
 1503SOL    HW2 5409   1.159   2.972   1.746
 1504SOL     OW 5410   0.231   0.349   4.417
 1504SOL    HW1 5411   0.164   0.399   4.472
 1504SOL    HW2 5412   0.323   0.377   4.442
 1505SOL     OW 5413   4.894   0.129   4.741
 1505SOL    HW1 5414   4.870   0.226   4.737
 1505SOL    HW2 5415   4.858   0.089   4.825
 1506SOL     OW 5416   0.691   6.167   7.016
 1506SOL    HW1 5417   0.739   6.129   0.068
 1506SOL    HW2 5418   0.758   6.200   6.949
 1507SOL     OW 5419   0.659   1.815   6.080
 1507SOL    HW1 5420   0.726   1.754   6.121
 1507SOL    HW2 5421   0.707   1.889   6.032
 1508SOL     OW 5422   6.495   1.415   1.572
 1508SOL    HW1 5423   6.453   1.363   1.498
 1508SOL    HW2 5424   6.525   1.504   1.538
 1509SOL     OW 5425   4.103   1.681   5.543
 1509SOL    HW1 5426   4.130   1.776   5.529
 1509SOL    HW2 5427   4.178   1.630   5.585
 1510SOL     OW 5428   4.767   1.669   4.701
 1510SOL    HW1 5429   4.842   1.694   4.640
 1510SOL    HW2 5430   4.771   1.724   4.784
 1511SOL     OW 5431   3.738   3.142   3.491
 1511SOL    HW1 5432   3.753   3.226   3.439
 1511SOL    HW2 5433   3.795   3.143   3.573
 1512SOL     OW 5434   0.218   4.969   0.783
 1512SOL    HW1 5435   0.301   4.997   0.735
 1512SOL    HW2 5436   0.138   4.986   0.725
 1513SOL     OW 5437   4.048   0.609   5.282
 1513SOL    HW1 5438   4.081   0.638   5.371
 1513SOL    HW2 5439   3.950   0.591   5.287
 1514SOL     OW 5440   4.009   2.058   5.692
 1514SOL    HW1 5441   3.982   2.106   5.608
 1514SOL    HW2 5442   4.007   2.122   5.769
 1515SOL     OW 5443   5.746   1.677   2.391
 1515SOL    HW1 5444   5.702   1.741   2.328
 1515SOL    HW2 5445   5.752   1.719   2.482
 1516SOL     OW 5446   6.901   6.007   6.145
 1516SOL    HW1 5447   6.940   6.041   6.231
 1516SOL    HW2 5448   6.809   6.043   6.133
 1517SOL     OW 5449   4.496   6.256   3.069
 1517SOL    HW1 5450   4.486   6.223   3.163
 1517SOL    HW2 5451   4.554   6.192   3.017
 1518SOL     OW 5452   0.992   2.385   0.651
 1518SOL    HW1 5453   1.006   2.301   0.703
 1518SOL    HW2 5454   1.078   2.436   0.644
 1519SOL     OW 5455   6.635   4.779   1.672
 1519SOL    HW1 5456   6.629   4.774   1.573
 1519SOL    HW2 5457   6.665   4.870   1.700
 1520SOL     OW 5458   0.142   4.175   1.762
 1520SOL    HW1 5459   0.087   4.258   1.748
 1520SOL    HW2 5460   0.175   4.172   1.856
 1521SOL     OW 5461   1.892   3.761   6.227
 1521SOL    HW1 5462   1.952   3.832   6.264
 1521SOL    HW2 5463   1.849   3.794   6.143
 1522SOL     OW 5464   5.250   6.190   4.955
 1522SOL    HW1 5465   5.256   6.173   5.053
 1522SOL    HW2 5466   5.311   6.126   4.907
 1523SOL     OW 5467   4.771   5.769   0.354
 1523SOL    HW1 5468   4.709   5.702   0.312
 1523SOL    HW2 5469   4.820   5.726   0.430
 1524SOL     OW 5470   2.608   1.803   2.374
 1524SOL    HW1 5471   2.573   1.831   2.285
 1524SOL    HW2 5472   2.537   1.754   2.424
 1525SOL     OW 5473   6.893   3.219   0.466
 1525SOL    HW1 5474   6.976   3.263   0.499
 1525SOL    HW2 5475   6.885   3.128   0.507
 1526SOL     OW 5476   0.205   0.828   6.963
 1526SOL    HW1 5477   0.175   0.737   6.934
 1526SOL    HW2 5478   0.243   0.823   0.029
 1527SOL     OW 5479   4.187   0.849   4.959
 1527SOL    HW1 5480   4.173   0.945   4.983
 1527SOL    HW2 5481   4.199   0.841   4.860
 1528SOL     OW 5482   4.016   4.999   2.718
 1528SOL    HW1 5483   4.083   5.041   2.778
 1528SOL    HW2 5484   4.060   4.930   2.660
 1529SOL     OW 5485   4.533   0.927   0.383
 1529SOL    HW1 5486   4.517   1.010   0.329
 1529SOL    HW2 5487   4.459   0.862   0.367
 1530SOL     OW 5488   3.779   1.943   2.048
 1530SOL    HW1 5489   3.721   2.024   2.037
 1530SOL    HW2 5490   3.847   1.960   2.120
 1531SOL     OW 5491   4.551   0.291   5.745
 1531SOL    HW1 5492   4.601   0.316   5.662
 1531SOL    HW2 5493   4.616   0.261   5.815
 1532SOL     OW 5494   3.191   3.096   6.604
 1532SOL    HW1 5495   3.144   3.184   6.597
 1532SOL    HW2 5496   3.273   3.105   6.661
 1533SOL     OW 5497   6.353   4.375   6.597
 1533SOL    HW1 5498   6.302   4.290   6.582
 1533SOL    HW2 5499   6.368   4.388   6.695
 1534SOL     OW 5500   2.623   5.051   0.009
 1534SOL    HW1 5501   2.589   4.974   6.981
 1534SOL    HW2 5502   2.695   5.098   6.986
 1535SOL     OW 5503   5.020   6.571   4.650
 1535SOL    HW1 5504   5.051   6.662   4.677
 1535SOL    HW2 5505   4.949   6.580   4.580
 1536SOL     OW 5506   3.534   4.399   5.850
 1536SOL    HW1 5507   3.531   4.323   5.915
 1536SOL    HW2 5508   3.493   4.480   5.891
 1537SOL     OW 5509   4.558   6.106   3.883
 1537SOL    HW1 5510   4.510   6.110   3.970
 1537SOL    HW2 5511   4.546   6.015   3.843
 1538SOL     OW 5512   3.600   6.402   6.886
 1538SOL    HW1 5513   3.661   6.337   6.931
 1538SOL    HW2 5514   3.507   6.392   6.922
 1539SOL     OW 5515   4.799   4.101   1.535
 1539SOL    HW1 5516   4.886   4.054   1.548
 1539SOL    HW2 5517   4.729   4.060   1.594
 1540SOL     OW 5518   1.020   6.135   5.423
 1540SOL    HW1 5519   1.093   6.163   5.361
 1540SOL    HW2 5520   0.933   6.171   5.391
 1541SOL     OW 5521   3.577   2.979   3.827
 1541SOL    HW1 5522   3.652   3.032   3.867
 1541SOL    HW2 5523   3.517   2.945   3.900
 1542SOL     OW 5524   6.302   6.933   2.788
 1542SOL    HW1 5525   6.343   7.012   2.741
 1542SOL    HW2 5526   6.236   6.889   2.727
 1543SOL     OW 5527   2.985   5.293   5.322
 1543SOL    HW1 5528   3.059   5.286   5.389
 1543SOL    HW2 5529   3.019   5.340   5.240
 1544SOL     OW 5530   2.902   3.505   2.805
 1544SOL    HW1 5531   2.808   3.470   2.809
 1544SOL    HW2 5532   2.940   3.490   2.714
 1545SOL     OW 5533   5.334   0.818   3.152
 1545SOL    HW1 5534   5.394   0.811   3.232
 1545SOL    HW2 5535   5.238   0.813   3.181
 1546SOL     OW 5536   3.805   6.974   5.968
 1546SOL    HW1 5537   3.848   0.026   5.924
 1546SOL    HW2 5538   3.766   6.913   5.898
 1547SOL     OW 5539   1.738   3.917   2.771
 1547SOL    HW1 5540   1.645   3.939   2.800
 1547SOL    HW2 5541   1.790   4.002   2.758
 1548SOL     OW 5542   5.526   3.874   5.728
 1548SOL    HW1 5543   5.540   3.831   5.639
 1548SOL    HW2 5544   5.592   3.949   5.739
 1549SOL     OW 5545   4.644   1.434   2.108
 1549SOL    HW1 5546   4.575   1.364   2.090
 1549SOL    HW2 5547   4.609   1.499   2.175
 1550SOL     OW 5548   3.164   3.769   0.174
 1550SOL    HW1 5549   3.222   3.828   0.119
 1550SOL    HW2 5550   3.147   3.684   0.125
 1551SOL     OW 5551   2.621   4.157   6.118
 1551SOL    HW1 5552   2.613   4.088   6.046
 1551SOL    HW2 5553   2.558   4.233   6.099
 1552SOL     OW 5554   0.856   6.049   0.218
 1552SOL    HW1 5555   0.881   5.954   0.202
 1552SOL    HW2 5556   0.930   6.096   0.265
 1553SOL     OW 5557   0.356   1.971   5.786
 1553SOL    HW1 5558   0.312   1.895   5.738
 1553SOL    HW2 5559   0.348   1.955   5.885
 1554SOL     OW 5560   4.006   2.147   2.882
 1554SOL    HW1 5561   4.084   2.193   2.839
 1554SOL    HW2 5562   3.923   2.168   2.832
 1555SOL     OW 5563   4.889   2.462   6.759
 1555SOL    HW1 5564   4.810   2.512   6.724
 1555SOL    HW2 5565   4.882   2.453   6.858
 1556SOL     OW 5566   3.624   1.458   0.264
 1556SOL    HW1 5567   3.697   1.404   0.223
 1556SOL    HW2 5568   3.650   1.484   0.357
 1557SOL     OW 5569   2.491   2.132   6.165
 1557SOL    HW1 5570   2.513   2.128   6.068
 1557SOL    HW2 5571   2.437   2.051   6.190
 1558SOL     OW 5572   5.291   0.960   4.931
 1558SOL    HW1 5573   5.371   0.916   4.890
 1558SOL    HW2 5574   5.319   1.044   4.977
 1559SOL     OW 5575   0.910   2.447   0.055
 1559SOL    HW1 5576   0.897   2.355   0.094
 1559SOL    HW2 5577   0.825   2.478   0.014
 1560SOL     OW 5578   0.701   0.951   6.180
 1560SOL    HW1 5579   0.789   0.924   6.141
 1560SOL    HW2 5580   0.644   0.993   6.110
 1561SOL     OW 5581   6.447   6.777   3.636
 1561SOL    HW1 5582   6.496   6.717   3.699
 1561SOL    HW2 5583   6.358   6.737   3.614
 1562SOL     OW 5584   3.788   5.960   2.861
 1562SOL    HW1 5585   3.864   5.899   2.883
 1562SOL    HW2 5586   3.796   6.044   2.914
 1563SOL     OW 5587   1.723   0.193   5.978
 1563SOL    HW1 5588   1.732   0.094   5.967
 1563SOL    HW2 5589   1.633   0.222   5.945
 1564SOL     OW 5590   1.237   2.709   3.367
 1564SOL    HW1 5591   1.326   2.753   3.379
 1564SOL    HW2 5592   1.222   2.643   3.440
 1565SOL     OW 5593   4.088   4.876   4.671
 1565SOL    HW1 5594   4.146   4.955   4.686
 1565SOL    HW2 5595   4.051   4.844   4.759
 1566SOL     OW 5596   5.910   4.932   3.032
 1566SOL    HW1 5597   5.887   4.835   3.029
 1566SOL    HW2 5598   5.833   4.986   2.998
 1567SOL     OW 5599   6.015   5.856   0.524
 1567SOL    HW1 5600   6.103   5.838   0.569
 1567SOL    HW2 5601   6.031   5.901   0.437
 1568SOL     OW 5602   1.684   6.344   1.006
 1568SOL    HW1 5603   1.635   6.427   1.035
 1568SOL    HW2 5604   1.714   6.293   1.086
 1569SOL     OW 5605   4.106   6.051   3.758
 1569SOL    HW1 5606   4.157   6.009   3.833
 1569SOL    HW2 5607   4.143   6.019   3.671
 1570SOL     OW 5608   1.952   0.219   0.571
 1570SOL    HW1 5609   1.880   0.202   0.639
 1570SOL    HW2 5610   2.040   0.223   0.618
 1571SOL     OW 5611   5.450   2.030   1.405
 1571SOL    HW1 5612   5.435   1.956   1.471
 1571SOL    HW2 5613   5.417   2.117   1.444
 1572SOL     OW 5614   0.788   6.765   0.853
 1572SOL    HW1 5615   0.859   6.708   0.894
 1572SOL    HW2 5616   0.738   6.813   0.924
 1573SOL     OW 5617   5.276   3.721   1.450
 1573SOL    HW1 5618   5.292   3.734   1.548
 1573SOL    HW2 5619   5.231   3.633   1.434
 1574SOL     OW 5620   6.844   0.880   1.863
 1574SOL    HW1 5621   6.933   0.882   1.908
 1574SOL    HW2 5622   6.806   0.972   1.861
 1575SOL     OW 5623   4.361   1.271   0.863
 1575SOL    HW1 5624   4.330   1.289   0.956
 1575SOL    HW2 5625   4.339   1.176   0.839
 1576SOL     OW 5626   1.592   6.755   3.769
 1576SOL    HW1 5627   1.503   6.711   3.752
 1576SOL    HW2 5628   1.609   6.823   3.698
 1577SOL     OW 5629   2.924   1.469   5.128
 1577SOL    HW1 5630   3.013   1.455   5.086
 1577SOL    HW2 5631   2.933   1.528   5.208
 1578SOL     OW 5632   6.374   2.998   5.578
 1578SOL    HW1 5633   6.287   3.016   5.531
 1578SOL    HW2 5634   6.446   3.055   5.538
 1579SOL     OW 5635   0.166   1.320   2.190
 1579SOL    HW1 5636   0.178   1.370   2.105
 1579SOL    HW2 5637   0.071   1.289   2.197
 1580SOL     OW 5638   2.885   3.809   5.168
 1580SOL    HW1 5639   2.948   3.886   5.162
 1580SOL    HW2 5640   2.861   3.779   5.076
 1581SOL     OW 5641   0.499   3.746   4.701
 1581SOL    HW1 5642   0.405   3.712   4.702
 1581SOL    HW2 5643   0.521   3.787   4.790
 1582SOL     OW 5644   1.304   7.019   4.237
 1582SOL    HW1 5645   1.341   6.929   4.213
 1582SOL    HW2 5646   1.210   7.009   4.269
 1583SOL     OW 5647   1.149   4.730   3.454
 1583SOL    HW1 5648   1.132   4.801   3.522
 1583SOL    HW2 5649   1.108   4.644   3.484
 1584SOL     OW 5650   1.038   6.771   5.221
 1584SOL    HW1 5651   1.029   6.860   5.265
 1584SOL    HW2 5652   0.979   6.705   5.268
 1585SOL     OW 5653   5.916   1.962   3.739
 1585SOL    HW1 5654   6.015   1.946   3.735
 1585SOL    HW2 5655   5.891   2.031   3.672
 1586SOL     OW 5656   3.737   4.936   1.807
 1586SOL    HW1 5657   3.678   4.857   1.820
 1586SOL    HW2 5658   3.819   4.927   1.864
 1587SOL     OW 5659   3.230   6.039   6.737
 1587SOL    HW1 5660   3.222   6.007   6.832
 1587SOL    HW2 5661   3.148   6.090   6.712
 1588SOL     OW 5662   4.719   1.314   3.152
 1588SOL    HW1 5663   4.732   1.379   3.227
 1588SOL    HW2 5664   4.766   1.229   3.173
 1589SOL     OW 5665   5.471   4.141   1.436
 1589SOL    HW1 5666   5.473   4.060   1.377
 1589SOL    HW2 5667   5.478   4.223   1.380
 1590SOL     OW 5668   3.161   5.852   6.511
 1590SOL    HW1 5669   3.118   5.919   6.450
 1590SOL    HW2 5670   3.194   5.898   6.593
 1591SOL     OW 5671   6.627   5.150   2.678
 1591SOL    HW1 5672   6.539   5.122   2.717
 1591SOL    HW2 5673   6.618   5.238   2.633
 1592SOL     OW 5674   2.425   4.292   0.537
 1592SOL    HW1 5675   2.437   4.390   0.521
 1592SOL    HW2 5676   2.370   4.278   0.619
 1593SOL     OW 5677   1.147   6.624   4.357
 1593SOL    HW1 5678   1.246   6.614   4.363
 1593SOL    HW2 5679   1.104   6.535   4.369
 1594SOL     OW 5680   0.223   6.236   2.287
 1594SOL    HW1 5681   0.253   6.141   2.297
 1594SOL    HW2 5682   0.273   6.294   2.351
 1595SOL     OW 5683   1.314   5.289   6.968
 1595SOL    HW1 5684   1.391   5.293   6.904
 1595SOL    HW2 5685   1.256   5.370   6.956
 1596SOL     OW 5686   0.354   2.723   4.139
 1596SOL    HW1 5687   0.319   2.666   4.065
 1596SOL    HW2 5688   0.431   2.778   4.106
 1597SOL     OW 5689   1.984   6.476   6.681
 1597SOL    HW1 5690   1.935   6.398   6.719
 1597SOL    HW2 5691   1.947   6.497   6.590
 1598SOL     OW 5692   1.122   3.552   6.557
 1598SOL    HW1 5693   1.171   3.486   6.501
 1598SOL    HW2 5694   1.082   3.623   6.499
 1599SOL     OW 5695   4.465   4.296   5.920
 1599SOL    HW1 5696   4.507   4.386   5.929
 1599SOL    HW2 5697   4.517   4.229   5.973
 1600SOL     OW 5698   5.218   1.469   4.647
 1600SOL    HW1 5699   5.308   1.464   4.604
 1600SOL    HW2 5700   5.154   1.410   4.599
 1601SOL     OW 5701   6.923   4.963   4.742
 1601SOL    HW1 5702   6.954   4.961   4.837
 1601SOL    HW2 5703   6.981   4.903   4.686
 1602SOL     OW 5704   2.034   5.005   3.454
 1602SOL    HW1 5705   2.011   5.102   3.450
 1602SOL    HW2 5706   2.066   4.982   3.546
 1603SOL     OW 5707   6.613   6.282   2.832
 1603SOL    HW1 5708   6.674   6.285   2.753
 1603SOL    HW2 5709   6.599   6.375   2.866
 1604SOL     OW 5710   6.244   4.573   0.446
 1604SOL    HW1 5711   6.303   4.628   0.387
 1604SOL    HW2 5712   6.243   4.613   0.538
 1605SOL     OW 5713   6.888   6.324   1.892
 1605SOL    HW1 5714   6.875   6.390   1.819
 1605SOL    HW2 5715   6.940   6.366   1.967
 1606SOL     OW 5716   3.515   0.788   4.993
 1606SOL    HW1 5717   3.554   0.757   4.906
 1606SOL    HW2 5718   3.461   0.870   4.979
 1607SOL     OW 5719   3.855   2.105   0.745
 1607SOL    HW1 5720   3.907   2.160   0.680
 1607SOL    HW2 5721   3.762   2.090   0.711
 1608SOL     OW 5722   1.043   0.067   4.273
 1608SOL    HW1 5723   1.032   0.120   4.189
 1608SOL    HW2 5724   0.953   0.054   4.316
 1609SOL     OW 5725   4.150   0.464   0.759
 1609SOL    HW1 5726   4.191   0.552   0.733
 1609SOL    HW2 5727   4.089   0.477   0.837
 1610SOL     OW 5728   5.737   4.436   6.919
 1610SOL    HW1 5729   5.664   4.409   6.856
 1610SOL    HW2 5730   5.813   4.475   6.867
 1611SOL     OW 5731   2.577   3.964   1.671
 1611SOL    HW1 5732   2.628   3.883   1.697
 1611SOL    HW2 5733   2.638   4.043   1.670
 1612SOL     OW 5734   2.520   0.823   5.020
 1612SOL    HW1 5735   2.473   0.745   4.978
 1612SOL    HW2 5736   2.454   0.897   5.035
 1613SOL     OW 5737   1.944   5.262   1.572
 1613SOL    HW1 5738   1.898   5.302   1.651
 1613SOL    HW2 5739   1.904   5.172   1.552
 1614SOL     OW 5740   6.388   3.221   0.090
 1614SOL    HW1 5741   6.373   3.200   7.020
 1614SOL    HW2 5742   6.417   3.139   0.139
 1615SOL     OW 5743   6.626   5.408   1.119
 1615SOL    HW1 5744   6.529   5.386   1.126
 1615SOL    HW2 5745   6.676   5.328   1.086
 1616SOL     OW 5746   3.556   2.158   5.144
 1616SOL    HW1 5747   3.479   2.207   5.187
 1616SOL    HW2 5748   3.632   2.153   5.209
 1617SOL     OW 5749   5.919   0.577   1.943
 1617SOL    HW1 5750   5.893   0.564   2.039
 1617SOL    HW2 5751   5.965   0.494   1.910
 1618SOL     OW 5752   1.393   4.236   1.833
 1618SOL    HW1 5753   1.427   4.297   1.762
 1618SOL    HW2 5754   1.469   4.189   1.877
 1619SOL     OW 5755   0.708   2.190   2.605
 1619SOL    HW1 5756   0.644   2.164   2.678
 1619SOL    HW2 5757   0.713   2.290   2.599
 1620SOL     OW 5758   2.828   5.416   1.270
 1620SOL    HW1 5759   2.870   5.344   1.325
 1620SOL    HW2 5760   2.887   5.437   1.192
 1621SOL     OW 5761   0.390   1.465   0.662
 1621SOL    HW1 5762   0.414   1.520   0.742
 1621SOL    HW2 5763   0.458   1.478   0.590
 1622SOL     OW 5764   0.317   2.484   4.641
 1622SOL    HW1 5765   0.377   2.404   4.652
 1622SOL    HW2 5766   0.222   2.453   4.631
 1623SOL     OW 5767   2.349   3.418   5.320
 1623SOL    HW1 5768   2.284   3.418   5.243
 1623SOL    HW2 5769   2.385   3.510   5.333
 1624SOL     OW 5770   2.551   1.310   5.081
 1624SOL    HW1 5771   2.494   1.235   5.114
 1624SOL    HW2 5772   2.633   1.316   5.137
 1625SOL     OW 5773   1.291   5.546   1.703
 1625SOL    HW1 5774   1.303   5.483   1.780
 1625SOL    HW2 5775   1.198   5.538   1.668
 1626SOL     OW 5776   3.425   2.359   6.230
 1626SOL    HW1 5777   3.348   2.397   6.282
 1626SOL    HW2 5778   3.419   2.391   6.135
 1627SOL     OW 5779   6.451   2.706   3.789
 1627SOL    HW1 5780   6.358   2.702   3.753
 1627SOL    HW2 5781   6.466   2.629   3.851
 1628SOL     OW 5782   4.393   4.905   0.120
 1628SOL    HW1 5783   4.345   4.950   0.195
 1628SOL    HW2 5784   4.429   4.817   0.150
 1629SOL     OW 5785   3.004   1.202   3.943
 1629SOL    HW1 5786   3.051   1.252   3.870
 1629SOL    HW2 5787   2.905   1.212   3.932
 1630SOL     OW 5788   1.457   6.127   5.725
 1630SOL    HW1 5789   1.448   6.144   5.824
 1630SOL    HW2 5790   1.368   6.139   5.681
 1631SOL     OW 5791   0.069   1.756   6.518
 1631SOL    HW1 5792   0.151   1.699   6.527
 1631SOL    HW2 5793   0.094   1.852   6.522
 1632SOL     OW 5794   0.080   1.809   6.847
 1632SOL    HW1 5795   0.066   1.805   6.748
 1632SOL    HW2 5796   0.094   1.717   6.882
 1633SOL     OW 5797   4.994   2.433   4.316
 1633SOL    HW1 5798   4.933   2.447   4.239
 1633SOL    HW2 5799   4.949   2.375   4.384
 1634SOL     OW 5800   3.965   5.075   7.016
 1634SOL    HW1 5801   3.928   5.166   6.995
 1634SOL    HW2 5802   3.942   5.051   0.084
 1635SOL     OW 5803   6.876   5.924   5.715
 1635SOL    HW1 5804   6.803   5.992   5.717
 1635SOL    HW2 5805   6.858   5.854   5.784
 1636SOL     OW 5806   2.494   4.110   1.409
 1636SOL    HW1 5807   2.529   4.030   1.457
 1636SOL    HW2 5808   2.527   4.194   1.453
 1637SOL     OW 5809   0.328   0.378   3.384
 1637SOL    HW1 5810   0.428   0.375   3.395
 1637SOL    HW2 5811   0.304   0.337   3.296
 1638SOL     OW 5812   0.452   4.278   3.939
 1638SOL    HW1 5813   0.549   4.303   3.939
 1638SOL    HW2 5814   0.406   4.324   4.015
 1639SOL     OW 5815   4.454   0.094   3.147
 1639SOL    HW1 5816   4.464   0.186   3.185
 1639SOL    HW2 5817   4.428   0.101   3.051
 1640SOL     OW 5818   5.804   1.598   0.714
 1640SOL    HW1 5819   5.750   1.676   0.681
 1640SOL    HW2 5820   5.743   1.534   0.761
 1641SOL     OW 5821   5.144   2.586   4.539
 1641SOL    HW1 5822   5.091   2.578   4.454
 1641SOL    HW2 5823   5.085   2.565   4.617
 1642SOL     OW 5824   6.065   3.842   6.307
 1642SOL    HW1 5825   6.110   3.931   6.311
 1642SOL    HW2 5826   6.122   3.773   6.352
 1643SOL     OW 5827   2.927   4.754   3.908
 1643SOL    HW1 5828   2.854   4.789   3.967
 1643SOL    HW2 5829   2.897   4.669   3.865
 1644SOL     OW 5830   0.484   2.942   1.402
 1644SOL    HW1 5831   0.473   2.890   1.317
 1644SOL    HW2 5832   0.541   3.022   1.385
 1645SOL     OW 5833   2.650   6.039   5.845
 1645SOL    HW1 5834   2.732   6.057   5.790
 1645SOL    HW2 5835   2.629   6.120   5.900
 1646SOL     OW 5836   2.624   5.505   0.742
 1646SOL    HW1 5837   2.679   5.586   0.722
 1646SOL    HW2 5838   2.554   5.495   0.671
 1647SOL     OW 5839   6.194   2.689   4.811
 1647SOL    HW1 5840   6.245   2.682   4.897
 1647SOL    HW2 5841   6.098   2.667   4.828
 1648SOL     OW 5842   6.156   6.107   0.667
 1648SOL    HW1 5843   6.111   6.092   0.755
 1648SOL    HW2 5844   6.088   6.137   0.600
 1649SOL     OW 5845   3.750   0.106   4.803
 1649SOL    HW1 5846   3.681   0.069   4.865
 1649SOL    HW2 5847   3.840   0.069   4.828
 1650SOL     OW 5848   1.894   6.689   5.783
 1650SOL    HW1 5849   1.963   6.758   5.763
 1650SOL    HW2 5850   1.940   6.601   5.802
 1651SOL     OW 5851   0.520   1.413   1.831
 1651SOL    HW1 5852   0.591   1.348   1.802
 1651SOL    HW2 5853   0.563   1.494   1.872
 1652SOL     OW 5854   1.529   3.216   1.981
 1652SOL    HW1 5855   1.453   3.220   1.916
 1652SOL    HW2 5856   1.516   3.284   2.053
 1653SOL     OW 5857   0.862   6.919   1.259
 1653SOL    HW1 5858   0.860   7.007   1.307
 1653SOL    HW2 5859   0.834   6.932   1.164
 1654SOL     OW 5860   6.529   3.234   2.140
 1654SOL    HW1 5861   6.608   3.227   2.201
 1654SOL    HW2 5862   6.547   3.180   2.057
 1655SOL     OW 5863   6.264   2.359   5.301
 1655SOL    HW1 5864   6.184   2.357   5.241
 1655SOL    HW2 5865   6.344   2.386   5.247
 1656SOL     OW 5866   2.354   4.504   2.397
 1656SOL    HW1 5867   2.328   4.600   2.397
 1656SOL    HW2 5868   2.295   4.454   2.334
 1657SOL     OW 5869   6.856   0.997   4.214
 1657SOL    HW1 5870   6.912   1.034   4.140
 1657SOL    HW2 5871   6.764   0.979   4.180
 1658SOL     OW 5872   1.061   0.212   1.662
 1658SOL    HW1 5873   1.034   0.115   1.669
 1658SOL    HW2 5874   1.158   0.217   1.641
 1659SOL     OW 5875   3.714   1.025   5.536
 1659SOL    HW1 5876   3.780   0.964   5.493
 1659SOL    HW2 5877   3.631   0.974   5.559
 1660SOL     OW 5878   1.175   5.412   3.938
 1660SOL    HW1 5879   1.117   5.348   3.888
 1660SOL    HW2 5880   1.129   5.500   3.945
 1661SOL     OW 5881   3.391   1.450   2.453
 1661SOL    HW1 5882   3.383   1.398   2.368
 1661SOL    HW2 5883   3.330   1.529   2.450
 1662SOL     OW 5884   6.604   0.987   4.146
 1662SOL    HW1 5885   6.533   0.926   4.180
 1662SOL    HW2 5886   6.562   1.073   4.117
 1663SOL     OW 5887   3.435   0.684   2.950
 1663SOL    HW1 5888   3.424   0.767   2.895
 1663SOL    HW2 5889   3.422   0.603   2.892
 1664SOL     OW 5890   2.499   6.916   3.906
 1664SOL    HW1 5891   2.544   6.905   3.994
 1664SOL    HW2 5892   2.539   6.852   3.840
 1665SOL     OW 5893   0.492   0.838   3.111
 1665SOL    HW1 5894   0.488   0.754   3.165
 1665SOL    HW2 5895   0.428   0.905   3.149
 1666SOL     OW 5896   5.267   3.551   0.580
 1666SOL    HW1 5897   5.304   3.535   0.672
 1666SOL    HW2 5898   5.218   3.469   0.550
 1667SOL     OW 5899   6.595   6.696   1.148
 1667SOL    HW1 5900   6.616   6.695   1.246
 1667SOL    HW2 5901   6.562   6.606   1.120
 1668SOL     OW 5902   5.144   5.952   5.433
 1668SOL    HW1 5903   5.070   5.893   5.465
 1668SOL    HW2 5904   5.153   6.031   5.493
 1669SOL     OW 5905   6.711   6.293   6.289
 1669SOL    HW1 5906   6.802   6.330   6.270
 1669SOL    HW2 5907   6.645   6.331   6.225
 1670SOL     OW 5908   6.803   4.598   6.414
 1670SOL    HW1 5909   6.732   4.534   6.384
 1670SOL    HW2 5910   6.861   4.622   6.336
 1671SOL     OW 5911   4.252   3.037   0.947
 1671SOL    HW1 5912   4.253   2.989   1.035
 1671SOL    HW2 5913   4.249   3.136   0.963
 1672SOL     OW 5914   1.877   3.652   1.435
 1672SOL    HW1 5915   1.963   3.604   1.418
 1672SOL    HW2 5916   1.813   3.633   1.361
 1673SOL     OW 5917   6.685   2.202   4.342
 1673SOL    HW1 5918   6.605   2.230   4.394
 1673SOL    HW2 5919   6.715   2.111   4.373
 1674SOL     OW 5920   0.765   3.870   2.724
 1674SOL    HW1 5921   0.754   3.920   2.638
 1674SOL    HW2 5922   0.830   3.919   2.782
 1675SOL     OW 5923   4.294   0.409   5.786
 1675SOL    HW1 5924   4.386   0.370   5.782
 1675SOL    HW2 5925   4.236   0.366   5.717
 1676SOL     OW 5926   2.412   1.319   2.149
 1676SOL    HW1 5927   2.446   1.327   2.056
 1676SOL    HW2 5928   2.488   1.333   2.213
 1677SOL     OW 5929   3.848   3.693   5.578
 1677SOL    HW1 5930   3.879   3.644   5.659
 1677SOL    HW2 5931   3.785   3.766   5.605
 1678SOL     OW 5932   5.135   4.587   5.075
 1678SOL    HW1 5933   5.145   4.541   5.163
 1678SOL    HW2 5934   5.152   4.523   5.001
 1679SOL     OW 5935   2.167   3.198   4.995
 1679SOL    HW1 5936   2.246   3.137   4.987
 1679SOL    HW2 5937   2.088   3.156   4.950
 1680SOL     OW 5938   0.483   2.544   4.318
 1680SOL    HW1 5939   0.442   2.536   4.409
 1680SOL    HW2 5940   0.434   2.612   4.264
 1681SOL     OW 5941   6.313   5.839   0.658
 1681SOL    HW1 5942   6.294   5.934   0.634
 1681SOL    HW2 5943   6.407   5.831   0.690
 1682SOL     OW 5944   0.410   1.917   4.897
 1682SOL    HW1 5945   0.354   1.873   4.827
 1682SOL    HW2 5946   0.504   1.925   4.864
 1683SOL     OW 5947   3.871   5.888   0.987
 1683SOL    HW1 5948   3.860   5.968   1.046
 1683SOL    HW2 5949   3.933   5.911   0.912
 1684SOL     OW 5950   1.211   6.090   3.191
 1684SOL    HW1 5951   1.119   6.050   3.201
 1684SOL    HW2 5952   1.226   6.116   3.096
 1685SOL     OW 5953   2.790   0.852   6.364
 1685SOL    HW1 5954   2.752   0.911   6.293
 1685SOL    HW2 5955   2.716   0.799   6.405
 1686SOL     OW 5956   2.292   4.881   5.190
 1686SOL    HW1 5957   2.362   4.810   5.197
 1686SOL    HW2 5958   2.203   4.842   5.214
 1687SOL     OW 5959   2.209   3.294   1.445
 1687SOL    HW1 5960   2.260   3.209   1.454
 1687SOL    HW2 5961   2.147   3.288   1.366
 1688SOL     OW 5962   1.962   2.484   3.749
 1688SOL    HW1 5963   1.888   2.424   3.780
 1688SOL    HW2 5964   1.965   2.565   3.808
 1689SOL     OW 5965   4.509   0.660   2.403
 1689SOL    HW1 5966   4.596   0.653   2.452
 1689SOL    HW2 5967   4.433   0.643   2.466
 1690SOL     OW 5968   1.699   3.151   3.486
 1690SOL    HW1 5969   1.690   3.215   3.562
 1690SOL    HW2 5970   1.639   3.178   3.412
 1691SOL     OW 5971   5.489   4.280   3.227
 1691SOL    HW1 5972   5.438   4.364   3.211
 1691SOL    HW2 5973   5.582   4.291   3.193
 1692SOL     OW 5974   5.807   0.502   1.687
 1692SOL    HW1 5975   5.799   0.589   1.637
 1692SOL    HW2 5976   5.822   0.521   1.784
 1693SOL     OW 5977   6.925   2.204   2.449
 1693SOL    HW1 5978   6.957   2.208   2.543
 1693SOL    HW2 5979   6.893   2.111   2.429
 1694SOL     OW 5980   5.442   0.563   3.536
 1694SOL    HW1 5981   5.485   0.494   3.594
 1694SOL    HW2 5982   5.512   0.612   3.484
 1695SOL     OW 5983   2.647   1.545   5.881
 1695SOL    HW1 5984   2.606   1.582   5.798
 1695SOL    HW2 5985   2.618   1.598   5.960
 1696SOL     OW 5986   5.110   4.705   0.717
 1696SOL    HW1 5987   5.148   4.672   0.804
 1696SOL    HW2 5988   5.168   4.672   0.642
 1697SOL     OW 5989   5.570   6.131   1.799
 1697SOL    HW1 5990   5.656   6.152   1.845
 1697SOL    HW2 5991   5.517   6.215   1.786
 1698SOL     OW 5992   5.350   0.988   0.516
 1698SOL    HW1 5993   5.276   1.001   0.582
 1698SOL    HW2 5994   5.429   0.946   0.561
 1699SOL     OW 5995   2.799   1.262   0.950
 1699SOL    HW1 5996   2.829   1.308   0.866
 1699SOL    HW2 5997   2.723   1.200   0.928
 1700SOL     OW 5998   6.102   2.551   3.188
 1700SOL    HW1 5999   6.077   2.646   3.203
 1700SOL    HW2 6000   6.201   2.543   3.182
 1701SOL     OW 6001   5.626   3.737   6.055
 1701SOL    HW1 6002   5.602   3.670   5.985
 1701SOL    HW2 6003   5.718   3.772   6.036
 1702SOL     OW 6004   6.576   2.761   0.699
 1702SOL    HW1 6005   6.584   2.667   0.734
 1702SOL    HW2 6006   6.587   2.826   0.774
 1703SOL     OW 6007   4.099   3.375   2.892
 1703SOL    HW1 6008   4.076   3.284   2.927
 1703SOL    HW2 6009   4.079   3.444   2.961
 1704SOL     OW 6010   0.698   1.129   2.068
 1704SOL    HW1 6011   0.729   1.038   2.096
 1704SOL    HW2 6012   0.775   1.192   2.069
 1705SOL     OW 6013   3.653   2.678   1.392
 1705SOL    HW1 6014   3.573   2.683   1.453
 1705SOL    HW2 6015   3.629   2.623   1.312
 1706SOL     OW 6016   4.752   0.512   1.366
 1706SOL    HW1 6017   4.701   0.430   1.390
 1706SOL    HW2 6018   4.700   0.565   1.298
 1707SOL     OW 6019   4.678   2.084   2.458
 1707SOL    HW1 6020   4.590   2.120   2.426
 1707SOL    HW2 6021   4.671   1.985   2.470
 1708SOL     OW 6022   4.937   5.035   2.253
 1708SOL    HW1 6023   4.860   4.973   2.240
 1708SOL    HW2 6024   4.955   5.085   2.168
 1709SOL     OW 6025   2.197   5.721   1.662
 1709SOL    HW1 6026   2.215   5.691   1.568
 1709SOL    HW2 6027   2.186   5.820   1.663
 1710SOL     OW 6028   5.561   4.589   3.594
 1710SOL    HW1 6029   5.656   4.598   3.564
 1710SOL    HW2 6030   5.501   4.638   3.530
 1711SOL     OW 6031   1.029   4.657   4.773
 1711SOL    HW1 6032   1.002   4.585   4.836
 1711SOL    HW2 6033   1.056   4.738   4.824
 1712SOL     OW 6034   0.459   3.109   6.383
 1712SOL    HW1 6035   0.520   3.117   6.462
 1712SOL    HW2 6036   0.447   3.199   6.341
 1713SOL     OW 6037   3.822   2.432   1.512
 1713SOL    HW1 6038   3.861   2.445   1.420
 1713SOL    HW2 6039   3.722   2.441   1.507
 1714SOL     OW 6040   4.411   1.787   6.065
 1714SOL    HW1 6041   4.510   1.784   6.052
 1714SOL    HW2 6042   4.374   1.694   6.056
 1715SOL     OW 6043   6.752   3.769   2.662
 1715SOL    HW1 6044   6.793   3.737   2.576
 1715SOL    HW2 6045   6.758   3.868   2.667
 1716SOL     OW 6046   4.959   0.120   2.793
 1716SOL    HW1 6047   4.887   0.091   2.857
 1716SOL    HW2 6048   5.013   0.040   2.766
 1717SOL     OW 6049   2.264   6.454   6.166
 1717SOL    HW1 6050   2.306   6.410   6.087
 1717SOL    HW2 6051   2.331   6.464   6.240
 1718SOL     OW 6052   2.311   2.417   2.344
 1718SOL    HW1 6053   2.354   2.464   2.267
 1718SOL    HW2 6054   2.337   2.320   2.343
 1719SOL     OW 6055   2.290   4.091   0.792
 1719SOL    HW1 6056   2.272   4.009   0.847
 1719SOL    HW2 6057   2.273   4.173   0.846
 1720SOL     OW 6058   0.328   1.804   0.641
 1720SOL    HW1 6059   0.308   1.720   0.692
 1720SOL    HW2 6060   0.276   1.880   0.679
 1721SOL     OW 6061   1.062   6.694   2.525
 1721SOL    HW1 6062   0.978   6.728   2.566
 1721SOL    HW2 6063   1.092   6.612   2.573
 1722SOL     OW 6064   4.873   2.394   4.057
 1722SOL    HW1 6065   4.920   2.396   3.969
 1722SOL    HW2 6066   4.780   2.430   4.046
 1723SOL     OW 6067   6.866   2.616   2.294
 1723SOL    HW1 6068   6.805   2.599   2.372
 1723SOL    HW2 6069   6.914   2.532   2.270
 1724SOL     OW 6070   6.037   1.738   1.259
 1724SOL    HW1 6071   5.994   1.713   1.172
 1724SOL    HW2 6072   6.118   1.681   1.273
 1725SOL     OW 6073   2.284   4.485   6.776
 1725SOL    HW1 6074   2.277   4.576   6.816
 1725SOL    HW2 6075   2.308   4.419   6.848
 1726SOL     OW 6076   5.806   4.665   5.336
 1726SOL    HW1 6077   5.792   4.594   5.266
 1726SOL    HW2 6078   5.779   4.754   5.299
 1727SOL     OW 6079   3.887   3.324   4.602
 1727SOL    HW1 6080   3.965   3.382   4.626
 1727SOL    HW2 6081   3.804   3.380   4.602
 1728SOL     OW 6082   5.520   5.150   4.621
 1728SOL    HW1 6083   5.505   5.244   4.649
 1728SOL    HW2 6084   5.496   5.139   4.525
 1729SOL     OW 6085   2.176   3.651   3.658
 1729SOL    HW1 6086   2.168   3.566   3.710
 1729SOL    HW2 6087   2.140   3.637   3.566
 1730SOL     OW 6088   6.600   0.312   5.270
 1730SOL    HW1 6089   6.609   0.412   5.269
 1730SOL    HW2 6090   6.523   0.286   5.328
 1731SOL     OW 6091   7.008   4.917   2.021
 1731SOL    HW1 6092   0.034   4.968   2.089
 1731SOL    HW2 6093   6.918   4.895   2.058
 1732SOL     OW 6094   2.479   4.466   5.408
 1732SOL    HW1 6095   2.495   4.469   5.507
 1732SOL    HW2 6096   2.548   4.408   5.365
 1733SOL     OW 6097   1.066   3.823   2.691
 1733SOL    HW1 6098   1.031   3.840   2.598
 1733SOL    HW2 6099   1.048   3.903   2.748
 1734SOL     OW 6100   4.704   3.253   1.706
 1734SOL    HW1 6101   4.801   3.268   1.727
 1734SOL    HW2 6102   4.669   3.178   1.762
 1735SOL     OW 6103   5.784   5.808   1.250
 1735SOL    HW1 6104   5.821   5.895   1.216
 1735SOL    HW2 6105   5.848   5.734   1.230
 1736SOL     OW 6106   4.163   2.586   1.103
 1736SOL    HW1 6107   4.173   2.679   1.139
 1736SOL    HW2 6108   4.246   2.534   1.123
 1737SOL     OW 6109   3.001   0.916   4.284
 1737SOL    HW1 6110   2.970   1.011   4.294
 1737SOL    HW2 6111   3.046   0.906   4.195
 1738SOL     OW 6112   1.830   1.788   4.023
 1738SOL    HW1 6113   1.926   1.795   3.995
 1738SOL    HW2 6114   1.809   1.861   4.087
 1739SOL     OW 6115   5.751   2.241   5.562
 1739SOL    HW1 6116   5.671   2.207   5.613
 1739SOL    HW2 6117   5.776   2.331   5.597
 1740SOL     OW 6118   0.562   1.428   6.294
 1740SOL    HW1 6119   0.599   1.499   6.355
 1740SOL    HW2 6120   0.585   1.451   6.200
 1741SOL     OW 6121   2.209   0.623   4.028
 1741SOL    HW1 6122   2.217   0.717   3.996
 1741SOL    HW2 6123   2.154   0.570   3.962
 1742SOL     OW 6124   4.802   6.513   6.008
 1742SOL    HW1 6125   4.882   6.481   5.957
 1742SOL    HW2 6126   4.725   6.524   5.945
 1743SOL     OW 6127   1.941   2.231   2.289
 1743SOL    HW1 6128   2.027   2.261   2.247
 1743SOL    HW2 6129   1.958   2.208   2.385
 1744SOL     OW 6130   0.593   0.506   1.798
 1744SOL    HW1 6131   0.618   0.599   1.827
 1744SOL    HW2 6132   0.670   0.465   1.748
 1745SOL     OW 6133   6.252   0.669   3.360
 1745SOL    HW1 6134   6.313   0.745   3.383
 1745SOL    HW2 6135   6.171   0.673   3.418
 1746SOL     OW 6136   2.212   4.480   5.394
 1746SOL    HW1 6137   2.309   4.456   5.396
 1746SOL    HW2 6138   2.178   4.476   5.300
 1747SOL     OW 6139   5.805   1.270   2.918
 1747SOL    HW1 6140   5.726   1.331   2.912
 1747SOL    HW2 6141   5.866   1.287   2.841
 1748SOL     OW 6142   0.411   0.818   3.882
 1748SOL    HW1 6143   0.447   0.911   3.885
 1748SOL    HW2 6144   0.413   0.784   3.788
 1749SOL     OW 6145   2.487   6.928   5.231
 1749SOL    HW1 6146   2.537   6.865   5.171
 1749SOL    HW2 6147   2.551   6.976   5.290
 1750SOL     OW 6148   6.700   0.090   3.382
 1750SOL    HW1 6149   6.749   0.176   3.394
 1750SOL    HW2 6150   6.746   0.034   3.313
 1751SOL     OW 6151   4.307   5.428   4.469
 1751SOL    HW1 6152   4.314   5.463   4.563
 1751SOL    HW2 6153   4.341   5.334   4.466
 1752SOL     OW 6154   0.326   2.156   2.233
 1752SOL    HW1 6155   0.302   2.108   2.149
 1752SOL    HW2 6156   0.337   2.254   2.213
 1753SOL     OW 6157   0.185   2.008   0.738
 1753SOL    HW1 6158   0.104   1.966   0.781
 1753SOL    HW2 6159   0.155   2.073   0.668
 1754SOL     OW 6160   3.005   3.437   1.007
 1754SOL    HW1 6161   3.053   3.357   1.043
 1754SOL    HW2 6162   2.912   3.439   1.045
 1755SOL     OW 6163   6.006   6.137   2.037
 1755SOL    HW1 6164   6.027   6.202   2.110
 1755SOL    HW2 6165   6.069   6.150   1.960
 1756SOL     OW 6166   4.177   4.399   6.054
 1756SOL    HW1 6167   4.113   4.322   6.061
 1756SOL    HW2 6168   4.251   4.375   5.992
 1757SOL     OW 6169   2.675   4.964   5.001
 1757SOL    HW1 6170   2.770   4.961   4.970
 1757SOL    HW2 6171   2.628   5.040   4.955
 1758SOL     OW 6172   2.727   0.353   3.985
 1758SOL    HW1 6173   2.660   0.298   4.034
 1758SOL    HW2 6174   2.683   0.435   3.948
 1759SOL     OW 6175   1.836   5.179   6.679
 1759SOL    HW1 6176   1.905   5.139   6.618
 1759SOL    HW2 6177   1.882   5.223   6.757
 1760SOL     OW 6178   5.564   2.139   1.899
 1760SOL    HW1 6179   5.489   2.099   1.847
 1760SOL    HW2 6180   5.536   2.148   1.995
 1761SOL     OW 6181   0.570   0.457   0.752
 1761SOL    HW1 6182   0.515   0.514   0.813
 1761SOL    HW2 6183   0.544   0.361   0.765
 1762SOL     OW 6184   0.073   1.978   5.005
 1762SOL    HW1 6185   0.144   1.984   4.935
 1762SOL    HW2 6186   7.016   1.940   4.965
 1763SOL     OW 6187   1.449   3.599   3.804
 1763SOL    HW1 6188   1.506   3.555   3.735
 1763SOL    HW2 6189   1.395   3.530   3.853
 1764SOL     OW 6190   2.218   3.793   1.945
 1764SOL    HW1 6191   2.232   3.848   1.863
 1764SOL    HW2 6192   2.268   3.707   1.936
 1765SOL     OW 6193   4.483   1.898   0.111
 1765SOL    HW1 6194   4.474   1.815   0.055
 1765SOL    HW2 6195   4.425   1.889   0.192
 1766SOL     OW 6196   4.919   3.599   3.091
 1766SOL    HW1 6197   4.911   3.550   3.178
 1766SOL    HW2 6198   4.934   3.697   3.109
 1767SOL     OW 6199   6.544   4.080   3.144
 1767SOL    HW1 6200   6.576   4.035   3.227
 1767SOL    HW2 6201   6.457   4.125   3.162
 1768SOL     OW 6202   3.556   1.437   4.946
 1768SOL    HW1 6203   3.633   1.372   4.943
 1768SOL    HW2 6204   3.470   1.387   4.935
 1769SOL     OW 6205   4.503   2.605   5.147
 1769SOL    HW1 6206   4.557   2.630   5.066
 1769SOL    HW2 6207   4.461   2.687   5.185
 1770SOL     OW 6208   0.273   5.327   4.452
 1770SOL    HW1 6209   0.358   5.274   4.447
 1770SOL    HW2 6210   0.248   5.357   4.360
 1771SOL     OW 6211   2.037   4.872   0.247
 1771SOL    HW1 6212   2.054   4.970   0.240
 1771SOL    HW2 6213   2.091   4.823   0.180
 1772SOL     OW 6214   3.163   6.235   3.507
 1772SOL    HW1 6215   3.215   6.154   3.534
 1772SOL    HW2 6216   3.223   6.315   3.512
 1773SOL     OW 6217   2.837   4.896   6.156
 1773SOL    HW1 6218   2.853   4.798   6.148
 1773SOL    HW2 6219   2.780   4.927   6.081
 1774SOL     OW 6220   4.636   6.800   2.060
 1774SOL    HW1 6221   4.666   6.765   2.149
 1774SOL    HW2 6222   4.536   6.805   2.058
 1775SOL     OW 6223   1.120   4.721   3.745
 1775SOL    HW1 6224   1.204   4.764   3.778
 1775SOL    HW2 6225   1.112   4.629   3.784
 1776SOL     OW 6226   3.420   1.002   5.274
 1776SOL    HW1 6227   3.403   1.025   5.178
 1776SOL    HW2 6228   3.503   0.947   5.281
 1777SOL     OW 6229   3.629   5.188   5.940
 1777SOL    HW1 6230   3.550   5.130   5.960
 1777SOL    HW2 6231   3.644   5.192   5.841
 1778SOL     OW 6232   4.765   2.563   5.280
 1778SOL    HW1 6233   4.826   2.632   5.320
 1778SOL    HW2 6234   4.684   2.609   5.242
 1779SOL     OW 6235   4.377   1.309   4.717
 1779SOL    HW1 6236   4.400   1.392   4.768
 1779SOL    HW2 6237   4.456   1.247   4.718
 1780SOL     OW 6238   2.891   3.844   6.031
 1780SOL    HW1 6239   2.814   3.894   5.992
 1780SOL    HW2 6240   2.879   3.746   6.015
 1781SOL     OW 6241   4.217   5.438   3.764
 1781SOL    HW1 6242   4.223   5.359   3.703
 1781SOL    HW2 6243   4.131   5.486   3.747
 1782SOL     OW 6244   2.810   2.100   3.487
 1782SOL    HW1 6245   2.785   2.196   3.472
 1782SOL    HW2 6246   2.910   2.092   3.489
 1783SOL     OW 6247   1.678   3.759   6.433
 1783SOL    HW1 6248   1.742   3.757   6.356
 1783SOL    HW2 6249   1.684   3.848   6.479
 1784SOL     OW 6250   3.104   1.035   4.791
 1784SOL    HW1 6251   3.045   0.955   4.776
 1784SOL    HW2 6252   3.089   1.071   4.884
 1785SOL     OW 6253   5.268   5.540   3.300
 1785SOL    HW1 6254   5.304   5.451   3.327
 1785SOL    HW2 6255   5.192   5.565   3.361
 1786SOL     OW 6256   1.479   2.917   1.478
 1786SOL    HW1 6257   1.569   2.957   1.464
 1786SOL    HW2 6258   1.471   2.833   1.424
 1787SOL     OW 6259   2.462   0.898   4.438
 1787SOL    HW1 6260   2.515   0.957   4.377
 1787SOL    HW2 6261   2.438   0.949   4.520
 1788SOL     OW 6262   3.034   3.110   0.191
 1788SOL    HW1 6263   3.083   3.184   0.147
 1788SOL    HW2 6264   2.996   3.142   0.278
 1789SOL     OW 6265   6.656   1.900   2.437
 1789SOL    HW1 6266   6.729   1.903   2.368
 1789SOL    HW2 6267   6.569   1.879   2.393
 1790SOL     OW 6268   4.060   6.571   4.289
 1790SOL    HW1 6269   4.033   6.667   4.302
 1790SOL    HW2 6270   4.020   6.516   4.362
 1791SOL     OW 6271   0.126   1.543   4.175
 1791SOL    HW1 6272   0.102   1.522   4.270
 1791SOL    HW2 6273   0.192   1.618   4.173
 1792SOL     OW 6274   6.973   2.284   3.930
 1792SOL    HW1 6275   6.928   2.276   4.019
 1792SOL    HW2 6276   0.012   2.359   3.932
 1793SOL     OW 6277   6.582   0.531   3.971
 1793SOL    HW1 6278   6.492   0.501   4.004
 1793SOL    HW2 6279   6.635   0.451   3.945
 1794SOL     OW 6280   5.470   5.832   6.178
 1794SOL    HW1 6281   5.376   5.841   6.144
 1794SOL    HW2 6282   5.514   5.922   6.176
 1795SOL     OW 6283   0.189   2.950   2.232
 1795SOL    HW1 6284   0.256   3.025   2.225
 1795SOL    HW2 6285   0.232   2.872   2.277
 1796SOL     OW 6286   1.968   0.859   4.097
 1796SOL    HW1 6287   2.042   0.864   4.030
 1796SOL    HW2 6288   2.007   0.844   4.188
 1797SOL     OW 6289   1.302   0.990   6.606
 1797SOL    HW1 6290   1.399   0.973   6.587
 1797SOL    HW2 6291   1.276   0.945   6.691
 1798SOL     OW 6292   5.144   2.063   5.121
 1798SOL    HW1 6293   5.076   2.117   5.171
 1798SOL    HW2 6294   5.109   2.041   5.030
 1799SOL     OW 6295   6.622   1.620   6.245
 1799SOL    HW1 6296   6.606   1.672   6.161
 1799SOL    HW2 6297   6.654   1.682   6.317
 1800SOL     OW 6298   4.455   5.441   3.008
 1800SOL    HW1 6299   4.513   5.370   3.048
 1800SOL    HW2 6300   4.487   5.462   2.916
 1801SOL     OW 6301   1.012   1.030   2.291
 1801SOL    HW1 6302   1.102   0.988   2.282
 1801SOL    HW2 6303   1.008   1.084   2.375
 1802SOL     OW 6304   5.464   5.111   2.058
 1802SOL    HW1 6305   5.412   5.192   2.083
 1802SOL    HW2 6306   5.482   5.056   2.140
 1803SOL     OW 6307   7.000   6.270   0.316
 1803SOL    HW1 6308   6.960   6.348   0.268
 1803SOL    HW2 6309   0.027   6.215   0.251
 1804SOL     OW 6310   2.152   4.094   6.033
 1804SOL    HW1 6311   2.181   4.047   5.949
 1804SOL    HW2 6312   2.110   4.181   6.010
 1805SOL     OW 6313   6.585   3.844   5.548
 1805SOL    HW1 6314   6.611   3.900   5.627
 1805SOL    HW2 6315   6.592   3.747   5.572
 1806SOL     OW 6316   1.471   0.875   0.313
 1806SOL    HW1 6317   1.560   0.832   0.323
 1806SOL    HW2 6318   1.399   0.807   0.332
 1807SOL     OW 6319   4.919   2.466   6.065
 1807SOL    HW1 6320   4.914   2.508   5.974
 1807SOL    HW2 6321   4.838   2.409   6.079
 1808SOL     OW 6322   0.013   3.488   6.139
 1808SOL    HW1 6323   0.001   3.389   6.132
 1808SOL    HW2 6324   0.066   3.521   6.061
 1809SOL     OW 6325   2.094   3.012   4.215
 1809SOL    HW1 6326   2.159   3.001   4.140
 1809SOL    HW2 6327   2.142   3.042   4.297
 1810SOL     OW 6328   2.807   0.932   5.355
 1810SOL    HW1 6329   2.856   1.001   5.407
 1810SOL    HW2 6330   2.873   0.874   5.306
 1811SOL     OW 6331   4.484   4.593   3.677
 1811SOL    HW1 6332   4.525   4.616   3.589
 1811SOL    HW2 6333   4.504   4.498   3.700
 1812SOL     OW 6334   4.044   6.629   6.210
 1812SOL    HW1 6335   3.950   6.661   6.225
 1812SOL    HW2 6336   4.088   6.613   6.299
 1813SOL     OW 6337   5.082   4.636   0.400
 1813SOL    HW1 6338   5.004   4.574   0.387
 1813SOL    HW2 6339   5.108   4.676   0.313
 1814SOL     OW 6340   0.113   0.852   0.260
 1814SOL    HW1 6341   0.035   0.851   0.197
 1814SOL    HW2 6342   0.134   0.758   0.288
 1815SOL     OW 6343   5.929   2.381   1.699
 1815SOL    HW1 6344   5.844   2.418   1.660
 1815SOL    HW2 6345   5.956   2.437   1.777
 1816SOL     OW 6346   2.229   4.028   1.079
 1816SOL    HW1 6347   2.240   4.003   1.176
 1816SOL    HW2 6348   2.132   4.022   1.055
 1817SOL     OW 6349   2.877   6.691   3.463
 1817SOL    HW1 6350   2.832   6.648   3.384
 1817SOL    HW2 6351   2.973   6.708   3.441
 1818SOL     OW 6352   1.843   6.962   2.370
 1818SOL    HW1 6353   1.828   0.002   2.443
 1818SOL    HW2 6354   1.910   6.999   2.305
 1819SOL     OW 6355   0.231   5.194   1.565
 1819SOL    HW1 6356   0.140   5.156   1.581
 1819SOL    HW2 6357   0.240   5.221   1.469
 1820SOL     OW 6358   4.517   0.752   2.862
 1820SOL    HW1 6359   4.424   0.786   2.878
 1820SOL    HW2 6360   4.555   0.795   2.779
 1821SOL     OW 6361   2.662   0.487   1.744
 1821SOL    HW1 6362   2.699   0.398   1.771
 1821SOL    HW2 6363   2.732   0.557   1.759
 1822SOL     OW 6364   2.401   2.669   1.300
 1822SOL    HW1 6365   2.447   2.613   1.369
 1822SOL    HW2 6366   2.430   2.639   1.209
 1823SOL     OW 6367   2.773   5.661   3.339
 1823SOL    HW1 6368   2.749   5.751   3.376
 1823SOL    HW2 6369   2.690   5.607   3.327
 1824SOL     OW 6370   3.810   3.533   1.485
 1824SOL    HW1 6371   3.877   3.549   1.559
 1824SOL    HW2 6372   3.767   3.444   1.499
 1825SOL     OW 6373   1.294   1.897   3.857
 1825SOL    HW1 6374   1.331   1.915   3.766
 1825SOL    HW2 6375   1.332   1.812   3.893
 1826SOL     OW 6376   3.159   0.155   0.772
 1826SOL    HW1 6377   3.164   0.092   0.849
 1826SOL    HW2 6378   3.094   0.228   0.791
 1827SOL     OW 6379   0.280   5.732   1.403
 1827SOL    HW1 6380   0.230   5.769   1.482
 1827SOL    HW2 6381   0.359   5.681   1.435
 1828SOL     OW 6382   0.978   2.262   1.008
 1828SOL    HW1 6383   1.002   2.191   0.941
 1828SOL    HW2 6384   1.026   2.347   0.986
 1829SOL     OW 6385   2.715   0.458   2.993
 1829SOL    HW1 6386   2.688   0.554   2.999
 1829SOL    HW2 6387   2.801   0.445   3.043
 1830SOL     OW 6388   6.121   6.415   4.007
 1830SOL    HW1 6389   6.208   6.411   3.958
 1830SOL    HW2 6390   6.132   6.471   4.090
 1831SOL     OW 6391   6.182   0.267   2.658
 1831SOL    HW1 6392   6.145   0.179   2.688
 1831SOL    HW2 6393   6.204   0.323   2.739
 1832SOL     OW 6394   4.588   1.537   1.666
 1832SOL    HW1 6395   4.682   1.571   1.663
 1832SOL    HW2 6396   4.553   1.529   1.573
 1833SOL     OW 6397   5.202   0.363   6.421
 1833SOL    HW1 6398   5.104   0.377   6.410
 1833SOL    HW2 6399   5.251   0.399   6.342
 1834SOL     OW 6400   2.780   3.972   0.413
 1834SOL    HW1 6401   2.793   4.010   0.505
 1834SOL    HW2 6402   2.689   3.998   0.380
 1835SOL     OW 6403   0.021   3.933   2.342
 1835SOL    HW1 6404   0.064   4.008   2.393
 1835SOL    HW2 6405   0.020   3.956   2.244
 1836SOL     OW 6406   4.799   2.833   1.282
 1836SOL    HW1 6407   4.767   2.739   1.290
 1836SOL    HW2 6408   4.818   2.869   1.373
 1837SOL     OW 6409   0.930   0.963   5.188
 1837SOL    HW1 6410   0.936   1.048   5.135
 1837SOL    HW2 6411   0.894   0.984   5.279
 1838SOL     OW 6412   0.061   1.535   4.479
 1838SOL    HW1 6413   0.005   1.468   4.528
 1838SOL    HW2 6414   0.118   1.585   4.544
 1839SOL     OW 6415   5.744   2.203   5.277
 1839SOL    HW1 6416   5.645   2.211   5.260
 1839SOL    HW2 6417   5.759   2.180   5.373
 1840SOL     OW 6418   3.408   6.652   1.536
 1840SOL    HW1 6419   3.377   6.744   1.562
 1840SOL    HW2 6420   3.436   6.602   1.617
 1841SOL     OW 6421   2.312   1.138   3.780
 1841SOL    HW1 6422   2.225   1.090   3.784
 1841SOL    HW2 6423   2.386   1.076   3.807
 1842SOL     OW 6424   1.597   5.715   0.342
 1842SOL    HW1 6425   1.542   5.709   0.425
 1842SOL    HW2 6426   1.544   5.683   0.264
 1843SOL     OW 6427   6.096   2.324   3.018
 1843SOL    HW1 6428   6.059   2.396   3.077
 1843SOL    HW2 6429   6.178   2.286   3.060
 1844SOL     OW 6430   3.103   0.123   5.723
 1844SOL    HW1 6431   3.126   0.194   5.789
 1844SOL    HW2 6432   3.184   0.066   5.707
 1845SOL     OW 6433   2.146   0.066   5.442
 1845SOL    HW1 6434   2.185   7.003   5.419
 1845SOL    HW2 6435   2.073   0.088   5.378
 1846SOL     OW 6436   3.962   2.396   1.269
 1846SOL    HW1 6437   4.015   2.312   1.261
 1846SOL    HW2 6438   4.000   2.465   1.208
 1847SOL     OW 6439   1.950   1.222   6.943
 1847SOL    HW1 6440   1.950   1.137   6.996
 1847SOL    HW2 6441   1.870   1.225   6.883
 1848SOL     OW 6442   0.821   6.664   3.677
 1848SOL    HW1 6443   0.756   6.678   3.602
 1848SOL    HW2 6444   0.852   6.569   3.677
 1849SOL     OW 6445   3.787   2.460   0.341
 1849SOL    HW1 6446   3.872   2.493   0.381
 1849SOL    HW2 6447   3.796   2.364   0.315
 1850SOL     OW 6448   1.055   2.458   2.095
 1850SOL    HW1 6449   1.114   2.444   2.174
 1850SOL    HW2 6450   0.967   2.496   2.126
 1851SOL     OW 6451   7.018   2.642   0.711
 1851SOL    HW1 6452   0.071   2.660   0.653
 1851SOL    HW2 6453   6.936   2.675   0.665
 1852SOL     OW 6454   6.366   4.418   2.122
 1852SOL    HW1 6455   6.336   4.333   2.077
 1852SOL    HW2 6456   6.309   4.494   2.091
 1853SOL     OW 6457   6.962   2.399   2.669
 1853SOL    HW1 6458   6.863   2.387   2.679
 1853SOL    HW2 6459   7.009   2.352   2.745
 1854SOL     OW 6460   2.362   6.219   2.942
 1854SOL    HW1 6461   2.408   6.138   2.907
 1854SOL    HW2 6462   2.345   6.283   2.867
 1855SOL     OW 6463   5.445   2.984   5.676
 1855SOL    HW1 6464   5.482   3.066   5.721
 1855SOL    HW2 6465   5.380   2.940   5.738
 1856SOL     OW 6466   6.251   3.748   5.875
 1856SOL    HW1 6467   6.246   3.729   5.777
 1856SOL    HW2 6468   6.159   3.742   5.914
 1857SOL     OW 6469   4.781   1.618   5.641
 1857SOL    HW1 6470   4.869   1.658   5.616
 1857SOL    HW2 6471   4.769   1.620   5.740
 1858SOL     OW 6472   6.057   3.875   3.952
 1858SOL    HW1 6473   6.106   3.962   3.964
 1858SOL    HW2 6474   6.024   3.869   3.858
 1859SOL     OW 6475   5.049   2.138   2.924
 1859SOL    HW1 6476   5.126   2.152   2.862
 1859SOL    HW2 6477   5.048   2.043   2.955
 1860SOL     OW 6478   6.034   0.420   5.195
 1860SOL    HW1 6479   6.119   0.406   5.245
 1860SOL    HW2 6480   5.995   0.332   5.169
 1861SOL     OW 6481   6.018   6.819   2.211
 1861SOL    HW1 6482   5.982   6.853   2.125
 1861SOL    HW2 6483   6.035   6.721   2.204
 1862SOL     OW 6484   2.150   0.194   6.194
 1862SOL    HW1 6485   2.175   0.277   6.244
 1862SOL    HW2 6486   2.233   0.141   6.174
 1863SOL     OW 6487   0.960   2.300   2.830
 1863SOL    HW1 6488   1.053   2.311   2.793
 1863SOL    HW2 6489   0.943   2.203   2.848
 1864SOL     OW 6490   1.265   0.426   5.245
 1864SOL    HW1 6491   1.196   0.446   5.175
 1864SOL    HW2 6492   1.354   0.414   5.201
 1865SOL     OW 6493   3.201   6.609   6.424
 1865SOL    HW1 6494   3.287   6.657   6.443
 1865SOL    HW2 6495   3.191   6.597   6.326
 1866SOL     OW 6496   4.236   4.983   3.359
 1866SOL    HW1 6497   4.267   5.062   3.413
 1866SOL    HW2 6498   4.147   4.953   3.393
 1867SOL     OW 6499   0.500   4.085   0.270
 1867SOL    HW1 6500   0.517   3.993   0.303
 1867SOL    HW2 6501   0.546   4.151   0.329
 1868SOL     OW 6502   4.746   3.721   6.606
 1868SOL    HW1 6503   4.765   3.808   6.653
 1868SOL    HW2 6504   4.687   3.739   6.527
 1869SOL     OW 6505   5.970   2.899   5.645
 1869SOL    HW1 6506   5.885   2.949   5.661
 1869SOL    HW2 6507   6.022   2.944   5.573
 1870SOL     OW 6508   1.178   3.408   5.635
 1870SOL    HW1 6509   1.260   3.465   5.622
 1870SOL    HW2 6510   1.198   3.337   5.703
 1871SOL     OW 6511   0.707   0.762   0.066
 1871SOL    HW1 6512   0.672   0.681   0.113
 1871SOL    HW2 6513   0.766   0.813   0.127
 1872SOL     OW 6514   3.930   1.927   6.644
 1872SOL    HW1 6515   4.023   1.897   6.623
 1872SOL    HW2 6516   3.934   2.007   6.703
 1873SOL     OW 6517   5.090   1.081   5.615
 1873SOL    HW1 6518   5.165   1.018   5.638
 1873SOL    HW2 6519   5.037   1.101   5.697
 1874SOL     OW 6520   3.316   1.638   0.485
 1874SOL    HW1 6521   3.390   1.683   0.536
 1874SOL    HW2 6522   3.233   1.694   0.491
 1875SOL     OW 6523   0.383   0.654   0.095
 1875SOL    HW1 6524   0.464   0.655   0.154
 1875SOL    HW2 6525   0.410   0.631   0.002
 1876SOL     OW 6526   3.241   6.281   6.098
 1876SOL    HW1 6527   3.230   6.222   6.018
 1876SOL    HW2 6528   3.339   6.296   6.115
 1877SOL     OW 6529   0.681   0.665   2.872
 1877SOL    HW1 6530   0.624   0.707   2.801
 1877SOL    HW2 6531   0.623   0.612   2.934
 1878SOL     OW 6532   6.796   2.527   3.896
 1878SOL    HW1 6533   6.806   2.484   3.985
 1878SOL    HW2 6534   6.726   2.478   3.844
 1879SOL     OW 6535   1.423   5.011   4.032
 1879SOL    HW1 6536   1.472   5.035   3.948
 1879SOL    HW2 6537   1.432   5.086   4.098
 1880SOL     OW 6538   6.747   0.877   4.460
 1880SOL    HW1 6539   6.785   0.917   4.377
 1880SOL    HW2 6540   6.734   0.778   4.447
 1881SOL     OW 6541   6.335   2.935   2.533
 1881SOL    HW1 6542   6.349   2.970   2.625
 1881SOL    HW2 6543   6.344   3.009   2.467
 1882SOL     OW 6544   0.805   3.109   6.596
 1882SOL    HW1 6545   0.886   3.167   6.593
 1882SOL    HW2 6546   0.729   3.160   6.637
 1883SOL     OW 6547   1.035   2.044   3.867
 1883SOL    HW1 6548   0.952   1.997   3.839
 1883SOL    HW2 6549   1.108   1.977   3.881
 1884SOL     OW 6550   6.563   2.930   0.464
 1884SOL    HW1 6551   6.588   2.905   0.371
 1884SOL    HW2 6552   6.565   2.849   0.522
 1885SOL     OW 6553   1.365   2.455   6.182
 1885SOL    HW1 6554   1.461   2.432   6.170
 1885SOL    HW2 6555   1.330   2.495   6.097
 1886SOL     OW 6556   2.607   0.473   1.243
 1886SOL    HW1 6557   2.586   0.571   1.241
 1886SOL    HW2 6558   2.638   0.447   1.335
 1887SOL     OW 6559   1.036   5.795   4.957
 1887SOL    HW1 6560   1.117   5.849   4.979
 1887SOL    HW2 6561   0.958   5.829   5.008
 1888SOL     OW 6562   2.431   2.507   6.820
 1888SOL    HW1 6563   2.345   2.484   6.867
 1888SOL    HW2 6564   2.501   2.529   6.888
 1889SOL     OW 6565   0.525   2.919   6.169
 1889SOL    HW1 6566   0.529   2.975   6.251
 1889SOL    HW2 6567   0.535   2.976   6.088
 1890SOL     OW 6568   1.563   6.564   4.726
 1890SOL    HW1 6569   1.464   6.574   4.731
 1890SOL    HW2 6570   1.603   6.648   4.687
 1891SOL     OW 6571   5.380   1.977   1.787
 1891SOL    HW1 6572   5.399   1.930   1.700
 1891SOL    HW2 6573   5.289   2.018   1.784
 1892SOL     OW 6574   2.424   1.105   2.535
 1892SOL    HW1 6575   2.326   1.125   2.528
 1892SOL    HW2 6576   2.475   1.191   2.544
 1893SOL     OW 6577   3.678   2.822   6.961
 1893SOL    HW1 6578   3.588   2.835   7.004
 1893SOL    HW2 6579   3.717   2.735   6.992
 1894SOL     OW 6580   3.708   3.902   3.725
 1894SOL    HW1 6581   3.640   3.868   3.791
 1894SOL    HW2 6582   3.761   3.825   3.689
 1895SOL     OW 6583   5.105   0.396   1.618
 1895SOL    HW1 6584   5.010   0.395   1.651
 1895SOL    HW2 6585   5.129   0.306   1.583
 1896SOL     OW 6586   5.739   0.175   1.289
 1896SOL    HW1 6587   5.688   0.237   1.229
 1896SOL    HW2 6588   5.724   0.202   1.384
 1897SOL     OW 6589   1.443   4.705   1.501
 1897SOL    HW1 6590   1.492   4.673   1.420
 1897SOL    HW2 6591   1.383   4.631   1.534
 1898SOL     OW 6592   2.309   5.934   3.079
 1898SOL    HW1 6593   2.286   6.028   3.052
 1898SOL    HW2 6594   2.238   5.872   3.046
 1899SOL     OW 6595   1.279   0.954   2.278
 1899SOL    HW1 6596   1.319   0.864   2.262
 1899SOL    HW2 6597   1.335   1.005   2.343
 1900SOL     OW 6598   1.262   0.314   6.160
 1900SOL    HW1 6599   1.181   0.258   6.143
 1900SOL    HW2 6600   1.334   0.258   6.201
 1901SOL     OW 6601   2.118   1.497   0.801
 1901SOL    HW1 6602   2.201   1.445   0.819
 1901SOL    HW2 6603   2.056   1.490   0.879
 1902SOL     OW 6604   2.076   2.188   4.726
 1902SOL    HW1 6605   2.058   2.110   4.667
 1902SOL    HW2 6606   2.164   2.175   4.773
 1903SOL     OW 6607   6.797   3.282   2.261
 1903SOL    HW1 6608   6.821   3.345   2.335
 1903SOL    HW2 6609   6.843   3.311   2.177
 1904SOL     OW 6610   5.355   5.750   3.557
 1904SOL    HW1 6611   5.285   5.803   3.606
 1904SOL    HW2 6612   5.406   5.812   3.497
 1905SOL     OW 6613   1.508   0.324   4.001
 1905SOL    HW1 6614   1.495   0.405   4.058
 1905SOL    HW2 6615   1.432   0.261   4.013
 1906SOL     OW 6616   2.057   0.415   5.338
 1906SOL    HW1 6617   2.147   0.429   5.379
 1906SOL    HW2 6618   2.042   0.318   5.323
 1907SOL     OW 6619   3.736   0.472   2.111
 1907SOL    HW1 6620   3.678   0.503   2.036
 1907SOL    HW2 6621   3.719   0.528   2.192
 1908SOL     OW 6622   3.810   6.957   5.637
 1908SOL    HW1 6623   3.765   0.018   5.654
 1908SOL    HW2 6624   3.799   6.932   5.541
 1909SOL     OW 6625   0.326   3.647   2.805
 1909SOL    HW1 6626   0.315   3.582   2.729
 1909SOL    HW2 6627   0.387   3.721   2.776
 1910SOL     OW 6628   0.379   3.553   6.634
 1910SOL    HW1 6629   0.423   3.556   6.544
 1910SOL    HW2 6630   0.327   3.469   6.643
 1911SOL     OW 6631   6.571   3.313   5.120
 1911SOL    HW1 6632   6.616   3.234   5.162
 1911SOL    HW2 6633   6.472   3.302   5.126
 1912SOL     OW 6634   3.859   5.622   0.910
 1912SOL    HW1 6635   3.771   5.614   0.862
 1912SOL    HW2 6636   3.873   5.716   0.940
 1913SOL     OW 6637   2.201   6.493   4.886
 1913SOL    HW1 6638   2.129   6.534   4.830
 1913SOL    HW2 6639   2.265   6.564   4.915
 1914SOL     OW 6640   3.930   3.012   6.122
 1914SOL    HW1 6641   4.017   3.048   6.155
 1914SOL    HW2 6642   3.855   3.058   6.170
 1915SOL     OW 6643   3.870   1.976   5.190
 1915SOL    HW1 6644   3.870   1.925   5.104
 1915SOL    HW2 6645   3.947   2.039   5.192
 1916SOL     OW 6646   4.263   5.793   1.542
 1916SOL    HW1 6647   4.337   5.785   1.609
 1916SOL    HW2 6648   4.176   5.777   1.588
 1917SOL     OW 6649   2.620   2.891   6.086
 1917SOL    HW1 6650   2.584   2.979   6.117
 1917SOL    HW2 6651   2.546   2.824   6.080
 1918SOL     OW 6652   1.169   1.236   5.388
 1918SOL    HW1 6653   1.244   1.301   5.377
 1918SOL    HW2 6654   1.187   1.154   5.334
 1919SOL     OW 6655   2.052   0.523   1.867
 1919SOL    HW1 6656   1.980   0.497   1.931
 1919SOL    HW2 6657   2.100   0.603   1.901
 1920SOL     OW 6658   0.564   3.806   3.239
 1920SOL    HW1 6659   0.466   3.794   3.224
 1920SOL    HW2 6660   0.579   3.889   3.293
 1921SOL     OW 6661   1.362   3.906   6.036
 1921SOL    HW1 6662   1.353   3.927   5.939
 1921SOL    HW2 6663   1.388   3.988   6.086
 1922SOL     OW 6664   2.123   3.689   0.873
 1922SOL    HW1 6665   2.084   3.614   0.820
 1922SOL    HW2 6666   2.086   3.776   0.839
 1923SOL     OW 6667   3.917   0.891   5.461
 1923SOL    HW1 6668   3.961   0.808   5.497
 1923SOL    HW2 6669   3.941   0.902   5.365
 1924SOL     OW 6670   4.837   5.652   0.594
 1924SOL    HW1 6671   4.738   5.651   0.588
 1924SOL    HW2 6672   4.865   5.710   0.671
 1925SOL     OW 6673   1.487   4.960   0.863
 1925SOL    HW1 6674   1.480   4.896   0.940
 1925SOL    HW2 6675   1.562   5.023   0.878
 1926SOL     OW 6676   2.856   6.936   2.694
 1926SOL    HW1 6677   2.816   6.966   2.780
 1926SOL    HW2 6678   2.920   7.005   2.661
 1927SOL     OW 6679   2.395   4.349   0.025
 1927SOL    HW1 6680   2.472   4.290   7.024
 1927SOL    HW2 6681   2.423   4.405   0.103
 1928SOL     OW 6682   6.727   4.174   5.490
 1928SOL    HW1 6683   6.706   4.189   5.587
 1928SOL    HW2 6684   6.642   4.177   5.437
 1929SOL     OW 6685   1.943   6.642   1.671
 1929SOL    HW1 6686   1.996   6.651   1.587
 1929SOL    HW2 6687   1.908   6.549   1.679
 1930SOL     OW 6688   3.791   4.042   6.710
 1930SOL    HW1 6689   3.692   4.029   6.719
 1930SOL    HW2 6690   3.811   4.139   6.704
 1931SOL     OW 6691   1.420   2.678   1.341
 1931SOL    HW1 6692   1.327   2.642   1.334
 1931SOL    HW2 6693   1.485   2.602   1.350
 1932SOL     OW 6694   4.671   2.741   3.160
 1932SOL    HW1 6695   4.653   2.708   3.067
 1932SOL    HW2 6696   4.622   2.827   3.175
 1933SOL     OW 6697   1.860   3.163   0.975
 1933SOL    HW1 6698   1.883   3.160   1.072
 1933SOL    HW2 6699   1.937   3.131   0.920
 1934SOL     OW 6700   0.065   6.755   5.338
 1934SOL    HW1 6701   0.002   6.691   5.383
 1934SOL    HW2 6702   0.021   6.793   5.256
 1935SOL     OW 6703   4.263   5.921   3.924
 1935SOL    HW1 6704   4.303   5.840   3.967
 1935SOL    HW2 6705   4.281   6.002   3.980
 1936SOL     OW 6706   5.593   4.012   3.553
 1936SOL    HW1 6707   5.623   3.956   3.630
 1936SOL    HW2 6708   5.666   4.016   3.484
 1937SOL     OW 6709   4.216   6.204   0.840
 1937SOL    HW1 6710   4.276   6.134   0.878
 1937SOL    HW2 6711   4.240   6.221   0.745
 1938SOL     OW 6712   1.778   1.627   1.806
 1938SOL    HW1 6713   1.768   1.544   1.751
 1938SOL    HW2 6714   1.732   1.614   1.894
 1939SOL     OW 6715   6.729   6.687   4.220
 1939SOL    HW1 6716   6.746   6.744   4.139
 1939SOL    HW2 6717   6.636   6.650   4.215
 1940SOL     OW 6718   5.830   5.310   1.040
 1940SOL    HW1 6719   5.814   5.408   1.039
 1940SOL    HW2 6720   5.818   5.273   0.948
 1941SOL     OW 6721   1.089   3.484   4.368
 1941SOL    HW1 6722   1.038   3.514   4.287
 1941SOL    HW2 6723   1.052   3.397   4.400
 1942SOL     OW 6724   5.479   3.174   1.335
 1942SOL    HW1 6725   5.502   3.236   1.410
 1942SOL    HW2 6726   5.514   3.212   1.249
 1943SOL     OW 6727   2.224   6.887   3.313
 1943SOL    HW1 6728   2.256   6.975   3.348
 1943SOL    HW2 6729   2.273   6.813   3.359
 1944SOL     OW 6730   6.255   2.997   0.249
 1944SOL    HW1 6731   6.330   3.037   0.301
 1944SOL    HW2 6732   6.290   2.961   0.162
 1945SOL     OW 6733   4.000   5.352   0.538
 1945SOL    HW1 6734   3.946   5.272   0.510
 1945SOL    HW2 6735   4.081   5.360   0.480
 1946SOL     OW 6736   6.005   6.455   0.854
 1946SOL    HW1 6737   5.934   6.519   0.825
 1946SOL    HW2 6738   6.070   6.442   0.779
 1947SOL     OW 6739   5.181   6.158   4.220
 1947SOL    HW1 6740   5.149   6.106   4.299
 1947SOL    HW2 6741   5.192   6.254   4.245
 1948SOL     OW 6742   6.293   5.252   3.227
 1948SOL    HW1 6743   6.334   5.338   3.259
 1948SOL    HW2 6744   6.291   5.186   3.301
 1949SOL     OW 6745   3.174   3.519   6.528
 1949SOL    HW1 6746   3.184   3.610   6.568
 1949SOL    HW2 6747   3.163   3.527   6.429
 1950SOL     OW 6748   3.823   2.982   1.051
 1950SOL    HW1 6749   3.885   2.931   1.110
 1950SOL    HW2 6750   3.874   3.053   1.002
 1951SOL     OW 6751   6.818   4.928   6.871
 1951SOL    HW1 6752   6.727   4.966   6.887
 1951SOL    HW2 6753   6.839   4.934   6.773
 1952SOL     OW 6754   4.866   4.130   1.289
 1952SOL    HW1 6755   4.962   4.157   1.291
 1952SOL    HW2 6756   4.836   4.104   1.381
 1953SOL     OW 6757   6.112   1.557   5.665
 1953SOL    HW1 6758   6.051   1.629   5.632
 1953SOL    HW2 6759   6.151   1.507   5.588
 1954SOL     OW 6760   6.789   0.384   1.301
 1954SOL    HW1 6761   6.800   0.480   1.329
 1954SOL    HW2 6762   6.832   0.326   1.370
 1955SOL     OW 6763   0.673   0.296   3.186
 1955SOL    HW1 6764   0.630   0.353   3.116
 1955SOL    HW2 6765   0.771   0.315   3.188
 1956SOL     OW 6766   4.783   6.703   1.589
 1956SOL    HW1 6767   4.702   6.755   1.561
 1956SOL    HW2 6768   4.793   6.707   1.688
 1957SOL     OW 6769   5.662   4.341   3.686
 1957SOL    HW1 6770   5.619   4.430   3.673
 1957SOL    HW2 6771   5.619   4.293   3.762
 1958SOL     OW 6772   4.544   1.842   2.119
 1958SOL    HW1 6773   4.547   1.940   2.141
 1958SOL    HW2 6774   4.526   1.790   2.202
 1959SOL     OW 6775   1.308   0.103   3.966
 1959SOL    HW1 6776   1.273   0.016   3.930
 1959SOL    HW2 6777   1.313   0.098   4.066
 1960SOL     OW 6778   0.371   4.024   2.472
 1960SOL    HW1 6779   0.427   3.992   2.396
 1960SOL    HW2 6780   0.316   4.102   2.442
 1961SOL     OW 6781   6.509   4.439   5.051
 1961SOL    HW1 6782   6.598   4.457   5.092
 1961SOL    HW2 6783   6.438   4.486   5.103
 1962SOL     OW 6784   1.497   6.363   2.581
 1962SOL    HW1 6785   1.595   6.366   2.597
 1962SOL    HW2 6786   1.469   6.440   2.523
 1963SOL     OW 6787   0.903   1.822   1.444
 1963SOL    HW1 6788   0.944   1.849   1.356
 1963SOL    HW2 6789   0.877   1.904   1.495
 1964SOL     OW 6790   4.507   4.791   1.729
 1964SOL    HW1 6791   4.531   4.695   1.714
 1964SOL    HW2 6792   4.502   4.838   1.640
 1965SOL     OW 6793   1.340   3.396   4.227
 1965SOL    HW1 6794   1.250   3.429   4.254
 1965SOL    HW2 6795   1.399   3.474   4.203
 1966SOL     OW 6796   0.691   6.025   1.195
 1966SOL    HW1 6797   0.655   5.958   1.259
 1966SOL    HW2 6798   0.791   6.018   1.192
 1967SOL     OW 6799   5.395   3.061   4.328
 1967SOL    HW1 6800   5.434   2.970   4.316
 1967SOL    HW2 6801   5.422   3.097   4.418
 1968SOL     OW 6802   1.747   0.545   5.534
 1968SOL    HW1 6803   1.804   0.512   5.610
 1968SOL    HW2 6804   1.745   0.476   5.461
 1969SOL     OW 6805   2.565   1.502   0.630
 1969SOL    HW1 6806   2.523   1.420   0.668
 1969SOL    HW2 6807   2.665   1.490   0.626
 1970SOL     OW 6808   2.309   6.900   5.805
 1970SOL    HW1 6809   2.312   6.820   5.866
 1970SOL    HW2 6810   2.281   6.981   5.857
 1971SOL     OW 6811   0.377   0.514   5.264
 1971SOL    HW1 6812   0.358   0.508   5.362
 1971SOL    HW2 6813   0.419   0.430   5.233
 1972SOL     OW 6814   5.482   2.257   1.165
 1972SOL    HW1 6815   5.396   2.263   1.114
 1972SOL    HW2 6816   5.475   2.184   1.233
 1973SOL     OW 6817   2.853   3.545   0.505
 1973SOL    HW1 6818   2.901   3.616   0.454
 1973SOL    HW2 6819   2.820   3.474   0.443
 1974SOL     OW 6820   5.147   0.747   4.729
 1974SOL    HW1 6821   5.241   0.758   4.760
 1974SOL    HW2 6822   5.134   0.793   4.642
 1975SOL     OW 6823   1.866   1.830   4.394
 1975SOL    HW1 6824   1.908   1.744   4.367
 1975SOL    HW2 6825   1.790   1.813   4.457
 1976SOL     OW 6826   6.861   6.715   0.484
 1976SOL    HW1 6827   6.781   6.694   0.427
 1976SOL    HW2 6828   6.944   6.684   0.438
 1977SOL     OW 6829   1.871   3.011   4.903
 1977SOL    HW1 6830   1.788   3.064   4.917
 1977SOL    HW2 6831   1.918   3.043   4.821
 1978SOL     OW 6832   2.162   5.776   3.388
 1978SOL    HW1 6833   2.196   5.714   3.318
 1978SOL    HW2 6834   2.192   5.869   3.368
 1979SOL     OW 6835   5.578   4.815   6.884
 1979SOL    HW1 6836   5.482   4.801   6.861
 1979SOL    HW2 6837   5.589   4.905   6.926
 1980SOL     OW 6838   3.596   6.992   4.061
 1980SOL    HW1 6839   3.593   6.979   4.160
 1980SOL    HW2 6840   3.527   6.934   4.017
 1981SOL     OW 6841   6.229   3.779   2.102
 1981SOL    HW1 6842   6.160   3.780   2.174
 1981SOL    HW2 6843   6.240   3.686   2.067
 1982SOL     OW 6844   0.016   4.289   4.041
 1982SOL    HW1 6845   6.970   4.302   3.974
 1982SOL    HW2 6846   7.017   4.334   4.127
 1983SOL     OW 6847   1.612   0.183   1.481
 1983SOL    HW1 6848   1.544   0.214   1.415
 1983SOL    HW2 6849   1.675   0.119   1.437
 1984SOL     OW 6850   5.425   3.070   4.819
 1984SOL    HW1 6851   5.340   3.036   4.779
 1984SOL    HW2 6852   5.431   3.040   4.914
 1985SOL     OW 6853   0.256   6.342   2.795
 1985SOL    HW1 6854   0.315   6.265   2.818
 1985SOL    HW2 6855   0.292   6.426   2.837
 1986SOL     OW 6856   2.892   0.985   0.063
 1986SOL    HW1 6857   2.844   0.934   7.018
 1986SOL    HW2 6858   2.989   0.958   0.064
 1987SOL     OW 6859   2.425   1.773   3.176
 1987SOL    HW1 6860   2.524   1.776   3.191
 1987SOL    HW2 6861   2.406   1.793   3.079
 1988SOL     OW 6862   6.672   3.140   0.722
 1988SOL    HW1 6863   6.592   3.146   0.781
 1988SOL    HW2 6864   6.699   3.232   0.692
 1989SOL     OW 6865   1.801   5.628   4.986
 1989SOL    HW1 6866   1.760   5.714   4.956
 1989SOL    HW2 6867   1.743   5.585   5.055
 1990SOL     OW 6868   4.073   5.751   0.801
 1990SOL    HW1 6869   4.054   5.789   0.711
 1990SOL    HW2 6870   3.999   5.690   0.828
 1991SOL     OW 6871   2.870   5.947   6.774
 1991SOL    HW1 6872   2.862   5.978   6.869
 1991SOL    HW2 6873   2.917   6.017   6.719
 1992SOL     OW 6874   0.142   0.239   0.295
 1992SOL    HW1 6875   0.175   0.333   0.296
 1992SOL    HW2 6876   0.162   0.198   0.206
 1993SOL     OW 6877   3.718   1.825   5.957
 1993SOL    HW1 6878   3.630   1.871   5.950
 1993SOL    HW2 6879   3.766   1.830   5.869
 1994SOL     OW 6880   0.032   2.225   0.609
 1994SOL    HW1 6881   7.015   2.279   0.681
 1994SOL    HW2 6882   0.114   2.272   0.577
 1995SOL     OW 6883   4.766   2.847   3.655
 1995SOL    HW1 6884   4.838   2.847   3.586
 1995SOL    HW2 6885   4.678   2.826   3.612
 1996SOL     OW 6886   2.490   2.266   0.828
 1996SOL    HW1 6887   2.554   2.341   0.813
 1996SOL    HW2 6888   2.539   2.180   0.834
 1997SOL     OW 6889   3.792   2.138   4.550
 1997SOL    HW1 6890   3.750   2.155   4.461
 1997SOL    HW2 6891   3.723   2.150   4.622
 1998SOL     OW 6892   1.710   3.362   0.663
 1998SOL    HW1 6893   1.747   3.270   0.672
 1998SOL    HW2 6894   1.616   3.364   0.699
 1999SOL     OW 6895   1.998   6.376   6.257
 1999SOL    HW1 6896   1.967   6.460   6.300
 1999SOL    HW2 6897   2.091   6.388   6.223
 2000SOL     OW 6898   3.941   2.583   5.845
 2000SOL    HW1 6899   4.040   2.584   5.859
 2000SOL    HW2 6900   3.918   2.521   5.770
 2001SOL     OW 6901   2.336   0.908   1.491
 2001SOL    HW1 6902   2.375   0.923   1.400
 2001SOL    HW2 6903   2.398   0.851   1.545
 2002SOL     OW 6904   0.515   4.441   0.477
 2002SOL    HW1 6905   0.535   4.360   0.532
 2002SOL    HW2 6906   0.441   4.493   0.520
 2003SOL     OW 6907   6.528   4.965   2.458
 2003SOL    HW1 6908   6.622   4.971   2.492
 2003SOL    HW2 6909   6.510   4.873   2.425
 2004SOL     OW 6910   5.717   1.173   4.066
 2004SOL    HW1 6911   5.647   1.106   4.090
 2004SOL    HW2 6912   5.791   1.170   4.133
 2005SOL     OW 6913   0.277   4.516   0.655
 2005SOL    HW1 6914   0.328   4.540   0.737
 2005SOL    HW2 6915   0.258   4.599   0.602
 2006SOL     OW 6916   5.556   0.364   3.246
 2006SOL    HW1 6917   5.535   0.447   3.195
 2006SOL    HW2 6918   5.655   0.355   3.257
 2007SOL     OW 6919   5.012   4.250   1.013
 2007SOL    HW1 6920   4.916   4.231   1.031
 2007SOL    HW2 6921   5.068   4.213   1.088
 2008SOL     OW 6922   2.169   3.948   3.533
 2008SOL    HW1 6923   2.214   3.867   3.571
 2008SOL    HW2 6924   2.077   3.956   3.573
 2009SOL     OW 6925   5.048   0.152   2.467
 2009SOL    HW1 6926   5.093   0.121   2.551
 2009SOL    HW2 6927   5.018   0.247   2.478
 2010SOL     OW 6928   2.997   1.567   1.790
 2010SOL    HW1 6929   3.068   1.635   1.808
 2010SOL    HW2 6930   2.907   1.609   1.801
 2011SOL     OW 6931   0.495   0.861   4.771
 2011SOL    HW1 6932   0.466   0.946   4.814
 2011SOL    HW2 6933   0.471   0.863   4.674
 2012SOL     OW 6934   0.971   3.902   2.439
 2012SOL    HW1 6935   0.893   3.963   2.454
 2012SOL    HW2 6936   1.036   3.946   2.377
 2013SOL     OW 6937   6.032   3.026   3.487
 2013SOL    HW1 6938   6.062   2.994   3.577
 2013SOL    HW2 6939   6.026   3.125   3.488
 2014SOL     OW 6940   2.794   6.872   3.179
 2014SOL    HW1 6941   2.844   6.788   3.161
 2014SOL    HW2 6942   2.701   6.849   3.208
 2015SOL     OW 6943   2.364   0.213   0.954
 2015SOL    HW1 6944   2.291   0.246   1.013
 2015SOL    HW2 6945   2.422   0.148   1.004
 2016SOL     OW 6946   1.639   5.618   6.110
 2016SOL    HW1 6947   1.615   5.607   6.013
 2016SOL    HW2 6948   1.670   5.712   6.126
 2017SOL     OW 6949   3.827   0.272   3.501
 2017SOL    HW1 6950   3.874   0.203   3.557
 2017SOL    HW2 6951   3.755   0.315   3.555
 2018SOL     OW 6952   5.807   2.862   3.952
 2018SOL    HW1 6953   5.795   2.949   3.999
 2018SOL    HW2 6954   5.903   2.833   3.959
 2019SOL     OW 6955   5.344   3.933   6.653
 2019SOL    HW1 6956   5.438   3.911   6.681
 2019SOL    HW2 6957   5.287   3.851   6.662
 2020SOL     OW 6958   2.154   6.912   6.409
 2020SOL    HW1 6959   2.189   6.822   6.435
 2020SOL    HW2 6960   2.222   6.982   6.429
 2021SOL     OW 6961   6.734   6.621   4.990
 2021SOL    HW1 6962   6.640   6.587   4.996
 2021SOL    HW2 6963   6.765   6.618   4.895
 2022SOL     OW 6964   1.877   4.524   3.763
 2022SOL    HW1 6965   1.795   4.576   3.739
 2022SOL    HW2 6966   1.852   4.430   3.787
 2023SOL     OW 6967   0.498   0.306   6.436
 2023SOL    HW1 6968   0.562   0.284   6.363
 2023SOL    HW2 6969   0.548   0.336   6.518
 2024SOL     OW 6970   0.192   5.657   3.588
 2024SOL    HW1 6971   0.143   5.640   3.503
 2024SOL    HW2 6972   0.244   5.576   3.613
 2025SOL     OW 6973   3.971   0.850   3.908
 2025SOL    HW1 6974   3.945   0.776   3.846
 2025SOL    HW2 6975   4.065   0.835   3.940
 2026SOL     OW 6976   6.327   2.728   6.033
 2026SOL    HW1 6977   6.287   2.637   6.027
 2026SOL    HW2 6978   6.418   2.722   6.075
 2027SOL     OW 6979   1.198   0.302   1.031
 2027SOL    HW1 6980   1.217   0.395   1.062
 2027SOL    HW2 6981   1.203   0.239   1.109
 2028SOL     OW 6982   3.506   5.732   4.915
 2028SOL    HW1 6983   3.431   5.723   4.980
 2028SOL    HW2 6984   3.576   5.663   4.935
 2029SOL     OW 6985   6.291   1.811   0.115
 2029SOL    HW1 6986   6.323   1.727   0.070
 2029SOL    HW2 6987   6.327   1.814   0.208
 2030SOL     OW 6988   2.980   0.642   3.433
 2030SOL    HW1 6989   2.953   0.545   3.433
 2030SOL    HW2 6990   2.975   0.678   3.340
 2031SOL     OW 6991   6.628   5.863   1.588
 2031SOL    HW1 6992   6.658   5.814   1.506
 2031SOL    HW2 6993   6.698   5.855   1.659
 2032SOL     OW 6994   3.972   1.166   1.775
 2032SOL    HW1 6995   4.056   1.218   1.768
 2032SOL    HW2 6996   3.943   1.163   1.871
 2033SOL     OW 6997   2.187   2.279   0.155
 2033SOL    HW1 6998   2.130   2.345   0.205
 2033SOL    HW2 6999   2.261   2.328   0.109
 2034SOL     OW 7000   2.779   4.762   5.825
 2034SOL    HW1 7001   2.714   4.727   5.757
 2034SOL    HW2 7002   2.746   4.850   5.859
 2035SOL     OW 7003   6.498   6.556   3.417
 2035SOL    HW1 7004   6.559   6.629   3.388
 2035SOL    HW2 7005   6.423   6.594   3.471
 2036SOL     OW 7006   1.172   3.371   2.763
 2036SOL    HW1 7007   1.125   3.319   2.692
 2036SOL    HW2 7008   1.245   3.426   2.722
 2037SOL     OW 7009   6.378   2.730   5.652
 2037SOL    HW1 7010   6.394   2.821   5.613
 2037SOL    HW2 7011   6.452   2.707   5.715
 2038SOL     OW 7012   2.131   1.462   0.136
 2038SOL    HW1 7013   2.091   1.451   0.046
 2038SOL    HW2 7014   2.073   1.523   0.191
 2039SOL     OW 7015   6.689   5.978   3.209
 2039SOL    HW1 7016   6.608   5.972   3.267
 2039SOL    HW2 7017   6.661   5.975   3.113
 2040SOL     OW 7018   1.692   2.256   7.007
 2040SOL    HW1 7019   1.605   2.209   6.994
 2040SOL    HW2 7020   1.757   2.228   6.936
 2041SOL     OW 7021   1.157   0.245   4.914
 2041SOL    HW1 7022   1.184   0.326   4.862
 2041SOL    HW2 7023   1.216   0.168   4.889
 2042SOL     OW 7024   5.256   6.157   6.613
 2042SOL    HW1 7025   5.208   6.091   6.556
 2042SOL    HW2 7026   5.221   6.153   6.706
 2043SOL     OW 7027   6.539   3.064   3.005
 2043SOL    HW1 7028   6.620   3.014   3.034
 2043SOL    HW2 7029   6.563   3.159   2.984
 2044SOL     OW 7030   6.480   0.468   1.425
 2044SOL    HW1 7031   6.405   0.532   1.441
 2044SOL    HW2 7032   6.466   0.420   1.339
 2045SOL     OW 7033   1.618   4.700   4.457
 2045SOL    HW1 7034   1.570   4.719   4.371
 2045SOL    HW2 7035   1.706   4.657   4.437
 2046SOL     OW 7036   6.364   1.804   4.758
 2046SOL    HW1 7037   6.273   1.846   4.755
 2046SOL    HW2 7038   6.385   1.777   4.852
 2047SOL     OW 7039   0.053   2.581   0.295
 2047SOL    HW1 7040   7.013   2.510   0.321
 2047SOL    HW2 7041   0.005   2.667   0.279
 2048SOL     OW 7042   0.149   0.143   5.201
 2048SOL    HW1 7043   0.067   0.139   5.144
 2048SOL    HW2 7044   0.229   0.121   5.145
 2049SOL     OW 7045   5.764   1.385   4.383
 2049SOL    HW1 7046   5.840   1.448   4.395
 2049SOL    HW2 7047   5.692   1.429   4.329
 2050SOL     OW 7048   6.436   2.601   4.073
 2050SOL    HW1 7049   6.358   2.547   4.104
 2050SOL    HW2 7050   6.511   2.591   4.139
 2051SOL     OW 7051   1.764   6.025   6.630
 2051SOL    HW1 7052   1.714   5.939   6.643
 2051SOL    HW2 7053   1.821   6.018   6.549
 2052SOL     OW 7054   1.829   2.588   1.145
 2052SOL    HW1 7055   1.805   2.512   1.085
 2052SOL    HW2 7056   1.815   2.675   1.097
 2053SOL     OW 7057   6.926   5.550   4.807
 2053SOL    HW1 7058   6.829   5.532   4.826
 2053SOL    HW2 7059   6.961   5.482   4.742
 2054SOL     OW 7060   3.329   3.740   3.081
 2054SOL    HW1 7061   3.342   3.642   3.070
 2054SOL    HW2 7062   3.275   3.759   3.162
 2055SOL     OW 7063   6.181   2.960   4.867
 2055SOL    HW1 7064   6.183   3.003   4.776
 2055SOL    HW2 7065   6.172   2.861   4.856
 2056SOL     OW 7066   4.178   5.482   1.336
 2056SOL    HW1 7067   4.094   5.482   1.390
 2056SOL    HW2 7068   4.198   5.574   1.304
 2057SOL     OW 7069   4.979   3.935   5.754
 2057SOL    HW1 7070   5.036   3.964   5.831
 2057SOL    HW2 7071   4.932   4.015   5.716
 2058SOL     OW 7072   0.328   6.621   2.414
 2058SOL    HW1 7073   0.356   6.625   2.318
 2058SOL    HW2 7074   0.332   6.527   2.447
 2059SOL     OW 7075   2.270   6.364   6.743
 2059SOL    HW1 7076   2.179   6.323   6.742
 2059SOL    HW2 7077   2.279   6.424   6.822
 2060SOL     OW 7078   0.350   3.734   1.830
 2060SOL    HW1 7079   0.444   3.699   1.830
 2060SOL    HW2 7080   0.291   3.672   1.778
 2061SOL     OW 7081   1.618   2.049   2.645
 2061SOL    HW1 7082   1.654   2.108   2.718
 2061SOL    HW2 7083   1.563   2.104   2.582
 2062SOL     OW 7084   0.160   6.112   5.499
 2062SOL    HW1 7085   0.088   6.075   5.441
 2062SOL    HW2 7086   0.131   6.198   5.539
 2063SOL     OW 7087   1.202   6.431   5.007
 2063SOL    HW1 7088   1.105   6.429   5.028
 2063SOL    HW2 7089   1.235   6.525   5.010
 2064SOL     OW 7090   0.075   2.279   4.804
 2064SOL    HW1 7091   7.022   2.326   4.843
 2064SOL    HW2 7092   0.149   2.278   4.871
 2065SOL     OW 7093   6.378   2.983   6.200
 2065SOL    HW1 7094   6.318   2.917   6.155
 2065SOL    HW2 7095   6.394   3.060   6.139
 2066SOL     OW 7096   6.750   3.898   5.326
 2066SOL    HW1 7097   6.703   3.916   5.412
 2066SOL    HW2 7098   6.788   3.984   5.290
 2067SOL     OW 7099   6.903   4.871   0.879
 2067SOL    HW1 7100   6.969   4.797   0.865
 2067SOL    HW2 7101   6.951   4.959   0.871
 2068SOL     OW 7102   3.536   0.216   3.966
 2068SOL    HW1 7103   3.534   0.191   3.869
 2068SOL    HW2 7104   3.557   0.135   4.021
 2069SOL     OW 7105   6.898   2.341   4.191
 2069SOL    HW1 7106   6.805   2.320   4.221
 2069SOL    HW2 7107   6.963   2.282   4.239
 2070SOL     OW 7108   1.061   1.631   1.029
 2070SOL    HW1 7109   0.986   1.565   1.032
 2070SOL    HW2 7110   1.148   1.583   1.039
 2071SOL     OW 7111   6.263   0.727   5.770
 2071SOL    HW1 7112   6.234   0.789   5.843
 2071SOL    HW2 7113   6.213   0.749   5.686
 2072SOL     OW 7114   4.690   5.365   4.646
 2072SOL    HW1 7115   4.754   5.329   4.713
 2072SOL    HW2 7116   4.633   5.290   4.611
 2073SOL     OW 7117   4.289   6.105   5.319
 2073SOL    HW1 7118   4.247   6.194   5.335
 2073SOL    HW2 7119   4.340   6.107   5.233
 2074SOL     OW 7120   1.773   2.686   6.825
 2074SOL    HW1 7121   1.740   2.780   6.840
 2074SOL    HW2 7122   1.873   2.687   6.815
 2075SOL     OW 7123   6.648   2.566   2.899
 2075SOL    HW1 7124   6.682   2.488   2.847
 2075SOL    HW2 7125   6.552   2.551   2.922
 2076SOL     OW 7126   5.311   6.130   6.245
 2076SOL    HW1 7127   5.355   6.220   6.258
 2076SOL    HW2 7128   5.227   6.141   6.192
 2077SOL     OW 7129   6.603   2.357   1.789
 2077SOL    HW1 7130   6.697   2.385   1.808
 2077SOL    HW2 7131   6.540   2.431   1.812
 2078SOL     OW 7132   2.176   5.263   6.658
 2078SOL    HW1 7133   2.242   5.270   6.733
 2078SOL    HW2 7134   2.160   5.167   6.636
 2079SOL     OW 7135   0.036   0.978   3.033
 2079SOL    HW1 7136   0.072   1.071   3.024
 2079SOL    HW2 7137   0.038   0.932   2.944
 2080SOL     OW 7138   2.732   0.880   4.885
 2080SOL    HW1 7139   2.661   0.856   4.950
 2080SOL    HW2 7140   2.709   0.965   4.838
 2081SOL     OW 7141   1.124   6.856   4.485
 2081SOL    HW1 7142   1.063   6.909   4.426
 2081SOL    HW2 7143   1.130   6.762   4.451
 2082SOL     OW 7144   0.888   6.401   3.658
 2082SOL    HW1 7145   0.903   6.404   3.559
 2082SOL    HW2 7146   0.957   6.343   3.701
 2083SOL     OW 7147   1.528   5.921   5.059
 2083SOL    HW1 7148   1.482   5.842   5.099
 2083SOL    HW2 7149   1.597   5.956   5.123
 2084SOL     OW 7150   0.795   2.672   2.126
 2084SOL    HW1 7151   0.729   2.742   2.100
 2084SOL    HW2 7152   0.887   2.712   2.126
 2085SOL     OW 7153   4.682   6.698   1.108
 2085SOL    HW1 7154   4.727   6.609   1.117
 2085SOL    HW2 7155   4.747   6.770   1.128
 2086SOL     OW 7156   3.604   5.941   0.235
 2086SOL    HW1 7157   3.577   6.020   0.180
 2086SOL    HW2 7158   3.675   5.889   0.187
 2087SOL     OW 7159   4.482   2.196   1.043
 2087SOL    HW1 7160   4.387   2.176   1.019
 2087SOL    HW2 7161   4.528   2.111   1.067
 2088SOL     OW 7162   1.430   5.789   6.398
 2088SOL    HW1 7163   1.436   5.695   6.363
 2088SOL    HW2 7164   1.435   5.788   6.498
 2089SOL     OW 7165   4.479   2.393   5.391
 2089SOL    HW1 7166   4.577   2.401   5.373
 2089SOL    HW2 7167   4.462   2.410   5.487
 2090SOL     OW 7168   4.957   2.863   5.569
 2090SOL    HW1 7169   5.019   2.794   5.607
 2090SOL    HW2 7170   4.979   2.952   5.609
 2091SOL     OW 7171   6.894   5.771   1.052
 2091SOL    HW1 7172   6.922   5.699   1.116
 2091SOL    HW2 7173   6.828   5.733   0.987
 2092SOL     OW 7174   5.628   3.400   0.667
 2092SOL    HW1 7175   5.623   3.379   0.569
 2092SOL    HW2 7176   5.702   3.465   0.684
 2093SOL     OW 7177   3.127   1.826   1.769
 2093SOL    HW1 7178   3.216   1.830   1.815
 2093SOL    HW2 7179   3.083   1.915   1.775
 2094SOL     OW 7180   5.182   1.710   1.352
 2094SOL    HW1 7181   5.104   1.689   1.294
 2094SOL    HW2 7182   5.240   1.778   1.307
 2095SOL     OW 7183   6.044   6.707   4.062
 2095SOL    HW1 7184   6.010   6.655   3.984
 2095SOL    HW2 7185   6.009   6.801   4.056
 2096SOL     OW 7186   4.730   5.591   3.333
 2096SOL    HW1 7187   4.779   5.651   3.269
 2096SOL    HW2 7188   4.681   5.647   3.400
 2097SOL     OW 7189   2.840   3.435   6.937
 2097SOL    HW1 7190   2.869   3.435   0.006
 2097SOL    HW2 7191   2.855   3.526   6.899
 2098SOL     OW 7192   4.002   6.170   2.913
 2098SOL    HW1 7193   4.002   6.238   2.986
 2098SOL    HW2 7194   4.094   6.130   2.906
 2099SOL     OW 7195   4.417   1.303   6.786
 2099SOL    HW1 7196   4.516   1.307   6.796
 2099SOL    HW2 7197   4.373   1.333   6.870
 2100SOL     OW 7198   5.184   1.564   0.702
 2100SOL    HW1 7199   5.150   1.526   0.787
 2100SOL    HW2 7200   5.180   1.664   0.705
 2101SOL     OW 7201   6.911   6.032   1.010
 2101SOL    HW1 7202   6.930   5.934   1.018
 2101SOL    HW2 7203   6.944   6.079   1.092
 2102SOL     OW 7204   4.797   3.691   1.688
 2102SOL    HW1 7205   4.873   3.633   1.718
 2102SOL    HW2 7206   4.787   3.768   1.751
 2103SOL     OW 7207   4.006   4.119   0.372
 2103SOL    HW1 7208   4.014   4.029   0.414
 2103SOL    HW2 7209   4.077   4.179   0.407
 2104SOL     OW 7210   1.223   4.567   1.640
 2104SOL    HW1 7211   1.160   4.559   1.717
 2104SOL    HW2 7212   1.286   4.489   1.641
 2105SOL     OW 7213   4.519   5.148   0.105
 2105SOL    HW1 7214   4.482   5.061   0.074
 2105SOL    HW2 7215   4.614   5.135   0.136
 2106SOL     OW 7216   4.960   3.870   0.926
 2106SOL    HW1 7217   4.922   3.805   0.860
 2106SOL    HW2 7218   4.885   3.919   0.971
 2107SOL     OW 7219   6.009   2.642   5.539
 2107SOL    HW1 7220   5.982   2.729   5.579
 2107SOL    HW2 7221   6.096   2.611   5.579
 2108SOL     OW 7222   6.105   5.834   4.846
 2108SOL    HW1 7223   6.031   5.866   4.787
 2108SOL    HW2 7224   6.073   5.757   4.900
 2109SOL     OW 7225   2.907   5.931   2.800
 2109SOL    HW1 7226   2.934   5.990   2.724
 2109SOL    HW2 7227   2.927   5.836   2.776
 2110SOL     OW 7228   3.526   0.694   6.281
 2110SOL    HW1 7229   3.445   0.643   6.308
 2110SOL    HW2 7230   3.583   0.711   6.361
 2111SOL     OW 7231   1.806   3.209   5.193
 2111SOL    HW1 7232   1.815   3.110   5.177
 2111SOL    HW2 7233   1.807   3.227   5.291
 2112SOL     OW 7234   4.967   2.167   7.013
 2112SOL    HW1 7235   4.998   2.108   0.061
 2112SOL    HW2 7236   5.033   2.164   6.938
 2113SOL     OW 7237   1.959   0.163   5.254
 2113SOL    HW1 7238   1.971   0.145   5.156
 2113SOL    HW2 7239   1.872   0.124   5.284
 2114SOL     OW 7240   2.043   2.600   6.747
 2114SOL    HW1 7241   2.030   2.526   6.813
 2114SOL    HW2 7242   2.046   2.562   6.655
 2115SOL     OW 7243   0.789   4.323   2.405
 2115SOL    HW1 7244   0.800   4.344   2.308
 2115SOL    HW2 7245   0.852   4.380   2.459
 2116SOL     OW 7246   1.267   3.310   1.555
 2116SOL    HW1 7247   1.353   3.333   1.510
 2116SOL    HW2 7248   1.286   3.273   1.646
 2117SOL     OW 7249   5.495   3.901   1.312
 2117SOL    HW1 7250   5.463   3.810   1.284
 2117SOL    HW2 7251   5.586   3.892   1.353
 2118SOL     OW 7252   6.351   3.555   2.478
 2118SOL    HW1 7253   6.386   3.613   2.552
 2118SOL    HW2 7254   6.252   3.570   2.468
 2119SOL     OW 7255   1.753   1.259   0.855
 2119SOL    HW1 7256   1.718   1.350   0.876
 2119SOL    HW2 7257   1.852   1.263   0.844
 2120SOL     OW 7258   0.090   2.895   1.998
 2120SOL    HW1 7259   0.002   2.847   2.001
 2120SOL    HW2 7260   0.113   2.927   2.090
 2121SOL     OW 7261   1.799   2.804   5.775
 2121SOL    HW1 7262   1.838   2.734   5.714
 2121SOL    HW2 7263   1.774   2.885   5.723
 2122SOL     OW 7264   5.568   6.228   5.829
 2122SOL    HW1 7265   5.661   6.257   5.849
 2122SOL    HW2 7266   5.569   6.140   5.782
 2123SOL     OW 7267   6.502   6.315   1.995
 2123SOL    HW1 7268   6.472   6.411   1.994
 2123SOL    HW2 7269   6.598   6.311   2.021
 2124SOL     OW 7270   2.980   1.681   0.119
 2124SOL    HW1 7271   2.969   1.748   0.046
 2124SOL    HW2 7272   3.045   1.610   0.090
 2125SOL     OW 7273   0.578   5.349   2.162
 2125SOL    HW1 7274   0.515   5.411   2.209
 2125SOL    HW2 7275   0.648   5.402   2.115
 2126SOL     OW 7276   3.559   2.853   6.265
 2126SOL    HW1 7277   3.546   2.822   6.170
 2126SOL    HW2 7278   3.502   2.934   6.281
 2127SOL     OW 7279   0.878   1.805   5.492
 2127SOL    HW1 7280   0.931   1.889   5.507
 2127SOL    HW2 7281   0.799   1.804   5.553
 2128SOL     OW 7282   5.716   2.455   1.562
 2128SOL    HW1 7283   5.636   2.430   1.617
 2128SOL    HW2 7284   5.728   2.387   1.489
 2129SOL     OW 7285   4.331   4.725   4.624
 2129SOL    HW1 7286   4.327   4.724   4.524
 2129SOL    HW2 7287   4.239   4.738   4.662
 2130SOL     OW 7288   2.617   1.217   1.786
 2130SOL    HW1 7289   2.546   1.189   1.851
 2130SOL    HW2 7290   2.677   1.285   1.829
 2131SOL     OW 7291   4.768   1.566   1.073
 2131SOL    HW1 7292   4.844   1.631   1.080
 2131SOL    HW2 7293   4.795   1.490   1.014
 2132SOL     OW 7294   3.072   1.288   6.998
 2132SOL    HW1 7295   3.046   1.265   6.904
 2132SOL    HW2 7296   3.004   1.252   0.035
 2133SOL     OW 7297   3.407   2.011   0.709
 2133SOL    HW1 7298   3.328   2.068   0.688
 2133SOL    HW2 7299   3.416   2.002   0.809
 2134SOL     OW 7300   0.876   1.086   4.796
 2134SOL    HW1 7301   0.888   0.991   4.767
 2134SOL    HW2 7302   0.964   1.123   4.825
 2135SOL     OW 7303   0.498   1.469   4.794
 2135SOL    HW1 7304   0.554   1.536   4.843
 2135SOL    HW2 7305   0.487   1.497   4.699
 2136SOL     OW 7306   1.481   3.620   4.208
 2136SOL    HW1 7307   1.443   3.689   4.145
 2136SOL    HW2 7308   1.460   3.646   4.302
 2137SOL     OW 7309   0.550   6.606   4.250
 2137SOL    HW1 7310   0.489   6.685   4.254
 2137SOL    HW2 7311   0.567   6.581   4.155
 2138SOL     OW 7312   5.958   2.516   1.929
 2138SOL    HW1 7313   5.917   2.443   1.984
 2138SOL    HW2 7314   5.955   2.602   1.980
 2139SOL     OW 7315   3.924   1.246   3.332
 2139SOL    HW1 7316   3.966   1.274   3.418
 2139SOL    HW2 7317   3.995   1.224   3.266
 2140SOL     OW 7318   2.991   6.117   3.341
 2140SOL    HW1 7319   3.065   6.052   3.323
 2140SOL    HW2 7320   3.019   6.180   3.413
 2141SOL     OW 7321   6.661   3.160   1.343
 2141SOL    HW1 7322   6.752   3.202   1.347
 2141SOL    HW2 7323   6.593   3.229   1.317
 2142SOL     OW 7324   1.239   2.339   3.453
 2142SOL    HW1 7325   1.184   2.266   3.413
 2142SOL    HW2 7326   1.233   2.334   3.553
 2143SOL     OW 7327   3.369   4.871   1.007
 2143SOL    HW1 7328   3.303   4.845   0.937
 2143SOL    HW2 7329   3.341   4.958   1.048
 2144SOL     OW 7330   1.904   0.774   2.868
 2144SOL    HW1 7331   1.973   0.808   2.931
 2144SOL    HW2 7332   1.935   0.787   2.774
 2145SOL     OW 7333   3.630   5.750   4.105
 2145SOL    HW1 7334   3.705   5.689   4.130
 2145SOL    HW2 7335   3.631   5.768   4.007
 2146SOL     OW 7336   2.993   3.724   2.036
 2146SOL    HW1 7337   3.062   3.653   2.047
 2146SOL    HW2 7338   2.926   3.696   1.968
 2147SOL     OW 7339   6.494   1.024   0.164
 2147SOL    HW1 7340   6.551   1.084   0.221
 2147SOL    HW2 7341   6.409   1.071   0.140
 2148SOL     OW 7342   4.945   2.967   4.510
 2148SOL    HW1 7343   5.008   3.042   4.531
 2148SOL    HW2 7344   4.996   2.893   4.467
 2149SOL     OW 7345   3.493   0.433   1.213
 2149SOL    HW1 7346   3.551   0.472   1.141
 2149SOL    HW2 7347   3.419   0.497   1.235
 2150SOL     OW 7348   3.139   2.123   2.400
 2150SOL    HW1 7349   3.204   2.199   2.399
 2150SOL    HW2 7350   3.084   2.125   2.317
 2151SOL     OW 7351   2.481   1.604   4.199
 2151SOL    HW1 7352   2.406   1.537   4.192
 2151SOL    HW2 7353   2.549   1.571   4.265
 2152SOL     OW 7354   4.029   6.587   2.110
 2152SOL    HW1 7355   3.961   6.640   2.061
 2152SOL    HW2 7356   4.000   6.574   2.204
 2153SOL     OW 7357   4.323   0.552   3.780
 2153SOL    HW1 7358   4.245   0.491   3.795
 2153SOL    HW2 7359   4.311   0.636   3.833
 2154SOL     OW 7360   3.491   6.359   4.964
 2154SOL    HW1 7361   3.404   6.390   5.003
 2154SOL    HW2 7362   3.567   6.405   5.012
 2155SOL     OW 7363   1.657   5.331   0.279
 2155SOL    HW1 7364   1.558   5.325   0.264
 2155SOL    HW2 7365   1.697   5.240   0.272
 2156SOL     OW 7366   2.789   0.295   1.869
 2156SOL    HW1 7367   2.753   0.312   1.961
 2156SOL    HW2 7368   2.771   0.199   1.844
 2157SOL     OW 7369   6.781   0.954   3.067
 2157SOL    HW1 7370   6.879   0.946   3.050
 2157SOL    HW2 7371   6.731   0.898   3.001
 2158SOL     OW 7372   3.965   6.688   0.705
 2158SOL    HW1 7373   3.944   6.786   0.701
 2158SOL    HW2 7374   3.968   6.660   0.801
 2159SOL     OW 7375   1.716   6.185   5.373
 2159SOL    HW1 7376   1.739   6.095   5.337
 2159SOL    HW2 7377   1.743   6.191   5.469
 2160SOL     OW 7378   4.334   3.608   1.707
 2160SOL    HW1 7379   4.284   3.650   1.631
 2160SOL    HW2 7380   4.431   3.604   1.686
 2161SOL     OW 7381   5.121   3.244   3.825
 2161SOL    HW1 7382   5.039   3.226   3.878
 2161SOL    HW2 7383   5.142   3.165   3.767
 2162SOL     OW 7384   2.391   0.478   0.507
 2162SOL    HW1 7385   2.420   0.573   0.496
 2162SOL    HW2 7386   2.355   0.464   0.599
 2163SOL     OW 7387   7.009   5.716   6.128
 2163SOL    HW1 7388   0.078   5.725   6.098
 2163SOL    HW2 7389   6.976   5.805   6.161
 2164SOL     OW 7390   1.792   1.579   6.997
 2164SOL    HW1 7391   1.758   1.674   6.998
 2164SOL    HW2 7392   1.796   1.545   0.064
 2165SOL     OW 7393   1.366   1.433   3.101
 2165SOL    HW1 7394   1.285   1.374   3.104
 2165SOL    HW2 7395   1.444   1.383   3.137
 2166SOL     OW 7396   2.217   2.340   5.526
 2166SOL    HW1 7397   2.163   2.281   5.585
 2166SOL    HW2 7398   2.194   2.436   5.545
 2167SOL     OW 7399   2.435   0.228   2.484
 2167SOL    HW1 7400   2.529   0.214   2.516
 2167SOL    HW2 7401   2.379   0.150   2.512
 2168SOL     OW 7402   6.397   2.217   4.454
 2168SOL    HW1 7403   6.378   2.288   4.386
 2168SOL    HW2 7404   6.340   2.232   4.535
 2169SOL     OW 7405   5.609   2.197   6.187
 2169SOL    HW1 7406   5.546   2.242   6.123
 2169SOL    HW2 7407   5.698   2.185   6.144
 2170SOL     OW 7408   5.809   4.893   5.124
 2170SOL    HW1 7409   5.829   4.905   5.027
 2170SOL    HW2 7410   5.853   4.966   5.176
 2171SOL     OW 7411   6.272   3.144   0.675
 2171SOL    HW1 7412   6.335   3.145   0.597
 2171SOL    HW2 7413   6.205   3.217   0.665
 2172SOL     OW 7414   2.850   1.649   0.567
 2172SOL    HW1 7415   2.942   1.639   0.529
 2172SOL    HW2 7416   2.788   1.679   0.495
 2173SOL     OW 7417   3.642   0.428   5.550
 2173SOL    HW1 7418   3.563   0.377   5.516
 2173SOL    HW2 7419   3.611   0.498   5.615
 2174SOL     OW 7420   6.487   5.024   5.833
 2174SOL    HW1 7421   6.570   5.021   5.889
 2174SOL    HW2 7422   6.458   4.931   5.811
 2175SOL     OW 7423   2.812   2.322   3.218
 2175SOL    HW1 7424   2.779   2.311   3.312
 2175SOL    HW2 7425   2.909   2.298   3.214
 2176SOL     OW 7426   0.981   2.411   1.445
 2176SOL    HW1 7427   0.888   2.395   1.477
 2176SOL    HW2 7428   1.040   2.430   1.524
 2177SOL     OW 7429   6.535   0.548   1.879
 2177SOL    HW1 7430   6.451   0.579   1.835
 2177SOL    HW2 7431   6.518   0.461   1.926
 2178SOL     OW 7432   1.098   4.282   0.582
 2178SOL    HW1 7433   1.150   4.256   0.501
 2178SOL    HW2 7434   1.156   4.339   0.642
 2179SOL     OW 7435   2.112   5.411   4.361
 2179SOL    HW1 7436   2.130   5.482   4.430
 2179SOL    HW2 7437   2.136   5.322   4.397
 2180SOL     OW 7438   2.901   3.246   1.812
 2180SOL    HW1 7439   2.915   3.292   1.725
 2180SOL    HW2 7440   2.910   3.147   1.800
 2181SOL     OW 7441   4.462   4.114   6.191
 2181SOL    HW1 7442   4.391   4.095   6.123
 2181SOL    HW2 7443   4.448   4.205   6.229
 2182SOL     OW 7444   6.424   3.181   6.023
 2182SOL    HW1 7445   6.497   3.226   6.074
 2182SOL    HW2 7446   6.442   3.189   5.925
 2183SOL     OW 7447   3.840   3.690   0.559
 2183SOL    HW1 7448   3.778   3.624   0.517
 2183SOL    HW2 7449   3.806   3.714   0.650
 2184SOL     OW 7450   3.204   1.160   5.242
 2184SOL    HW1 7451   3.227   1.252   5.212
 2184SOL    HW2 7452   3.286   1.113   5.275
 2185SOL     OW 7453   2.059   1.557   1.416
 2185SOL    HW1 7454   1.999   1.614   1.472
 2185SOL    HW2 7455   2.008   1.522   1.337
 2186SOL     OW 7456   0.048   4.494   2.226
 2186SOL    HW1 7457   0.128   4.466   2.279
 2186SOL    HW2 7458   6.993   4.490   2.284
 2187SOL     OW 7459   0.498   0.997   1.923
 2187SOL    HW1 7460   0.574   1.042   1.968
 2187SOL    HW2 7461   0.427   0.975   1.990
 2188SOL     OW 7462   4.613   5.825   3.784
 2188SOL    HW1 7463   4.541   5.757   3.771
 2188SOL    HW2 7464   4.686   5.786   3.841
 2189SOL     OW 7465   1.319   6.767   6.273
 2189SOL    HW1 7466   1.274   6.683   6.301
 2189SOL    HW2 7467   1.381   6.797   6.346
 2190SOL     OW 7468   6.423   2.383   1.489
 2190SOL    HW1 7469   6.437   2.290   1.455
 2190SOL    HW2 7470   6.503   2.439   1.469
 2191SOL     OW 7471   3.787   2.000   6.394
 2191SOL    HW1 7472   3.820   2.091   6.367
 2191SOL    HW2 7473   3.820   1.980   6.487
 2192SOL     OW 7474   4.124   0.181   4.755
 2192SOL    HW1 7475   4.128   0.279   4.773
 2192SOL    HW2 7476   4.216   0.148   4.734
 2193SOL     OW 7477   6.438   5.648   5.907
 2193SOL    HW1 7478   6.491   5.706   5.969
 2193SOL    HW2 7479   6.345   5.637   5.944
 2194SOL     OW 7480   2.683   5.272   0.168
 2194SOL    HW1 7481   2.645   5.184   0.139
 2194SOL    HW2 7482   2.635   5.346   0.121
 2195SOL     OW 7483   0.057   6.802   1.879
 2195SOL    HW1 7484   0.047   6.791   1.780
 2195SOL    HW2 7485   7.015   6.866   1.913
 2196SOL     OW 7486   2.146   0.319   5.819
 2196SOL    HW1 7487   2.152   0.411   5.781
 2196SOL    HW2 7488   2.087   0.320   5.900
 2197SOL     OW 7489   5.083   4.004   1.556
 2197SOL    HW1 7490   5.175   4.014   1.593
 2197SOL    HW2 7491   5.083   3.936   1.483
 2198SOL     OW 7492   6.909   2.460   6.973
 2198SOL    HW1 7493   6.959   2.393   0.001
 2198SOL    HW2 7494   6.969   2.537   6.952
 2199SOL     OW 7495   4.936   0.152   1.136
 2199SOL    HW1 7496   5.000   0.077   1.154
 2199SOL    HW2 7497   4.961   0.197   1.050
 2200SOL     OW 7498   4.146   0.331   4.391
 2200SOL    HW1 7499   4.198   0.352   4.473
 2200SOL    HW2 7500   4.049   0.350   4.406
 2201SOL     OW 7501   6.066   4.041   2.409
 2201SOL    HW1 7502   6.151   4.000   2.376
 2201SOL    HW2 7503   5.989   4.008   2.354
 2202SOL     OW 7504   3.421   5.394   4.828
 2202SOL    HW1 7505   3.342   5.454   4.813
 2202SOL    HW2 7506   3.400   5.330   4.902
 2203SOL     OW 7507   3.016   1.793   2.896
 2203SOL    HW1 7508   2.945   1.820   2.961
 2203SOL    HW2 7509   2.984   1.809   2.802
 2204SOL     OW 7510   3.668   1.660   6.645
 2204SOL    HW1 7511   3.736   1.719   6.690
 2204SOL    HW2 7512   3.583   1.712   6.631
 2205SOL     OW 7513   1.275   0.317   6.683
 2205SOL    HW1 7514   1.296   0.336   6.588
 2205SOL    HW2 7515   1.359   0.318   6.737
 2206SOL     OW 7516   3.042   4.237   5.740
 2206SOL    HW1 7517   3.056   4.283   5.827
 2206SOL    HW2 7518   3.130   4.208   5.703
 2207SOL     OW 7519   1.817   4.314   6.414
 2207SOL    HW1 7520   1.887   4.243   6.418
 2207SOL    HW2 7521   1.846   4.393   6.469
 2208SOL     OW 7522   1.452   4.388   1.606
 2208SOL    HW1 7523   1.434   4.335   1.523
 2208SOL    HW2 7524   1.550   4.384   1.627
 2209SOL     OW 7525   1.333   5.865   5.421
 2209SOL    HW1 7526   1.290   5.922   5.491
 2209SOL    HW2 7527   1.327   5.910   5.333
 2210SOL     OW 7528   0.848   5.448   3.175
 2210SOL    HW1 7529   0.871   5.401   3.260
 2210SOL    HW2 7530   0.819   5.542   3.196
 2211SOL     OW 7531   5.480   1.389   5.860
 2211SOL    HW1 7532   5.511   1.404   5.954
 2211SOL    HW2 7533   5.486   1.475   5.809
 2212SOL     OW 7534   0.388   6.464   6.788
 2212SOL    HW1 7535   0.321   6.512   6.731
 2212SOL    HW2 7536   0.432   6.392   6.733
 2213SOL     OW 7537   4.623   2.761   4.960
 2213SOL    HW1 7538   4.680   2.794   5.035
 2213SOL    HW2 7539   4.588   2.838   4.908
 2214SOL     OW 7540   4.743   0.788   5.287
 2214SOL    HW1 7541   4.721   0.869   5.233
 2214SOL    HW2 7542   4.664   0.728   5.291
 2215SOL     OW 7543   6.860   1.122   5.562
 2215SOL    HW1 7544   6.932   1.187   5.586
 2215SOL    HW2 7545   6.843   1.062   5.640
 2216SOL     OW 7546   1.731   0.603   6.566
 2216SOL    HW1 7547   1.651   0.606   6.626
 2216SOL    HW2 7548   1.813   0.585   6.619
 2217SOL     OW 7549   3.238   0.374   1.383
 2217SOL    HW1 7550   3.336   0.359   1.374
 2217SOL    HW2 7551   3.189   0.310   1.325
 2218SOL     OW 7552   1.114   6.590   0.660
 2218SOL    HW1 7553   1.142   6.648   0.736
 2218SOL    HW2 7554   1.188   6.583   0.594
 2219SOL     OW 7555   1.570   4.019   3.196
 2219SOL    HW1 7556   1.485   3.974   3.167
 2219SOL    HW2 7557   1.615   4.059   3.117
 2220SOL     OW 7558   0.547   1.267   3.986
 2220SOL    HW1 7559   0.570   1.360   3.957
 2220SOL    HW2 7560   0.454   1.245   3.956
 2221SOL     OW 7561   7.015   1.389   0.053
 2221SOL    HW1 7562   0.026   1.322   0.117
 2221SOL    HW2 7563   7.007   1.478   0.099
 2222SOL     OW 7564   3.827   0.982   0.711
 2222SOL    HW1 7565   3.869   1.065   0.675
 2222SOL    HW2 7566   3.769   0.941   0.641
 2223SOL     OW 7567   5.458   5.485   3.666
 2223SOL    HW1 7568   5.371   5.478   3.617
 2223SOL    HW2 7569   5.530   5.513   3.602
 2224SOL     OW 7570   1.528   4.494   1.263
 2224SOL    HW1 7571   1.624   4.510   1.288
 2224SOL    HW2 7572   1.525   4.445   1.176
 2225SOL     OW 7573   6.696   4.720   2.745
 2225SOL    HW1 7574   6.629   4.778   2.792
 2225SOL    HW2 7575   6.783   4.768   2.738
 2226SOL     OW 7576   3.599   3.227   0.695
 2226SOL    HW1 7577   3.585   3.306   0.636
 2226SOL    HW2 7578   3.682   3.179   0.667
 2227SOL     OW 7579   6.321   4.385   6.873
 2227SOL    HW1 7580   6.222   4.375   6.868
 2227SOL    HW2 7581   6.359   4.311   6.929
 2228SOL     OW 7582   3.341   5.602   0.900
 2228SOL    HW1 7583   3.342   5.637   0.994
 2228SOL    HW2 7584   3.249   5.611   0.862
 2229SOL     OW 7585   4.355   2.108   3.969
 2229SOL    HW1 7586   4.404   2.126   3.884
 2229SOL    HW2 7587   4.316   2.016   3.967
 2230SOL     OW 7588   1.092   6.305   3.820
 2230SOL    HW1 7589   1.139   6.254   3.892
 2230SOL    HW2 7590   1.145   6.301   3.736
 2231SOL     OW 7591   1.672   1.822   2.220
 2231SOL    HW1 7592   1.686   1.726   2.198
 2231SOL    HW2 7593   1.608   1.830   2.297
 2232SOL     OW 7594   0.520   3.009   4.251
 2232SOL    HW1 7595   0.521   3.106   4.275
 2232SOL    HW2 7596   0.532   2.954   4.334
 2233SOL     OW 7597   3.266   5.080   0.134
 2233SOL    HW1 7598   3.349   5.026   0.150
 2233SOL    HW2 7599   3.187   5.019   0.129
 2234SOL     OW 7600   4.279   2.280   0.697
 2234SOL    HW1 7601   4.262   2.378   0.698
 2234SOL    HW2 7602   4.277   2.244   0.790
 2235SOL     OW 7603   1.501   0.379   0.388
 2235SOL    HW1 7604   1.416   0.424   0.417
 2235SOL    HW2 7605   1.479   0.306   0.324
 2236SOL     OW 7606   0.784   4.737   0.999
 2236SOL    HW1 7607   0.717   4.756   0.928
 2236SOL    HW2 7608   0.817   4.823   1.038
 2237SOL     OW 7609   6.448   3.509   4.920
 2237SOL    HW1 7610   6.461   3.515   5.018
 2237SOL    HW2 7611   6.415   3.417   4.896
 2238SOL     OW 7612   6.816   5.001   2.420
 2238SOL    HW1 7613   6.814   5.100   2.428
 2238SOL    HW2 7614   6.906   4.966   2.447
 2239SOL     OW 7615   3.943   4.838   3.876
 2239SOL    HW1 7616   3.935   4.832   3.975
 2239SOL    HW2 7617   3.968   4.749   3.838
 2240SOL     OW 7618   6.308   5.019   3.396
 2240SOL    HW1 7619   6.244   5.007   3.472
 2240SOL    HW2 7620   6.385   4.956   3.407
 2241SOL     OW 7621   6.982   6.056   2.376
 2241SOL    HW1 7622   0.036   6.092   2.422
 2241SOL    HW2 7623   6.904   6.058   2.439
 2242SOL     OW 7624   5.235   1.362   3.562
 2242SOL    HW1 7625   5.167   1.311   3.509
 2242SOL    HW2 7626   5.189   1.424   3.625
 2243SOL     OW 7627   2.107   6.060   5.308
 2243SOL    HW1 7628   2.093   6.100   5.217
 2243SOL    HW2 7629   2.088   6.128   5.378
 2244SOL     OW 7630   3.936   0.698   3.218
 2244SOL    HW1 7631   3.906   0.637   3.292
 2244SOL    HW2 7632   3.860   0.712   3.154
 2245SOL     OW 7633   0.521   2.052   2.383
 2245SOL    HW1 7634   0.445   2.087   2.327
 2245SOL    HW2 7635   0.571   2.129   2.424
 2246SOL     OW 7636   1.752   2.241   5.693
 2246SOL    HW1 7637   1.680   2.172   5.701
 2246SOL    HW2 7638   1.721   2.316   5.635
 2247SOL     OW 7639   2.480   2.362   6.333
 2247SOL    HW1 7640   2.538   2.443   6.335
 2247SOL    HW2 7641   2.477   2.325   6.240
 2248SOL     OW 7642   5.029   4.553   5.816
 2248SOL    HW1 7643   4.995   4.642   5.846
 2248SOL    HW2 7644   5.078   4.508   5.891
 2249SOL     OW 7645   5.974   6.477   2.560
 2249SOL    HW1 7646   6.020   6.416   2.625
 2249SOL    HW2 7647   6.042   6.528   2.508
 2250SOL     OW 7648   5.411   4.140   1.059
 2250SOL    HW1 7649   5.352   4.060   1.051
 2250SOL    HW2 7650   5.355   4.223   1.067
 2251SOL     OW 7651   6.383   1.800   0.368
 2251SOL    HW1 7652   6.434   1.824   0.451
 2251SOL    HW2 7653   6.307   1.740   0.392
 2252SOL     OW 7654   6.536   2.391   5.240
 2252SOL    HW1 7655   6.548   2.461   5.169
 2252SOL    HW2 7656   6.584   2.419   5.323
 2253SOL     OW 7657   0.961   2.895   6.463
 2253SOL    HW1 7658   0.913   2.951   6.530
 2253SOL    HW2 7659   1.057   2.883   6.491
 2254SOL     OW 7660   2.316   3.083   5.925
 2254SOL    HW1 7661   2.277   3.001   5.883
 2254SOL    HW2 7662   2.343   3.064   6.019
 2255SOL     OW 7663   6.353   2.339   0.995
 2255SOL    HW1 7664   6.385   2.336   0.900
 2255SOL    HW2 7665   6.312   2.251   1.020
 2256SOL     OW 7666   3.887   5.970   2.059
 2256SOL    HW1 7667   3.851   6.032   1.989
 2256SOL    HW2 7668   3.986   5.976   2.060
 2257SOL     OW 7669   1.088   2.595   4.570
 2257SOL    HW1 7670   0.999   2.550   4.570
 2257SOL    HW2 7671   1.158   2.530   4.599
 2258SOL     OW 7672   1.882   5.651   4.300
 2258SOL    HW1 7673   1.807   5.627   4.238
 2258SOL    HW2 7674   1.968   5.615   4.264
 2259SOL     OW 7675   5.078   3.825   6.210
 2259SOL    HW1 7676   5.158   3.807   6.266
 2259SOL    HW2 7677   5.015   3.748   6.216
 2260SOL     OW 7678   4.605   4.399   3.005
 2260SOL    HW1 7679   4.570   4.392   2.911
 2260SOL    HW2 7680   4.666   4.323   3.023
 2261SOL     OW 7681   5.764   6.560   0.607
 2261SOL    HW1 7682   5.796   6.654   0.595
 2261SOL    HW2 7683   5.766   6.513   0.518
 2262SOL     OW 7684   5.681   2.189   2.664
 2262SOL    HW1 7685   5.747   2.244   2.615
 2262SOL    HW2 7686   5.652   2.112   2.607
 2263SOL     OW 7687   2.450   5.931   6.109
 2263SOL    HW1 7688   2.417   5.951   6.201
 2263SOL    HW2 7689   2.535   5.878   6.115
 2264SOL     OW 7690   3.353   4.126   2.384
 2264SOL    HW1 7691   3.283   4.057   2.403
 2264SOL    HW2 7692   3.319   4.217   2.409
 2265SOL     OW 7693   0.415   1.165   3.553
 2265SOL    HW1 7694   0.330   1.113   3.542
 2265SOL    HW2 7695   0.402   1.258   3.519
 2266SOL     OW 7696   6.714   1.667   1.263
 2266SOL    HW1 7697   6.754   1.584   1.300
 2266SOL    HW2 7698   6.779   1.712   1.202
 2267SOL     OW 7699   5.558   2.831   4.368
 2267SOL    HW1 7700   5.637   2.806   4.311
 2267SOL    HW2 7701   5.587   2.897   4.437
 2268SOL     OW 7702   6.474   5.670   0.384
 2268SOL    HW1 7703   6.400   5.620   0.429
 2268SOL    HW2 7704   6.471   5.653   0.286
 2269SOL     OW 7705   5.867   5.653   4.967
 2269SOL    HW1 7706   5.826   5.742   4.987
 2269SOL    HW2 7707   5.855   5.631   4.870
 2270SOL     OW 7708   3.566   3.914   0.958
 2270SOL    HW1 7709   3.504   3.892   0.883
 2270SOL    HW2 7710   3.540   4.001   0.999
 2271SOL     OW 7711   6.268   4.079   1.025
 2271SOL    HW1 7712   6.351   4.085   1.081
 2271SOL    HW2 7713   6.283   4.016   0.949
 2272SOL     OW 7714   5.935   2.167   4.855
 2272SOL    HW1 7715   5.894   2.225   4.925
 2272SOL    HW2 7716   5.891   2.184   4.767
 2273SOL     OW 7717   1.875   1.701   2.876
 2273SOL    HW1 7718   1.799   1.726   2.936
 2273SOL    HW2 7719   1.962   1.722   2.921
 2274SOL     OW 7720   1.434   3.510   5.066
 2274SOL    HW1 7721   1.367   3.479   5.133
 2274SOL    HW2 7722   1.517   3.454   5.075
 2275SOL     OW 7723   4.381   0.100   4.664
 2275SOL    HW1 7724   4.414   0.059   4.749
 2275SOL    HW2 7725   4.396   0.037   4.588
 2276SOL     OW 7726   3.340   5.140   1.108
 2276SOL    HW1 7727   3.406   5.152   1.183
 2276SOL    HW2 7728   3.352   5.213   1.041
 2277SOL     OW 7729   3.305   3.404   4.735
 2277SOL    HW1 7730   3.260   3.315   4.738
 2277SOL    HW2 7731   3.403   3.392   4.751
 2278SOL     OW 7732   4.739   6.876   3.542
 2278SOL    HW1 7733   4.787   6.855   3.627
 2278SOL    HW2 7734   4.647   6.835   3.544
 2279SOL     OW 7735   5.741   4.534   4.073
 2279SOL    HW1 7736   5.753   4.459   4.008
 2279SOL    HW2 7737   5.755   4.500   4.166
 2280SOL     OW 7738   6.553   6.375   4.992
 2280SOL    HW1 7739   6.646   6.396   4.960
 2280SOL    HW2 7740   6.510   6.311   4.929
 2281SOL     OW 7741   3.533   1.394   1.537
 2281SOL    HW1 7742   3.534   1.335   1.456
 2281SOL    HW2 7743   3.601   1.360   1.603
 2282SOL     OW 7744   5.173   6.225   4.686
 2282SOL    HW1 7745   5.137   6.137   4.654
 2282SOL    HW2 7746   5.217   6.213   4.774
 2283SOL     OW 7747   6.477   3.665   1.808
 2283SOL    HW1 7748   6.417   3.692   1.733
 2283SOL    HW2 7749   6.436   3.589   1.858
 2284SOL     OW 7750   2.759   2.048   1.691
 2284SOL    HW1 7751   2.693   2.116   1.723
 2284SOL    HW2 7752   2.754   2.041   1.591
 2285SOL     OW 7753   1.460   3.447   0.328
 2285SOL    HW1 7754   1.464   3.502   0.244
 2285SOL    HW2 7755   1.371   3.401   0.334
 2286SOL     OW 7756   6.711   5.840   5.075
 2286SOL    HW1 7757   6.804   5.852   5.039
 2286SOL    HW2 7758   6.694   5.909   5.146
 2287SOL     OW 7759   2.486   2.941   1.546
 2287SOL    HW1 7760   2.419   2.990   1.489
 2287SOL    HW2 7761   2.456   2.846   1.557
 2288SOL     OW 7762   0.527   6.033   4.180
 2288SOL    HW1 7763   0.487   6.001   4.266
 2288SOL    HW2 7764   0.604   6.093   4.200
 2289SOL     OW 7765   5.633   3.203   1.726
 2289SOL    HW1 7766   5.680   3.119   1.752
 2289SOL    HW2 7767   5.556   3.218   1.788
 2290SOL     OW 7768   2.893   3.352   2.074
 2290SOL    HW1 7769   2.833   3.276   2.098
 2290SOL    HW2 7770   2.916   3.346   1.977
 2291SOL     OW 7771   2.202   1.942   0.984
 2291SOL    HW1 7772   2.189   1.967   0.888
 2291SOL    HW2 7773   2.266   1.865   0.990
 2292SOL     OW 7774   5.185   3.545   3.898
 2292SOL    HW1 7775   5.168   3.553   3.800
 2292SOL    HW2 7776   5.104   3.507   3.942
 2293SOL     OW 7777   5.933   1.223   0.454
 2293SOL    HW1 7778   5.927   1.166   0.373
 2293SOL    HW2 7779   5.850   1.279   0.461
 2294SOL     OW 7780   3.103   1.951   6.216
 2294SOL    HW1 7781   3.143   1.889   6.148
 2294SOL    HW2 7782   3.052   1.899   6.283
 2295SOL     OW 7783   6.751   0.700   2.498
 2295SOL    HW1 7784   6.751   0.777   2.562
 2295SOL    HW2 7785   6.730   0.733   2.406
 2296SOL     OW 7786   2.631   5.073   2.571
 2296SOL    HW1 7787   2.720   5.086   2.615
 2296SOL    HW2 7788   2.570   5.148   2.597
 2297SOL     OW 7789   4.503   4.835   5.693
 2297SOL    HW1 7790   4.558   4.893   5.634
 2297SOL    HW2 7791   4.420   4.884   5.721
 2298SOL     OW 7792   3.508   3.626   3.446
 2298SOL    HW1 7793   3.593   3.675   3.427
 2298SOL    HW2 7794   3.523   3.528   3.435
 2299SOL     OW 7795   4.859   4.056   5.087
 2299SOL    HW1 7796   4.936   4.099   5.135
 2299SOL    HW2 7797   4.790   4.125   5.066
 2300SOL     OW 7798   3.400   6.747   3.407
 2300SOL    HW1 7799   3.457   6.779   3.332
 2300SOL    HW2 7800   3.304   6.770   3.388
 2301SOL     OW 7801   3.402   2.933   4.047
 2301SOL    HW1 7802   3.339   3.004   4.014
 2301SOL    HW2 7803   3.351   2.852   4.073
 2302SOL     OW 7804   3.823   0.458   1.503
 2302SOL    HW1 7805   3.740   0.403   1.495
 2302SOL    HW2 7806   3.806   0.536   1.562
 2303SOL     OW 7807   2.293   3.029   1.379
 2303SOL    HW1 7808   2.287   3.039   1.280
 2303SOL    HW2 7809   2.247   2.946   1.408
 2304SOL     OW 7810   6.125   5.896   3.824
 2304SOL    HW1 7811   6.200   5.937   3.876
 2304SOL    HW2 7812   6.064   5.969   3.790
 2305SOL     OW 7813   1.817   0.369   3.919
 2305SOL    HW1 7814   1.817   0.469   3.922
 2305SOL    HW2 7815   1.729   0.335   3.951
 2306SOL     OW 7816   1.529   5.211   2.477
 2306SOL    HW1 7817   1.456   5.155   2.517
 2306SOL    HW2 7818   1.522   5.305   2.512
 2307SOL     OW 7819   0.893   3.320   5.599
 2307SOL    HW1 7820   0.990   3.331   5.576
 2307SOL    HW2 7821   0.849   3.409   5.600
 2308SOL     OW 7822   2.656   4.815   1.156
 2308SOL    HW1 7823   2.732   4.766   1.114
 2308SOL    HW2 7824   2.651   4.792   1.253
 2309SOL     OW 7825   1.507   0.576   4.181
 2309SOL    HW1 7826   1.428   0.623   4.142
 2309SOL    HW2 7827   1.591   0.611   4.138
 2310SOL     OW 7828   6.050   6.534   2.183
 2310SOL    HW1 7829   6.017   6.561   2.092
 2310SOL    HW2 7830   6.059   6.435   2.188
 2311SOL     OW 7831   2.045   5.757   6.553
 2311SOL    HW1 7832   1.978   5.776   6.482
 2311SOL    HW2 7833   1.998   5.730   6.637
 2312SOL     OW 7834   3.696   5.269   3.579
 2312SOL    HW1 7835   3.668   5.210   3.503
 2312SOL    HW2 7836   3.625   5.269   3.649
 2313SOL     OW 7837   5.131   5.111   2.008
 2313SOL    HW1 7838   5.191   5.076   2.080
 2313SOL    HW2 7839   5.111   5.038   1.942
 2314SOL     OW 7840   3.669   6.218   2.846
 2314SOL    HW1 7841   3.694   6.204   2.941
 2314SOL    HW2 7842   3.684   6.133   2.794
 2315SOL     OW 7843   5.315   3.787   5.917
 2315SOL    HW1 7844   5.322   3.839   6.002
 2315SOL    HW2 7845   5.372   3.831   5.847
 2316SOL     OW 7846   5.094   2.101   3.684
 2316SOL    HW1 7847   5.151   2.030   3.643
 2316SOL    HW2 7848   5.096   2.182   3.626
 2317SOL     OW 7849   0.961   5.217   3.052
 2317SOL    HW1 7850   0.932   5.265   3.134
 2317SOL    HW2 7851   0.913   5.255   2.973
 2318SOL     OW 7852   0.034   2.510   3.763
 2318SOL    HW1 7853   0.054   2.607   3.749
 2318SOL    HW2 7854   6.970   2.500   3.803
 2319SOL     OW 7855   1.896   4.271   4.953
 2319SOL    HW1 7856   1.913   4.370   4.949
 2319SOL    HW2 7857   1.860   4.240   4.865
 2320SOL     OW 7858   6.752   2.477   4.487
 2320SOL    HW1 7859   6.699   2.420   4.550
 2320SOL    HW2 7860   6.849   2.462   4.503
 2321SOL     OW 7861   3.950   0.860   5.177
 2321SOL    HW1 7862   3.987   0.772   5.206
 2321SOL    HW2 7863   3.850   0.857   5.183
 2322SOL     OW 7864   2.327   1.781   5.685
 2322SOL    HW1 7865   2.420   1.745   5.685
 2322SOL    HW2 7866   2.315   1.842   5.763
 2323SOL     OW 7867   3.262   5.493   3.353
 2323SOL    HW1 7868   3.228   5.431   3.424
 2323SOL    HW2 7869   3.184   5.533   3.304
 2324SOL     OW 7870   0.352   5.867   2.603
 2324SOL    HW1 7871   0.392   5.922   2.676
 2324SOL    HW2 7872   0.372   5.770   2.619
 2325SOL     OW 7873   1.199   3.685   1.810
 2325SOL    HW1 7874   1.124   3.691   1.876
 2325SOL    HW2 7875   1.280   3.729   1.848
 2326SOL     OW 7876   2.369   3.877   6.210
 2326SOL    HW1 7877   2.317   3.881   6.125
 2326SOL    HW2 7878   2.460   3.840   6.192
 2327SOL     OW 7879   4.744   2.849   4.653
 2327SOL    HW1 7880   4.806   2.884   4.583
 2327SOL    HW2 7881   4.685   2.779   4.613
 2328SOL     OW 7882   5.221   0.887   3.739
 2328SOL    HW1 7883   5.147   0.951   3.716
 2328SOL    HW2 7884   5.183   0.795   3.751
 2329SOL     OW 7885   1.460   5.229   4.179
 2329SOL    HW1 7886   1.390   5.280   4.230
 2329SOL    HW2 7887   1.535   5.206   4.240
 2330SOL     OW 7888   0.087   5.065   1.793
 2330SOL    HW1 7889   0.029   5.144   1.813
 2330SOL    HW2 7890   0.034   4.981   1.802
 2331SOL     OW 7891   6.874   4.738   5.909
 2331SOL    HW1 7892   6.897   4.667   5.842
 2331SOL    HW2 7893   6.775   4.748   5.915
 2332SOL     OW 7894   5.144   2.119   5.751
 2332SOL    HW1 7895   5.091   2.036   5.771
 2332SOL    HW2 7896   5.222   2.096   5.693
 2333SOL     OW 7897   0.341   4.978   2.359
 2333SOL    HW1 7898   0.377   5.068   2.332
 2333SOL    HW2 7899   0.402   4.937   2.427
 2334SOL     OW 7900   3.343   0.017   6.996
 2334SOL    HW1 7901   3.406   0.027   0.047
 2334SOL    HW2 7902   3.364   6.960   6.946
 2335SOL     OW 7903   6.110   0.965   3.181
 2335SOL    HW1 7904   6.021   0.954   3.227
 2335SOL    HW2 7905   6.183   0.960   3.249
 2336SOL     OW 7906   4.773   1.355   5.561
 2336SOL    HW1 7907   4.799   1.451   5.569
 2336SOL    HW2 7908   4.801   1.305   5.643
 2337SOL     OW 7909   5.210   0.424   3.017
 2337SOL    HW1 7910   5.185   0.462   2.928
 2337SOL    HW2 7911   5.272   0.486   3.064
 2338SOL     OW 7912   0.591   6.839   6.977
 2338SOL    HW1 7913   0.659   6.907   7.005
 2338SOL    HW2 7914   0.499   6.875   6.991
 2339SOL     OW 7915   3.349   3.226   5.709
 2339SOL    HW1 7916   3.374   3.247   5.615
 2339SOL    HW2 7917   3.323   3.130   5.716
 2340SOL     OW 7918   3.743   6.638   5.343
 2340SOL    HW1 7919   3.837   6.667   5.323
 2340SOL    HW2 7920   3.744   6.546   5.383
 2341SOL     OW 7921   5.326   4.316   0.432
 2341SOL    HW1 7922   5.229   4.341   0.440
 2341SOL    HW2 7923   5.337   4.219   0.452
 2342SOL     OW 7924   0.534   6.776   5.536
 2342SOL    HW1 7925   0.591   6.748   5.613
 2342SOL    HW2 7926   0.502   6.870   5.551
 2343SOL     OW 7927   1.533   6.608   1.092
 2343SOL    HW1 7928   1.474   6.570   1.022
 2343SOL    HW2 7929   1.509   6.705   1.106
 2344SOL     OW 7930   2.848   1.780   2.667
 2344SOL    HW1 7931   2.783   1.825   2.728
 2344SOL    HW2 7932   2.866   1.839   2.588
 2345SOL     OW 7933   1.343   6.900   5.060
 2345SOL    HW1 7934   1.278   6.976   5.055
 2345SOL    HW2 7935   1.296   6.816   5.032
 2346SOL     OW 7936   4.767   2.892   5.127
 2346SOL    HW1 7937   4.820   2.975   5.109
 2346SOL    HW2 7938   4.773   2.870   5.224
 2347SOL     OW 7939   1.897   4.031   1.686
 2347SOL    HW1 7940   1.960   3.964   1.646
 2347SOL    HW2 7941   1.937   4.070   1.769
 2348SOL     OW 7942   2.361   6.644   3.390
 2348SOL    HW1 7943   2.383   6.564   3.333
 2348SOL    HW2 7944   2.279   6.625   3.444
 2349SOL     OW 7945   0.183   6.402   6.133
 2349SOL    HW1 7946   0.153   6.497   6.140
 2349SOL    HW2 7947   0.139   6.359   6.054
 2350SOL     OW 7948   3.344   0.588   5.813
 2350SOL    HW1 7949   3.435   0.587   5.770
 2350SOL    HW2 7950   3.299   0.501   5.797
 2351SOL     OW 7951   2.764   5.131   3.494
 2351SOL    HW1 7952   2.672   5.146   3.457
 2351SOL    HW2 7953   2.762   5.144   3.593
 2352SOL     OW 7954   6.259   3.978   3.606
 2352SOL    HW1 7955   6.273   3.933   3.695
 2352SOL    HW2 7956   6.215   4.067   3.621
 2353SOL     OW 7957   2.401   4.049   5.444
 2353SOL    HW1 7958   2.394   4.018   5.349
 2353SOL    HW2 7959   2.415   3.969   5.503
 2354SOL     OW 7960   3.425   2.584   0.041
 2354SOL    HW1 7961   3.429   2.683   0.054
 2354SOL    HW2 7962   3.511   2.552   0.000
 2355SOL     OW 7963   1.191   6.740   0.865
 2355SOL    HW1 7964   1.236   6.807   0.924
 2355SOL    HW2 7965   1.126   6.687   0.918
 2356SOL     OW 7966   1.987   4.455   1.757
 2356SOL    HW1 7967   1.989   4.466   1.856
 2356SOL    HW2 7968   1.893   4.435   1.728
 2357SOL     OW 7969   5.134   4.827   3.632
 2357SOL    HW1 7970   5.114   4.925   3.644
 2357SOL    HW2 7971   5.054   4.774   3.659
 2358SOL     OW 7972   2.910   6.938   3.941
 2358SOL    HW1 7973   2.898   0.005   3.907
 2358SOL    HW2 7974   2.979   6.938   4.014
 2359SOL     OW 7975   2.818   1.399   6.009
 2359SOL    HW1 7976   2.753   1.455   5.958
 2359SOL    HW2 7977   2.773   1.358   6.088
 2360SOL     OW 7978   3.935   4.802   0.015
 2360SOL    HW1 7979   3.938   4.900   7.018
 2360SOL    HW2 7980   3.875   4.755   6.977
 2361SOL     OW 7981   2.780   0.085   3.323
 2361SOL    HW1 7982   2.834   0.151   3.271
 2361SOL    HW2 7983   2.771   0.001   3.270
 2362SOL     OW 7984   4.847   6.038   5.221
 2362SOL    HW1 7985   4.865   5.940   5.210
 2362SOL    HW2 7986   4.904   6.090   5.158
 2363SOL     OW 7987   4.164   1.926   5.394
 2363SOL    HW1 7988   4.135   1.996   5.329
 2363SOL    HW2 7989   4.222   1.969   5.464
 2364SOL     OW 7990   5.681   2.022   1.674
 2364SOL    HW1 7991   5.636   2.052   1.758
 2364SOL    HW2 7992   5.737   2.097   1.638
 2365SOL     OW 7993   6.387   4.382   4.826
 2365SOL    HW1 7994   6.294   4.416   4.835
 2365SOL    HW2 7995   6.441   4.410   4.905
 2366SOL     OW 7996   1.482   4.176   5.276
 2366SOL    HW1 7997   1.532   4.214   5.199
 2366SOL    HW2 7998   1.546   4.143   5.345
 2367SOL     OW 7999   0.764   3.565   5.571
 2367SOL    HW1 8000   0.780   3.663   5.572
 2367SOL    HW2 8001   0.731   3.537   5.481
 2368SOL     OW 8002   4.336   1.148   4.978
 2368SOL    HW1 8003   4.255   1.125   5.032
 2368SOL    HW2 8004   4.319   1.233   4.928
 2369SOL     OW 8005   3.305   1.913   3.521
 2369SOL    HW1 8006   3.215   1.897   3.563
 2369SOL    HW2 8007   3.341   1.827   3.485
 2370SOL     OW 8008   4.537   2.688   0.218
 2370SOL    HW1 8009   4.543   2.593   0.186
 2370SOL    HW2 8010   4.623   2.714   0.260
 2371SOL     OW 8011   1.065   6.492   2.737
 2371SOL    HW1 8012   1.156   6.449   2.740
 2371SOL    HW2 8013   1.056   6.556   2.813
 2372SOL     OW 8014   6.946   0.728   6.744
 2372SOL    HW1 8015   7.026   0.752   6.688
 2372SOL    HW2 8016   6.977   0.680   6.826
 2373SOL     OW 8017   6.284   0.743   6.577
 2373SOL    HW1 8018   6.257   0.838   6.592
 2373SOL    HW2 8019   6.383   0.735   6.585
 2374SOL     OW 8020   5.841   5.727   3.062
 2374SOL    HW1 8021   5.911   5.796   3.046
 2374SOL    HW2 8022   5.754   5.772   3.083
 2375SOL     OW 8023   0.503   0.469   3.747
 2375SOL    HW1 8024   0.557   0.410   3.687
 2375SOL    HW2 8025   0.482   0.420   3.831
 2376SOL     OW 8026   6.387   2.558   3.225
 2376SOL    HW1 8027   6.410   2.649   3.260
 2376SOL    HW2 8028   6.471   2.513   3.194
 2377SOL     OW 8029   3.295   4.264   6.099
 2377SOL    HW1 8030   3.237   4.338   6.067
 2377SOL    HW2 8031   3.244   4.178   6.097
 2378SOL     OW 8032   5.697   2.199   0.173
 2378SOL    HW1 8033   5.758   2.260   0.125
 2378SOL    HW2 8034   5.740   2.109   0.184
 2379SOL     OW 8035   6.815   4.559   0.184
 2379SOL    HW1 8036   6.752   4.515   0.248
 2379SOL    HW2 8037   6.822   4.503   0.101
 2380SOL     OW 8038   6.309   1.590   5.309
 2380SOL    HW1 8039   6.269   1.505   5.343
 2380SOL    HW2 8040   6.244   1.665   5.319
 2381SOL     OW 8041   2.328   4.977   4.878
 2381SOL    HW1 8042   2.401   4.967   4.811
 2381SOL    HW2 8043   2.360   4.946   4.967
 2382SOL     OW 8044   1.651   6.313   2.947
 2382SOL    HW1 8045   1.739   6.283   2.983
 2382SOL    HW2 8046   1.607   6.237   2.898
 2383SOL     OW 8047   5.318   5.382   5.747
 2383SOL    HW1 8048   5.230   5.353   5.785
 2383SOL    HW2 8049   5.322   5.356   5.650
 2384SOL     OW 8050   1.186   2.196   1.412
 2384SOL    HW1 8051   1.118   2.261   1.447
 2384SOL    HW2 8052   1.261   2.188   1.478
 2385SOL     OW 8053   0.935   1.715   0.303
 2385SOL    HW1 8054   0.961   1.634   0.357
 2385SOL    HW2 8055   0.836   1.716   0.290
 2386SOL     OW 8056   3.351   5.016   4.851
 2386SOL    HW1 8057   3.387   4.996   4.759
 2386SOL    HW2 8058   3.255   4.988   4.856
 2387SOL     OW 8059   6.664   3.429   3.979
 2387SOL    HW1 8060   6.610   3.356   4.019
 2387SOL    HW2 8061   6.731   3.462   4.045
 2388SOL     OW 8062   0.328   1.479   5.632
 2388SOL    HW1 8063   0.412   1.491   5.684
 2388SOL    HW2 8064   0.255   1.534   5.674
 2389SOL     OW 8065   4.810   4.541   4.104
 2389SOL    HW1 8066   4.836   4.536   4.008
 2389SOL    HW2 8067   4.876   4.488   4.158
 2390SOL     OW 8068   3.670   3.635   5.144
 2390SOL    HW1 8069   3.756   3.646   5.194
 2390SOL    HW2 8070   3.624   3.723   5.137
 2391SOL     OW 8071   3.672   3.790   6.247
 2391SOL    HW1 8072   3.629   3.802   6.158
 2391SOL    HW2 8073   3.648   3.867   6.306
 2392SOL     OW 8074   3.077   4.202   6.682
 2392SOL    HW1 8075   3.157   4.153   6.646
 2392SOL    HW2 8076   3.091   4.220   6.779
 2393SOL     OW 8077   3.767   5.618   1.346
 2393SOL    HW1 8078   3.791   5.552   1.417
 2393SOL    HW2 8079   3.744   5.569   1.261
 2394SOL     OW 8080   0.367   3.662   3.813
 2394SOL    HW1 8081   0.443   3.599   3.799
 2394SOL    HW2 8082   0.399   3.743   3.864
 2395SOL     OW 8083   0.098   2.927   0.021
 2395SOL    HW1 8084   0.108   2.992   0.096
 2395SOL    HW2 8085   0.056   2.972   6.969
 2396SOL     OW 8086   5.437   0.214   0.379
 2396SOL    HW1 8087   5.353   0.161   0.367
 2396SOL    HW2 8088   5.414   0.311   0.389
 2397SOL     OW 8089   6.933   4.704   6.972
 2397SOL    HW1 8090   6.899   4.797   6.957
 2397SOL    HW2 8091   6.880   4.660   0.018
 2398SOL     OW 8092   2.851   5.065   4.718
 2398SOL    HW1 8093   2.789   5.142   4.702
 2398SOL    HW2 8094   2.939   5.084   4.675
 2399SOL     OW 8095   3.826   2.118   3.860
 2399SOL    HW1 8096   3.793   2.115   3.954
 2399SOL    HW2 8097   3.750   2.105   3.797
 2400SOL     OW 8098   1.855   3.308   0.413
 2400SOL    HW1 8099   1.851   3.208   0.402
 2400SOL    HW2 8100   1.809   3.334   0.498
 2401SOL     OW 8101   3.285   0.073   3.738
 2401SOL    HW1 8102   3.245   0.164   3.751
 2401SOL    HW2 8103   3.378   0.082   3.702
 2402SOL     OW 8104   6.775   1.848   3.347
 2402SOL    HW1 8105   6.781   1.776   3.416
 2402SOL    HW2 8106   6.726   1.814   3.267
 2403SOL     OW 8107   3.740   3.534   1.040
 2403SOL    HW1 8108   3.737   3.575   1.131
 2403SOL    HW2 8109   3.816   3.470   1.034
 2404SOL     OW 8110   5.764   1.736   1.481
 2404SOL    HW1 8111   5.844   1.678   1.466
 2404SOL    HW2 8112   5.769   1.778   1.572
 2405SOL     OW 8113   3.061   5.028   5.810
 2405SOL    HW1 8114   3.057   4.934   5.843
 2405SOL    HW2 8115   2.986   5.045   5.745
 2406SOL     OW 8116   2.421   0.134   3.810
 2406SOL    HW1 8117   2.500   0.170   3.762
 2406SOL    HW2 8118   2.441   0.041   3.842
 2407SOL     OW 8119   4.466   2.332   2.942
 2407SOL    HW1 8120   4.530   2.257   2.929
 2407SOL    HW2 8121   4.482   2.402   2.872
 2408SOL     OW 8122   2.230   5.658   2.719
 2408SOL    HW1 8123   2.141   5.618   2.699
 2408SOL    HW2 8124   2.299   5.618   2.658
 2409SOL     OW 8125   2.623   2.983   0.690
 2409SOL    HW1 8126   2.597   2.997   0.785
 2409SOL    HW2 8127   2.592   3.060   0.635
 2410SOL     OW 8128   6.521   3.168   5.757
 2410SOL    HW1 8129   6.484   3.082   5.722
 2410SOL    HW2 8130   6.517   3.238   5.686
 2411SOL     OW 8131   2.675   3.975   5.916
 2411SOL    HW1 8132   2.605   3.903   5.926
 2411SOL    HW2 8133   2.680   4.002   5.820
 2412SOL     OW 8134   2.513   2.728   0.654
 2412SOL    HW1 8135   2.521   2.820   0.691
 2412SOL    HW2 8136   2.488   2.733   0.557
 2413SOL     OW 8137   5.681   3.506   6.562
 2413SOL    HW1 8138   5.675   3.551   6.473
 2413SOL    HW2 8139   5.696   3.408   6.550
 2414SOL     OW 8140   5.787   2.896   3.652
 2414SOL    HW1 8141   5.773   2.900   3.750
 2414SOL    HW2 8142   5.784   2.989   3.614
 2415SOL     OW 8143   2.407   0.256   1.367
 2415SOL    HW1 8144   2.413   0.340   1.312
 2415SOL    HW2 8145   2.476   0.191   1.335
 2416SOL     OW 8146   1.174   2.951   3.701
 2416SOL    HW1 8147   1.179   2.853   3.679
 2416SOL    HW2 8148   1.203   2.965   3.796
 2417SOL     OW 8149   4.673   1.881   6.617
 2417SOL    HW1 8150   4.647   1.903   6.711
 2417SOL    HW2 8151   4.613   1.810   6.581
 2418SOL     OW 8152   3.807   3.847   4.866
 2418SOL    HW1 8153   3.859   3.869   4.784
 2418SOL    HW2 8154   3.837   3.905   4.942
 2419SOL     OW 8155   1.950   6.684   4.733
 2419SOL    HW1 8156   1.926   6.632   4.815
 2419SOL    HW2 8157   1.869   6.694   4.675
 2420SOL     OW 8158   3.559   5.906   1.933
 2420SOL    HW1 8159   3.562   5.920   2.032
 2420SOL    HW2 8160   3.569   5.808   1.912
 2421SOL     OW 8161   3.992   6.819   4.284
 2421SOL    HW1 8162   3.954   6.872   4.209
 2421SOL    HW2 8163   4.066   6.870   4.328
 2422SOL     OW 8164   3.910   0.115   1.159
 2422SOL    HW1 8165   3.868   0.117   1.250
 2422SOL    HW2 8166   3.869   0.042   1.105
 2423SOL     OW 8167   1.648   5.484   1.224
 2423SOL    HW1 8168   1.613   5.516   1.136
 2423SOL    HW2 8169   1.626   5.387   1.236
 2424SOL     OW 8170   5.737   6.558   6.993
 2424SOL    HW1 8171   5.732   6.463   6.963
 2424SOL    HW2 8172   5.649   6.603   6.979
 2425SOL     OW 8173   4.965   6.072   5.740
 2425SOL    HW1 8174   4.961   6.152   5.679
 2425SOL    HW2 8175   4.993   6.101   5.831
 2426SOL     OW 8176   1.092   4.833   4.098
 2426SOL    HW1 8177   1.014   4.781   4.133
 2426SOL    HW2 8178   1.066   4.876   4.011
 2427SOL     OW 8179   5.336   5.728   6.925
 2427SOL    HW1 8180   5.238   5.735   6.943
 2427SOL    HW2 8181   5.382   5.814   6.950
 2428SOL     OW 8182   0.291   0.625   2.962
 2428SOL    HW1 8183   0.321   0.712   2.924
 2428SOL    HW2 8184   0.216   0.640   3.027
 2429SOL     OW 8185   5.860   4.689   2.700
 2429SOL    HW1 8186   5.960   4.691   2.706
 2429SOL    HW2 8187   5.832   4.608   2.648
 2430SOL     OW 8188   5.429   2.054   0.165
 2430SOL    HW1 8189   5.509   2.109   0.141
 2430SOL    HW2 8190   5.383   2.025   0.081
 2431SOL     OW 8191   5.116   1.358   1.233
 2431SOL    HW1 8192   5.105   1.423   1.309
 2431SOL    HW2 8193   5.042   1.291   1.236
 2432SOL     OW 8194   3.187   6.483   1.685
 2432SOL    HW1 8195   3.283   6.463   1.705
 2432SOL    HW2 8196   3.134   6.399   1.687
 2433SOL     OW 8197   1.090   6.753   0.349
 2433SOL    HW1 8198   1.015   6.793   0.401
 2433SOL    HW2 8199   1.154   6.709   0.412
 2434SOL     OW 8200   5.046   1.956   2.548
 2434SOL    HW1 8201   5.025   2.038   2.495
 2434SOL    HW2 8202   5.139   1.964   2.585
 2435SOL     OW 8203   6.004   5.332   6.937
 2435SOL    HW1 8204   5.983   5.426   6.962
 2435SOL    HW2 8205   6.065   5.293   7.006
 2436SOL     OW 8206   1.556   0.841   1.310
 2436SOL    HW1 8207   1.531   0.795   1.395
 2436SOL    HW2 8208   1.656   0.848   1.304
 2437SOL     OW 8209   5.358   6.559   0.997
 2437SOL    HW1 8210   5.400   6.472   1.024
 2437SOL    HW2 8211   5.403   6.592   0.914
 2438SOL     OW 8212   4.247   1.474   4.463
 2438SOL    HW1 8213   4.288   1.437   4.547
 2438SOL    HW2 8214   4.262   1.411   4.388
 2439SOL     OW 8215   0.417   5.060   0.610
 2439SOL    HW1 8216   0.421   4.970   0.569
 2439SOL    HW2 8217   0.387   5.127   0.541
 2440SOL     OW 8218   3.575   6.927   6.260
 2440SOL    HW1 8219   3.560   6.909   6.163
 2440SOL    HW2 8220   3.642   7.001   6.271
 2441SOL     OW 8221   5.821   1.207   0.013
 2441SOL    HW1 8222   5.903   1.238   0.062
 2441SOL    HW2 8223   5.773   1.140   0.070
 2442SOL     OW 8224   5.668   5.022   2.920
 2442SOL    HW1 8225   5.631   5.105   2.877
 2442SOL    HW2 8226   5.674   4.949   2.853
 2443SOL     OW 8227   2.646   0.786   0.209
 2443SOL    HW1 8228   2.583   0.762   0.283
 2443SOL    HW2 8229   2.634   0.882   0.183
 2444SOL     OW 8230   3.948   5.058   0.494
 2444SOL    HW1 8231   4.016   4.994   0.457
 2444SOL    HW2 8232   3.877   5.075   0.426
 2445SOL     OW 8233   5.668   1.194   1.847
 2445SOL    HW1 8234   5.573   1.222   1.854
 2445SOL    HW2 8235   5.727   1.275   1.846
 2446SOL     OW 8236   0.956   2.580   3.569
 2446SOL    HW1 8237   0.916   2.576   3.661
 2446SOL    HW2 8238   0.924   2.662   3.522
 2447SOL     OW 8239   2.572   0.863   0.811
 2447SOL    HW1 8240   2.504   0.907   0.752
 2447SOL    HW2 8241   2.598   0.774   0.772
 2448SOL     OW 8242   6.277   1.617   4.180
 2448SOL    HW1 8243   6.264   1.609   4.081
 2448SOL    HW2 8244   6.375   1.625   4.199
 2449SOL     OW 8245   1.681   3.532   1.284
 2449SOL    HW1 8246   1.607   3.558   1.346
 2449SOL    HW2 8247   1.678   3.588   1.201
 2450SOL     OW 8248   2.917   5.444   6.388
 2450SOL    HW1 8249   2.828   5.474   6.422
 2450SOL    HW2 8250   2.905   5.370   6.321
 2451SOL     OW 8251   1.372   0.508   3.335
 2451SOL    HW1 8252   1.441   0.513   3.408
 2451SOL    HW2 8253   1.418   0.497   3.247
 2452SOL     OW 8254   2.771   1.978   3.953
 2452SOL    HW1 8255   2.711   1.925   4.013
 2452SOL    HW2 8256   2.815   2.051   4.005
 2453SOL     OW 8257   0.259   3.083   0.527
 2453SOL    HW1 8258   0.343   3.042   0.560
 2453SOL    HW2 8259   0.239   3.049   0.435
 2454SOL     OW 8260   3.012   6.440   0.079
 2454SOL    HW1 8261   2.994   6.405   7.014
 2454SOL    HW2 8262   3.066   6.524   0.073
 2455SOL     OW 8263   4.362   1.027   0.687
 2455SOL    HW1 8264   4.441   0.969   0.708
 2455SOL    HW2 8265   4.278   0.976   0.702
 2456SOL     OW 8266   0.229   2.521   6.544
 2456SOL    HW1 8267   0.296   2.509   6.618
 2456SOL    HW2 8268   0.220   2.618   6.523
 2457SOL     OW 8269   6.490   0.943   6.441
 2457SOL    HW1 8270   6.441   0.986   6.517
 2457SOL    HW2 8271   6.545   1.013   6.394
 2458SOL     OW 8272   1.494   6.385   3.854
 2458SOL    HW1 8273   1.581   6.410   3.896
 2458SOL    HW2 8274   1.500   6.396   3.755
 2459SOL     OW 8275   2.678   6.667   5.571
 2459SOL    HW1 8276   2.735   6.644   5.650
 2459SOL    HW2 8277   2.734   6.669   5.488
 2460SOL     OW 8278   1.416   1.308   0.586
 2460SOL    HW1 8279   1.424   1.225   0.531
 2460SOL    HW2 8280   1.497   1.365   0.572
 2461SOL     OW 8281   5.260   0.622   4.201
 2461SOL    HW1 8282   5.294   0.593   4.290
 2461SOL    HW2 8283   5.248   0.543   4.142
 2462SOL     OW 8284   2.019   4.890   6.795
 2462SOL    HW1 8285   1.949   4.819   6.796
 2462SOL    HW2 8286   2.050   4.908   6.888
 2463SOL     OW 8287   5.892   1.970   6.878
 2463SOL    HW1 8288   5.885   2.004   6.972
 2463SOL    HW2 8289   5.964   1.901   6.873
 2464SOL     OW 8290   2.094   3.359   2.971
 2464SOL    HW1 8291   2.116   3.392   3.063
 2464SOL    HW2 8292   2.100   3.259   2.969
 2465SOL     OW 8293   1.029   6.700   6.366
 2465SOL    HW1 8294   0.940   6.660   6.345
 2465SOL    HW2 8295   1.042   6.783   6.312
 2466SOL     OW 8296   2.308   1.675   2.915
 2466SOL    HW1 8297   2.245   1.628   2.977
 2466SOL    HW2 8298   2.256   1.726   2.847
 2467SOL     OW 8299   5.079   1.638   5.194
 2467SOL    HW1 8300   5.092   1.635   5.095
 2467SOL    HW2 8301   4.995   1.688   5.216
 2468SOL     OW 8302   4.238   0.029   1.140
 2468SOL    HW1 8303   4.190   6.968   1.149
 2468SOL    HW2 8304   4.187   0.088   1.077
 2469SOL     OW 8305   4.146   3.506   4.603
 2469SOL    HW1 8306   4.133   3.585   4.663
 2469SOL    HW2 8307   4.136   3.422   4.656
 2470SOL     OW 8308   4.047   4.451   5.551
 2470SOL    HW1 8309   4.050   4.485   5.645
 2470SOL    HW2 8310   4.036   4.352   5.551
 2471SOL     OW 8311   3.045   6.183   0.442
 2471SOL    HW1 8312   3.045   6.281   0.426
 2471SOL    HW2 8313   3.128   6.157   0.492
 2472SOL     OW 8314   5.199   2.173   3.295
 2472SOL    HW1 8315   5.193   2.225   3.210
 2472SOL    HW2 8316   5.164   2.229   3.370
 2473SOL     OW 8317   0.857   3.703   4.710
 2473SOL    HW1 8318   0.801   3.702   4.627
 2473SOL    HW2 8319   0.951   3.676   4.687
 2474SOL     OW 8320   0.179   5.841   1.623
 2474SOL    HW1 8321   0.133   5.777   1.685
 2474SOL    HW2 8322   0.131   5.929   1.624
 2475SOL     OW 8323   4.094   1.115   2.454
 2475SOL    HW1 8324   4.136   1.180   2.518
 2475SOL    HW2 8325   3.998   1.138   2.441
 2476SOL     OW 8326   6.051   1.313   2.343
 2476SOL    HW1 8327   6.078   1.270   2.257
 2476SOL    HW2 8328   6.079   1.254   2.419
 2477SOL     OW 8329   4.534   1.304   2.959
 2477SOL    HW1 8330   4.460   1.362   2.992
 2477SOL    HW2 8331   4.609   1.304   3.026
 2478SOL     OW 8332   6.280   1.599   1.262
 2478SOL    HW1 8333   6.345   1.628   1.192
 2478SOL    HW2 8334   6.294   1.503   1.282
 2479SOL     OW 8335   0.834   2.745   2.446
 2479SOL    HW1 8336   0.779   2.749   2.363
 2479SOL    HW2 8337   0.912   2.685   2.431
 2480SOL     OW 8338   4.738   4.214   0.925
 2480SOL    HW1 8339   4.717   4.229   0.828
 2480SOL    HW2 8340   4.748   4.116   0.942
 2481SOL     OW 8341   3.905   6.568   0.459
 2481SOL    HW1 8342   3.932   6.608   0.546
 2481SOL    HW2 8343   3.836   6.497   0.475
 2482SOL     OW 8344   5.317   3.693   5.555
 2482SOL    HW1 8345   5.409   3.723   5.532
 2482SOL    HW2 8346   5.321   3.623   5.626
 2483SOL     OW 8347   1.980   1.584   0.319
 2483SOL    HW1 8348   2.016   1.607   0.409
 2483SOL    HW2 8349   1.939   1.665   0.277
 2484SOL     OW 8350   3.972   0.642   7.002
 2484SOL    HW1 8351   4.021   0.571   6.952
 2484SOL    HW2 8352   4.020   0.661   0.061
 2485SOL     OW 8353   5.986   3.856   1.402
 2485SOL    HW1 8354   5.887   3.869   1.403
 2485SOL    HW2 8355   6.021   3.874   1.310
 2486SOL     OW 8356   2.118   4.477   5.143
 2486SOL    HW1 8357   2.051   4.503   5.074
 2486SOL    HW2 8358   2.129   4.377   5.143
 2487SOL     OW 8359   4.444   6.186   0.271
 2487SOL    HW1 8360   4.455   6.206   0.368
 2487SOL    HW2 8361   4.363   6.130   0.257
 2488SOL     OW 8362   1.346   4.532   2.048
 2488SOL    HW1 8363   1.299   4.556   2.133
 2488SOL    HW2 8364   1.425   4.474   2.069
 2489SOL     OW 8365   1.253   6.889   3.828
 2489SOL    HW1 8366   1.293   6.833   3.755
 2489SOL    HW2 8367   1.154   6.874   3.831
 2490SOL     OW 8368   6.990   5.594   1.252
 2490SOL    HW1 8369   0.050   5.593   1.201
 2490SOL    HW2 8370   7.009   5.582   1.349
 2491SOL     OW 8371   2.409   4.633   0.358
 2491SOL    HW1 8372   2.346   4.617   0.434
 2491SOL    HW2 8373   2.503   4.636   0.392
 2492SOL     OW 8374   4.789   3.617   0.920
 2492SOL    HW1 8375   4.705   3.607   0.972
 2492SOL    HW2 8376   4.813   3.529   0.877
 2493SOL     OW 8377   5.682   0.159   2.258
 2493SOL    HW1 8378   5.732   0.175   2.343
 2493SOL    HW2 8379   5.722   0.216   2.185
 2494SOL     OW 8380   5.499   4.652   2.889
 2494SOL    HW1 8381   5.484   4.750   2.903
 2494SOL    HW2 8382   5.413   4.603   2.899
 2495SOL     OW 8383   4.981   6.777   4.318
 2495SOL    HW1 8384   4.891   6.794   4.360
 2495SOL    HW2 8385   5.046   6.844   4.352
 2496SOL     OW 8386   6.842   2.720   5.979
 2496SOL    HW1 8387   6.777   2.775   6.033
 2496SOL    HW2 8388   6.853   2.760   5.889
 2497SOL     OW 8389   0.403   0.435   0.494
 2497SOL    HW1 8390   0.405   0.336   0.481
 2497SOL    HW2 8391   0.441   0.458   0.584
 2498SOL     OW 8392   2.985   1.967   4.464
 2498SOL    HW1 8393   2.992   1.949   4.563
 2498SOL    HW2 8394   2.945   1.887   4.419
 2499SOL     OW 8395   6.239   2.428   1.950
 2499SOL    HW1 8396   6.310   2.487   1.911
 2499SOL    HW2 8397   6.149   2.468   1.933
 2500SOL     OW 8398   4.413   4.088   6.620
 2500SOL    HW1 8399   4.365   4.153   6.678
 2500SOL    HW2 8400   4.374   3.997   6.633
 2501SOL     OW 8401   5.849   5.065   0.579
 2501SOL    HW1 8402   5.866   4.967   0.581
 2501SOL    HW2 8403   5.756   5.082   0.545
 2502SOL     OW 8404   1.024   6.937   3.362
 2502SOL    HW1 8405   1.024   6.920   3.461
 2502SOL    HW2 8406   0.986   0.001   3.344
 2503SOL     OW 8407   2.586   5.802   4.436
 2503SOL    HW1 8408   2.638   5.883   4.406
 2503SOL    HW2 8409   2.641   5.720   4.422
 2504SOL     OW 8410   3.518   5.307   4.583
 2504SOL    HW1 8411   3.463   5.330   4.503
 2504SOL    HW2 8412   3.474   5.340   4.666
 2505SOL     OW 8413   0.579   6.539   3.205
 2505SOL    HW1 8414   0.578   6.638   3.220
 2505SOL    HW2 8415   0.669   6.511   3.173
 2506SOL     OW 8416   5.744   4.043   5.782
 2506SOL    HW1 8417   5.702   4.121   5.829
 2506SOL    HW2 8418   5.813   4.002   5.841
 2507SOL     OW 8419   0.087   3.564   0.693
 2507SOL    HW1 8420   0.065   3.630   0.765
 2507SOL    HW2 8421   0.186   3.552   0.688
 2508SOL     OW 8422   2.502   1.679   3.512
 2508SOL    HW1 8423   2.552   1.764   3.529
 2508SOL    HW2 8424   2.513   1.653   3.416
 2509SOL     OW 8425   0.295   3.716   0.890
 2509SOL    HW1 8426   0.278   3.622   0.919
 2509SOL    HW2 8427   0.387   3.723   0.852
 2510SOL     OW 8428   2.624   4.751   1.423
 2510SOL    HW1 8429   2.623   4.652   1.411
 2510SOL    HW2 8430   2.706   4.778   1.473
 2511SOL     OW 8431   3.997   2.130   4.765
 2511SOL    HW1 8432   3.940   2.146   4.684
 2511SOL    HW2 8433   3.989   2.035   4.793
 2512SOL     OW 8434   5.186   3.879   5.015
 2512SOL    HW1 8435   5.191   3.781   5.038
 2512SOL    HW2 8436   5.135   3.927   5.087
 2513SOL     OW 8437   1.905   4.270   5.519
 2513SOL    HW1 8438   1.998   4.246   5.547
 2513SOL    HW2 8439   1.858   4.189   5.485
 2514SOL     OW 8440   6.578   2.915   4.898
 2514SOL    HW1 8441   6.505   2.968   4.943
 2514SOL    HW2 8442   6.558   2.906   4.801
 2515SOL     OW 8443   1.563   0.067   0.679
 2515SOL    HW1 8444   1.647   0.038   0.633
 2515SOL    HW2 8445   1.490   0.075   0.611
 2516SOL     OW 8446   6.118   1.829   2.317
 2516SOL    HW1 8447   6.137   1.743   2.364
 2516SOL    HW2 8448   6.126   1.816   2.219
 2517SOL     OW 8449   1.284   6.426   5.584
 2517SOL    HW1 8450   1.351   6.384   5.523
 2517SOL    HW2 8451   1.331   6.464   5.664
 2518SOL     OW 8452   1.028   4.415   6.901
 2518SOL    HW1 8453   0.942   4.403   6.852
 2518SOL    HW2 8454   1.013   4.471   6.982
 2519SOL     OW 8455   4.043   6.346   3.105
 2519SOL    HW1 8456   4.053   6.343   3.205
 2519SOL    HW2 8457   4.102   6.418   3.069
 2520SOL     OW 8458   3.080   1.767   0.380
 2520SOL    HW1 8459   3.052   1.858   0.410
 2520SOL    HW2 8460   3.025   1.739   0.302
 2521SOL     OW 8461   1.886   1.114   5.455
 2521SOL    HW1 8462   1.795   1.133   5.419
 2521SOL    HW2 8463   1.954   1.154   5.393
 2522SOL     OW 8464   0.326   3.511   4.728
 2522SOL    HW1 8465   0.309   3.501   4.826
 2522SOL    HW2 8466   0.377   3.432   4.695
 2523SOL     OW 8467   0.342   3.216   1.505
 2523SOL    HW1 8468   0.268   3.156   1.477
 2523SOL    HW2 8469   0.421   3.202   1.446
 2524SOL     OW 8470   1.020   5.837   4.689
 2524SOL    HW1 8471   1.032   5.935   4.673
 2524SOL    HW2 8472   1.013   5.819   4.787
 2525SOL     OW 8473   1.063   2.695   5.820
 2525SOL    HW1 8474   0.985   2.755   5.838
 2525SOL    HW2 8475   1.048   2.648   5.733
 2526SOL     OW 8476   0.889   4.396   6.608
 2526SOL    HW1 8477   0.914   4.305   6.638
 2526SOL    HW2 8478   0.795   4.395   6.573
 2527SOL     OW 8479   5.427   5.579   4.909
 2527SOL    HW1 8480   5.462   5.522   4.982
 2527SOL    HW2 8481   5.397   5.521   4.833
 2528SOL     OW 8482   5.746   4.520   0.530
 2528SOL    HW1 8483   5.840   4.536   0.501
 2528SOL    HW2 8484   5.693   4.483   0.453
 2529SOL     OW 8485   6.402   6.466   6.539
 2529SOL    HW1 8486   6.492   6.423   6.541
 2529SOL    HW2 8487   6.369   6.470   6.445
 2530SOL     OW 8488   2.818   6.676   5.337
 2530SOL    HW1 8489   2.775   6.640   5.254
 2530SOL    HW2 8490   2.893   6.615   5.365
 2531SOL     OW 8491   5.015   6.061   3.957
 2531SOL    HW1 8492   5.110   6.030   3.949
 2531SOL    HW2 8493   5.007   6.152   3.917
 2532SOL     OW 8494   0.681   6.237   0.791
 2532SOL    HW1 8495   0.744   6.280   0.726
 2532SOL    HW2 8496   0.599   6.207   0.744
 2533SOL     OW 8497   3.110   6.402   4.239
 2533SOL    HW1 8498   3.145   6.308   4.239
 2533SOL    HW2 8499   3.035   6.409   4.173
 2534SOL     OW 8500   3.698   0.974   3.114
 2534SOL    HW1 8501   3.655   0.986   3.025
 2534SOL    HW2 8502   3.644   1.022   3.184
 2535SOL     OW 8503   3.645   2.276   5.429
 2535SOL    HW1 8504   3.567   2.217   5.406
 2535SOL    HW2 8505   3.631   2.366   5.388
 2536SOL     OW 8506   1.178   1.903   5.010
 2536SOL    HW1 8507   1.146   1.916   4.916
 2536SOL    HW2 8508   1.100   1.894   5.071
 2537SOL     OW 8509   4.094   0.461   6.842
 2537SOL    HW1 8510   4.167   0.417   6.895
 2537SOL    HW2 8511   4.062   0.398   6.771
 2538SOL     OW 8512   1.144   4.465   3.861
 2538SOL    HW1 8513   1.238   4.464   3.895
 2538SOL    HW2 8514   1.081   4.476   3.938
 2539SOL     OW 8515   5.085   1.289   5.394
 2539SOL    HW1 8516   5.143   1.357   5.439
 2539SOL    HW2 8517   5.072   1.211   5.454
 2540SOL     OW 8518   4.266   1.836   2.944
 2540SOL    HW1 8519   4.259   1.775   3.023
 2540SOL    HW2 8520   4.284   1.929   2.974
 2541SOL     OW 8521   2.527   0.126   5.518
 2541SOL    HW1 8522   2.538   0.029   5.540
 2541SOL    HW2 8523   2.454   0.165   5.573
 2542SOL     OW 8524   3.584   1.499   6.396
 2542SOL    HW1 8525   3.656   1.431   6.391
 2542SOL    HW2 8526   3.603   1.563   6.470
 2543SOL     OW 8527   1.591   1.285   3.181
 2543SOL    HW1 8528   1.666   1.313   3.122
 2543SOL    HW2 8529   1.627   1.259   3.271
 2544SOL     OW 8530   0.668   6.226   1.495
 2544SOL    HW1 8531   0.659   6.271   1.407
 2544SOL    HW2 8532   0.600   6.153   1.503
 2545SOL     OW 8533   1.375   6.806   1.610
 2545SOL    HW1 8534   1.301   6.851   1.661
 2545SOL    HW2 8535   1.337   6.758   1.531
 2546SOL     OW 8536   0.120   1.486   1.543
 2546SOL    HW1 8537   0.167   1.399   1.531
 2546SOL    HW2 8538   0.146   1.549   1.470
 2547SOL     OW 8539   6.002   5.468   0.614
 2547SOL    HW1 8540   5.907   5.454   0.587
 2547SOL    HW2 8541   6.035   5.387   0.663
 2548SOL     OW 8542   1.442   6.734   5.996
 2548SOL    HW1 8543   1.526   6.775   6.032
 2548SOL    HW2 8544   1.372   6.734   6.068
 2549SOL     OW 8545   2.324   0.925   0.663
 2549SOL    HW1 8546   2.256   0.853   0.678
 2549SOL    HW2 8547   2.280   1.003   0.618
 2550SOL     OW 8548   0.168   7.024   6.413
 2550SOL    HW1 8549   0.238   6.965   6.373
 2550SOL    HW2 8550   0.141   0.066   6.346
 2551SOL     OW 8551   3.345   5.324   0.286
 2551SOL    HW1 8552   3.292   5.408   0.271
 2551SOL    HW2 8553   3.312   5.252   0.225
 2552SOL     OW 8554   2.232   5.717   5.525
 2552SOL    HW1 8555   2.220   5.741   5.622
 2552SOL    HW2 8556   2.293   5.638   5.518
 2553SOL     OW 8557   5.131   2.757   5.157
 2553SOL    HW1 8558   5.079   2.796   5.081
 2553SOL    HW2 8559   5.149   2.828   5.225
 2554SOL     OW 8560   1.988   6.556   0.753
 2554SOL    HW1 8561   2.034   6.560   0.842
 2554SOL    HW2 8562   1.986   6.462   0.721
 2555SOL     OW 8563   6.009   6.972   5.614
 2555SOL    HW1 8564   5.951   6.895   5.640
 2555SOL    HW2 8565   5.958   0.030   5.621
 2556SOL     OW 8566   4.379   5.800   0.736
 2556SOL    HW1 8567   4.286   5.770   0.718
 2556SOL    HW2 8568   4.443   5.744   0.682
 2557SOL     OW 8569   2.571   3.598   6.858
 2557SOL    HW1 8570   2.523   3.664   6.917
 2557SOL    HW2 8571   2.553   3.506   6.892
 2558SOL     OW 8572   4.983   1.956   4.907
 2558SOL    HW1 8573   4.937   1.878   4.949
 2558SOL    HW2 8574   4.915   2.023   4.877
 2559SOL     OW 8575   6.940   3.887   4.280
 2559SOL    HW1 8576   6.844   3.901   4.256
 2559SOL    HW2 8577   6.962   3.790   4.273
 2560SOL     OW 8578   5.921   3.734   4.571
 2560SOL    HW1 8579   5.907   3.735   4.472
 2560SOL    HW2 8580   5.835   3.756   4.617
 2561SOL     OW 8581   3.388   6.138   5.060
 2561SOL    HW1 8582   3.443   6.208   5.014
 2561SOL    HW2 8583   3.442   6.095   5.133
 2562SOL     OW 8584   1.723   5.387   2.175
 2562SOL    HW1 8585   1.806   5.420   2.129
 2562SOL    HW2 8586   1.724   5.287   2.177
 2563SOL     OW 8587   4.092   2.431   0.273
 2563SOL    HW1 8588   4.175   2.410   0.221
 2563SOL    HW2 8589   4.017   2.451   0.210
 2564SOL     OW 8590   2.174   6.223   5.811
 2564SOL    HW1 8591   2.204   6.149   5.871
 2564SOL    HW2 8592   2.252   6.259   5.760
 2565SOL     OW 8593   0.820   0.379   6.898
 2565SOL    HW1 8594   0.825   0.284   6.869
 2565SOL    HW2 8595   0.835   0.439   6.820
 2566SOL     OW 8596   3.103   6.766   0.709
 2566SOL    HW1 8597   3.061   6.857   0.715
 2566SOL    HW2 8598   3.038   6.701   0.669
 2567SOL     OW 8599   0.431   0.993   1.447
 2567SOL    HW1 8600   0.413   0.902   1.410
 2567SOL    HW2 8601   0.497   1.040   1.389
 2568SOL     OW 8602   4.509   6.929   0.433
 2568SOL    HW1 8603   4.502   6.882   0.345
 2568SOL    HW2 8604   4.428   6.986   0.447
 2569SOL     OW 8605   3.284   1.308   1.580
 2569SOL    HW1 8606   3.258   1.239   1.512
 2569SOL    HW2 8607   3.383   1.321   1.578
 2570SOL     OW 8608   5.519   0.173   6.337
 2570SOL    HW1 8609   5.508   0.114   6.417
 2570SOL    HW2 8610   5.440   0.233   6.329
 2571SOL     OW 8611   2.180   4.206   5.492
 2571SOL    HW1 8612   2.184   4.300   5.457
 2571SOL    HW2 8613   2.266   4.159   5.473
 2572SOL     OW 8614   2.150   4.749   0.028
 2572SOL    HW1 8615   2.057   4.746   7.018
 2572SOL    HW2 8616   2.166   4.669   0.085
 2573SOL     OW 8617   6.434   2.577   1.874
 2573SOL    HW1 8618   6.469   2.656   1.924
 2573SOL    HW2 8619   6.381   2.608   1.795
 2574SOL     OW 8620   6.343   3.799   0.042
 2574SOL    HW1 8621   6.338   3.745   6.985
 2574SOL    HW2 8622   6.308   3.745   0.119
 2575SOL     OW 8623   5.412   5.191   0.756
 2575SOL    HW1 8624   5.324   5.144   0.764
 2575SOL    HW2 8625   5.424   5.253   0.833
 2576SOL     OW 8626   3.606   6.525   4.456
 2576SOL    HW1 8627   3.591   6.468   4.375
 2576SOL    HW2 8628   3.521   6.570   4.481
 2577SOL     OW 8629   3.891   6.795   1.982
 2577SOL    HW1 8630   3.811   6.795   1.921
 2577SOL    HW2 8631   3.924   6.889   1.994
 2578SOL     OW 8632   4.895   1.216   4.180
 2578SOL    HW1 8633   4.809   1.266   4.187
 2578SOL    HW2 8634   4.955   1.263   4.115
 2579SOL     OW 8635   1.583   6.172   3.510
 2579SOL    HW1 8636   1.607   6.176   3.413
 2579SOL    HW2 8637   1.599   6.261   3.552
 2580SOL     OW 8638   3.011   3.296   6.552
 2580SOL    HW1 8639   3.080   3.368   6.550
 2580SOL    HW2 8640   2.949   3.307   6.474
 2581SOL     OW 8641   0.684   5.057   1.336
 2581SOL    HW1 8642   0.755   4.988   1.353
 2581SOL    HW2 8643   0.657   5.099   1.422
 2582SOL     OW 8644   0.629   4.302   2.149
 2582SOL    HW1 8645   0.597   4.396   2.167
 2582SOL    HW2 8646   0.699   4.304   2.077
 2583SOL     OW 8647   0.684   1.243   0.550
 2583SOL    HW1 8648   0.662   1.243   0.453
 2583SOL    HW2 8649   0.713   1.151   0.578
 2584SOL     OW 8650   4.349   5.602   6.570
 2584SOL    HW1 8651   4.415   5.678   6.563
 2584SOL    HW2 8652   4.263   5.629   6.527
 2585SOL     OW 8653   4.175   2.627   6.964
 2585SOL    HW1 8654   4.231   2.558   6.919
 2585SOL    HW2 8655   4.224   2.666   0.015
 2586SOL     OW 8656   3.707   1.400   3.312
 2586SOL    HW1 8657   3.791   1.348   3.329
 2586SOL    HW2 8658   3.707   1.482   3.369
 2587SOL     OW 8659   0.107   0.840   3.339
 2587SOL    HW1 8660   0.192   0.884   3.311
 2587SOL    HW2 8661   0.030   0.898   3.312
 2588SOL     OW 8662   4.439   1.048   6.705
 2588SOL    HW1 8663   4.409   1.140   6.731
 2588SOL    HW2 8664   4.532   1.033   6.739
 2589SOL     OW 8665   0.851   6.133   5.941
 2589SOL    HW1 8666   0.802   6.165   5.860
 2589SOL    HW2 8667   0.948   6.120   5.919
 2590SOL     OW 8668   3.397   5.982   1.135
 2590SOL    HW1 8669   3.392   5.882   1.138
 2590SOL    HW2 8670   3.468   6.014   1.197
 2591SOL     OW 8671   0.217   4.564   3.023
 2591SOL    HW1 8672   0.258   4.537   2.935
 2591SOL    HW2 8673   0.202   4.663   3.023
 2592SOL     OW 8674   3.773   5.818   0.040
 2592SOL    HW1 8675   3.703   5.822   6.995
 2592SOL    HW2 8676   3.835   5.896   0.030
 2593SOL     OW 8677   3.679   5.469   1.128
 2593SOL    HW1 8678   3.664   5.536   1.056
 2593SOL    HW2 8679   3.675   5.377   1.090
 2594SOL     OW 8680   2.335   4.551   6.527
 2594SOL    HW1 8681   2.315   4.536   6.623
 2594SOL    HW2 8682   2.305   4.471   6.474
 2595SOL     OW 8683   6.812   1.215   3.839
 2595SOL    HW1 8684   6.730   1.214   3.783
 2595SOL    HW2 8685   6.807   1.290   3.905
 2596SOL     OW 8686   3.212   1.766   1.484
 2596SOL    HW1 8687   3.248   1.673   1.483
 2596SOL    HW2 8688   3.207   1.799   1.579
 2597SOL     OW 8689   1.370   4.703   6.066
 2597SOL    HW1 8690   1.401   4.611   6.044
 2597SOL    HW2 8691   1.294   4.727   6.006
 2598SOL     OW 8692   6.890   1.317   3.393
 2598SOL    HW1 8693   6.934   1.401   3.361
 2598SOL    HW2 8694   6.933   1.287   3.478
 2599SOL     OW 8695   1.981   6.203   0.889
 2599SOL    HW1 8696   1.889   6.242   0.891
 2599SOL    HW2 8697   1.974   6.103   0.888
 2600SOL     OW 8698   5.606   2.975   4.633
 2600SOL    HW1 8699   5.561   3.032   4.702
 2600SOL    HW2 8700   5.705   2.985   4.641
 2601SOL     OW 8701   1.945   1.241   2.423
 2601SOL    HW1 8702   1.924   1.262   2.328
 2601SOL    HW2 8703   1.860   1.240   2.476
 2602SOL     OW 8704   1.354   4.810   5.008
 2602SOL    HW1 8705   1.423   4.792   4.937
 2602SOL    HW2 8706   1.269   4.839   4.964
 2603SOL     OW 8707   3.357   1.011   3.914
 2603SOL    HW1 8708   3.445   0.963   3.913
 2603SOL    HW2 8709   3.371   1.104   3.949
 2604SOL     OW 8710   4.941   2.165   2.421
 2604SOL    HW1 8711   4.959   2.250   2.469
 2604SOL    HW2 8712   4.842   2.149   2.418
 2605SOL     OW 8713   2.133   3.353   3.837
 2605SOL    HW1 8714   2.215   3.297   3.824
 2605SOL    HW2 8715   2.090   3.368   3.748
 2606SOL     OW 8716   5.647   4.928   1.642
 2606SOL    HW1 8717   5.677   4.887   1.728
 2606SOL    HW2 8718   5.555   4.896   1.620
 2607SOL     OW 8719   1.101   1.702   1.864
 2607SOL    HW1 8720   1.099   1.733   1.959
 2607SOL    HW2 8721   1.196   1.684   1.837
 2608SOL     OW 8722   4.736   5.079   0.244
 2608SOL    HW1 8723   4.808   5.009   0.238
 2608SOL    HW2 8724   4.730   5.112   0.338
 2609SOL     OW 8725   6.483   1.105   1.694
 2609SOL    HW1 8726   6.536   1.020   1.690
 2609SOL    HW2 8727   6.421   1.101   1.773
 2610SOL     OW 8728   1.025   4.519   4.503
 2610SOL    HW1 8729   1.059   4.601   4.548
 2610SOL    HW2 8730   0.998   4.452   4.571
 2611SOL     OW 8731   4.111   6.307   1.068
 2611SOL    HW1 8732   4.164   6.313   1.152
 2611SOL    HW2 8733   4.168   6.268   0.995
 2612SOL     OW 8734   6.247   6.889   4.619
 2612SOL    HW1 8735   6.226   6.963   4.555
 2612SOL    HW2 8736   6.166   6.868   4.674
 2613SOL     OW 8737   2.434   5.538   6.670
 2613SOL    HW1 8738   2.422   5.568   6.765
 2613SOL    HW2 8739   2.392   5.606   6.609
 2614SOL     OW 8740   6.362   1.881   6.809
 2614SOL    HW1 8741   6.339   1.784   6.806
 2614SOL    HW2 8742   6.339   1.919   6.899
 2615SOL     OW 8743   0.922   3.086   2.526
 2615SOL    HW1 8744   1.020   3.105   2.522
 2615SOL    HW2 8745   0.906   2.991   2.498
 2616SOL     OW 8746   2.965   2.964   5.628
 2616SOL    HW1 8747   2.908   3.044   5.610
 2616SOL    HW2 8748   2.932   2.887   5.574
 2617SOL     OW 8749   4.181   6.962   0.839
 2617SOL    HW1 8750   4.225   0.025   0.838
 2617SOL    HW2 8751   4.242   6.895   0.880
 2618SOL     OW 8752   6.576   0.497   3.439
 2618SOL    HW1 8753   6.495   0.485   3.383
 2618SOL    HW2 8754   6.625   0.410   3.446
 2619SOL     OW 8755   4.530   2.117   2.121
 2619SOL    HW1 8756   4.436   2.137   2.094
 2619SOL    HW2 8757   4.590   2.193   2.093
 2620SOL     OW 8758   6.351   6.363   3.854
 2620SOL    HW1 8759   6.415   6.287   3.866
 2620SOL    HW2 8760   6.284   6.339   3.784
 2621SOL     OW 8761   0.931   5.299   1.815
 2621SOL    HW1 8762   0.911   5.361   1.890
 2621SOL    HW2 8763   0.987   5.223   1.847
 2622SOL     OW 8764   1.317   4.017   5.755
 2622SOL    HW1 8765   1.335   3.957   5.678
 2622SOL    HW2 8766   1.246   4.083   5.730
 2623SOL     OW 8767   0.088   0.795   5.327
 2623SOL    HW1 8768   0.004   0.818   5.375
 2623SOL    HW2 8769   0.119   0.704   5.354
 2624SOL     OW 8770   0.397   1.167   4.709
 2624SOL    HW1 8771   0.378   1.197   4.802
 2624SOL    HW2 8772   0.473   1.220   4.671
 2625SOL     OW 8773   2.452   3.699   5.321
 2625SOL    HW1 8774   2.537   3.708   5.373
 2625SOL    HW2 8775   2.421   3.790   5.293
 2626SOL     OW 8776   0.043   0.460   6.263
 2626SOL    HW1 8777   6.980   0.504   6.259
 2626SOL    HW2 8778   0.113   0.525   6.235
 2627SOL     OW 8779   0.994   1.330   6.325
 2627SOL    HW1 8780   0.935   1.263   6.279
 2627SOL    HW2 8781   1.078   1.341   6.273
 2628SOL     OW 8782   2.215   3.649   5.600
 2628SOL    HW1 8783   2.206   3.591   5.680
 2628SOL    HW2 8784   2.176   3.603   5.520
 2629SOL     OW 8785   3.965   3.024   2.395
 2629SOL    HW1 8786   3.960   3.059   2.301
 2629SOL    HW2 8787   4.000   3.096   2.455
 2630SOL     OW 8788   3.234   1.859   2.756
 2630SOL    HW1 8789   3.317   1.805   2.763
 2630SOL    HW2 8790   3.172   1.835   2.831
 2631SOL     OW 8791   5.280   0.676   6.005
 2631SOL    HW1 8792   5.209   0.696   6.073
 2631SOL    HW2 8793   5.361   0.732   6.023
 2632SOL     OW 8794   5.026   3.139   0.706
 2632SOL    HW1 8795   5.042   3.237   0.693
 2632SOL    HW2 8796   4.943   3.125   0.759
 2633SOL     OW 8797   0.467   1.535   4.512
 2633SOL    HW1 8798   0.409   1.464   4.471
 2633SOL    HW2 8799   0.502   1.595   4.440
 2634SOL     OW 8800   0.462   5.339   3.930
 2634SOL    HW1 8801   0.422   5.346   3.839
 2634SOL    HW2 8802   0.552   5.382   3.930
 2635SOL     OW 8803   0.070   6.263   4.549
 2635SOL    HW1 8804   0.169   6.277   4.550
 2635SOL    HW2 8805   0.024   6.346   4.583
 2636SOL     OW 8806   4.127   0.281   5.542
 2636SOL    HW1 8807   4.172   0.282   5.453
 2636SOL    HW2 8808   4.053   0.348   5.543
 2637SOL     OW 8809   6.330   2.177   3.492
 2637SOL    HW1 8810   6.399   2.187   3.420
 2637SOL    HW2 8811   6.265   2.106   3.465
 2638SOL     OW 8812   0.097   0.057   4.065
 2638SOL    HW1 8813   0.118   0.003   4.147
 2638SOL    HW2 8814   0.107   7.026   3.984
 2639SOL     OW 8815   0.487   6.143   0.634
 2639SOL    HW1 8816   0.534   6.057   0.615
 2639SOL    HW2 8817   0.468   6.190   0.547
 2640SOL     OW 8818   6.590   6.496   5.443
 2640SOL    HW1 8819   6.557   6.589   5.457
 2640SOL    HW2 8820   6.525   6.432   5.484
 2641SOL     OW 8821   5.739   2.892   2.030
 2641SOL    HW1 8822   5.809   2.892   1.958
 2641SOL    HW2 8823   5.653   2.924   1.991
 2642SOL     OW 8824   5.948   0.751   3.797
 2642SOL    HW1 8825   6.010   0.698   3.854
 2642SOL    HW2 8826   5.930   0.840   3.840
 2643SOL     OW 8827   1.425   3.558   3.273
 2643SOL    HW1 8828   1.441   3.486   3.341
 2643SOL    HW2 8829   1.425   3.647   3.319
 2644SOL     OW 8830   5.111   5.306   4.528
 2644SOL    HW1 8831   5.078   5.400   4.518
 2644SOL    HW2 8832   5.046   5.255   4.584
 2645SOL     OW 8833   4.136   5.871   3.369
 2645SOL    HW1 8834   4.129   5.777   3.402
 2645SOL    HW2 8835   4.185   5.872   3.281
 2646SOL     OW 8836   6.251   1.598   6.809
 2646SOL    HW1 8837   6.234   1.622   6.904
 2646SOL    HW2 8838   6.173   1.547   6.772
 2647SOL     OW 8839   6.000   0.220   1.590
 2647SOL    HW1 8840   5.994   0.286   1.515
 2647SOL    HW2 8841   6.079   0.242   1.647
 2648SOL     OW 8842   0.989   6.901   3.941
 2648SOL    HW1 8843   1.009   6.827   4.005
 2648SOL    HW2 8844   1.017   6.988   3.981
 2649SOL     OW 8845   6.826   3.415   0.729
 2649SOL    HW1 8846   6.908   3.361   0.748
 2649SOL    HW2 8847   6.827   3.445   0.634
 2650SOL     OW 8848   1.842   4.830   3.302
 2650SOL    HW1 8849   1.762   4.888   3.300
 2650SOL    HW2 8850   1.905   4.863   3.373
 2651SOL     OW 8851   2.594   1.908   1.074
 2651SOL    HW1 8852   2.584   1.955   1.162
 2651SOL    HW2 8853   2.601   1.809   1.091
 2652SOL     OW 8854   4.201   3.374   5.322
 2652SOL    HW1 8855   4.181   3.391   5.226
 2652SOL    HW2 8856   4.291   3.412   5.345
 2653SOL     OW 8857   4.760   6.854   5.956
 2653SOL    HW1 8858   4.690   6.789   5.984
 2653SOL    HW2 8859   4.751   6.938   6.009
 2654SOL     OW 8860   4.238   0.075   1.439
 2654SOL    HW1 8861   4.231   0.071   1.339
 2654SOL    HW2 8862   4.320   0.126   1.464
 2655SOL     OW 8863   5.469   5.968   3.766
 2655SOL    HW1 8864   5.561   5.984   3.803
 2655SOL    HW2 8865   5.453   6.030   3.689
 2656SOL     OW 8866   3.423   5.037   4.555
 2656SOL    HW1 8867   3.461   5.005   4.468
 2656SOL    HW2 8868   3.433   5.136   4.561
 2657SOL     OW 8869   1.497   4.315   6.822
 2657SOL    HW1 8870   1.411   4.266   6.839
 2657SOL    HW2 8871   1.476   4.408   6.790
 2658SOL     OW 8872   5.397   4.951   0.210
 2658SOL    HW1 8873   5.345   4.876   0.169
 2658SOL    HW2 8874   5.440   4.919   0.294
 2659SOL     OW 8875   4.922   3.125   5.061
 2659SOL    HW1 8876   4.889   3.107   4.968
 2659SOL    HW2 8877   5.022   3.128   5.061
 2660SOL     OW 8878   1.565   0.379   1.659
 2660SOL    HW1 8879   1.596   0.301   1.605
 2660SOL    HW2 8880   1.581   0.361   1.756
 2661SOL     OW 8881   2.299   6.888   1.230
 2661SOL    HW1 8882   2.291   6.915   1.326
 2661SOL    HW2 8883   2.274   6.792   1.220
 2662SOL     OW 8884   3.265   6.409   5.320
 2662SOL    HW1 8885   3.287   6.458   5.235
 2662SOL    HW2 8886   3.344   6.413   5.382
 2663SOL     OW 8887   3.737   4.413   6.514
 2663SOL    HW1 8888   3.750   4.377   6.607
 2663SOL    HW2 8889   3.824   4.411   6.465
 2664SOL     OW 8890   4.426   3.102   5.797
 2664SOL    HW1 8891   4.337   3.145   5.785
 2664SOL    HW2 8892   4.488   3.135   5.726
 2665SOL     OW 8893   3.046   3.261   5.042
 2665SOL    HW1 8894   3.080   3.355   5.049
 2665SOL    HW2 8895   2.956   3.254   5.085
 2666SOL     OW 8896   1.052   4.925   1.809
 2666SOL    HW1 8897   1.080   4.996   1.874
 2666SOL    HW2 8898   0.962   4.891   1.835
 2667SOL     OW 8899   1.448   5.518   3.950
 2667SOL    HW1 8900   1.386   5.444   3.976
 2667SOL    HW2 8901   1.421   5.602   3.997
 2668SOL     OW 8902   0.136   2.754   4.825
 2668SOL    HW1 8903   0.105   2.724   4.735
 2668SOL    HW2 8904   0.197   2.833   4.814
 2669SOL     OW 8905   3.073   5.275   5.908
 2669SOL    HW1 8906   3.077   5.177   5.888
 2669SOL    HW2 8907   3.165   5.308   5.931
 2670SOL     OW 8908   6.204   3.708   4.977
 2670SOL    HW1 8909   6.245   3.633   4.926
 2670SOL    HW2 8910   6.173   3.675   5.067
 2671SOL     OW 8911   4.225   5.362   0.388
 2671SOL    HW1 8912   4.302   5.310   0.352
 2671SOL    HW2 8913   4.239   5.459   0.371
 2672SOL     OW 8914   2.775   5.878   1.213
 2672SOL    HW1 8915   2.713   5.810   1.252
 2672SOL    HW2 8916   2.752   5.893   1.117
 2673SOL     OW 8917   6.388   1.837   1.646
 2673SOL    HW1 8918   6.462   1.814   1.582
 2673SOL    HW2 8919   6.401   1.931   1.677
 2674SOL     OW 8920   1.452   4.455   4.234
 2674SOL    HW1 8921   1.413   4.391   4.167
 2674SOL    HW2 8922   1.415   4.547   4.217
 2675SOL     OW 8923   6.309   5.817   4.029
 2675SOL    HW1 8924   6.316   5.893   4.094
 2675SOL    HW2 8925   6.398   5.804   3.985
 2676SOL     OW 8926   2.986   3.292   1.310
 2676SOL    HW1 8927   3.049   3.231   1.262
 2676SOL    HW2 8928   2.961   3.251   1.398
 2677SOL     OW 8929   3.109   4.238   6.962
 2677SOL    HW1 8930   3.063   4.327   6.969
 2677SOL    HW2 8931   3.075   4.177   0.007
 2678SOL     OW 8932   0.465   2.556   2.682
 2678SOL    HW1 8933   0.500   2.496   2.610
 2678SOL    HW2 8934   0.424   2.637   2.641
 2679SOL     OW 8935   2.078   4.882   2.342
 2679SOL    HW1 8936   1.999   4.849   2.394
 2679SOL    HW2 8937   2.054   4.966   2.295
 2680SOL     OW 8938   1.454   1.884   1.406
 2680SOL    HW1 8939   1.438   1.946   1.329
 2680SOL    HW2 8940   1.368   1.839   1.431
 2681SOL     OW 8941   1.176   2.176   5.034
 2681SOL    HW1 8942   1.128   2.146   4.952
 2681SOL    HW2 8943   1.184   2.100   5.099
 2682SOL     OW 8944   4.734   4.233   4.104
 2682SOL    HW1 8945   4.811   4.212   4.043
 2682SOL    HW2 8946   4.762   4.303   4.170
 2683SOL     OW 8947   2.480   4.707   2.099
 2683SOL    HW1 8948   2.479   4.707   2.199
 2683SOL    HW2 8949   2.574   4.710   2.066
 2684SOL     OW 8950   4.430   6.962   2.327
 2684SOL    HW1 8951   4.430   6.870   2.288
 2684SOL    HW2 8952   4.449   0.002   2.255
 2685SOL     OW 8953   5.927   5.713   5.650
 2685SOL    HW1 8954   6.010   5.662   5.625
 2685SOL    HW2 8955   5.945   5.811   5.638
 2686SOL     OW 8956   1.702   1.866   5.939
 2686SOL    HW1 8957   1.759   1.944   5.963
 2686SOL    HW2 8958   1.605   1.890   5.952
 2687SOL     OW 8959   4.402   5.646   1.014
 2687SOL    HW1 8960   4.399   5.717   0.943
 2687SOL    HW2 8961   4.364   5.683   1.099
 2688SOL     OW 8962   2.902   2.722   0.024
 2688SOL    HW1 8963   2.886   2.819   0.008
 2688SOL    HW2 8964   2.869   2.697   0.115
 2689SOL     OW 8965   6.889   3.307   1.992
 2689SOL    HW1 8966   6.827   3.359   1.933
 2689SOL    HW2 8967   6.964   3.270   1.937
 2690SOL     OW 8968   3.439   3.194   5.463
 2690SOL    HW1 8969   3.464   3.101   5.491
 2690SOL    HW2 8970   3.413   3.195   5.367
 2691SOL     OW 8971   0.945   5.338   3.765
 2691SOL    HW1 8972   0.854   5.369   3.736
 2691SOL    HW2 8973   1.013   5.367   3.697
 2692SOL     OW 8974   2.664   6.761   3.653
 2692SOL    HW1 8975   2.601   6.691   3.685
 2692SOL    HW2 8976   2.732   6.720   3.593
 2693SOL     OW 8977   2.445   4.544   3.858
 2693SOL    HW1 8978   2.536   4.585   3.863
 2693SOL    HW2 8979   2.380   4.602   3.906
 2694SOL     OW 8980   4.184   6.802   3.025
 2694SOL    HW1 8981   4.203   6.898   3.046
 2694SOL    HW2 8982   4.197   6.747   3.107
 2695SOL     OW 8983   6.119   0.638   2.743
 2695SOL    HW1 8984   6.031   0.658   2.700
 2695SOL    HW2 8985   6.110   0.559   2.804
 2696SOL     OW 8986   3.853   3.314   5.894
 2696SOL    HW1 8987   3.901   3.233   5.860
 2696SOL    HW2 8988   3.763   3.320   5.852
 2697SOL     OW 8989   3.417   1.825   3.205
 2697SOL    HW1 8990   3.322   1.794   3.201
 2697SOL    HW2 8991   3.467   1.770   3.271
 2698SOL     OW 8992   1.473   4.573   0.686
 2698SOL    HW1 8993   1.522   4.651   0.724
 2698SOL    HW2 8994   1.380   4.601   0.662
 2699SOL     OW 8995   2.466   5.834   1.529
 2699SOL    HW1 8996   2.405   5.906   1.496
 2699SOL    HW2 8997   2.447   5.815   1.625
 2700SOL     OW 8998   2.761   2.165   0.764
 2700SOL    HW1 8999   2.762   2.222   0.681
 2700SOL    HW2 9000   2.792   2.073   0.742
 2701SOL     OW 9001   4.931   2.146   6.063
 2701SOL    HW1 9002   4.991   2.225   6.078
 2701SOL    HW2 9003   4.894   2.115   6.150
 2702SOL     OW 9004   0.675   2.477   3.645
 2702SOL    HW1 9005   0.606   2.416   3.607
 2702SOL    HW2 9006   0.761   2.467   3.594
 2703SOL     OW 9007   1.053   6.164   0.696
 2703SOL    HW1 9008   1.027   6.257   0.720
 2703SOL    HW2 9009   0.986   6.126   0.632
 2704SOL     OW 9010   6.691   6.112   1.827
 2704SOL    HW1 9011   6.654   6.172   1.755
 2704SOL    HW2 9012   6.766   6.160   1.874
 2705SOL     OW 9013   6.016   0.120   4.790
 2705SOL    HW1 9014   5.986   0.037   4.743
 2705SOL    HW2 9015   6.115   0.118   4.802
 2706SOL     OW 9016   6.673   4.883   3.180
 2706SOL    HW1 9017   6.648   4.878   3.277
 2706SOL    HW2 9018   6.644   4.971   3.142
 2707SOL     OW 9019   3.573   0.039   4.314
 2707SOL    HW1 9020   3.549   0.134   4.291
 2707SOL    HW2 9021   3.615   0.037   4.405
 2708SOL     OW 9022   6.347   2.871   1.041
 2708SOL    HW1 9023   6.260   2.823   1.053
 2708SOL    HW2 9024   6.422   2.805   1.036
 2709SOL     OW 9025   5.029   0.193   0.082
 2709SOL    HW1 9026   5.006   0.185   0.179
 2709SOL    HW2 9027   5.114   0.144   0.064
 2710SOL     OW 9028   0.965   3.067   3.932
 2710SOL    HW1 9029   0.903   3.068   4.011
 2710SOL    HW2 9030   1.060   3.065   3.964
 2711SOL     OW 9031   2.616   0.657   3.417
 2711SOL    HW1 9032   2.682   0.721   3.457
 2711SOL    HW2 9033   2.572   0.699   3.338
 2712SOL     OW 9034   2.800   5.039   1.638
 2712SOL    HW1 9035   2.717   5.044   1.582
 2712SOL    HW2 9036   2.793   4.961   1.700
 2713SOL     OW 9037   2.531   3.704   5.914
 2713SOL    HW1 9038   2.541   3.711   5.814
 2713SOL    HW2 9039   2.611   3.656   5.952
 2714SOL     OW 9040   4.071   2.695   0.303
 2714SOL    HW1 9041   4.152   2.723   0.251
 2714SOL    HW2 9042   4.080   2.599   0.330
 2715SOL     OW 9043   5.609   2.346   0.957
 2715SOL    HW1 9044   5.631   2.442   0.970
 2715SOL    HW2 9045   5.578   2.307   1.044
 2716SOL     OW 9046   5.054   3.331   4.185
 2716SOL    HW1 9047   5.060   3.232   4.170
 2716SOL    HW2 9048   5.003   3.373   4.110
 2717SOL     OW 9049   0.798   0.083   1.932
 2717SOL    HW1 9050   0.787   0.179   1.959
 2717SOL    HW2 9051   0.715   0.032   1.952
 2718SOL     OW 9052   1.718   1.402   5.508
 2718SOL    HW1 9053   1.779   1.416   5.586
 2718SOL    HW2 9054   1.629   1.371   5.542
 2719SOL     OW 9055   0.724   4.967   1.624
 2719SOL    HW1 9056   0.633   4.951   1.586
 2719SOL    HW2 9057   0.772   4.879   1.633
 2720SOL     OW 9058   1.588   0.144   2.549
 2720SOL    HW1 9059   1.549   0.082   2.618
 2720SOL    HW2 9060   1.688   0.148   2.560
 2721SOL     OW 9061   2.915   6.172   3.099
 2721SOL    HW1 9062   2.937   6.178   3.197
 2721SOL    HW2 9063   2.817   6.163   3.088
 2722SOL     OW 9064   5.821   5.017   0.115
 2722SOL    HW1 9065   5.837   4.939   0.175
 2722SOL    HW2 9066   5.823   5.102   0.168
 2723SOL     OW 9067   1.334   5.478   6.659
 2723SOL    HW1 9068   1.300   5.572   6.653
 2723SOL    HW2 9069   1.260   5.415   6.638
 2724SOL     OW 9070   1.618   6.274   6.609
 2724SOL    HW1 9071   1.669   6.188   6.601
 2724SOL    HW2 9072   1.630   6.329   6.526
 2725SOL     OW 9073   5.244   4.650   4.686
 2725SOL    HW1 9074   5.312   4.668   4.756
 2725SOL    HW2 9075   5.167   4.714   4.695
 2726SOL     OW 9076   0.299   2.445   2.183
 2726SOL    HW1 9077   0.331   2.482   2.096
 2726SOL    HW2 9078   0.364   2.469   2.255
 2727SOL     OW 9079   0.907   4.558   4.028
 2727SOL    HW1 9080   0.938   4.496   4.100
 2727SOL    HW2 9081   0.840   4.622   4.066
 2728SOL     OW 9082   4.355   6.424   5.356
 2728SOL    HW1 9083   4.371   6.519   5.327
 2728SOL    HW2 9084   4.418   6.364   5.308
 2729SOL     OW 9085   0.210   6.509   0.525
 2729SOL    HW1 9086   0.155   6.480   0.604
 2729SOL    HW2 9087   0.294   6.552   0.558
 2730SOL     OW 9088   1.382   5.662   2.058
 2730SOL    HW1 9089   1.442   5.655   1.979
 2730SOL    HW2 9090   1.433   5.639   2.141
 2731SOL     OW 9091   2.961   3.587   3.496
 2731SOL    HW1 9092   2.985   3.490   3.497
 2731SOL    HW2 9093   2.889   3.603   3.428
 2732SOL     OW 9094   6.028   1.991   0.971
 2732SOL    HW1 9095   6.106   2.053   0.972
 2732SOL    HW2 9096   5.992   1.981   1.064
 2733SOL     OW 9097   6.396   1.664   5.041
 2733SOL    HW1 9098   6.348   1.608   4.974
 2733SOL    HW2 9099   6.362   1.645   5.133
 2734SOL     OW 9100   3.071   5.172   1.101
 2734SOL    HW1 9101   3.171   5.174   1.092
 2734SOL    HW2 9102   3.030   5.208   1.017
 2735SOL     OW 9103   2.029   2.560   1.916
 2735SOL    HW1 9104   1.986   2.509   1.990
 2735SOL    HW2 9105   1.960   2.612   1.866
 2736SOL     OW 9106   6.606   5.940   4.449
 2736SOL    HW1 9107   6.659   5.928   4.533
 2736SOL    HW2 9108   6.583   5.851   4.411
 2737SOL     OW 9109   2.869   4.076   5.459
 2737SOL    HW1 9110   2.808   4.022   5.401
 2737SOL    HW2 9111   2.943   4.113   5.403
 2738SOL     OW 9112   5.170   6.245   1.873
 2738SOL    HW1 9113   5.079   6.250   1.915
 2738SOL    HW2 9114   5.192   6.149   1.855
 2739SOL     OW 9115   0.966   5.331   0.529
 2739SOL    HW1 9116   0.879   5.377   0.542
 2739SOL    HW2 9117   0.998   5.293   0.615
 2740SOL     OW 9118   6.441   4.538   1.457
 2740SOL    HW1 9119   6.522   4.502   1.502
 2740SOL    HW2 9120   6.369   4.468   1.457
 2741SOL     OW 9121   6.292   0.591   4.186
 2741SOL    HW1 9122   6.212   0.590   4.247
 2741SOL    HW2 9123   6.284   0.516   4.121
 2742SOL     OW 9124   1.553   4.904   0.338
 2742SOL    HW1 9125   1.591   4.908   0.430
 2742SOL    HW2 9126   1.563   4.811   0.302
 2743SOL     OW 9127   0.110   4.163   2.487
 2743SOL    HW1 9128   0.149   4.254   2.472
 2743SOL    HW2 9129   0.106   4.144   2.585
 2744SOL     OW 9130   4.736   2.301   0.521
 2744SOL    HW1 9131   4.702   2.214   0.485
 2744SOL    HW2 9132   4.819   2.284   0.575
 2745SOL     OW 9133   0.009   1.153   4.732
 2745SOL    HW1 9134   0.056   1.084   4.677
 2745SOL    HW2 9135   0.013   1.128   4.829
 2746SOL     OW 9136   0.862   2.235   5.245
 2746SOL    HW1 9137   0.931   2.302   5.216
 2746SOL    HW2 9138   0.850   2.241   5.344
 2747SOL     OW 9139   4.852   5.307   0.099
 2747SOL    HW1 9140   4.933   5.282   0.046
 2747SOL    HW2 9141   4.820   5.227   0.151
 2748SOL     OW 9142   4.364   1.705   2.637
 2748SOL    HW1 9143   4.288   1.667   2.584
 2748SOL    HW2 9144   4.332   1.728   2.729
 2749SOL     OW 9145   6.607   4.471   0.826
 2749SOL    HW1 9146   6.600   4.534   0.904
 2749SOL    HW2 9147   6.672   4.399   0.847
 2750SOL     OW 9148   1.751   3.853   1.206
 2750SOL    HW1 9149   1.680   3.825   1.270
 2750SOL    HW2 9150   1.826   3.896   1.256
 2751SOL     OW 9151   1.187   2.971   1.541
 2751SOL    HW1 9152   1.259   2.993   1.475
 2751SOL    HW2 9153   1.193   2.874   1.566
 2752SOL     OW 9154   3.336   4.835   5.780
 2752SOL    HW1 9155   3.346   4.802   5.686
 2752SOL    HW2 9156   3.352   4.933   5.783
 2753SOL     OW 9157   6.801   6.586   4.719
 2753SOL    HW1 9158   6.890   6.554   4.750
 2753SOL    HW2 9159   6.752   6.510   4.674
 2754SOL     OW 9160   0.524   0.283   1.040
 2754SOL    HW1 9161   0.498   0.315   1.131
 2754SOL    HW2 9162   0.622   0.264   1.038
 2755SOL     OW 9163   3.432   6.602   2.406
 2755SOL    HW1 9164   3.459   6.648   2.491
 2755SOL    HW2 9165   3.332   6.594   2.403
 2756SOL     OW 9166   5.624   5.433   0.165
 2756SOL    HW1 9167   5.666   5.346   0.187
 2756SOL    HW2 9168   5.668   5.473   0.085
 2757SOL     OW 9169   2.516   6.585   6.785
 2757SOL    HW1 9170   2.427   6.587   6.830
 2757SOL    HW2 9171   2.503   6.562   6.688
 2758SOL     OW 9172   3.892   6.450   3.802
 2758SOL    HW1 9173   3.821   6.435   3.733
 2758SOL    HW2 9174   3.972   6.394   3.780
 2759SOL     OW 9175   5.205   6.700   6.003
 2759SOL    HW1 9176   5.134   6.640   6.042
 2759SOL    HW2 9177   5.269   6.726   6.075
 2760SOL     OW 9178   0.343   6.216   1.812
 2760SOL    HW1 9179   0.413   6.263   1.757
 2760SOL    HW2 9180   0.380   6.130   1.847
 2761SOL     OW 9181   1.916   5.080   4.274
 2761SOL    HW1 9182   2.014   5.086   4.294
 2761SOL    HW2 9183   1.890   4.985   4.262
 2762SOL     OW 9184   1.651   1.290   5.876
 2762SOL    HW1 9185   1.688   1.206   5.915
 2762SOL    HW2 9186   1.727   1.351   5.851
 2763SOL     OW 9187   5.248   1.797   3.883
 2763SOL    HW1 9188   5.273   1.734   3.810
 2763SOL    HW2 9189   5.154   1.778   3.913
 2764SOL     OW 9190   5.815   1.117   0.920
 2764SOL    HW1 9191   5.744   1.049   0.901
 2764SOL    HW2 9192   5.779   1.188   0.979
 2765SOL     OW 9193   5.766   6.704   1.163
 2765SOL    HW1 9194   5.789   6.708   1.066
 2765SOL    HW2 9195   5.848   6.685   1.216
 2766SOL     OW 9196   4.619   2.434   0.154
 2766SOL    HW1 9197   4.601   2.377   0.074
 2766SOL    HW2 9198   4.646   2.377   0.231
 2767SOL     OW 9199   0.168   5.444   0.372
 2767SOL    HW1 9200   0.251   5.439   0.316
 2767SOL    HW2 9201   0.101   5.503   0.326
 2768SOL     OW 9202   4.404   0.863   0.989
 2768SOL    HW1 9203   4.451   0.872   1.077
 2768SOL    HW2 9204   4.351   0.778   0.988
 2769SOL     OW 9205   0.839   4.150   4.266
 2769SOL    HW1 9206   0.844   4.085   4.341
 2769SOL    HW2 9207   0.748   4.193   4.265
 2770SOL     OW 9208   2.844   5.515   5.737
 2770SOL    HW1 9209   2.853   5.588   5.805
 2770SOL    HW2 9210   2.933   5.476   5.717
 2771SOL     OW 9211   6.904   1.021   3.308
 2771SOL    HW1 9212   6.895   1.117   3.332
 2771SOL    HW2 9213   6.891   1.009   3.209
 2772SOL     OW 9214   4.264   1.698   1.035
 2772SOL    HW1 9215   4.284   1.778   0.977
 2772SOL    HW2 9216   4.171   1.706   1.071
 2773SOL     OW 9217   6.185   2.301   5.559
 2773SOL    HW1 9218   6.222   2.332   5.471
 2773SOL    HW2 9219   6.187   2.377   5.624
 2774SOL     OW 9220   5.508   3.601   3.014
 2774SOL    HW1 9221   5.569   3.627   3.090
 2774SOL    HW2 9222   5.536   3.512   2.979
 2775SOL     OW 9223   6.671   5.947   6.638
 2775SOL    HW1 9224   6.622   6.006   6.703
 2775SOL    HW2 9225   6.744   5.998   6.594
 2776SOL     OW 9226   4.184   4.766   5.926
 2776SOL    HW1 9227   4.199   4.730   6.019
 2776SOL    HW2 9228   4.091   4.802   5.919
 2777SOL     OW 9229   2.709   1.390   2.276
 2777SOL    HW1 9230   2.726   1.361   2.370
 2777SOL    HW2 9231   2.764   1.471   2.255
 2778SOL     OW 9232   1.317   0.315   5.500
 2778SOL    HW1 9233   1.367   0.386   5.550
 2778SOL    HW2 9234   1.286   0.351   5.413
 2779SOL     OW 9235   4.771   6.429   1.107
 2779SOL    HW1 9236   4.778   6.378   1.193
 2779SOL    HW2 9237   4.689   6.400   1.057
 2780SOL     OW 9238   6.329   6.416   6.908
 2780SOL    HW1 9239   6.231   6.395   6.908
 2780SOL    HW2 9240   6.372   6.374   6.988
 2781SOL     OW 9241   5.085   6.556   1.686
 2781SOL    HW1 9242   5.179   6.521   1.689
 2781SOL    HW2 9243   5.078   6.628   1.618
 2782SOL     OW 9244   4.286   1.987   5.636
 2782SOL    HW1 9245   4.317   2.082   5.633
 2782SOL    HW2 9246   4.204   1.981   5.694
 2783SOL     OW 9247   4.962   4.211   3.890
 2783SOL    HW1 9248   4.957   4.237   3.793
 2783SOL    HW2 9249   5.054   4.225   3.925
 2784SOL     OW 9250   3.907   1.460   1.515
 2784SOL    HW1 9251   3.863   1.407   1.587
 2784SOL    HW2 9252   3.957   1.537   1.555
 2785SOL     OW 9253   4.633   1.275   0.750
 2785SOL    HW1 9254   4.538   1.272   0.781
 2785SOL    HW2 9255   4.639   1.244   0.656
 2786SOL     OW 9256   4.938   6.324   2.060
 2786SOL    HW1 9257   5.013   6.327   2.127
 2786SOL    HW2 9258   4.894   6.413   2.055
 2787SOL     OW 9259   3.448   1.975   6.757
 2787SOL    HW1 9260   3.363   2.007   6.800
 2787SOL    HW2 9261   3.495   1.913   6.820
 2788SOL     OW 9262   2.634   4.528   6.267
 2788SOL    HW1 9263   2.654   4.569   6.178
 2788SOL    HW2 9264   2.544   4.484   6.264
 2789SOL     OW 9265   1.963   2.420   3.460
 2789SOL    HW1 9266   1.943   2.431   3.557
 2789SOL    HW2 9267   1.887   2.454   3.405
 2790SOL     OW 9268   3.168   5.959   2.158
 2790SOL    HW1 9269   3.225   5.914   2.227
 2790SOL    HW2 9270   3.165   5.902   2.076
 2791SOL     OW 9271   1.119   3.538   3.029
 2791SOL    HW1 9272   1.211   3.502   3.015
 2791SOL    HW2 9273   1.071   3.542   2.941
 2792SOL     OW 9274   1.618   6.856   4.174
 2792SOL    HW1 9275   1.536   6.830   4.122
 2792SOL    HW2 9276   1.698   6.852   4.114
 2793SOL     OW 9277   5.146   3.316   3.129
 2793SOL    HW1 9278   5.173   3.394   3.074
 2793SOL    HW2 9279   5.047   3.303   3.123
 2794SOL     OW 9280   0.509   2.958   0.126
 2794SOL    HW1 9281   0.573   2.883   0.142
 2794SOL    HW2 9282   0.415   2.923   0.134
 2795SOL     OW 9283   1.985   2.571   0.785
 2795SOL    HW1 9284   2.084   2.587   0.781
 2795SOL    HW2 9285   1.964   2.510   0.861
 2796SOL     OW 9286   6.837   5.905   2.147
 2796SOL    HW1 9287   6.743   5.925   2.176
 2796SOL    HW2 9288   6.895   5.985   2.164
 2797SOL     OW 9289   5.829   5.355   4.582
 2797SOL    HW1 9290   5.799   5.303   4.663
 2797SOL    HW2 9291   5.912   5.314   4.545
 2798SOL     OW 9292   0.532   5.088   2.057
 2798SOL    HW1 9293   0.562   5.181   2.076
 2798SOL    HW2 9294   0.583   5.024   2.115
 2799SOL     OW 9295   6.311   6.695   0.014
 2799SOL    HW1 9296   6.224   6.731   7.005
 2799SOL    HW2 9297   6.321   6.600   7.011
 2800SOL     OW 9298   4.520   5.552   0.326
 2800SOL    HW1 9299   4.507   5.459   0.362
 2800SOL    HW2 9300   4.578   5.548   0.245
 2801SOL     OW 9301   5.982   5.365   5.823
 2801SOL    HW1 9302   5.916   5.377   5.897
 2801SOL    HW2 9303   6.058   5.429   5.834
 2802SOL     OW 9304   4.750   1.366   5.144
 2802SOL    HW1 9305   4.763   1.292   5.078
 2802SOL    HW2 9306   4.837   1.387   5.188
 2803SOL     OW 9307   3.738   6.025   6.490
 2803SOL    HW1 9308   3.766   6.010   6.395
 2803SOL    HW2 9309   3.646   6.063   6.492
 2804SOL     OW 9310   0.273   4.696   4.806
 2804SOL    HW1 9311   0.217   4.682   4.888
 2804SOL    HW2 9312   0.227   4.760   4.745
 2805SOL     OW 9313   5.181   3.332   1.627
 2805SOL    HW1 9314   5.131   3.245   1.623
 2805SOL    HW2 9315   5.166   3.383   1.542
 2806SOL     OW 9316   6.395   5.173   5.077
 2806SOL    HW1 9317   6.463   5.226   5.127
 2806SOL    HW2 9318   6.312   5.228   5.064
 2807SOL     OW 9319   5.008   5.551   3.488
 2807SOL    HW1 9320   4.953   5.624   3.447
 2807SOL    HW2 9321   5.005   5.559   3.588
 2808SOL     OW 9322   5.288   3.534   2.469
 2808SOL    HW1 9323   5.310   3.506   2.375
 2808SOL    HW2 9324   5.209   3.482   2.501
 2809SOL     OW 9325   5.970   3.066   0.889
 2809SOL    HW1 9326   5.971   2.988   0.827
 2809SOL    HW2 9327   5.905   3.134   0.855
 2810SOL     OW 9328   2.971   5.673   4.060
 2810SOL    HW1 9329   3.020   5.734   4.122
 2810SOL    HW2 9330   2.978   5.707   3.966
 2811SOL     OW 9331   1.103   1.581   3.399
 2811SOL    HW1 9332   1.102   1.487   3.432
 2811SOL    HW2 9333   1.187   1.597   3.346
 2812SOL     OW 9334   4.745   3.974   6.683
 2812SOL    HW1 9335   4.675   4.027   6.636
 2812SOL    HW2 9336   4.830   4.028   6.687
 2813SOL     OW 9337   6.410   6.838   5.913
 2813SOL    HW1 9338   6.347   6.916   5.912
 2813SOL    HW2 9339   6.494   6.863   5.863
 2814SOL     OW 9340   4.328   3.477   5.651
 2814SOL    HW1 9341   4.266   3.519   5.585
 2814SOL    HW2 9342   4.419   3.468   5.610
 2815SOL     OW 9343   6.367   0.374   5.452
 2815SOL    HW1 9344   6.325   0.343   5.537
 2815SOL    HW2 9345   6.369   0.474   5.450
 2816SOL     OW 9346   6.669   5.314   3.843
 2816SOL    HW1 9347   6.709   5.222   3.849
 2816SOL    HW2 9348   6.702   5.370   3.919
 2817SOL     OW 9349   2.543   6.752   1.348
 2817SOL    HW1 9350   2.616   6.817   1.326
 2817SOL    HW2 9351   2.490   6.733   1.266
 2818SOL     OW 9352   0.062   0.581   0.785
 2818SOL    HW1 9353   0.097   0.491   0.762
 2818SOL    HW2 9354   0.022   0.580   0.876
 2819SOL     OW 9355   0.432   1.145   1.672
 2819SOL    HW1 9356   0.452   1.077   1.601
 2819SOL    HW2 9357   0.442   1.103   1.762
 2820SOL     OW 9358   0.582   2.359   3.053
 2820SOL    HW1 9359   0.613   2.423   3.123
 2820SOL    HW2 9360   0.512   2.401   2.996
 2821SOL     OW 9361   4.117   3.490   0.343
 2821SOL    HW1 9362   4.157   3.579   0.322
 2821SOL    HW2 9363   4.189   3.427   0.373
 2822SOL     OW 9364   4.612   1.570   0.256
 2822SOL    HW1 9365   4.558   1.632   0.313
 2822SOL    HW2 9366   4.687   1.621   0.213
 2823SOL     OW 9367   4.632   6.373   0.056
 2823SOL    HW1 9368   4.710   6.430   0.082
 2823SOL    HW2 9369   4.617   6.303   0.126
 2824SOL     OW 9370   2.917   1.343   3.164
 2824SOL    HW1 9371   2.843   1.319   3.101
 2824SOL    HW2 9372   2.973   1.415   3.123
 2825SOL     OW 9373   6.564   0.152   6.452
 2825SOL    HW1 9374   6.509   0.087   6.400
 2825SOL    HW2 9375   6.547   0.139   6.550
 2826SOL     OW 9376   4.593   0.879   6.938
 2826SOL    HW1 9377   4.691   0.869   6.957
 2826SOL    HW2 9378   4.570   0.827   6.856
 2827SOL     OW 9379   6.934   0.161   5.069
 2827SOL    HW1 9380   6.920   0.111   4.983
 2827SOL    HW2 9381   6.870   0.126   5.138
 2828SOL     OW 9382   3.079   0.701   0.123
 2828SOL    HW1 9383   3.109   0.790   0.088
 2828SOL    HW2 9384   2.986   0.683   0.092
 2829SOL     OW 9385   3.458   3.712   5.356
 2829SOL    HW1 9386   3.366   3.739   5.383
 2829SOL    HW2 9387   3.484   3.628   5.404
 2830SOL     OW 9388   1.532   3.191   5.462
 2830SOL    HW1 9389   1.550   3.286   5.486
 2830SOL    HW2 9390   1.600   3.132   5.506
 2831SOL     OW 9391   0.323   5.422   3.655
 2831SOL    HW1 9392   0.403   5.393   3.603
 2831SOL    HW2 9393   0.247   5.361   3.635
 2832SOL     OW 9394   1.198   1.700   2.643
 2832SOL    HW1 9395   1.275   1.717   2.703
 2832SOL    HW2 9396   1.120   1.755   2.673
 2833SOL     OW 9397   3.994   1.908   2.247
 2833SOL    HW1 9398   4.083   1.863   2.245
 2833SOL    HW2 9399   4.007   2.007   2.240
 2834SOL     OW 9400   3.351   5.216   6.721
 2834SOL    HW1 9401   3.319   5.273   6.646
 2834SOL    HW2 9402   3.339   5.266   6.807
 2835SOL     OW 9403   0.110   0.418   1.487
 2835SOL    HW1 9404   0.054   0.448   1.564
 2835SOL    HW2 9405   0.099   0.482   1.411
 2836SOL     OW 9406   6.114   0.242   2.403
 2836SOL    HW1 9407   6.062   0.158   2.416
 2836SOL    HW2 9408   6.163   0.265   2.487
 2837SOL     OW 9409   5.613   4.077   2.755
 2837SOL    HW1 9410   5.682   4.093   2.684
 2837SOL    HW2 9411   5.581   4.165   2.790
 2838SOL     OW 9412   2.223   4.478   1.008
 2838SOL    HW1 9413   2.257   4.393   1.048
 2838SOL    HW2 9414   2.293   4.549   1.017
 2839SOL     OW 9415   6.662   1.629   1.848
 2839SOL    HW1 9416   6.648   1.533   1.824
 2839SOL    HW2 9417   6.671   1.683   1.765
 2840SOL     OW 9418   2.149   0.602   3.505
 2840SOL    HW1 9419   2.241   0.581   3.538
 2840SOL    HW2 9420   2.108   0.673   3.562
 2841SOL     OW 9421   0.324   1.069   6.468
 2841SOL    HW1 9422   0.348   0.979   6.504
 2841SOL    HW2 9423   0.401   1.132   6.479
 2842SOL     OW 9424   0.243   3.840   4.070
 2842SOL    HW1 9425   0.171   3.907   4.053
 2842SOL    HW2 9426   0.213   3.750   4.037
 2843SOL     OW 9427   2.734   1.537   2.830
 2843SOL    HW1 9428   2.785   1.609   2.783
 2843SOL    HW2 9429   2.773   1.448   2.807
 2844SOL     OW 9430   0.146   5.045   0.365
 2844SOL    HW1 9431   0.132   5.132   0.318
 2844SOL    HW2 9432   0.176   4.976   0.298
 2845SOL     OW 9433   6.100   2.652   1.279
 2845SOL    HW1 9434   6.051   2.635   1.193
 2845SOL    HW2 9435   6.100   2.750   1.299
 2846SOL     OW 9436   4.043   1.005   6.531
 2846SOL    HW1 9437   4.085   0.997   6.621
 2846SOL    HW2 9438   4.063   1.095   6.493
 2847SOL     OW 9439   4.882   3.536   3.731
 2847SOL    HW1 9440   4.852   3.629   3.709
 2847SOL    HW2 9441   4.948   3.505   3.662
 2848SOL     OW 9442   1.268   3.008   5.131
 2848SOL    HW1 9443   1.352   3.051   5.098
 2848SOL    HW2 9444   1.269   3.005   5.231
 2849SOL     OW 9445   3.954   6.143   0.758
 2849SOL    HW1 9446   3.911   6.227   0.791
 2849SOL    HW2 9447   4.051   6.142   0.784
 2850SOL     OW 9448   2.101   0.333   2.185
 2850SOL    HW1 9449   2.020   0.354   2.130
 2850SOL    HW2 9450   2.124   0.412   2.242
 2851SOL     OW 9451   6.342   1.594   5.845
 2851SOL    HW1 9452   6.414   1.535   5.807
 2851SOL    HW2 9453   6.253   1.557   5.821
 2852SOL     OW 9454   6.037   4.688   0.062
 2852SOL    HW1 9455   5.945   4.655   0.081
 2852SOL    HW2 9456   6.032   4.770   0.004
 2853SOL     OW 9457   1.489   2.788   6.624
 2853SOL    HW1 9458   1.488   2.760   6.720
 2853SOL    HW2 9459   1.512   2.711   6.566
 2854SOL     OW 9460   4.204   1.269   5.588
 2854SOL    HW1 9461   4.173   1.219   5.669
 2854SOL    HW2 9462   4.127   1.315   5.545
 2855SOL     OW 9463   2.845   1.643   6.861
 2855SOL    HW1 9464   2.929   1.697   6.865
 2855SOL    HW2 9465   2.770   1.693   6.905
 2856SOL     OW 9466   1.332   2.994   5.421
 2856SOL    HW1 9467   1.334   2.933   5.500
 2856SOL    HW2 9468   1.404   3.063   5.430
 2857SOL     OW 9469   2.839   1.927   2.447
 2857SOL    HW1 9470   2.756   1.876   2.424
 2857SOL    HW2 9471   2.856   1.997   2.377
 2858SOL     OW 9472   4.692   4.179   2.704
 2858SOL    HW1 9473   4.715   4.090   2.664
 2858SOL    HW2 9474   4.616   4.168   2.769
 2859SOL     OW 9475   4.885   1.657   6.502
 2859SOL    HW1 9476   4.953   1.601   6.549
 2859SOL    HW2 9477   4.872   1.742   6.553
 2860SOL     OW 9478   3.544   1.705   1.654
 2860SOL    HW1 9479   3.512   1.800   1.651
 2860SOL    HW2 9480   3.488   1.649   1.593
 2861SOL     OW 9481   3.615   3.913   5.289
 2861SOL    HW1 9482   3.569   3.827   5.310
 2861SOL    HW2 9483   3.629   3.965   5.373
 2862SOL     OW 9484   5.549   1.439   2.967
 2862SOL    HW1 9485   5.491   1.377   3.019
 2862SOL    HW2 9486   5.620   1.477   3.026
 2863SOL     OW 9487   5.254   1.053   6.545
 2863SOL    HW1 9488   5.160   1.075   6.570
 2863SOL    HW2 9489   5.296   1.132   6.500
 2864SOL     OW 9490   4.459   1.665   1.915
 2864SOL    HW1 9491   4.517   1.620   1.846
 2864SOL    HW2 9492   4.517   1.714   1.980
 2865SOL     OW 9493   4.197   4.342   6.527
 2865SOL    HW1 9494   4.280   4.351   6.474
 2865SOL    HW2 9495   4.212   4.379   6.619
 2866SOL     OW 9496   6.727   5.398   0.362
 2866SOL    HW1 9497   6.742   5.341   0.281
 2866SOL    HW2 9498   6.764   5.489   0.347
 2867SOL     OW 9499   6.126   4.593   2.670
 2867SOL    HW1 9500   6.105   4.552   2.581
 2867SOL    HW2 9501   6.169   4.683   2.657
 2868SOL     OW 9502   0.398   1.797   5.440
 2868SOL    HW1 9503   0.478   1.746   5.471
 2868SOL    HW2 9504   0.400   1.805   5.340
 2869SOL     OW 9505   6.159   1.037   2.879
 2869SOL    HW1 9506   6.116   1.066   2.964
 2869SOL    HW2 9507   6.242   1.090   2.863
 2870SOL     OW 9508   0.193   1.559   4.739
 2870SOL    HW1 9509   0.128   1.518   4.804
 2870SOL    HW2 9510   0.266   1.494   4.720
 2871SOL     OW 9511   0.370   1.922   0.117
 2871SOL    HW1 9512   0.449   1.861   0.108
 2871SOL    HW2 9513   0.369   1.986   0.041
 2872SOL     OW 9514   3.036   1.218   2.806
 2872SOL    HW1 9515   2.938   1.222   2.786
 2872SOL    HW2 9516   3.051   1.163   2.888
 2873SOL     OW 9517   0.094   5.292   3.254
 2873SOL    HW1 9518   0.027   5.278   3.181
 2873SOL    HW2 9519   0.093   5.213   3.315
 2874SOL     OW 9520   3.684   6.641   3.316
 2874SOL    HW1 9521   3.646   6.551   3.295
 2874SOL    HW2 9522   3.627   6.712   3.273
 2875SOL     OW 9523   4.973   6.794   0.434
 2875SOL    HW1 9524   4.935   6.827   0.520
 2875SOL    HW2 9525   4.942   6.700   0.417
 2876SOL     OW 9526   1.152   6.957   1.753
 2876SOL    HW1 9527   1.172   6.971   1.850
 2876SOL    HW2 9528   1.056   6.933   1.742
 2877SOL     OW 9529   3.328   2.534   5.424
 2877SOL    HW1 9530   3.284   2.506   5.339
 2877SOL    HW2 9531   3.304   2.470   5.497
 2878SOL     OW 9532   4.586   4.954   4.574
 2878SOL    HW1 9533   4.591   5.047   4.610
 2878SOL    HW2 9534   4.546   4.894   4.644
 2879SOL     OW 9535   5.042   5.100   0.791
 2879SOL    HW1 9536   5.013   5.064   0.703
 2879SOL    HW2 9537   5.027   5.031   0.862
 2880SOL     OW 9538   6.680   0.371   1.587
 2880SOL    HW1 9539   6.605   0.416   1.540
 2880SOL    HW2 9540   6.756   0.435   1.600
 2881SOL     OW 9541   5.667   5.653   6.746
 2881SOL    HW1 9542   5.618   5.740   6.749
 2881SOL    HW2 9543   5.625   5.594   6.678
 2882SOL     OW 9544   0.687   4.166   2.801
 2882SOL    HW1 9545   0.708   4.077   2.760
 2882SOL    HW2 9546   0.706   4.163   2.899
 2883SOL     OW 9547   6.012   0.082   3.584
 2883SOL    HW1 9548   5.970   0.032   3.660
 2883SOL    HW2 9549   6.095   0.035   3.555
 2884SOL     OW 9550   0.727   6.745   2.973
 2884SOL    HW1 9551   0.746   6.649   2.952
 2884SOL    HW2 9552   0.813   6.791   2.998
 2885SOL     OW 9553   0.678   2.777   2.671
 2885SOL    HW1 9554   0.695   2.704   2.737
 2885SOL    HW2 9555   0.748   2.774   2.599
 2886SOL     OW 9556   2.522   4.251   5.591
 2886SOL    HW1 9557   2.479   4.174   5.545
 2886SOL    HW2 9558   2.621   4.238   5.594
 2887SOL     OW 9559   0.496   0.819   4.480
 2887SOL    HW1 9560   0.403   0.827   4.443
 2887SOL    HW2 9561   0.547   0.752   4.427
 2888SOL     OW 9562   0.369   4.146   0.055
 2888SOL    HW1 9563   0.431   4.122   0.129
 2888SOL    HW2 9564   0.414   4.209   7.018
 2889SOL     OW 9565   1.692   0.151   1.795
 2889SOL    HW1 9566   1.705   0.162   1.697
 2889SOL    HW2 9567   1.732   0.064   1.825
 2890SOL     OW 9568   2.188   6.247   0.493
 2890SOL    HW1 9569   2.098   6.272   0.528
 2890SOL    HW2 9570   2.257   6.306   0.535
 2891SOL     OW 9571   1.028   4.362   3.619
 2891SOL    HW1 9572   1.019   4.264   3.635
 2891SOL    HW2 9573   1.066   4.405   3.701
 2892SOL     OW 9574   5.009   3.049   0.408
 2892SOL    HW1 9575   4.955   3.049   0.492
 2892SOL    HW2 9576   4.967   3.109   0.340
 2893SOL     OW 9577   0.767   6.659   4.394
 2893SOL    HW1 9578   0.679   6.639   4.351
 2893SOL    HW2 9579   0.812   6.573   4.419
 2894SOL     OW 9580   2.094   2.385   1.572
 2894SOL    HW1 9581   2.031   2.462   1.572
 2894SOL    HW2 9582   2.136   2.376   1.662
 2895SOL     OW 9583   4.644   2.394   6.081
 2895SOL    HW1 9584   4.592   2.335   6.143
 2895SOL    HW2 9585   4.586   2.472   6.053
 2896SOL     OW 9586   4.350   5.574   6.148
 2896SOL    HW1 9587   4.313   5.508   6.214
 2896SOL    HW2 9588   4.288   5.582   6.070
 2897SOL     OW 9589   3.316   4.922   3.183
 2897SOL    HW1 9590   3.310   4.950   3.087
 2897SOL    HW2 9591   3.410   4.929   3.214
 2898SOL     OW 9592   3.772   5.549   4.236
 2898SOL    HW1 9593   3.844   5.506   4.181
 2898SOL    HW2 9594   3.750   5.490   4.314
 2899SOL     OW 9595   0.657   1.877   0.630
 2899SOL    HW1 9596   0.632   1.886   0.534
 2899SOL    HW2 9597   0.579   1.841   0.682
 2900SOL     OW 9598   1.869   4.525   5.341
 2900SOL    HW1 9599   1.903   4.435   5.369
 2900SOL    HW2 9600   1.935   4.567   5.278
 2901SOL     OW 9601   2.729   6.018   3.728
 2901SOL    HW1 9602   2.680   5.940   3.767
 2901SOL    HW2 9603   2.706   6.026   3.631
 2902SOL     OW 9604   4.891   6.860   2.264
 2902SOL    HW1 9605   4.889   6.905   2.353
 2902SOL    HW2 9606   4.823   6.786   2.262
 2903SOL     OW 9607   3.923   0.867   0.408
 2903SOL    HW1 9608   4.010   0.895   0.448
 2903SOL    HW2 9609   3.922   0.890   0.310
 2904SOL     OW 9610   2.152   3.877   5.259
 2904SOL    HW1 9611   2.063   3.916   5.233
 2904SOL    HW2 9612   2.222   3.913   5.198
 2905SOL     OW 9613   1.398   2.734   3.776
 2905SOL    HW1 9614   1.343   2.684   3.709
 2905SOL    HW2 9615   1.465   2.791   3.729
 2906SOL     OW 9616   4.497   5.862   2.360
 2906SOL    HW1 9617   4.450   5.853   2.272
 2906SOL    HW2 9618   4.506   5.771   2.401
 2907SOL     OW 9619   0.902   1.728   3.467
 2907SOL    HW1 9620   0.821   1.668   3.472
 2907SOL    HW2 9621   0.978   1.678   3.425
 2908SOL     OW 9622   4.216   6.270   4.279
 2908SOL    HW1 9623   4.200   6.280   4.377
 2908SOL    HW2 9624   4.261   6.352   4.244
 2909SOL     OW 9625   1.501   6.583   3.379
 2909SOL    HW1 9626   1.425   6.646   3.392
 2909SOL    HW2 9627   1.510   6.560   3.282
 2910SOL     OW 9628   4.418   6.493   4.651
 2910SOL    HW1 9629   4.505   6.447   4.670
 2910SOL    HW2 9630   4.349   6.425   4.629
 2911SOL     OW 9631   1.370   5.314   3.260
 2911SOL    HW1 9632   1.315   5.248   3.311
 2911SOL    HW2 9633   1.419   5.373   3.325
 2912SOL     OW 9634   4.786   0.319   0.039
 2912SOL    HW1 9635   4.722   0.242   0.035
 2912SOL    HW2 9636   4.879   0.284   0.047
 2913SOL     OW 9637   2.611   4.543   3.046
 2913SOL    HW1 9638   2.588   4.607   3.120
 2913SOL    HW2 9639   2.697   4.570   3.004
 2914SOL     OW 9640   5.582   6.074   6.092
 2914SOL    HW1 9641   5.528   6.136   6.149
 2914SOL    HW2 9642   5.590   6.113   6.000
 2915SOL     OW 9643   5.705   1.667   4.522
 2915SOL    HW1 9644   5.646   1.747   4.512
 2915SOL    HW2 9645   5.785   1.691   4.578
 2916SOL     OW 9646   0.552   6.302   6.632
 2916SOL    HW1 9647   0.649   6.297   6.659
 2916SOL    HW2 9648   0.512   6.211   6.636
 2917SOL     OW 9649   3.073   6.721   2.776
 2917SOL    HW1 9650   3.159   6.773   2.773
 2917SOL    HW2 9651   3.010   6.757   2.707
 2918SOL     OW 9652   0.167   4.823   4.103
 2918SOL    HW1 9653   0.118   4.752   4.052
 2918SOL    HW2 9654   0.101   4.884   4.147
 2919SOL     OW 9655   6.760   1.314   0.973
 2919SOL    HW1 9656   6.726   1.262   0.894
 2919SOL    HW2 9657   6.858   1.301   0.982
 2920SOL     OW 9658   2.705   2.248   1.858
 2920SOL    HW1 9659   2.621   2.209   1.895
 2920SOL    HW2 9660   2.774   2.253   1.930
 2921SOL     OW 9661   1.148   0.887   3.161
 2921SOL    HW1 9662   1.190   0.932   3.240
 2921SOL    HW2 9663   1.220   0.847   3.103
 2922SOL     OW 9664   4.954   0.859   0.395
 2922SOL    HW1 9665   4.914   0.891   0.309
 2922SOL    HW2 9666   5.043   0.902   0.408
 2923SOL     OW 9667   6.895   5.428   2.081
 2923SOL    HW1 9668   6.953   5.400   2.157
 2923SOL    HW2 9669   6.917   5.522   2.055
 2924SOL     OW 9670   6.785   1.382   6.316
 2924SOL    HW1 9671   6.845   1.427   6.382
 2924SOL    HW2 9672   6.737   1.451   6.262
 2925SOL     OW 9673   4.224   1.288   2.635
 2925SOL    HW1 9674   4.219   1.248   2.726
 2925SOL    HW2 9675   4.201   1.385   2.640
 2926SOL     OW 9676   6.390   1.465   4.607
 2926SOL    HW1 9677   6.317   1.426   4.552
 2926SOL    HW2 9678   6.438   1.535   4.553
 2927SOL     OW 9679   1.012   2.079   2.274
 2927SOL    HW1 9680   0.936   2.138   2.247
 2927SOL    HW2 9681   1.002   2.054   2.370
 2928SOL     OW 9682   7.006   1.621   6.172
 2928SOL    HW1 9683   0.040   1.672   6.234
 2928SOL    HW2 9684   6.970   1.683   6.102
 2929SOL     OW 9685   1.045   1.801   6.828
 2929SOL    HW1 9686   1.053   1.766   6.922
 2929SOL    HW2 9687   1.009   1.728   6.769
 2930SOL     OW 9688   4.570   6.220   4.962
 2930SOL    HW1 9689   4.660   6.204   4.921
 2930SOL    HW2 9690   4.568   6.312   5.002
 2931SOL     OW 9691   5.400   4.489   0.179
 2931SOL    HW1 9692   5.420   4.411   0.239
 2931SOL    HW2 9693   5.483   4.545   0.169
 2932SOL     OW 9694   0.511   5.149   0.928
 2932SOL    HW1 9695   0.415   5.139   0.902
 2932SOL    HW2 9696   0.536   5.076   0.992
 2933SOL     OW 9697   5.931   4.504   3.205
 2933SOL    HW1 9698   5.961   4.530   3.113
 2933SOL    HW2 9699   5.896   4.584   3.253
 2934SOL     OW 9700   4.867   1.331   7.016
 2934SOL    HW1 9701   4.929   1.264   0.030
 2934SOL    HW2 9702   4.918   1.413   6.990
 2935SOL     OW 9703   6.137   2.768   0.575
 2935SOL    HW1 9704   6.168   2.862   0.564
 2935SOL    HW2 9705   6.180   2.710   0.506
 2936SOL     OW 9706   3.763   5.860   1.713
 2936SOL    HW1 9707   3.690   5.901   1.768
 2936SOL    HW2 9708   3.805   5.784   1.764
 2937SOL     OW 9709   4.584   4.576   0.396
 2937SOL    HW1 9710   4.618   4.668   0.420
 2937SOL    HW2 9711   4.561   4.527   0.480
 2938SOL     OW 9712   4.592   5.632   6.800
 2938SOL    HW1 9713   4.569   5.539   6.831
 2938SOL    HW2 9714   4.517   5.668   6.744
 2939SOL     OW 9715   1.295   0.984   3.366
 2939SOL    HW1 9716   1.386   0.965   3.331
 2939SOL    HW2 9717   1.280   1.083   3.370
 2940SOL     OW 9718   5.757   5.319   6.001
 2940SOL    HW1 9719   5.694   5.337   5.926
 2940SOL    HW2 9720   5.759   5.221   6.020
 2941SOL     OW 9721   1.600   3.232   4.408
 2941SOL    HW1 9722   1.513   3.280   4.421
 2941SOL    HW2 9723   1.616   3.170   4.485
 2942SOL     OW 9724   3.198   2.900   1.084
 2942SOL    HW1 9725   3.101   2.908   1.108
 2942SOL    HW2 9726   3.208   2.837   1.007
 2943SOL     OW 9727   5.042   4.626   3.059
 2943SOL    HW1 9728   4.996   4.557   3.116
 2943SOL    HW2 9729   5.061   4.707   3.114
 2944SOL     OW 9730   2.741   5.520   5.107
 2944SOL    HW1 9731   2.707   5.426   5.099
 2944SOL    HW2 9732   2.694   5.566   5.182
 2945SOL     OW 9733   3.572   4.164   3.857
 2945SOL    HW1 9734   3.570   4.064   3.862
 2945SOL    HW2 9735   3.653   4.193   3.806
 2946SOL     OW 9736   0.730   5.002   6.797
 2946SOL    HW1 9737   0.630   5.004   6.805
 2946SOL    HW2 9738   0.769   5.075   6.853
 2947SOL     OW 9739   0.383   3.324   0.266
 2947SOL    HW1 9740   0.425   3.415   0.263
 2947SOL    HW2 9741   0.450   3.257   0.296
 2948SOL     OW 9742   0.629   4.581   5.929
 2948SOL    HW1 9743   0.695   4.643   5.971
 2948SOL    HW2 9744   0.623   4.600   5.831
 2949SOL     OW 9745   2.835   4.953   0.894
 2949SOL    HW1 9746   2.846   5.040   0.942
 2949SOL    HW2 9747   2.762   4.900   0.938
 2950SOL     OW 9748   5.275   3.898   4.332
 2950SOL    HW1 9749   5.230   3.933   4.249
 2950SOL    HW2 9750   5.263   3.799   4.337
 2951SOL     OW 9751   5.933   1.630   1.030
 2951SOL    HW1 9752   5.893   1.558   0.973
 2951SOL    HW2 9753   6.013   1.668   0.984
 2952SOL     OW 9754   1.021   5.310   5.139
 2952SOL    HW1 9755   0.952   5.375   5.107
 2952SOL    HW2 9756   0.979   5.246   5.202
 2953SOL     OW 9757   5.235   3.937   3.053
 2953SOL    HW1 9758   5.260   3.877   2.977
 2953SOL    HW2 9759   5.316   3.960   3.106
 2954SOL     OW 9760   0.601   6.060   2.257
 2954SOL    HW1 9761   0.685   6.086   2.305
 2954SOL    HW2 9762   0.523   6.073   2.317
 2955SOL     OW 9763   1.139   3.743   1.560
 2955SOL    HW1 9764   1.149   3.735   1.659
 2955SOL    HW2 9765   1.042   3.752   1.537
 2956SOL     OW 9766   5.899   6.566   2.957
 2956SOL    HW1 9767   5.885   6.612   3.045
 2956SOL    HW2 9768   5.818   6.514   2.933
 2957SOL     OW 9769   6.138   3.058   2.300
 2957SOL    HW1 9770   6.158   3.042   2.203
 2957SOL    HW2 9771   6.118   3.154   2.314
 2958SOL     OW 9772   2.299   4.128   4.604
 2958SOL    HW1 9773   2.218   4.140   4.662
 2958SOL    HW2 9774   2.380   4.121   4.662
 2959SOL     OW 9775   4.849   4.508   0.660
 2959SOL    HW1 9776   4.891   4.598   0.648
 2959SOL    HW2 9777   4.916   4.446   0.701
 2960SOL     OW 9778   4.243   0.129   6.263
 2960SOL    HW1 9779   4.277   0.041   6.230
 2960SOL    HW2 9780   4.159   0.152   6.213
 2961SOL     OW 9781   4.880   3.239   3.095
 2961SOL    HW1 9782   4.831   3.254   3.180
 2961SOL    HW2 9783   4.862   3.315   3.032
 2962SOL     OW 9784   4.071   0.843   3.548
 2962SOL    HW1 9785   4.041   0.768   3.607
 2962SOL    HW2 9786   3.996   0.868   3.486
 2963SOL     OW 9787   2.471   0.329   6.882
 2963SOL    HW1 9788   2.383   0.375   6.879
 2963SOL    HW2 9789   2.540   0.386   6.839
 2964SOL     OW 9790   0.560   6.945   2.606
 2964SOL    HW1 9791   0.525   6.974   2.516
 2964SOL    HW2 9792   0.562   6.845   2.610
 2965SOL     OW 9793   6.315   1.104   4.505
 2965SOL    HW1 9794   6.412   1.119   4.487
 2965SOL    HW2 9795   6.287   1.017   4.464
 2966SOL     OW 9796   6.684   5.830   4.076
 2966SOL    HW1 9797   6.663   5.735   4.049
 2966SOL    HW2 9798   6.770   5.831   4.127
 2967SOL     OW 9799   5.823   1.313   4.678
 2967SOL    HW1 9800   5.799   1.375   4.604
 2967SOL    HW2 9801   5.852   1.225   4.639
 2968SOL     OW 9802   0.449   3.356   6.254
 2968SOL    HW1 9803   0.419   3.449   6.276
 2968SOL    HW2 9804   0.544   3.344   6.284
 2969SOL     OW 9805   5.515   1.172   4.434
 2969SOL    HW1 9806   5.602   1.121   4.437
 2969SOL    HW2 9807   5.449   1.129   4.496
 2970SOL     OW 9808   1.524   4.558   6.330
 2970SOL    HW1 9809   1.536   4.654   6.307
 2970SOL    HW2 9810   1.537   4.502   6.248
 2971SOL     OW 9811   5.696   4.221   6.590
 2971SOL    HW1 9812   5.663   4.161   6.518
 2971SOL    HW2 9813   5.644   4.306   6.589
 2972SOL     OW 9814   6.085   4.402   6.344
 2972SOL    HW1 9815   6.164   4.455   6.376
 2972SOL    HW2 9816   6.048   4.348   6.420
 2973SOL     OW 9817   5.852   0.930   3.967
 2973SOL    HW1 9818   5.853   0.939   4.067
 2973SOL    HW2 9819   5.787   0.996   3.928
 2974SOL     OW 9820   0.913   4.343   3.124
 2974SOL    HW1 9821   0.957   4.364   3.211
 2974SOL    HW2 9822   0.880   4.428   3.083
 2975SOL     OW 9823   6.378   2.678   5.028
 2975SOL    HW1 9824   6.305   2.682   5.097
 2975SOL    HW2 9825   6.457   2.731   5.059
 2976SOL     OW 9826   4.289   2.087   3.043
 2976SOL    HW1 9827   4.195   2.121   3.035
 2976SOL    HW2 9828   4.353   2.164   3.034
 2977SOL     OW 9829   2.429   0.045   3.452
 2977SOL    HW1 9830   2.507   0.027   3.511
 2977SOL    HW2 9831   2.397   0.138   3.467
 2978SOL     OW 9832   4.355   4.875   6.880
 2978SOL    HW1 9833   4.424   4.923   6.827
 2978SOL    HW2 9834   4.367   4.896   6.977
 2979SOL     OW 9835   4.669   1.075   4.443
 2979SOL    HW1 9836   4.659   1.100   4.539
 2979SOL    HW2 9837   4.759   1.105   4.409
 2980SOL     OW 9838   1.724   6.431   4.004
 2980SOL    HW1 9839   1.691   6.393   4.090
 2980SOL    HW2 9840   1.806   6.486   4.021
 2981SOL     OW 9841   1.963   0.982   6.147
 2981SOL    HW1 9842   2.021   0.919   6.095
 2981SOL    HW2 9843   2.000   0.991   6.240
 2982SOL     OW 9844   3.740   5.305   3.267
 2982SOL    HW1 9845   3.650   5.313   3.223
 2982SOL    HW2 9846   3.760   5.390   3.315
 2983SOL     OW 9847   1.193   1.882   3.544
 2983SOL    HW1 9848   1.165   1.786   3.539
 2983SOL    HW2 9849   1.291   1.887   3.564
 2984SOL     OW 9850   5.376   5.769   1.389
 2984SOL    HW1 9851   5.319   5.852   1.384
 2984SOL    HW2 9852   5.418   5.752   1.300
 2985SOL     OW 9853   1.155   2.370   5.527
 2985SOL    HW1 9854   1.221   2.334   5.592
 2985SOL    HW2 9855   1.194   2.372   5.435
 2986SOL     OW 9856   3.101   3.843   5.835
 2986SOL    HW1 9857   3.020   3.860   5.893
 2986SOL    HW2 9858   3.073   3.839   5.739
 2987SOL     OW 9859   5.916   1.197   4.253
 2987SOL    HW1 9860   5.842   1.251   4.292
 2987SOL    HW2 9861   5.987   1.257   4.218
 2988SOL     OW 9862   0.842   6.053   3.125
 2988SOL    HW1 9863   0.757   6.015   3.088
 2988SOL    HW2 9864   0.876   6.124   3.063
 2989SOL     OW 9865   6.662   6.364   6.559
 2989SOL    HW1 9866   6.716   6.305   6.619
 2989SOL    HW2 9867   6.683   6.343   6.464
 2990SOL     OW 9868   4.519   1.768   4.345
 2990SOL    HW1 9869   4.527   1.826   4.427
 2990SOL    HW2 9870   4.590   1.793   4.280
 2991SOL     OW 9871   6.082   4.216   5.939
 2991SOL    HW1 9872   6.122   4.307   5.942
 2991SOL    HW2 9873   6.054   4.194   5.845
 2992SOL     OW 9874   2.674   5.260   5.686
 2992SOL    HW1 9875   2.721   5.329   5.631
 2992SOL    HW2 9876   2.610   5.305   5.748
 2993SOL     OW 9877   0.575   5.298   1.192
 2993SOL    HW1 9878   0.610   5.214   1.233
 2993SOL    HW2 9879   0.504   5.275   1.125
 2994SOL     OW 9880   3.902   6.634   0.197
 2994SOL    HW1 9881   3.887   6.611   0.293
 2994SOL    HW2 9882   3.997   6.616   0.173
 2995SOL     OW 9883   1.853   2.743   0.137
 2995SOL    HW1 9884   1.766   2.777   0.173
 2995SOL    HW2 9885   1.849   2.643   0.129
 2996SOL     OW 9886   2.290   0.191   4.058
 2996SOL    HW1 9887   2.346   0.164   3.980
 2996SOL    HW2 9888   2.200   0.149   4.049
 2997SOL     OW 9889   5.936   0.975   2.378
 2997SOL    HW1 9890   5.885   1.019   2.304
 2997SOL    HW2 9891   6.005   1.039   2.413
 2998SOL     OW 9892   4.403   0.002   4.357
 2998SOL    HW1 9893   4.470   0.051   4.301
 2998SOL    HW2 9894   4.431   6.933   4.366
 2999SOL     OW 9895   2.836   4.778   4.550
 2999SOL    HW1 9896   2.870   4.865   4.587
 2999SOL    HW2 9897   2.754   4.751   4.599
 3000SOL     OW 9898   2.157   3.364   6.844
 3000SOL    HW1 9899   2.104   3.441   6.881
 3000SOL    HW2 9900   2.227   3.398   6.782
 3001SOL     OW 9901   5.105   6.144   5.987
 3001SOL    HW1 9902   5.134   6.236   5.962
 3001SOL    HW2 9903   5.024   6.149   6.045
 3002SOL     OW 9904   4.163   0.494   6.463
 3002SOL    HW1 9905   4.230   0.446   6.405
 3002SOL    HW2 9906   4.071   0.469   6.434
 3003SOL     OW 9907   2.511   6.845   6.985
 3003SOL    HW1 9908   2.444   6.914   6.958
 3003SOL    HW2 9909   2.532   6.787   6.907
 3004SOL     OW 9910   1.656   4.689   3.070
 3004SOL    HW1 9911   1.736   4.749   3.068
 3004SOL    HW2 9912   1.664   4.625   3.146
 3005SOL     OW 9913   3.391   2.726   6.638
 3005SOL    HW1 9914   3.323   2.754   6.705
 3005SOL    HW2 9915   3.349   2.666   6.570
 3006SOL     OW 9916   5.252   2.195   6.003
 3006SOL    HW1 9917   5.344   2.235   6.006
 3006SOL    HW2 9918   5.217   2.201   5.910
 3007SOL     OW 9919   5.800   5.586   1.020
 3007SOL    HW1 9920   5.710   5.602   0.980
 3007SOL    HW2 9921   5.866   5.647   0.977
 3008SOL     OW 9922   3.723   1.276   6.744
 3008SOL    HW1 9923   3.758   1.324   6.664
 3008SOL    HW2 9924   3.656   1.334   6.790
 3009SOL     OW 9925   1.029   0.985   2.944
 3009SOL    HW1 9926   1.068   0.948   3.029
 3009SOL    HW2 9927   1.071   0.939   2.866
 3010SOL     OW 9928   3.000   5.816   3.514
 3010SOL    HW1 9929   2.917   5.872   3.512
 3010SOL    HW2 9930   3.007   5.765   3.428
 3011SOL     OW 9931   4.939   1.169   1.221
 3011SOL    HW1 9932   4.867   1.120   1.173
 3011SOL    HW2 9933   4.977   1.110   1.293
 3012SOL     OW 9934   1.457   3.807   5.164
 3012SOL    HW1 9935   1.401   3.726   5.145
 3012SOL    HW2 9936   1.397   3.882   5.191
 3013SOL     OW 9937   5.374   5.871   4.537
 3013SOL    HW1 9938   5.279   5.901   4.532
 3013SOL    HW2 9939   5.428   5.923   4.471
 3014SOL     OW 9940   5.001   2.837   4.881
 3014SOL    HW1 9941   4.978   2.759   4.824
 3014SOL    HW2 9942   4.918   2.879   4.916
 3015SOL     OW 9943   3.251   2.416   6.910
 3015SOL    HW1 9944   3.177   2.483   6.902
 3015SOL    HW2 9945   3.331   2.459   6.952
 3016SOL     OW 9946   2.619   6.070   4.355
 3016SOL    HW1 9947   2.520   6.061   4.365
 3016SOL    HW2 9948   2.656   6.121   4.433
 3017SOL     OW 9949   0.219   5.377   1.828
 3017SOL    HW1 9950   0.121   5.360   1.818
 3017SOL    HW2 9951   0.270   5.298   1.795
 3018SOL     OW 9952   2.271   6.618   5.886
 3018SOL    HW1 9953   2.187   6.570   5.861
 3018SOL    HW2 9954   2.343   6.552   5.907
 3019SOL     OW 9955   1.124   0.221   6.906
 3019SOL    HW1 9956   1.112   0.294   6.973
 3019SOL    HW2 9957   1.162   0.258   6.822
 3020SOL     OW 9958   3.952   3.116   2.119
 3020SOL    HW1 9959   3.927   3.026   2.084
 3020SOL    HW2 9960   3.916   3.186   2.058
 3021SOL     OW 9961   3.315   0.173   6.782
 3021SOL    HW1 9962   3.283   0.262   6.813
 3021SOL    HW2 9963   3.353   0.122   6.860
 3022SOL     OW 9964   3.680   5.026   4.687
 3022SOL    HW1 9965   3.743   4.986   4.620
 3022SOL    HW2 9966   3.603   5.068   4.639
 3023SOL     OW 9967   4.181   0.422   2.682
 3023SOL    HW1 9968   4.140   0.411   2.773
 3023SOL    HW2 9969   4.280   0.425   2.690
 3024SOL     OW 9970   3.982   6.295   5.302
 3024SOL    HW1 9971   3.987   6.395   5.311
 3024SOL    HW2 9972   3.937   6.257   5.383
 3025SOL     OW 9973   3.572   1.101   0.487
 3025SOL    HW1 9974   3.524   1.123   0.402
 3025SOL    HW2 9975   3.620   1.014   0.476
 3026SOL     OW 9976   1.359   1.049   0.484
 3026SOL    HW1 9977   1.412   0.987   0.426
 3026SOL    HW2 9978   1.300   0.996   0.545
 3027SOL     OW 9979   4.135   0.878   3.199
 3027SOL    HW1 9980   4.207   0.851   3.263
 3027SOL    HW2 9981   4.060   0.812   3.203
 3028SOL     OW 9982   1.008   4.552   5.490
 3028SOL    HW1 9983   1.087   4.531   5.547
 3028SOL    HW2 9984   1.009   4.494   5.409
 3029SOL     OW 9985   0.092   3.083   4.935
 3029SOL    HW1 9986   0.178   3.073   4.886
 3029SOL    HW2 9987   0.034   3.004   4.917
 3030SOL     OW 9988   0.841   3.040   6.058
 3030SOL    HW1 9989   0.866   2.960   6.112
 3030SOL    HW2 9990   0.742   3.053   6.061
 3031SOL     OW 9991   0.494   2.978   0.652
 3031SOL    HW1 9992   0.586   2.999   0.685
 3031SOL    HW2 9993   0.453   2.908   0.711
 3032SOL     OW 9994   4.166   6.330   1.761
 3032SOL    HW1 9995   4.124   6.344   1.850
 3032SOL    HW2 9996   4.101   6.353   1.689
 3033SOL     OW 9997   6.758   2.134   1.466
 3033SOL    HW1 9998   6.659   2.132   1.461
 3033SOL    HW2 9999   6.789   2.226   1.488
 3034SOL     OW10000   1.659   5.683   3.522
 3034SOL    HW110001   1.678   5.690   3.620
 3034SOL    HW210002   1.586   5.746   3.497
 3035SOL     OW10003   6.923   3.151   0.207
 3035SOL    HW110004   6.948   3.244   0.181
 3035SOL    HW210005   6.899   3.149   0.304
 3036SOL     OW10006   1.315   2.453   6.567
 3036SOL    HW110007   1.382   2.506   6.516
 3036SOL    HW210008   1.345   2.444   6.662
 3037SOL     OW10009   6.972   6.254   5.123
 3037SOL    HW110010   6.916   6.282   5.046
 3037SOL    HW210011   0.038   6.232   5.092
 3038SOL     OW10012   5.660   6.016   5.691
 3038SOL    HW110013   5.624   5.927   5.663
 3038SOL    HW210014   5.709   6.058   5.615
 3039SOL     OW10015   6.682   4.048   1.430
 3039SOL    HW110016   6.620   4.116   1.469
 3039SOL    HW210017   6.629   3.974   1.390
 3040SOL     OW10018   4.003   3.371   6.140
 3040SOL    HW110019   3.932   3.339   6.077
 3040SOL    HW210020   4.034   3.462   6.112
 3041SOL     OW10021   2.090   2.845   4.510
 3041SOL    HW110022   2.127   2.938   4.501
 3041SOL    HW210023   2.154   2.788   4.562
 3042SOL     OW10024   4.717   6.636   2.310
 3042SOL    HW110025   4.692   6.558   2.252
 3042SOL    HW210026   4.644   6.651   2.378
 3043SOL     OW10027   1.064   5.412   1.587
 3043SOL    HW110028   1.042   5.353   1.510
 3043SOL    HW210029   1.052   5.362   1.672
 3044SOL     OW10030   3.358   3.409   6.063
 3044SOL    HW110031   3.277   3.369   6.105
 3044SOL    HW210032   3.333   3.492   6.015
 3045SOL     OW10033   4.793   1.203   2.840
 3045SOL    HW110034   4.801   1.301   2.857
 3045SOL    HW210035   4.699   1.182   2.810
 3046SOL     OW10036   2.468   1.258   6.431
 3046SOL    HW110037   2.558   1.251   6.475
 3046SOL    HW210038   2.447   1.172   6.386
 3047SOL     OW10039   5.444   0.294   2.641
 3047SOL    HW110040   5.455   0.281   2.543
 3047SOL    HW210041   5.377   0.367   2.658
 3048SOL     OW10042   3.911   2.765   1.415
 3048SOL    HW110043   3.924   2.807   1.505
 3048SOL    HW210044   3.818   2.728   1.409
 3049SOL     OW10045   0.884   6.942   1.754
 3049SOL    HW110046   0.804   6.887   1.730
 3049SOL    HW210047   0.861   7.005   1.828
 3050SOL     OW10048   3.064   0.806   2.601
 3050SOL    HW110049   3.136   0.862   2.560
 3050SOL    HW210050   3.004   0.770   2.530
 3051SOL     OW10051   2.208   4.280   0.325
 3051SOL    HW110052   2.129   4.221   0.343
 3051SOL    HW210053   2.282   4.257   0.389
 3052SOL     OW10054   5.408   0.267   2.362
 3052SOL    HW110055   5.493   0.265   2.310
 3052SOL    HW210056   5.350   0.190   2.334
 3053SOL     OW10057   0.046   2.059   6.979
 3053SOL    HW110058   0.137   2.099   6.969
 3053SOL    HW210059   0.037   1.982   6.916
 3054SOL     OW10060   6.614   2.023   1.095
 3054SOL    HW110061   6.586   1.968   1.016
 3054SOL    HW210062   6.712   2.012   1.110
 3055SOL     OW10063   5.053   6.850   3.924
 3055SOL    HW110064   4.987   6.782   3.890
 3055SOL    HW210065   5.019   6.891   4.008
 3056SOL     OW10066   5.984   1.138   5.314
 3056SOL    HW110067   5.963   1.136   5.412
 3056SOL    HW210068   5.903   1.168   5.263
 3057SOL     OW10069   3.681   5.947   3.487
 3057SOL    HW110070   3.601   5.897   3.520
 3057SOL    HW210071   3.721   5.998   3.563
 3058SOL     OW10072   6.703   5.603   0.916
 3058SOL    HW110073   6.735   5.583   0.824
 3058SOL    HW210074   6.681   5.517   0.963
 3059SOL     OW10075   2.446   2.059   4.230
 3059SOL    HW110076   2.487   2.128   4.171
 3059SOL    HW210077   2.485   1.969   4.209
 3060SOL     OW10078   0.512   5.495   0.310
 3060SOL    HW110079   0.496   5.504   0.212
 3060SOL    HW210080   0.482   5.578   0.357
 3061SOL     OW10081   6.480   0.016   5.465
 3061SOL    HW110082   6.392   0.026   5.511
 3061SOL    HW210083   6.464   7.022   5.369
 3062SOL     OW10084   1.610   6.421   6.877
 3062SOL    HW110085   1.611   6.377   6.787
 3062SOL    HW210086   1.642   6.515   6.868
 3063SOL     OW10087   2.712   5.509   1.545
 3063SOL    HW110088   2.699   5.442   1.619
 3063SOL    HW210089   2.747   5.462   1.464
 3064SOL     OW10090   5.959   4.138   3.044
 3064SOL    HW110091   6.051   4.178   3.047
 3064SOL    HW210092   5.954   4.073   2.968
 3065SOL     OW10093   2.448   1.033   0.070
 3065SOL    HW110094   2.519   1.103   0.076
 3065SOL    HW210095   2.358   1.077   0.071
 3066SOL     OW10096   5.066   4.841   0.990
 3066SOL    HW110097   5.062   4.747   1.023
 3066SOL    HW210098   5.161   4.870   0.982
 3067SOL     OW10099   3.847   1.784   5.427
 3067SOL    HW110100   3.854   1.829   5.338
 3067SOL    HW210101   3.926   1.725   5.441
 3068SOL     OW10102   6.669   6.536   1.749
 3068SOL    HW110103   6.665   6.461   1.683
 3068SOL    HW210104   6.577   6.570   1.765
 3069SOL     OW10105   6.733   6.767   1.944
 3069SOL    HW110106   6.708   6.699   1.874
 3069SOL    HW210107   6.684   6.747   2.028
 3070SOL     OW10108   1.355   1.370   1.796
 3070SOL    HW110109   1.423   1.353   1.867
 3070SOL    HW210110   1.286   1.297   1.798
 3071SOL     OW10111   6.443   6.092   3.030
 3071SOL    HW110112   6.439   6.191   3.014
 3071SOL    HW210113   6.396   6.071   3.116
 3072SOL     OW10114   1.583   6.910   6.894
 3072SOL    HW110115   1.620   6.892   6.803
 3072SOL    HW210116   1.608   7.002   6.923
 3073SOL     OW10117   6.319   2.564   4.584
 3073SOL    HW110118   6.259   2.587   4.661
 3073SOL    HW210119   6.410   2.542   4.618
 3074SOL     OW10120   5.783   3.308   1.005
 3074SOL    HW110121   5.722   3.239   0.965
 3074SOL    HW210122   5.820   3.273   1.092
 3075SOL     OW10123   2.453   5.768   1.793
 3075SOL    HW110124   2.425   5.795   1.884
 3075SOL    HW210125   2.405   5.684   1.767
 3076SOL     OW10126   6.678   0.628   4.404
 3076SOL    HW110127   6.650   0.545   4.453
 3076SOL    HW210128   6.761   0.608   4.352
 3077SOL     OW10129   4.787   6.188   2.396
 3077SOL    HW110130   4.880   6.222   2.407
 3077SOL    HW210131   4.788   6.099   2.350
 3078SOL     OW10132   1.206   3.025   2.280
 3078SOL    HW110133   1.280   3.028   2.213
 3078SOL    HW210134   1.138   3.095   2.258
 3079SOL     OW10135   2.234   2.063   4.037
 3079SOL    HW110136   2.303   2.083   4.107
 3079SOL    HW210137   2.143   2.064   4.078
 3080SOL     OW10138   4.873   3.902   3.617
 3080SOL    HW110139   4.972   3.912   3.621
 3080SOL    HW210140   4.849   3.842   3.540
 3081SOL     OW10141   0.626   2.413   6.069
 3081SOL    HW110142   0.721   2.382   6.069
 3081SOL    HW210143   0.624   2.513   6.070
 3082SOL     OW10144   2.590   6.905   4.184
 3082SOL    HW110145   2.572   6.807   4.191
 3082SOL    HW210146   2.661   6.931   4.250
 3083SOL     OW10147   4.015   6.093   3.458
 3083SOL    HW110148   4.073   6.012   3.446
 3083SOL    HW210149   3.954   6.079   3.535
 3084SOL     OW10150   5.416   4.242   4.745
 3084SOL    HW110151   5.439   4.238   4.842
 3084SOL    HW210152   5.498   4.225   4.691
 3085SOL     OW10153   6.565   4.595   1.849
 3085SOL    HW110154   6.608   4.603   1.939
 3085SOL    HW210155   6.596   4.669   1.790
 3086SOL     OW10156   3.867   1.918   1.766
 3086SOL    HW110157   3.806   1.968   1.704
 3086SOL    HW210158   3.830   1.920   1.858
 3087SOL     OW10159   0.270   5.356   4.163
 3087SOL    HW110160   0.321   5.442   4.159
 3087SOL    HW210161   0.332   5.279   4.145
 3088SOL     OW10162   2.365   4.287   5.805
 3088SOL    HW110163   2.294   4.354   5.787
 3088SOL    HW210164   2.429   4.285   5.728
 3089SOL     OW10165   1.063   3.509   0.239
 3089SOL    HW110166   1.058   3.594   0.186
 3089SOL    HW210167   1.105   3.527   0.327
 3090SOL     OW10168   1.761   2.069   2.144
 3090SOL    HW110169   1.822   2.121   2.203
 3090SOL    HW210170   1.739   1.981   2.186
 3091SOL     OW10171   1.888   0.899   1.307
 3091SOL    HW110172   1.915   0.840   1.230
 3091SOL    HW210173   1.938   0.870   1.389
 3092SOL     OW10174   5.081   6.588   0.657
 3092SOL    HW110175   4.991   6.571   0.698
 3092SOL    HW210176   5.114   6.678   0.686
 3093SOL     OW10177   5.041   6.309   5.613
 3093SOL    HW110178   5.130   6.315   5.568
 3093SOL    HW210179   4.969   6.335   5.548
 3094SOL     OW10180   2.570   6.488   4.452
 3094SOL    HW110181   2.494   6.439   4.408
 3094SOL    HW210182   2.656   6.442   4.430
 3095SOL     OW10183   2.140   5.508   5.896
 3095SOL    HW110184   2.147   5.459   5.809
 3095SOL    HW210185   2.232   5.537   5.925
 3096SOL     OW10186   1.853   6.174   4.986
 3096SOL    HW110187   1.791   6.205   4.914
 3096SOL    HW210188   1.843   6.232   5.067
 3097SOL     OW10189   6.657   2.486   0.791
 3097SOL    HW110190   6.743   2.463   0.745
 3097SOL    HW210191   6.590   2.415   0.772
 3098SOL     OW10192   2.793   3.163   1.058
 3098SOL    HW110193   2.859   3.179   1.132
 3098SOL    HW210194   2.740   3.246   1.043
 3099SOL     OW10195   0.619   6.803   3.244
 3099SOL    HW110196   0.633   6.819   3.147
 3099SOL    HW210197   0.618   6.890   3.293
 3100SOL     OW10198   6.319   6.609   4.675
 3100SOL    HW110199   6.367   6.588   4.591
 3100SOL    HW210200   6.298   6.707   4.678
 3101SOL     OW10201   4.916   6.629   6.216
 3101SOL    HW110202   4.860   6.606   6.296
 3101SOL    HW210203   4.868   6.604   6.133
 3102SOL     OW10204   0.284   4.347   2.349
 3102SOL    HW110205   0.367   4.378   2.396
 3102SOL    HW210206   0.310   4.297   2.266
 3103SOL     OW10207   3.866   0.631   2.593
 3103SOL    HW110208   3.829   0.563   2.530
 3103SOL    HW210209   3.864   0.594   2.686
 3104SOL     OW10210   5.377   6.485   5.241
 3104SOL    HW110211   5.297   6.540   5.217
 3104SOL    HW210212   5.428   6.463   5.158
 3105SOL     OW10213   5.940   4.555   2.087
 3105SOL    HW110214   5.964   4.467   2.129
 3105SOL    HW210215   5.931   4.544   1.988
 3106SOL     OW10216   6.093   1.750   2.820
 3106SOL    HW110217   6.105   1.683   2.747
 3106SOL    HW210218   6.068   1.838   2.780
 3107SOL     OW10219   4.207   0.990   4.384
 3107SOL    HW110220   4.118   0.946   4.377
 3107SOL    HW210221   4.207   1.054   4.461
 3108SOL     OW10222   0.560   0.081   4.309
 3108SOL    HW110223   0.495   0.127   4.369
 3108SOL    HW210224   0.570   0.134   4.225
 3109SOL     OW10225   5.329   6.869   2.388
 3109SOL    HW110226   5.282   6.791   2.345
 3109SOL    HW210227   5.266   6.916   2.449
 3110SOL     OW10228   1.767   1.951   3.352
 3110SOL    HW110229   1.721   2.010   3.418
 3110SOL    HW210230   1.866   1.962   3.361
 3111SOL     OW10231   5.955   6.051   3.678
 3111SOL    HW110232   5.885   6.043   3.749
 3111SOL    HW210233   5.922   6.008   3.594
 3112SOL     OW10234   4.696   2.402   6.419
 3112SOL    HW110235   4.628   2.340   6.459
 3112SOL    HW210236   4.650   2.481   6.378
 3113SOL     OW10237   2.095   6.113   3.720
 3113SOL    HW110238   2.006   6.098   3.762
 3113SOL    HW210239   2.164   6.060   3.768
 3114SOL     OW10240   4.320   2.101   0.483
 3114SOL    HW110241   4.419   2.092   0.493
 3114SOL    HW210242   4.284   2.160   0.555
 3115SOL     OW10243   4.355   3.065   6.393
 3115SOL    HW110244   4.296   3.145   6.385
 3115SOL    HW210245   4.364   3.040   6.490
 3116SOL     OW10246   0.194   2.919   0.298
 3116SOL    HW110247   0.269   2.858   0.321
 3116SOL    HW210248   0.108   2.869   0.299
 3117SOL     OW10249   4.223   3.686   5.178
 3117SOL    HW110250   4.229   3.594   5.140
 3117SOL    HW210251   4.152   3.737   5.128
 3118SOL     OW10252   0.244   4.611   1.446
 3118SOL    HW110253   0.158   4.618   1.395
 3118SOL    HW210254   0.228   4.564   1.532
 3119SOL     OW10255   1.523   3.504   5.789
 3119SOL    HW110256   1.476   3.447   5.857
 3119SOL    HW210257   1.553   3.589   5.832
 3120SOL     OW10258   3.353   0.044   4.705
 3120SOL    HW110259   3.337   0.044   4.607
 3120SOL    HW210260   3.427   7.006   4.727
 3121SOL     OW10261   6.769   1.610   3.483
 3121SOL    HW110262   6.786   1.610   3.581
 3121SOL    HW210263   6.693   1.549   3.462
 3122SOL     OW10264   3.261   6.551   5.777
 3122SOL    HW110265   3.276   6.642   5.816
 3122SOL    HW210266   3.319   6.485   5.824
 3123SOL     OW10267   4.324   1.684   4.166
 3123SOL    HW110268   4.358   1.591   4.164
 3123SOL    HW210269   4.374   1.737   4.235
 3124SOL     OW10270   3.969   6.425   4.561
 3124SOL    HW110271   3.930   6.511   4.594
 3124SOL    HW210272   3.914   6.348   4.595
 3125SOL     OW10273   6.413   1.965   5.337
 3125SOL    HW110274   6.315   1.948   5.327
 3125SOL    HW210275   6.462   1.879   5.336
 3126SOL     OW10276   4.362   4.912   6.398
 3126SOL    HW110277   4.320   4.847   6.334
 3126SOL    HW210278   4.353   4.877   6.491
 3127SOL     OW10279   1.021   3.317   3.757
 3127SOL    HW110280   1.043   3.258   3.835
 3127SOL    HW210281   0.946   3.277   3.705
 3128SOL     OW10282   2.163   0.659   7.001
 3128SOL    HW110283   2.198   0.578   6.953
 3128SOL    HW210284   2.239   0.705   0.020
 3129SOL     OW10285   0.686   4.090   6.491
 3129SOL    HW110286   0.675   4.001   6.448
 3129SOL    HW210287   0.706   4.079   6.588
 3130SOL     OW10288   1.810   4.492   1.326
 3130SOL    HW110289   1.891   4.518   1.273
 3130SOL    HW210290   1.793   4.394   1.315
 3131SOL     OW10291   6.720   2.868   1.222
 3131SOL    HW110292   6.772   2.784   1.202
 3131SOL    HW210293   6.623   2.851   1.204
 3132SOL     OW10294   4.623   5.612   5.433
 3132SOL    HW110295   4.606   5.675   5.510
 3132SOL    HW210296   4.536   5.590   5.389
 3133SOL     OW10297   3.485   2.147   4.113
 3133SOL    HW110298   3.404   2.192   4.150
 3133SOL    HW210299   3.469   2.122   4.018
 3134SOL     OW10300   5.067   4.780   1.299
 3134SOL    HW110301   5.064   4.794   1.398
 3134SOL    HW210302   5.125   4.849   1.257
 3135SOL     OW10303   5.268   0.605   5.505
 3135SOL    HW110304   5.335   0.636   5.437
 3135SOL    HW210305   5.203   0.678   5.523
 3136SOL     OW10306   5.513   0.541   0.718
 3136SOL    HW110307   5.503   0.485   0.800
 3136SOL    HW210308   5.565   0.624   0.741
 3137SOL     OW10309   5.772   0.665   3.149
 3137SOL    HW110310   5.842   0.595   3.159
 3137SOL    HW210311   5.815   0.756   3.152
 3138SOL     OW10312   6.040   3.277   3.922
 3138SOL    HW110313   6.034   3.303   4.019
 3138SOL    HW210314   6.109   3.205   3.912
 3139SOL     OW10315   4.982   6.519   0.416
 3139SOL    HW110316   4.962   6.422   0.427
 3139SOL    HW210317   5.026   6.554   0.499
 3140SOL     OW10318   6.230   0.010   6.588
 3140SOL    HW110319   6.319   0.036   6.627
 3140SOL    HW210320   6.243   6.967   6.518
 3141SOL     OW10321   6.889   6.519   6.187
 3141SOL    HW110322   6.893   6.595   6.252
 3141SOL    HW210323   6.957   6.450   6.210
 3142SOL     OW10324   3.994   6.659   1.667
 3142SOL    HW110325   4.053   6.717   1.611
 3142SOL    HW210326   4.018   6.670   1.764
 3143SOL     OW10327   6.876   1.982   6.677
 3143SOL    HW110328   6.965   2.026   6.661
 3143SOL    HW210329   6.820   2.041   6.735
 3144SOL     OW10330   4.323   4.661   1.386
 3144SOL    HW110331   4.324   4.666   1.286
 3144SOL    HW210332   4.317   4.566   1.415
 3145SOL     OW10333   1.438   5.331   2.089
 3145SOL    HW110334   1.488   5.270   2.150
 3145SOL    HW210335   1.471   5.424   2.101
 3146SOL     OW10336   1.565   0.612   2.680
 3146SOL    HW110337   1.479   0.570   2.710
 3146SOL    HW210338   1.605   0.556   2.608
 3147SOL     OW10339   3.098   4.944   0.414
 3147SOL    HW110340   3.094   4.914   0.319
 3147SOL    HW210341   3.013   4.992   0.437
 3148SOL     OW10342   4.793   6.087   4.573
 3148SOL    HW110343   4.785   5.988   4.578
 3148SOL    HW210344   4.723   6.123   4.511
 3149SOL     OW10345   2.356   1.085   5.839
 3149SOL    HW110346   2.436   1.107   5.896
 3149SOL    HW210347   2.376   1.005   5.784
 3150SOL     OW10348   6.685   6.166   4.339
 3150SOL    HW110349   6.655   6.086   4.390
 3150SOL    HW210350   6.785   6.165   4.330
 3151SOL     OW10351   4.174   1.566   6.384
 3151SOL    HW110352   4.242   1.518   6.441
 3151SOL    HW210353   4.219   1.641   6.335
 3152SOL     OW10354   1.670   5.896   0.695
 3152SOL    HW110355   1.583   5.867   0.734
 3152SOL    HW210356   1.697   5.833   0.622
 3153SOL     OW10357   6.848   4.476   2.383
 3153SOL    HW110358   6.919   4.448   2.448
 3153SOL    HW210359   6.763   4.496   2.432
 3154SOL     OW10360   6.810   1.125   0.002
 3154SOL    HW110361   6.806   1.163   6.936
 3154SOL    HW210362   6.815   1.025   7.022
 3155SOL     OW10363   6.696   4.435   1.239
 3155SOL    HW110364   6.600   4.412   1.224
 3155SOL    HW210365   6.745   4.353   1.270
 3156SOL     OW10366   3.257   3.635   3.347
 3156SOL    HW110367   3.350   3.630   3.383
 3156SOL    HW210368   3.245   3.566   3.275
 3157SOL     OW10369   2.256   2.900   4.754
 3157SOL    HW110370   2.320   2.929   4.825
 3157SOL    HW210371   2.255   2.800   4.749
 3158SOL     OW10372   4.077   6.947   2.287
 3158SOL    HW110373   4.007   6.880   2.263
 3158SOL    HW210374   4.122   6.920   2.372
 3159SOL     OW10375   5.776   1.659   0.119
 3159SOL    HW110376   5.677   1.656   0.132
 3159SOL    HW210377   5.817   1.576   0.157
 3160SOL     OW10378   0.523   6.236   5.081
 3160SOL    HW110379   0.439   6.226   5.135
 3160SOL    HW210380   0.596   6.270   5.140
 3161SOL     OW10381   1.866   2.244   4.012
 3161SOL    HW110382   1.935   2.194   4.064
 3161SOL    HW210383   1.780   2.246   4.064
 3162SOL     OW10384   1.137   6.669   1.890
 3162SOL    HW110385   1.134   6.740   1.820
 3162SOL    HW210386   1.229   6.664   1.930
 3163SOL     OW10387   3.551   1.948   6.305
 3163SOL    HW110388   3.644   1.967   6.337
 3163SOL    HW210389   3.533   2.001   6.222
 3164SOL     OW10390   4.651   4.589   1.530
 3164SOL    HW110391   4.705   4.543   1.600
 3164SOL    HW210392   4.592   4.523   1.484
 3165SOL     OW10393   0.967   5.737   1.023
 3165SOL    HW110394   0.976   5.804   1.097
 3165SOL    HW210395   0.964   5.645   1.062
 3166SOL     OW10396   4.642   0.912   5.568
 3166SOL    HW110397   4.587   0.995   5.577
 3166SOL    HW210398   4.669   0.900   5.473
 3167SOL     OW10399   6.908   4.272   1.372
 3167SOL    HW110400   6.832   4.226   1.418
 3167SOL    HW210401   6.953   4.208   1.310
 3168SOL     OW10402   4.940   2.766   6.311
 3168SOL    HW110403   4.879   2.783   6.234
 3168SOL    HW210404   5.012   2.702   6.284
 3169SOL     OW10405   1.814   3.341   4.631
 3169SOL    HW110406   1.882   3.368   4.699
 3169SOL    HW210407   1.750   3.417   4.617
 3170SOL     OW10408   4.026   0.722   1.572
 3170SOL    HW110409   4.045   0.778   1.653
 3170SOL    HW210410   4.027   0.626   1.598
 3171SOL     OW10411   0.854   6.595   1.429
 3171SOL    HW110412   0.940   6.630   1.392
 3171SOL    HW210413   0.791   6.671   1.444
 3172SOL     OW10414   0.596   5.116   6.097
 3172SOL    HW110415   0.552   5.068   6.022
 3172SOL    HW210416   0.602   5.056   6.177
 3173SOL     OW10417   3.219   1.951   0.996
 3173SOL    HW110418   3.226   2.050   1.007
 3173SOL    HW210419   3.307   1.909   1.014
 3174SOL     OW10420   2.872   2.820   6.222
 3174SOL    HW110421   2.799   2.857   6.165
 3174SOL    HW210422   2.925   2.895   6.261
 3175SOL     OW10423   0.247   6.796   0.210
 3175SOL    HW110424   0.327   6.737   0.203
 3175SOL    HW210425   0.276   6.890   0.231
 3176SOL     OW10426   2.136   5.121   5.137
 3176SOL    HW110427   2.156   5.212   5.174
 3176SOL    HW210428   2.216   5.063   5.146
 3177SOL     OW10429   4.881   4.671   4.917
 3177SOL    HW110430   4.895   4.606   4.842
 3177SOL    HW210431   4.959   4.666   4.980
 3178SOL     OW10432   6.739   1.972   0.662
 3178SOL    HW110433   6.761   2.035   0.737
 3178SOL    HW210434   6.744   2.022   0.575
 3179SOL     OW10435   1.850   2.702   2.222
 3179SOL    HW110436   1.867   2.606   2.204
 3179SOL    HW210437   1.912   2.758   2.167
 3180SOL     OW10438   4.519   1.048   0.117
 3180SOL    HW110439   4.540   0.989   0.039
 3180SOL    HW210440   4.546   1.142   0.097
 3181SOL     OW10441   1.471   1.122   3.009
 3181SOL    HW110442   1.459   1.189   2.936
 3181SOL    HW210443   1.520   1.164   3.085
 3182SOL     OW10444   2.093   1.505   5.402
 3182SOL    HW110445   2.166   1.566   5.371
 3182SOL    HW210446   2.009   1.525   5.353
 3183SOL     OW10447   4.416   3.937   1.528
 3183SOL    HW110448   4.489   3.923   1.595
 3183SOL    HW210449   4.347   3.999   1.566
 3184SOL     OW10450   1.305   2.485   3.188
 3184SOL    HW110451   1.272   2.513   3.278
 3184SOL    HW210452   1.234   2.430   3.143
 3185SOL     OW10453   5.547   6.855   6.726
 3185SOL    HW110454   5.520   6.776   6.780
 3185SOL    HW210455   5.628   6.897   6.767
 3186SOL     OW10456   4.055   1.877   2.712
 3186SOL    HW110457   4.006   1.957   2.744
 3186SOL    HW210458   4.107   1.900   2.629
 3187SOL     OW10459   4.744   4.309   0.500
 3187SOL    HW110460   4.675   4.262   0.556
 3187SOL    HW210461   4.766   4.397   0.543
 3188SOL     OW10462   3.634   6.568   5.100
 3188SOL    HW110463   3.648   6.651   5.046
 3188SOL    HW210464   3.682   6.575   5.187
 3189SOL     OW10465   2.015   1.117   1.762
 3189SOL    HW110466   1.986   1.211   1.775
 3189SOL    HW210467   2.018   1.097   1.664
 3190SOL     OW10468   0.617   5.808   1.324
 3190SOL    HW110469   0.664   5.794   1.411
 3190SOL    HW210470   0.650   5.742   1.257
 3191SOL     OW10471   4.339   6.276   0.607
 3191SOL    HW110472   4.363   6.180   0.596
 3191SOL    HW210473   4.304   6.313   0.521
 3192SOL     OW10474   0.047   2.535   1.209
 3192SOL    HW110475   0.120   2.484   1.256
 3192SOL    HW210476   0.083   2.574   1.124
 3193SOL     OW10477   4.374   1.515   6.042
 3193SOL    HW110478   4.361   1.417   6.055
 3193SOL    HW210479   4.423   1.531   5.956
 3194SOL     OW10480   0.942   3.607   5.813
 3194SOL    HW110481   0.975   3.592   5.906
 3194SOL    HW210482   0.924   3.519   5.769
 3195SOL     OW10483   2.019   2.705   3.084
 3195SOL    HW110484   1.952   2.674   3.017
 3195SOL    HW210485   2.104   2.729   3.038
 3196SOL     OW10486   6.972   0.401   5.200
 3196SOL    HW110487   6.930   0.477   5.151
 3196SOL    HW210488   6.969   0.319   5.142
 3197SOL     OW10489   1.899   6.336   3.300
 3197SOL    HW110490   1.994   6.330   3.332
 3197SOL    HW210491   1.890   6.285   3.214
 3198SOL     OW10492   6.640   2.156   5.845
 3198SOL    HW110493   6.612   2.061   5.835
 3198SOL    HW210494   6.696   2.166   5.927
 3199SOL     OW10495   4.601   2.871   1.652
 3199SOL    HW110496   4.630   2.925   1.573
 3199SOL    HW210497   4.600   2.927   1.734
 3200SOL     OW10498   0.006   2.404   2.230
 3200SOL    HW110499   0.098   2.430   2.201
 3200SOL    HW210500   0.012   2.354   2.317
 3201SOL     OW10501   5.252   4.631   4.421
 3201SOL    HW110502   5.256   4.619   4.520
 3201SOL    HW210503   5.270   4.726   4.397
 3202SOL     OW10504   1.502   4.725   1.891
 3202SOL    HW110505   1.444   4.644   1.904
 3202SOL    HW210506   1.445   4.803   1.864
 3203SOL     OW10507   5.864   1.943   0.149
 3203SOL    HW110508   5.952   1.974   0.186
 3203SOL    HW210509   5.803   1.918   0.225
 3204SOL     OW10510   5.270   6.253   1.561
 3204SOL    HW110511   5.243   6.246   1.657
 3204SOL    HW210512   5.274   6.350   1.535
 3205SOL     OW10513   0.620   3.592   6.475
 3205SOL    HW110514   0.666   3.659   6.417
 3205SOL    HW210515   0.604   3.633   6.565
 3206SOL     OW10516   6.711   6.582   5.942
 3206SOL    HW110517   6.761   6.545   6.020
 3206SOL    HW210518   6.701   6.512   5.872
 3207SOL     OW10519   0.191   1.323   6.078
 3207SOL    HW110520   0.214   1.420   6.075
 3207SOL    HW210521   0.093   1.312   6.061
 3208SOL     OW10522   4.845   6.384   5.442
 3208SOL    HW110523   4.782   6.311   5.418
 3208SOL    HW210524   4.797   6.454   5.495
 3209SOL     OW10525   3.268   5.155   3.315
 3209SOL    HW110526   3.202   5.171   3.389
 3209SOL    HW210527   3.275   5.056   3.298
 3210SOL     OW10528   0.668   3.863   2.298
 3210SOL    HW110529   0.573   3.832   2.297
 3210SOL    HW210530   0.722   3.803   2.357
 3211SOL     OW10531   2.448   3.315   1.168
 3211SOL    HW110532   2.515   3.306   1.095
 3211SOL    HW210533   2.495   3.328   1.256
 3212SOL     OW10534   3.549   1.438   6.873
 3212SOL    HW110535   3.483   1.510   6.852
 3212SOL    HW210536   3.503   1.361   6.917
 3213SOL     OW10537   6.132   6.082   2.530
 3213SOL    HW110538   6.191   6.048   2.457
 3213SOL    HW210539   6.067   6.148   2.492
 3214SOL     OW10540   5.159   5.368   0.175
 3214SOL    HW110541   5.242   5.374   0.119
 3214SOL    HW210542   5.144   5.273   0.203
 3215SOL     OW10543   0.066   3.078   1.213
 3215SOL    HW110544   0.107   3.014   1.149
 3215SOL    HW210545   0.044   3.031   1.298
 3216SOL     OW10546   5.418   5.747   1.643
 3216SOL    HW110547   5.396   5.750   1.545
 3216SOL    HW210548   5.510   5.709   1.654
 3217SOL     OW10549   0.684   5.521   2.411
 3217SOL    HW110550   0.612   5.478   2.356
 3217SOL    HW210551   0.714   5.605   2.366
 3218SOL     OW10552   3.766   6.461   3.511
 3218SOL    HW110553   3.842   6.405   3.479
 3218SOL    HW210554   3.739   6.525   3.438
 3219SOL     OW10555   6.998   1.903   3.176
 3219SOL    HW110556   6.901   1.880   3.184
 3219SOL    HW210557   0.007   1.929   3.266
 3220SOL     OW10558   6.540   5.971   5.863
 3220SOL    HW110559   6.567   5.938   5.772
 3220SOL    HW210560   6.554   5.899   5.930
 3221SOL     OW10561   3.427   0.239   2.112
 3221SOL    HW110562   3.434   0.140   2.096
 3221SOL    HW210563   3.516   0.276   2.135
 3222SOL     OW10564   4.309   1.773   3.670
 3222SOL    HW110565   4.389   1.823   3.639
 3222SOL    HW210566   4.283   1.805   3.761
 3223SOL     OW10567   1.578   5.055   6.696
 3223SOL    HW110568   1.661   5.110   6.696
 3223SOL    HW210569   1.536   5.060   6.787
 3224SOL     OW10570   3.978   5.040   6.398
 3224SOL    HW110571   4.042   5.084   6.460
 3224SOL    HW210572   4.018   5.033   6.307
 3225SOL     OW10573   4.441   2.860   5.400
 3225SOL    HW110574   4.382   2.781   5.416
 3225SOL    HW210575   4.387   2.943   5.403
 3226SOL     OW10576   1.430   2.041   4.873
 3226SOL    HW110577   1.425   2.060   4.971
 3226SOL    HW210578   1.407   1.945   4.856
 3227SOL     OW10579   3.099   2.236   6.225
 3227SOL    HW110580   3.079   2.276   6.315
 3227SOL    HW210581   3.104   2.137   6.234
 3228SOL     OW10582   5.610   3.426   3.853
 3228SOL    HW110583   5.518   3.400   3.883
 3228SOL    HW210584   5.605   3.507   3.796
 3229SOL     OW10585   3.565   1.908   5.416
 3229SOL    HW110586   3.652   1.878   5.455
 3229SOL    HW210587   3.508   1.828   5.397
 3230SOL     OW10588   0.958   2.789   4.191
 3230SOL    HW110589   0.910   2.703   4.175
 3230SOL    HW210590   0.968   2.805   4.289
 3231SOL     OW10591   3.139   6.598   2.425
 3231SOL    HW110592   3.124   6.505   2.460
 3231SOL    HW210593   3.063   6.657   2.454
 3232SOL     OW10594   4.169   5.008   3.996
 3232SOL    HW110595   4.185   4.963   3.908
 3232SOL    HW210596   4.079   4.983   4.031
 3233SOL     OW10597   2.068   3.269   1.190
 3233SOL    HW110598   2.139   3.203   1.165
 3233SOL    HW210599   2.085   3.355   1.142
 3234SOL     OW10600   0.299   2.533   0.153
 3234SOL    HW110601   0.213   2.545   0.202
 3234SOL    HW210602   0.353   2.461   0.197
 3235SOL     OW10603   4.416   6.646   1.169
 3235SOL    HW110604   4.515   6.633   1.163
 3235SOL    HW210605   4.373   6.619   1.083
 3236SOL     OW10606   1.282   3.666   1.129
 3236SOL    HW110607   1.278   3.608   1.210
 3236SOL    HW210608   1.255   3.612   1.049
 3237SOL     OW10609   5.545   1.775   3.950
 3237SOL    HW110610   5.593   1.715   4.013
 3237SOL    HW210611   5.452   1.741   3.935
 3238SOL     OW10612   6.992   4.734   0.313
 3238SOL    HW110613   0.044   4.783   0.276
 3238SOL    HW210614   6.949   4.680   0.240
 3239SOL     OW10615   5.999   1.498   0.242
 3239SOL    HW110616   6.014   1.538   0.333
 3239SOL    HW210617   6.056   1.545   0.175
 3240SOL     OW10618   1.015   6.720   4.754
 3240SOL    HW110619   0.970   6.632   4.771
 3240SOL    HW210620   0.963   6.771   4.686
 3241SOL     OW10621   5.450   1.385   4.286
 3241SOL    HW110622   5.410   1.361   4.197
 3241SOL    HW210623   5.497   1.305   4.324
 3242SOL     OW10624   3.527   4.799   1.326
 3242SOL    HW110625   3.442   4.764   1.289
 3242SOL    HW210626   3.538   4.895   1.300
 3243SOL     OW10627   6.081   5.241   0.164
 3243SOL    HW110628   6.041   5.239   0.255
 3243SOL    HW210629   6.177   5.268   0.170
 3244SOL     OW10630   4.866   5.664   6.949
 3244SOL    HW110631   4.950   5.711   6.978
 3244SOL    HW210632   4.879   5.629   6.856
 3245SOL     OW10633   4.975   2.320   5.683
 3245SOL    HW110634   4.979   2.388   5.757
 3245SOL    HW210635   5.066   2.281   5.670
 3246SOL     OW10636   6.270   0.731   3.043
 3246SOL    HW110637   6.267   0.737   3.143
 3246SOL    HW210638   6.213   0.803   3.004
 3247SOL     OW10639   6.828   5.103   3.390
 3247SOL    HW110640   6.797   5.013   3.419
 3247SOL    HW210641   6.827   5.166   3.468
 3248SOL     OW10642   6.020   3.230   1.452
 3248SOL    HW110643   6.013   3.295   1.528
 3248SOL    HW210644   6.056   3.144   1.486
 3249SOL     OW10645   3.563   4.000   5.563
 3249SOL    HW110646   3.527   3.951   5.642
 3249SOL    HW210647   3.641   4.055   5.591
 3250SOL     OW10648   5.727   0.407   2.536
 3250SOL    HW110649   5.634   0.374   2.555
 3250SOL    HW210650   5.757   0.467   2.610
 3251SOL     OW10651   4.132   1.137   2.852
 3251SOL    HW110652   4.043   1.142   2.808
 3251SOL    HW210653   4.122   1.151   2.950
 3252SOL     OW10654   2.979   0.983   2.222
 3252SOL    HW110655   2.912   1.033   2.167
 3252SOL    HW210656   3.065   0.974   2.170
 3253SOL     OW10657   4.927   3.487   2.654
 3253SOL    HW110658   4.894   3.417   2.718
 3253SOL    HW210659   4.976   3.442   2.579
 3254SOL     OW10660   3.951   5.170   5.440
 3254SOL    HW110661   4.040   5.162   5.396
 3254SOL    HW210662   3.884   5.206   5.375
 3255SOL     OW10663   4.385   6.129   1.737
 3255SOL    HW110664   4.385   6.227   1.719
 3255SOL    HW210665   4.290   6.096   1.739
 3256SOL     OW10666   5.445   0.458   6.590
 3256SOL    HW110667   5.513   0.490   6.525
 3256SOL    HW210668   5.364   0.426   6.541
 3257SOL     OW10669   1.230   1.700   1.541
 3257SOL    HW110670   1.281   1.690   1.626
 3257SOL    HW210671   1.239   1.617   1.486
 3258SOL     OW10672   4.525   5.637   2.481
 3258SOL    HW110673   4.469   5.622   2.563
 3258SOL    HW210674   4.543   5.549   2.437
 3259SOL     OW10675   4.649   6.003   4.238
 3259SOL    HW110676   4.747   5.996   4.219
 3259SOL    HW210677   4.635   6.054   4.322
 3260SOL     OW10678   2.255   1.836   1.851
 3260SOL    HW110679   2.188   1.781   1.902
 3260SOL    HW210680   2.302   1.779   1.784
 3261SOL     OW10681   4.389   5.792   0.213
 3261SOL    HW110682   4.420   5.819   0.122
 3261SOL    HW210683   4.460   5.736   0.257
 3262SOL     OW10684   3.582   1.918   2.367
 3262SOL    HW110685   3.593   1.870   2.279
 3262SOL    HW210686   3.486   1.917   2.394
 3263SOL     OW10687   5.166   0.560   3.586
 3263SOL    HW110688   5.122   0.488   3.533
 3263SOL    HW210689   5.265   0.556   3.572
 3264SOL     OW10690   1.002   5.061   0.655
 3264SOL    HW110691   0.959   5.051   0.745
 3264SOL    HW210692   1.100   5.044   0.662
 3265SOL     OW10693   4.344   2.064   5.982
 3265SOL    HW110694   4.406   2.125   6.032
 3265SOL    HW210695   4.374   1.969   5.994
 3266SOL     OW10696   1.224   2.533   0.643
 3266SOL    HW110697   1.307   2.481   0.625
 3266SOL    HW210698   1.236   2.627   0.611
 3267SOL     OW10699   3.587   2.151   0.573
 3267SOL    HW110700   3.527   2.094   0.629
 3267SOL    HW210701   3.553   2.153   0.479
 3268SOL     OW10702   1.008   3.735   6.375
 3268SOL    HW110703   0.912   3.747   6.350
 3268SOL    HW210704   1.064   3.798   6.320
 3269SOL     OW10705   4.273   5.358   1.867
 3269SOL    HW110706   4.271   5.454   1.896
 3269SOL    HW210707   4.362   5.337   1.826
 3270SOL     OW10708   1.492   5.083   5.075
 3270SOL    HW110709   1.433   5.157   5.108
 3270SOL    HW210710   1.511   5.019   5.150
 3271SOL     OW10711   5.810   3.521   2.486
 3271SOL    HW110712   5.910   3.521   2.484
 3271SOL    HW210713   5.776   3.430   2.511
 3272SOL     OW10714   3.301   4.565   0.679
 3272SOL    HW110715   3.227   4.506   0.646
 3272SOL    HW210716   3.262   4.647   0.721
 3273SOL     OW10717   1.015   6.598   2.248
 3273SOL    HW110718   0.973   6.664   2.186
 3273SOL    HW210719   1.035   6.641   2.335
 3274SOL     OW10720   3.904   1.901   0.048
 3274SOL    HW110721   3.968   1.845   0.100
 3274SOL    HW210722   3.836   1.842   0.004
 3275SOL     OW10723   1.502   0.682   6.726
 3275SOL    HW110724   1.506   0.777   6.757
 3275SOL    HW210725   1.422   0.638   6.766
 3276SOL     OW10726   3.190   5.045   6.463
 3276SOL    HW110727   3.272   4.988   6.472
 3276SOL    HW210728   3.208   5.119   6.399
 3277SOL     OW10729   5.385   6.402   6.235
 3277SOL    HW110730   5.330   6.486   6.244
 3277SOL    HW210731   5.450   6.396   6.310
 3278SOL     OW10732   6.602   1.414   5.818
 3278SOL    HW110733   6.689   1.463   5.820
 3278SOL    HW210734   6.590   1.362   5.903
 3279SOL     OW10735   0.316   1.042   1.052
 3279SOL    HW110736   0.283   0.952   1.023
 3279SOL    HW210737   0.272   1.067   1.138
 3280SOL     OW10738   3.332   5.308   5.999
 3280SOL    HW110739   3.321   5.386   6.060
 3280SOL    HW210740   3.341   5.224   6.053
 3281SOL     OW10741   1.549   5.605   0.992
 3281SOL    HW110742   1.478   5.598   0.922
 3281SOL    HW210743   1.632   5.642   0.950
 3282SOL     OW10744   2.449   5.095   4.464
 3282SOL    HW110745   2.414   5.011   4.424
 3282SOL    HW210746   2.452   5.166   4.394
 3283SOL     OW10747   2.999   1.333   1.604
 3283SOL    HW110748   3.097   1.318   1.590
 3283SOL    HW210749   2.985   1.415   1.659
 3284SOL     OW10750   6.143   6.738   6.577
 3284SOL    HW110751   6.062   6.746   6.519
 3284SOL    HW210752   6.225   6.751   6.521
 3285SOL     OW10753   6.108   2.810   3.327
 3285SOL    HW110754   6.206   2.804   3.346
 3285SOL    HW210755   6.067   2.880   3.386
 3286SOL     OW10756   4.089   3.514   3.805
 3286SOL    HW110757   4.091   3.601   3.756
 3286SOL    HW210758   4.013   3.459   3.772
 3287SOL     OW10759   1.237   5.704   0.439
 3287SOL    HW110760   1.289   5.781   0.477
 3287SOL    HW210761   1.140   5.728   0.435
 3288SOL     OW10762   0.812   4.761   6.898
 3288SOL    HW110763   0.786   4.853   6.868
 3288SOL    HW210764   0.856   4.713   6.823
 3289SOL     OW10765   2.054   0.055   5.831
 3289SOL    HW110766   2.061   0.150   5.800
 3289SOL    HW210767   2.042   7.022   5.752
 3290SOL     OW10768   0.422   6.770   2.058
 3290SOL    HW110769   0.329   6.743   2.036
 3290SOL    HW210770   0.475   6.689   2.083
 3291SOL     OW10771   1.413   6.554   6.485
 3291SOL    HW110772   1.335   6.526   6.430
 3291SOL    HW210773   1.395   6.535   6.582
 3292SOL     OW10774   0.238   1.303   6.911
 3292SOL    HW110775   0.160   1.252   6.948
 3292SOL    HW210776   0.262   1.266   6.821
 3293SOL     OW10777   6.105   3.080   2.811
 3293SOL    HW110778   6.201   3.056   2.801
 3293SOL    HW210779   6.073   3.054   2.902
 3294SOL     OW10780   0.189   0.679   6.211
 3294SOL    HW110781   0.227   0.716   6.127
 3294SOL    HW210782   0.137   0.750   6.258
 3295SOL     OW10783   2.312   2.267   1.424
 3295SOL    HW110784   2.230   2.315   1.457
 3295SOL    HW210785   2.291   2.217   1.341
 3296SOL     OW10786   2.129   6.527   1.453
 3296SOL    HW110787   2.034   6.502   1.433
 3296SOL    HW210788   2.179   6.447   1.485
 3297SOL     OW10789   2.486   0.723   4.725
 3297SOL    HW110790   2.499   0.701   4.628
 3297SOL    HW210791   2.526   0.650   4.781
 3298SOL     OW10792   5.972   2.633   3.476
 3298SOL    HW110793   6.031   2.694   3.423
 3298SOL    HW210794   5.959   2.671   3.568
 3299SOL     OW10795   2.052   6.750   3.738
 3299SOL    HW110796   2.107   6.701   3.806
 3299SOL    HW210797   2.026   6.839   3.774
 3300SOL     OW10798   6.892   0.505   5.880
 3300SOL    HW110799   6.982   0.541   5.903
 3300SOL    HW210800   6.874   0.518   5.783
 3301SOL     OW10801   2.129   3.890   3.239
 3301SOL    HW110802   2.181   3.910   3.322
 3301SOL    HW210803   2.178   3.925   3.159
 3302SOL     OW10804   1.554   5.929   4.526
 3302SOL    HW110805   1.653   5.931   4.541
 3302SOL    HW210806   1.534   5.937   4.429
 3303SOL     OW10807   3.544   3.328   1.479
 3303SOL    HW110808   3.454   3.304   1.444
 3303SOL    HW210809   3.614   3.304   1.412
 3304SOL     OW10810   1.410   5.070   3.407
 3304SOL    HW110811   1.485   5.090   3.344
 3304SOL    HW210812   1.448   5.045   3.496
 3305SOL     OW10813   2.618   2.107   3.060
 3305SOL    HW110814   2.634   2.197   3.100
 3305SOL    HW210815   2.576   2.117   2.970
 3306SOL     OW10816   2.451   4.950   3.933
 3306SOL    HW110817   2.405   4.869   3.970
 3306SOL    HW210818   2.476   5.011   4.009
 3307SOL     OW10819   0.608   5.603   6.439
 3307SOL    HW110820   0.632   5.507   6.451
 3307SOL    HW210821   0.548   5.612   6.359
 3308SOL     OW10822   4.748   5.870   6.772
 3308SOL    HW110823   4.745   5.837   6.866
 3308SOL    HW210824   4.680   5.821   6.718
 3309SOL     OW10825   0.473   5.207   2.398
 3309SOL    HW110826   0.526   5.240   2.319
 3309SOL    HW210827   0.458   5.283   2.461
 3310SOL     OW10828   0.027   4.026   4.084
 3310SOL    HW110829   0.012   4.124   4.070
 3310SOL    HW210830   7.014   3.998   4.171
 3311SOL     OW10831   2.871   4.705   1.569
 3311SOL    HW110832   2.894   4.752   1.654
 3311SOL    HW210833   2.908   4.612   1.571
 3312SOL     OW10834   2.944   4.284   6.079
 3312SOL    HW110835   2.992   4.351   6.022
 3312SOL    HW210836   2.909   4.330   6.161
 3313SOL     OW10837   0.249   5.169   2.673
 3313SOL    HW110838   0.194   5.114   2.611
 3313SOL    HW210839   0.237   5.136   2.767
 3314SOL     OW10840   1.917   2.354   5.171
 3314SOL    HW110841   1.890   2.273   5.119
 3314SOL    HW210842   1.895   2.436   5.118
 3315SOL     OW10843   6.503   2.922   4.065
 3315SOL    HW110844   6.575   2.874   4.014
 3315SOL    HW210845   6.422   2.864   4.070
 3316SOL     OW10846   3.392   1.663   6.077
 3316SOL    HW110847   3.459   1.717   6.026
 3316SOL    HW210848   3.335   1.723   6.133
 3317SOL     OW10849   4.900   2.917   1.788
 3317SOL    HW110850   4.835   2.959   1.851
 3317SOL    HW210851   4.924   2.826   1.822
 3318SOL     OW10852   3.162   0.087   0.179
 3318SOL    HW110853   3.209   0.125   0.258
 3318SOL    HW210854   3.225   0.085   0.101
 3319SOL     OW10855   6.205   6.731   3.518
 3319SOL    HW110856   6.184   6.794   3.443
 3319SOL    HW210857   6.150   6.648   3.509
 3320SOL     OW10858   5.493   1.153   5.710
 3320SOL    HW110859   5.498   1.246   5.747
 3320SOL    HW210860   5.467   1.089   5.782
 3321SOL     OW10861   3.431   2.373   1.721
 3321SOL    HW110862   3.438   2.342   1.626
 3321SOL    HW210863   3.518   2.359   1.767
 3322SOL     OW10864   5.327   2.644   1.794
 3322SOL    HW110865   5.323   2.733   1.749
 3322SOL    HW210866   5.307   2.654   1.891
 3323SOL     OW10867   2.087   3.814   6.688
 3323SOL    HW110868   2.081   3.895   6.746
 3323SOL    HW210869   2.000   3.764   6.691
 3324SOL     OW10870   0.878   3.800   6.701
 3324SOL    HW110871   0.924   3.793   6.613
 3324SOL    HW210872   0.915   3.731   6.763
 3325SOL     OW10873   2.265   3.197   6.518
 3325SOL    HW110874   2.287   3.236   6.428
 3325SOL    HW210875   2.172   3.160   6.517
 3326SOL     OW10876   5.101   1.809   1.664
 3326SOL    HW110877   5.088   1.722   1.711
 3326SOL    HW210878   5.088   1.884   1.729
 3327SOL     OW10879   2.800   6.135   1.298
 3327SOL    HW110880   2.784   6.040   1.272
 3327SOL    HW210881   2.881   6.140   1.357
 3328SOL     OW10882   4.309   1.453   3.076
 3328SOL    HW110883   4.309   1.527   3.143
 3328SOL    HW210884   4.216   1.440   3.040
 3329SOL     OW10885   4.477   6.996   5.370
 3329SOL    HW110886   4.422   6.950   5.440
 3329SOL    HW210887   4.573   6.996   5.399
 3330SOL     OW10888   5.121   6.412   2.245
 3330SOL    HW110889   5.219   6.422   2.226
 3330SOL    HW210890   5.079   6.502   2.252
 3331SOL     OW10891   1.469   2.911   2.693
 3331SOL    HW110892   1.502   3.002   2.719
 3331SOL    HW210893   1.531   2.871   2.626
 3332SOL     OW10894   6.831   4.346   7.007
 3332SOL    HW110895   6.801   4.251   7.001
 3332SOL    HW210896   6.848   4.382   6.915
 3333SOL     OW10897   2.557   3.354   6.951
 3333SOL    HW110898   2.541   3.256   6.948
 3333SOL    HW210899   2.655   3.372   6.961
 3334SOL     OW10900   2.101   3.218   2.050
 3334SOL    HW110901   2.158   3.299   2.040
 3334SOL    HW210902   2.117   3.156   1.973
 3335SOL     OW10903   4.989   5.841   5.855
 3335SOL    HW110904   4.981   5.936   5.827
 3335SOL    HW210905   4.920   5.821   5.925
 3336SOL     OW10906   2.111   0.089   4.409
 3336SOL    HW110907   2.019   0.053   4.391
 3336SOL    HW210908   2.108   0.147   4.490
 3337SOL     OW10909   3.037   3.743   1.268
 3337SOL    HW110910   3.041   3.778   1.175
 3337SOL    HW210911   3.123   3.695   1.289
 3338SOL     OW10912   0.158   2.439   1.792
 3338SOL    HW110913   0.177   2.503   1.866
 3338SOL    HW210914   0.243   2.411   1.748
 3339SOL     OW10915   1.619   0.116   6.660
 3339SOL    HW110916   1.531   0.069   6.665
 3339SOL    HW210917   1.628   0.161   6.571
 3340SOL     OW10918   4.190   1.082   4.096
 3340SOL    HW110919   4.184   1.016   4.170
 3340SOL    HW210920   4.215   1.172   4.133
 3341SOL     OW10921   2.040   4.261   3.669
 3341SOL    HW110922   2.007   4.355   3.667
 3341SOL    HW210923   2.127   4.255   3.620
 3342SOL     OW10924   0.710   0.433   2.532
 3342SOL    HW110925   0.682   0.502   2.464
 3342SOL    HW210926   0.757   0.358   2.485
 3343SOL     OW10927   5.434   4.895   6.445
 3343SOL    HW110928   5.509   4.958   6.423
 3343SOL    HW210929   5.399   4.854   6.361
 3344SOL     OW10930   6.061   2.957   4.006
 3344SOL    HW110931   6.129   2.905   4.059
 3344SOL    HW210932   6.007   3.013   4.068
 3345SOL     OW10933   0.727   3.776   6.303
 3345SOL    HW110934   0.645   3.753   6.250
 3345SOL    HW210935   0.790   3.829   6.247
 3346SOL     OW10936   1.753   0.938   6.697
 3346SOL    HW110937   1.717   0.967   6.785
 3346SOL    HW210938   1.848   0.909   6.707
 3347SOL     OW10939   1.722   2.908   6.261
 3347SOL    HW110940   1.756   2.880   6.171
 3347SOL    HW210941   1.637   2.960   6.249
 3348SOL     OW10942   4.187   3.443   5.029
 3348SOL    HW110943   4.095   3.437   4.989
 3348SOL    HW210944   4.254   3.406   4.965
 3349SOL     OW10945   2.341   4.662   2.959
 3349SOL    HW110946   2.299   4.726   2.895
 3349SOL    HW210947   2.431   4.634   2.924
 3350SOL     OW10948   0.648   2.668   6.161
 3350SOL    HW110949   0.744   2.687   6.180
 3350SOL    HW210950   0.594   2.750   6.179
 3351SOL     OW10951   4.677   1.301   1.732
 3351SOL    HW110952   4.639   1.394   1.725
 3351SOL    HW210953   4.602   1.235   1.738
 3352SOL     OW10954   5.477   2.500   1.360
 3352SOL    HW110955   5.575   2.518   1.373
 3352SOL    HW210956   5.461   2.467   1.267
 3353SOL     OW10957   2.231   6.152   0.852
 3353SOL    HW110958   2.278   6.120   0.934
 3353SOL    HW210959   2.150   6.204   0.878
 3354SOL     OW10960   4.090   2.763   5.342
 3354SOL    HW110961   4.110   2.683   5.286
 3354SOL    HW210962   4.110   2.743   5.438
 3355SOL     OW10963   2.185   1.169   6.073
 3355SOL    HW110964   2.240   1.158   5.991
 3355SOL    HW210965   2.116   1.097   6.077
 3356SOL     OW10966   1.346   6.124   6.060
 3356SOL    HW110967   1.327   6.220   6.036
 3356SOL    HW210968   1.379   6.119   6.154
 3357SOL     OW10969   3.175   3.133   1.639
 3357SOL    HW110970   3.192   3.210   1.701
 3357SOL    HW210971   3.122   3.063   1.687
 3358SOL     OW10972   5.092   1.212   3.398
 3358SOL    HW110973   4.999   1.178   3.384
 3358SOL    HW210974   5.137   1.225   3.310
 3359SOL     OW10975   6.919   5.843   3.123
 3359SOL    HW110976   6.895   5.748   3.102
 3359SOL    HW210977   6.838   5.892   3.155
 3360SOL     OW10978   0.768   1.940   6.403
 3360SOL    HW110979   0.833   1.942   6.326
 3360SOL    HW210980   0.815   1.906   6.484
 3361SOL     OW10981   0.774   0.090   4.768
 3361SOL    HW110982   0.771   0.065   4.865
 3361SOL    HW210983   0.804   0.012   4.714
 3362SOL     OW10984   3.698   1.613   2.702
 3362SOL    HW110985   3.709   1.636   2.605
 3362SOL    HW210986   3.733   1.687   2.758
 3363SOL     OW10987   6.977   2.812   1.675
 3363SOL    HW110988   0.002   2.757   1.610
 3363SOL    HW210989   6.939   2.754   1.746
 3364SOL     OW10990   2.227   4.750   2.623
 3364SOL    HW110991   2.199   4.734   2.529
 3364SOL    HW210992   2.326   4.738   2.631
 3365SOL     OW10993   0.437   2.685   4.772
 3365SOL    HW110994   0.387   2.612   4.725
 3365SOL    HW210995   0.405   2.774   4.739
 3366SOL     OW10996   6.457   4.939   3.782
 3366SOL    HW110997   6.406   5.023   3.769
 3366SOL    HW210998   6.405   4.862   3.744
 3367SOL     OW10999   3.000   3.186   2.665
 3367SOL    HW111000   3.047   3.265   2.624
 3367SOL    HW211001   2.964   3.212   2.755
 3368SOL     OW11002   0.771   5.678   6.638
 3368SOL    HW111003   0.791   5.593   6.687
 3368SOL    HW211004   0.717   5.658   6.557
 3369SOL     OW11005   4.500   1.960   1.805
 3369SOL    HW111006   4.519   1.903   1.884
 3369SOL    HW211007   4.577   1.957   1.741
 3370SOL     OW11008   6.058   6.331   1.770
 3370SOL    HW111009   6.144   6.317   1.821
 3370SOL    HW211010   6.079   6.340   1.673
 3371SOL     OW11011   2.348   3.687   1.659
 3371SOL    HW111012   2.347   3.609   1.722
 3371SOL    HW211013   2.442   3.714   1.640
 3372SOL     OW11014   0.525   2.100   7.012
 3372SOL    HW111015   0.462   2.175   6.994
 3372SOL    HW211016   0.606   2.110   6.953
 3373SOL     OW11017   7.020   1.976   3.981
 3373SOL    HW111018   0.018   1.947   4.074
 3373SOL    HW211019   6.921   1.978   3.972
 3374SOL     OW11020   1.407   0.605   3.736
 3374SOL    HW111021   1.375   0.700   3.739
 3374SOL    HW211022   1.356   0.551   3.803
 3375SOL     OW11023   0.023   4.140   0.796
 3375SOL    HW111024   6.999   4.207   0.851
 3375SOL    HW211025   6.993   4.059   0.783
 3376SOL     OW11026   3.307   2.933   4.819
 3376SOL    HW111027   3.300   2.950   4.721
 3376SOL    HW211028   3.304   2.834   4.836
 3377SOL     OW11029   6.671   5.033   5.231
 3377SOL    HW111030   6.665   5.127   5.197
 3377SOL    HW211031   6.747   5.027   5.296
 3378SOL     OW11032   1.200   6.489   6.343
 3378SOL    HW111033   1.191   6.428   6.265
 3378SOL    HW211034   1.114   6.540   6.356
 3379SOL     OW11035   0.682   2.638   4.889
 3379SOL    HW111036   0.586   2.635   4.860
 3379SOL    HW211037   0.702   2.727   4.928
 3380SOL     OW11038   4.439   5.461   5.703
 3380SOL    HW111039   4.492   5.533   5.748
 3380SOL    HW211040   4.346   5.494   5.686
 3381SOL     OW11041   6.701   2.900   1.512
 3381SOL    HW111042   6.652   2.954   1.444
 3381SOL    HW211043   6.800   2.908   1.496
 3382SOL     OW11044   0.200   3.017   0.772
 3382SOL    HW111045   0.210   3.048   0.678
 3382SOL    HW211046   0.257   2.936   0.787
 3383SOL     OW11047   3.344   5.026   0.516
 3383SOL    HW111048   3.353   5.124   0.533
 3383SOL    HW211049   3.253   5.007   0.479
 3384SOL     OW11050   2.470   3.756   0.519
 3384SOL    HW111051   2.527   3.784   0.596
 3384SOL    HW211052   2.478   3.657   0.506
 3385SOL     OW11053   6.382   3.378   4.245
 3385SOL    HW111054   6.417   3.299   4.196
 3385SOL    HW211055   6.303   3.416   4.197
 3386SOL     OW11056   6.267   4.645   6.870
 3386SOL    HW111057   6.231   4.671   6.960
 3386SOL    HW211058   6.295   4.549   6.871
 3387SOL     OW11059   4.911   0.417   3.026
 3387SOL    HW111060   4.883   0.338   2.973
 3387SOL    HW211061   5.005   0.441   3.003
 3388SOL     OW11062   5.360   4.154   2.599
 3388SOL    HW111063   5.439   4.097   2.577
 3388SOL    HW211064   5.388   4.225   2.665
 3389SOL     OW11065   6.334   5.811   6.273
 3389SOL    HW111066   6.365   5.831   6.366
 3389SOL    HW211067   6.304   5.716   6.268
 3390SOL     OW11068   4.188   6.707   6.448
 3390SOL    HW111069   4.156   6.631   6.504
 3390SOL    HW211070   4.247   6.767   6.502
 3391SOL     OW11071   5.158   2.327   3.071
 3391SOL    HW111072   5.208   2.381   3.004
 3391SOL    HW211073   5.107   2.254   3.024
 3392SOL     OW11074   3.090   0.094   4.392
 3392SOL    HW111075   3.024   0.047   4.451
 3392SOL    HW211076   3.050   0.178   4.358
 3393SOL     OW11077   5.826   6.196   0.575
 3393SOL    HW111078   5.789   6.218   0.665
 3393SOL    HW211079   5.911   6.246   0.560
 3394SOL     OW11080   4.114   4.302   0.619
 3394SOL    HW111081   4.048   4.279   0.690
 3394SOL    HW211082   4.156   4.390   0.640
 3395SOL     OW11083   5.008   1.604   3.082
 3395SOL    HW111084   4.971   1.667   3.014
 3395SOL    HW211085   5.055   1.529   3.036
 3396SOL     OW11086   5.888   1.570   3.668
 3396SOL    HW111087   5.939   1.606   3.747
 3396SOL    HW211088   5.914   1.622   3.586
 3397SOL     OW11089   3.313   5.507   6.221
 3397SOL    HW111090   3.241   5.577   6.227
 3397SOL    HW211091   3.402   5.551   6.210
 3398SOL     OW11092   0.672   0.115   5.055
 3398SOL    HW111093   0.768   0.126   5.082
 3398SOL    HW211094   0.651   0.017   5.049
 3399SOL     OW11095   6.422   4.761   2.961
 3399SOL    HW111096   6.465   4.758   3.052
 3399SOL    HW211097   6.361   4.839   2.956
 3400SOL     OW11098   6.132   3.355   0.103
 3400SOL    HW111099   6.226   3.323   0.116
 3400SOL    HW211100   6.106   3.346   0.007
 3401SOL     OW11101   6.423   4.078   6.726
 3401SOL    HW111102   6.480   4.158   6.738
 3401SOL    HW211103   6.461   4.020   6.654
 3402SOL     OW11104   6.258   5.582   0.557
 3402SOL    HW111105   6.264   5.674   0.596
 3402SOL    HW211106   6.174   5.539   0.589
 3403SOL     OW11107   5.071   5.554   6.212
 3403SOL    HW111108   5.026   5.497   6.144
 3403SOL    HW211109   5.131   5.620   6.166
 3404SOL     OW11110   4.921   2.977   6.711
 3404SOL    HW111111   4.996   2.948   6.771
 3404SOL    HW211112   4.906   3.076   6.723
 3405SOL     OW11113   5.918   4.608   6.459
 3405SOL    HW111114   5.830   4.609   6.410
 3405SOL    HW211115   5.901   4.615   6.557
 3406SOL     OW11116   1.347   3.741   2.214
 3406SOL    HW111117   1.364   3.824   2.162
 3406SOL    HW211118   1.344   3.763   2.312
 3407SOL     OW11119   2.594   4.520   0.188
 3407SOL    HW111120   2.527   4.581   0.230
 3407SOL    HW211121   2.619   4.447   0.251
 3408SOL     OW11122   5.145   3.310   4.892
 3408SOL    HW111123   5.154   3.269   4.983
 3408SOL    HW211124   5.232   3.351   4.866
 3409SOL     OW11125   3.757   5.964   0.727
 3409SOL    HW111126   3.777   5.894   0.795
 3409SOL    HW211127   3.812   6.045   0.745
 3410SOL     OW11128   5.671   6.275   2.344
 3410SOL    HW111129   5.654   6.181   2.315
 3410SOL    HW211130   5.681   6.333   2.262
 3411SOL     OW11131   0.716   2.594   0.398
 3411SOL    HW111132   0.703   2.524   0.469
 3411SOL    HW211133   0.813   2.617   0.392
 3412SOL     OW11134   5.179   3.933   1.082
 3412SOL    HW111135   5.116   3.903   1.010
 3412SOL    HW211136   5.241   3.857   1.106
 3413SOL     OW11137   6.081   2.209   6.759
 3413SOL    HW111138   6.139   2.154   6.699
 3413SOL    HW211139   5.987   2.174   6.757
 3414SOL     OW11140   3.086   1.944   5.611
 3414SOL    HW111141   3.039   1.865   5.574
 3414SOL    HW211142   3.020   2.016   5.634
 3415SOL     OW11143   2.538   2.461   4.222
 3415SOL    HW111144   2.627   2.462   4.267
 3415SOL    HW211145   2.491   2.548   4.239
 3416SOL     OW11146   5.922   0.669   6.689
 3416SOL    HW111147   5.992   0.634   6.752
 3416SOL    HW211148   5.952   0.656   6.595
 3417SOL     OW11149   6.796   6.721   2.975
 3417SOL    HW111150   6.831   6.767   2.894
 3417SOL    HW211151   6.809   6.779   3.055
 3418SOL     OW11152   3.808   5.729   3.747
 3418SOL    HW111153   3.817   5.736   3.648
 3418SOL    HW211154   3.723   5.773   3.776
 3419SOL     OW11155   3.892   5.640   6.203
 3419SOL    HW111156   3.882   5.579   6.124
 3419SOL    HW211157   3.974   5.696   6.192
 3420SOL     OW11158   5.090   3.631   4.288
 3420SOL    HW111159   5.059   3.700   4.223
 3420SOL    HW211160   5.102   3.544   4.241
 3421SOL     OW11161   5.908   1.838   3.202
 3421SOL    HW111162   5.954   1.912   3.153
 3421SOL    HW211163   5.940   1.750   3.167
 3422SOL     OW11164   2.580   0.598   0.771
 3422SOL    HW111165   2.489   0.584   0.808
 3422SOL    HW211166   2.599   0.529   0.701
 3423SOL     OW11167   0.289   4.018   5.840
 3423SOL    HW111168   0.302   4.113   5.868
 3423SOL    HW211169   0.370   3.965   5.867
 3424SOL     OW11170   3.183   0.574   1.571
 3424SOL    HW111171   3.178   0.483   1.531
 3424SOL    HW211172   3.266   0.620   1.540
 3425SOL     OW11173   4.873   4.519   1.659
 3425SOL    HW111174   4.837   4.433   1.694
 3425SOL    HW211175   4.845   4.594   1.719
 3426SOL     OW11176   4.993   2.597   0.645
 3426SOL    HW111177   5.040   2.577   0.731
 3426SOL    HW211178   5.045   2.666   0.594
 3427SOL     OW11179   0.644   2.434   2.126
 3427SOL    HW111180   0.637   2.356   2.063
 3427SOL    HW211181   0.681   2.513   2.078
 3428SOL     OW11182   4.258   4.638   6.556
 3428SOL    HW111183   4.275   4.606   6.463
 3428SOL    HW211184   4.164   4.616   6.581
 3429SOL     OW11185   0.548   1.196   1.098
 3429SOL    HW111186   0.472   1.146   1.058
 3429SOL    HW211187   0.634   1.168   1.056
 3430SOL     OW11188   2.385   5.507   6.008
 3430SOL    HW111189   2.420   5.588   6.055
 3430SOL    HW211190   2.386   5.429   6.071
 3431SOL     OW11191   1.484   6.474   1.840
 3431SOL    HW111192   1.517   6.481   1.934
 3431SOL    HW211193   1.388   6.500   1.836
 3432SOL     OW11194   2.503   5.019   6.719
 3432SOL    HW111195   2.527   5.114   6.696
 3432SOL    HW211196   2.586   4.968   6.740
 3433SOL     OW11197   1.874   1.526   6.249
 3433SOL    HW111198   1.891   1.624   6.243
 3433SOL    HW211199   1.961   1.478   6.260
 3434SOL     OW11200   3.765   2.003   1.411
 3434SOL    HW111201   3.723   2.007   1.321
 3434SOL    HW211202   3.772   1.908   1.440
 3435SOL     OW11203   2.846   0.831   0.458
 3435SOL    HW111204   2.875   0.768   0.531
 3435SOL    HW211205   2.834   0.780   0.373
 3436SOL     OW11206   3.443   5.855   0.431
 3436SOL    HW111207   3.480   5.769   0.466
 3436SOL    HW211208   3.482   5.873   0.341
 3437SOL     OW11209   2.155   6.714   6.185
 3437SOL    HW111210   2.152   6.786   6.117
 3437SOL    HW211211   2.196   6.632   6.146
 3438SOL     OW11212   0.625   3.906   0.997
 3438SOL    HW111213   0.640   3.807   0.998
 3438SOL    HW211214   0.686   3.950   1.062
 3439SOL     OW11215   2.880   6.039   4.220
 3439SOL    HW111216   2.814   5.966   4.236
 3439SOL    HW211217   2.934   6.018   4.138
 3440SOL     OW11218   4.082   3.568   3.098
 3440SOL    HW111219   4.031   3.536   3.178
 3440SOL    HW211220   4.105   3.665   3.110
 3441SOL     OW11221   0.549   5.989   6.735
 3441SOL    HW111222   0.515   5.916   6.676
 3441SOL    HW211223   0.638   5.962   6.773
 3442SOL     OW11224   2.725   3.579   0.744
 3442SOL    HW111225   2.759   3.601   0.652
 3442SOL    HW211226   2.661   3.649   0.774
 3443SOL     OW11227   3.171   6.216   2.241
 3443SOL    HW111228   3.209   6.261   2.160
 3443SOL    HW211229   3.168   6.117   2.226
 3444SOL     OW11230   5.164   5.603   1.233
 3444SOL    HW111231   5.227   5.641   1.302
 3444SOL    HW211232   5.195   5.630   1.142
 3445SOL     OW11233   6.888   5.070   3.907
 3445SOL    HW111234   6.960   5.116   3.959
 3445SOL    HW211235   6.930   5.011   3.837
 3446SOL     OW11236   5.614   0.653   1.296
 3446SOL    HW111237   5.571   0.593   1.363
 3446SOL    HW211238   5.670   0.721   1.344
 3447SOL     OW11239   4.957   0.383   0.521
 3447SOL    HW111240   5.010   0.412   0.600
 3447SOL    HW211241   4.949   0.459   0.456
 3448SOL     OW11242   3.124   6.586   6.142
 3448SOL    HW111243   3.036   6.540   6.151
 3448SOL    HW211244   3.173   6.550   6.063
 3449SOL     OW11245   6.108   5.201   4.655
 3449SOL    HW111246   6.112   5.266   4.730
 3449SOL    HW211247   6.098   5.109   4.691
 3450SOL     OW11248   1.565   0.952   6.519
 3450SOL    HW111249   1.607   0.941   6.429
 3450SOL    HW211250   1.632   0.930   6.590
 3451SOL     OW11251   1.647   5.986   0.169
 3451SOL    HW111252   1.653   5.888   0.185
 3451SOL    HW211253   1.654   6.004   0.071
 3452SOL     OW11254   6.003   0.327   5.854
 3452SOL    HW111255   6.017   0.340   5.952
 3452SOL    HW211256   5.952   0.405   5.817
 3453SOL     OW11257   5.932   5.712   6.035
 3453SOL    HW111258   5.855   5.668   6.081
 3453SOL    HW211259   5.900   5.757   5.951
 3454SOL     OW11260   1.305   4.029   4.759
 3454SOL    HW111261   1.344   4.035   4.850
 3454SOL    HW211262   1.362   3.969   4.702
 3455SOL     OW11263   2.766   1.263   4.831
 3455SOL    HW111264   2.683   1.281   4.883
 3455SOL    HW211265   2.750   1.186   4.769
 3456SOL     OW11266   4.368   4.870   1.964
 3456SOL    HW111267   4.441   4.888   2.029
 3456SOL    HW211268   4.403   4.815   1.888
 3457SOL     OW11269   4.071   5.276   4.831
 3457SOL    HW111270   4.100   5.363   4.871
 3457SOL    HW211271   3.987   5.289   4.779
 3458SOL     OW11272   4.809   1.733   2.224
 3458SOL    HW111273   4.857   1.712   2.309
 3458SOL    HW211274   4.723   1.682   2.220
 3459SOL     OW11275   5.424   1.799   3.042
 3459SOL    HW111276   5.400   1.705   3.016
 3459SOL    HW211277   5.439   1.853   2.959
 3460SOL     OW11278   3.224   2.120   5.927
 3460SOL    HW111279   3.143   2.170   5.959
 3460SOL    HW211280   3.235   2.135   5.829
 3461SOL     OW11281   6.056   4.308   6.822
 3461SOL    HW111282   6.033   4.294   6.726
 3461SOL    HW211283   5.992   4.256   6.879
 3462SOL     OW11284   0.728   3.823   5.281
 3462SOL    HW111285   0.739   3.821   5.380
 3462SOL    HW211286   0.635   3.793   5.257
 3463SOL     OW11287   0.808   4.250   0.819
 3463SOL    HW111288   0.824   4.271   0.723
 3463SOL    HW211289   0.717   4.283   0.845
 3464SOL     OW11290   0.563   4.628   6.308
 3464SOL    HW111291   0.655   4.593   6.328
 3464SOL    HW211292   0.507   4.555   6.269
 3465SOL     OW11293   2.412   2.563   2.119
 3465SOL    HW111294   2.435   2.472   2.085
 3465SOL    HW211295   2.430   2.631   2.048
 3466SOL     OW11296   0.234   5.456   5.837
 3466SOL    HW111297   0.325   5.464   5.876
 3466SOL    HW211298   0.216   5.360   5.814
 3467SOL     OW11299   1.627   2.215   6.650
 3467SOL    HW111300   1.615   2.231   6.552
 3467SOL    HW211301   1.722   2.233   6.676
 3468SOL     OW11302   3.842   5.197   2.984
 3468SOL    HW111303   3.812   5.225   3.075
 3468SOL    HW211304   3.768   5.149   2.937
 3469SOL     OW11305   6.238   1.638   3.910
 3469SOL    HW111306   6.278   1.722   3.873
 3469SOL    HW211307   6.138   1.641   3.899
 3470SOL     OW11308   6.475   4.913   0.994
 3470SOL    HW111309   6.460   4.987   1.059
 3470SOL    HW211310   6.520   4.836   1.040
 3471SOL     OW11311   3.965   5.126   5.059
 3471SOL    HW111312   4.001   5.191   4.991
 3471SOL    HW211313   3.906   5.060   5.014
 3472SOL     OW11314   2.561   0.768   3.769
 3472SOL    HW111315   2.555   0.828   3.849
 3472SOL    HW211316   2.657   0.745   3.751
 3473SOL     OW11317   5.559   1.441   6.099
 3473SOL    HW111318   5.642   1.496   6.106
 3473SOL    HW211319   5.502   1.457   6.178
 3474SOL     OW11320   3.054   5.028   1.574
 3474SOL    HW111321   2.963   5.031   1.615
 3474SOL    HW211322   3.070   4.937   1.535
 3475SOL     OW11323   1.286   6.611   4.650
 3475SOL    HW111324   1.222   6.684   4.672
 3475SOL    HW211325   1.329   6.630   4.562
 3476SOL     OW11326   3.483   1.000   4.175
 3476SOL    HW111327   3.476   0.905   4.143
 3476SOL    HW211328   3.434   1.060   4.111
 3477SOL     OW11329   3.039   5.688   2.256
 3477SOL    HW111330   3.098   5.769   2.253
 3477SOL    HW211331   2.984   5.685   2.173
 3478SOL     OW11332   2.841   6.266   5.756
 3478SOL    HW111333   2.818   6.267   5.659
 3478SOL    HW211334   2.832   6.358   5.793
 3479SOL     OW11335   0.408   0.066   3.024
 3479SOL    HW111336   0.365   0.015   3.098
 3479SOL    HW211337   0.507   0.069   3.038
 3480SOL     OW11338   6.631   1.354   4.567
 3480SOL    HW111339   6.623   1.255   4.578
 3480SOL    HW211340   6.567   1.399   4.629
 3481SOL     OW11341   4.801   6.599   6.462
 3481SOL    HW111342   4.875   6.666   6.472
 3481SOL    HW211343   4.733   6.614   6.533
 3482SOL     OW11344   5.247   1.114   1.170
 3482SOL    HW111345   5.198   1.027   1.162
 3482SOL    HW211346   5.181   1.188   1.183
 3483SOL     OW11347   3.133   0.174   1.192
 3483SOL    HW111348   3.194   0.098   1.172
 3483SOL    HW211349   3.052   0.169   1.134
 3484SOL     OW11350   2.777   3.541   1.846
 3484SOL    HW111351   2.836   3.535   1.766
 3484SOL    HW211352   2.755   3.450   1.879
 3485SOL     OW11353   1.850   1.003   4.921
 3485SOL    HW111354   1.782   1.072   4.897
 3485SOL    HW211355   1.804   0.923   4.960
 3486SOL     OW11356   3.596   1.756   2.132
 3486SOL    HW111357   3.623   1.800   2.046
 3486SOL    HW211358   3.546   1.672   2.111
 3487SOL     OW11359   5.617   1.977   6.366
 3487SOL    HW111360   5.677   1.993   6.444
 3487SOL    HW211361   5.614   2.059   6.309
 3488SOL     OW11362   5.791   3.107   4.067
 3488SOL    HW111363   5.706   3.157   4.081
 3488SOL    HW211364   5.862   3.143   4.128
 3489SOL     OW11365   3.175   6.945   0.455
 3489SOL    HW111366   3.242   6.981   0.520
 3489SOL    HW211367   3.085   6.942   0.498
 3490SOL     OW11368   4.504   4.454   0.060
 3490SOL    HW111369   4.446   4.530   0.091
 3490SOL    HW211370   4.491   4.376   0.121
 3491SOL     OW11371   6.752   3.093   5.887
 3491SOL    HW111372   6.784   3.016   5.832
 3491SOL    HW211373   6.679   3.141   5.839
 3492SOL     OW11374   0.747   5.762   0.758
 3492SOL    HW111375   0.803   5.680   0.771
 3492SOL    HW211376   0.719   5.797   0.847
 3493SOL     OW11377   6.730   5.227   6.691
 3493SOL    HW111378   6.702   5.274   6.607
 3493SOL    HW211379   6.671   5.149   6.706
 3494SOL     OW11380   4.308   0.350   0.531
 3494SOL    HW111381   4.388   0.328   0.588
 3494SOL    HW211382   4.229   0.367   0.590
 3495SOL     OW11383   4.404   4.629   2.471
 3495SOL    HW111384   4.386   4.563   2.398
 3495SOL    HW211385   4.489   4.678   2.451
 3496SOL     OW11386   1.267   3.181   1.074
 3496SOL    HW111387   1.340   3.245   1.048
 3496SOL    HW211388   1.306   3.103   1.123
 3497SOL     OW11389   3.877   0.580   2.879
 3497SOL    HW111390   3.795   0.612   2.927
 3497SOL    HW211391   3.957   0.593   2.937
 3498SOL     OW11392   3.273   2.215   0.904
 3498SOL    HW111393   3.335   2.292   0.923
 3498SOL    HW211394   3.221   2.235   0.821
 3499SOL     OW11395   5.415   3.348   4.479
 3499SOL    HW111396   5.388   3.413   4.408
 3499SOL    HW211397   5.389   3.384   4.568
 3500SOL     OW11398   6.763   4.305   5.772
 3500SOL    HW111399   6.828   4.229   5.764
 3500SOL    HW211400   6.808   4.389   5.743
 3501SOL     OW11401   0.382   5.132   4.841
 3501SOL    HW111402   0.336   5.093   4.761
 3501SOL    HW211403   0.439   5.209   4.813
 3502SOL     OW11404   6.817   2.327   2.058
 3502SOL    HW111405   6.734   2.359   2.104
 3502SOL    HW211406   6.896   2.378   2.092
 3503SOL     OW11407   5.291   5.731   5.116
 3503SOL    HW111408   5.369   5.696   5.064
 3503SOL    HW211409   5.321   5.753   5.209
 3504SOL     OW11410   2.598   2.828   1.185
 3504SOL    HW111411   2.683   2.836   1.238
 3504SOL    HW211412   2.522   2.810   1.247
 3505SOL     OW11413   5.661   5.341   5.107
 3505SOL    HW111414   5.625   5.266   5.053
 3505SOL    HW211415   5.761   5.345   5.096
 3506SOL     OW11416   3.930   5.579   4.722
 3506SOL    HW111417   3.860   5.648   4.707
 3506SOL    HW211418   4.012   5.622   4.762
 3507SOL     OW11419   2.002   0.861   6.779
 3507SOL    HW111420   2.076   0.842   6.843
 3507SOL    HW211421   2.034   0.926   6.709
 3508SOL     OW11422   4.543   2.283   6.613
 3508SOL    HW111423   4.590   2.219   6.675
 3508SOL    HW211424   4.444   2.277   6.628
 3509SOL     OW11425   5.412   5.772   6.460
 3509SOL    HW111426   5.428   5.784   6.362
 3509SOL    HW211427   5.472   5.832   6.512
 3510SOL     OW11428   1.951   2.158   1.915
 3510SOL    HW111429   1.884   2.152   1.842
 3510SOL    HW211430   1.905   2.159   2.003
 3511SOL     OW11431   1.713   3.635   6.928
 3511SOL    HW111432   1.640   3.702   6.939
 3511SOL    HW211433   1.676   3.543   6.937
 3512SOL     OW11434   0.584   4.806   0.803
 3512SOL    HW111435   0.603   4.772   0.711
 3512SOL    HW211436   0.591   4.906   0.803
 3513SOL     OW11437   6.280   4.093   0.516
 3513SOL    HW111438   6.239   4.112   0.605
 3513SOL    HW211439   6.281   4.177   0.461
 3514SOL     OW11440   1.008   0.755   2.089
 3514SOL    HW111441   0.980   0.680   2.148
 3514SOL    HW211442   0.970   0.841   2.124
 3515SOL     OW11443   3.656   5.993   2.496
 3515SOL    HW111444   3.680   5.921   2.432
 3515SOL    HW211445   3.569   6.034   2.470
 3516SOL     OW11446   3.747   1.362   1.337
 3516SOL    HW111447   3.809   1.422   1.388
 3516SOL    HW211448   3.675   1.416   1.294
 3517SOL     OW11449   0.589   1.269   0.248
 3517SOL    HW111450   0.528   1.336   0.290
 3517SOL    HW211451   0.541   1.220   0.175
 3518SOL     OW11452   4.434   4.167   5.679
 3518SOL    HW111453   4.445   4.211   5.768
 3518SOL    HW211454   4.524   4.151   5.638
 3519SOL     OW11455   1.482   0.696   6.287
 3519SOL    HW111456   1.502   0.794   6.284
 3519SOL    HW211457   1.412   0.678   6.356
 3520SOL     OW11458   3.685   4.216   1.427
 3520SOL    HW111459   3.676   4.311   1.398
 3520SOL    HW211460   3.709   4.212   1.524
 3521SOL     OW11461   5.786   2.973   1.414
 3521SOL    HW111462   5.723   3.050   1.420
 3521SOL    HW211463   5.785   2.923   1.500
 3522SOL     OW11464   3.233   5.401   1.879
 3522SOL    HW111465   3.273   5.492   1.865
 3522SOL    HW211466   3.179   5.376   1.799
 3523SOL     OW11467   3.201   4.506   5.614
 3523SOL    HW111468   3.201   4.547   5.523
 3523SOL    HW211469   3.107   4.502   5.648
 3524SOL     OW11470   2.950   0.690   1.362
 3524SOL    HW111471   2.968   0.642   1.448
 3524SOL    HW211472   3.036   0.704   1.313
 3525SOL     OW11473   0.763   3.185   2.088
 3525SOL    HW111474   0.709   3.216   2.010
 3525SOL    HW211475   0.745   3.089   2.105
 3526SOL     OW11476   1.304   0.756   4.412
 3526SOL    HW111477   1.260   0.724   4.328
 3526SOL    HW211478   1.296   0.856   4.418
 3527SOL     OW11479   5.154   2.673   5.761
 3527SOL    HW111480   5.224   2.610   5.728
 3527SOL    HW211481   5.198   2.749   5.810
 3528SOL     OW11482   1.021   6.880   3.617
 3528SOL    HW111483   0.962   6.800   3.628
 3528SOL    HW211484   0.994   6.950   3.684
 3529SOL     OW11485   3.664   0.193   5.703
 3529SOL    HW111486   3.638   0.284   5.670
 3529SOL    HW211487   3.624   0.177   5.793
 3530SOL     OW11488   1.975   5.550   2.699
 3530SOL    HW111489   1.956   5.588   2.609
 3530SOL    HW211490   1.933   5.459   2.707
 3531SOL     OW11491   5.523   3.898   0.260
 3531SOL    HW111492   5.545   3.897   0.358
 3531SOL    HW211493   5.459   3.824   0.240
 3532SOL     OW11494   3.173   0.442   0.137
 3532SOL    HW111495   3.116   0.388   0.199
 3532SOL    HW211496   3.132   0.533   0.125
 3533SOL     OW11497   1.458   1.960   3.623
 3533SOL    HW111498   1.465   1.871   3.579
 3533SOL    HW211499   1.535   2.018   3.595
 3534SOL     OW11500   5.742   1.834   5.538
 3534SOL    HW111501   5.718   1.927   5.566
 3534SOL    HW211502   5.663   1.790   5.497
 3535SOL     OW11503   0.169   6.061   0.804
 3535SOL    HW111504   0.085   6.044   0.854
 3535SOL    HW211505   0.149   6.113   0.721
 3536SOL     OW11506   1.847   3.512   3.440
 3536SOL    HW111507   1.816   3.453   3.365
 3536SOL    HW211508   1.768   3.541   3.494
 3537SOL     OW11509   2.232   4.594   0.572
 3537SOL    HW111510   2.137   4.627   0.570
 3537SOL    HW211511   2.237   4.514   0.632
 3538SOL     OW11512   3.249   0.981   3.648
 3538SOL    HW111513   3.312   0.940   3.715
 3538SOL    HW211514   3.177   0.915   3.626
 3539SOL     OW11515   6.215   3.343   5.382
 3539SOL    HW111516   6.288   3.383   5.438
 3539SOL    HW211517   6.127   3.359   5.427
 3540SOL     OW11518   2.114   2.752   6.039
 3540SOL    HW111519   2.184   2.698   6.086
 3540SOL    HW211520   2.158   2.811   5.971
 3541SOL     OW11521   2.581   2.966   0.414
 3541SOL    HW111522   2.581   2.877   0.368
 3541SOL    HW211523   2.501   3.018   0.384
 3542SOL     OW11524   5.505   2.383   0.324
 3542SOL    HW111525   5.519   2.479   0.301
 3542SOL    HW211526   5.555   2.325   0.260
 3543SOL     OW11527   1.366   3.429   3.046
 3543SOL    HW111528   1.394   3.470   3.132
 3543SOL    HW211529   1.308   3.350   3.064
 3544SOL     OW11530   2.658   4.553   6.962
 3544SOL    HW111531   2.609   4.471   6.933
 3544SOL    HW211532   2.653   4.562   0.035
 3545SOL     OW11533   3.736   4.865   0.373
 3545SOL    HW111534   3.682   4.867   0.457
 3545SOL    HW211535   3.717   4.947   0.319
 3546SOL     OW11536   6.163   4.607   3.426
 3546SOL    HW111537   6.084   4.666   3.407
 3546SOL    HW211538   6.206   4.580   3.340
 3547SOL     OW11539   6.734   3.702   4.890
 3547SOL    HW111540   6.650   3.714   4.942
 3547SOL    HW211541   6.718   3.638   4.815
 3548SOL     OW11542   5.323   0.902   5.646
 3548SOL    HW111543   5.356   0.916   5.739
 3548SOL    HW211544   5.392   0.856   5.591
 3549SOL     OW11545   2.009   5.001   6.550
 3549SOL    HW111546   1.996   4.948   6.635
 3549SOL    HW211547   2.033   4.939   6.476
 3550SOL     OW11548   5.823   2.972   5.006
 3550SOL    HW111549   5.883   2.958   5.085
 3550SOL    HW211550   5.784   2.884   4.978
 3551SOL     OW11551   3.533   1.908   5.053
 3551SOL    HW111552   3.448   1.903   5.000
 3551SOL    HW211553   3.562   2.003   5.061
 3552SOL     OW11554   6.173   5.530   2.334
 3552SOL    HW111555   6.141   5.436   2.338
 3552SOL    HW211556   6.100   5.590   2.303
 3553SOL     OW11557   3.353   5.650   6.523
 3553SOL    HW111558   3.268   5.696   6.499
 3553SOL    HW211559   3.428   5.690   6.471
 3554SOL     OW11560   3.821   3.831   0.885
 3554SOL    HW111561   3.816   3.911   0.826
 3554SOL    HW211562   3.731   3.811   0.922
 3555SOL     OW11563   2.127   2.477   4.403
 3555SOL    HW111564   2.062   2.406   4.430
 3555SOL    HW211565   2.154   2.462   4.308
 3556SOL     OW11566   3.865   1.608   4.382
 3556SOL    HW111567   3.890   1.691   4.430
 3556SOL    HW211568   3.933   1.589   4.311
 3557SOL     OW11569   0.550   0.463   3.017
 3557SOL    HW111570   0.555   0.442   2.919
 3557SOL    HW211571   0.472   0.523   3.034
 3558SOL     OW11572   2.750   5.291   0.924
 3558SOL    HW111573   2.705   5.340   0.849
 3558SOL    HW211574   2.689   5.219   0.957
 3559SOL     OW11575   2.287   0.049   5.050
 3559SOL    HW111576   2.359   0.058   5.119
 3559SOL    HW211577   2.229   6.998   5.072
 3560SOL     OW11578   2.024   4.745   3.651
 3560SOL    HW111579   2.055   4.732   3.557
 3560SOL    HW211580   1.969   4.667   3.680
 3561SOL     OW11581   5.443   4.428   5.692
 3561SOL    HW111582   5.395   4.386   5.769
 3561SOL    HW211583   5.506   4.361   5.652
 3562SOL     OW11584   3.590   1.847   4.237
 3562SOL    HW111585   3.514   1.783   4.233
 3562SOL    HW211586   3.575   1.913   4.311
 3563SOL     OW11587   5.704   2.436   6.363
 3563SOL    HW111588   5.649   2.360   6.329
 3563SOL    HW211589   5.666   2.522   6.331
 3564SOL     OW11590   0.604   5.114   2.818
 3564SOL    HW111591   0.506   5.115   2.836
 3564SOL    HW211592   0.634   5.206   2.792
 3565SOL     OW11593   3.766   4.899   2.543
 3565SOL    HW111594   3.802   4.856   2.626
 3565SOL    HW211595   3.822   4.873   2.464
 3566SOL     OW11596   6.814   0.932   5.789
 3566SOL    HW111597   6.731   0.888   5.754
 3566SOL    HW211598   6.802   0.953   5.886
 3567SOL     OW11599   0.128   2.864   6.275
 3567SOL    HW111600   0.165   2.774   6.251
 3567SOL    HW211601   0.039   2.876   6.231
 3568SOL     OW11602   6.392   4.070   5.617
 3568SOL    HW111603   6.294   4.051   5.624
 3568SOL    HW211604   6.443   3.985   5.624
 3569SOL     OW11605   2.899   1.920   5.145
 3569SOL    HW111606   2.849   1.959   5.068
 3569SOL    HW211607   2.981   1.976   5.164
 3570SOL     OW11608   5.083   0.487   6.175
 3570SOL    HW111609   4.993   0.495   6.218
 3570SOL    HW211610   5.076   0.433   6.092
 3571SOL     OW11611   0.248   5.902   0.094
 3571SOL    HW111612   0.318   5.834   0.113
 3571SOL    HW211613   0.237   5.912   7.022
 3572SOL     OW11614   5.329   3.989   3.787
 3572SOL    HW111615   5.360   4.078   3.751
 3572SOL    HW211616   5.393   3.958   3.858
 3573SOL     OW11617   0.603   4.690   3.788
 3573SOL    HW111618   0.569   4.666   3.878
 3573SOL    HW211619   0.698   4.661   3.779
 3574SOL     OW11620   0.198   4.830   0.182
 3574SOL    HW111621   0.213   4.901   0.113
 3574SOL    HW211622   0.232   4.743   0.148
 3575SOL     OW11623   5.636   4.842   3.273
 3575SOL    HW111624   5.662   4.791   3.191
 3575SOL    HW211625   5.553   4.804   3.312
 3576SOL     OW11626   2.099   1.500   5.958
 3576SOL    HW111627   2.092   1.452   6.046
 3576SOL    HW211628   2.116   1.433   5.885
 3577SOL     OW11629   1.497   2.621   6.398
 3577SOL    HW111630   1.476   2.597   6.303
 3577SOL    HW211631   1.591   2.655   6.403
 3578SOL     OW11632   3.807   3.005   0.092
 3578SOL    HW111633   3.822   2.960   0.179
 3578SOL    HW211634   3.784   2.937   0.022
 3579SOL     OW11635   0.182   3.867   4.611
 3579SOL    HW111636   0.109   3.801   4.594
 3579SOL    HW211637   0.223   3.895   4.525
 3580SOL     OW11638   5.769   1.430   1.351
 3580SOL    HW111639   5.853   1.459   1.398
 3580SOL    HW211640   5.699   1.501   1.361
 3581SOL     OW11641   6.025   0.212   4.055
 3581SOL    HW111642   5.986   0.241   4.142
 3581SOL    HW211643   6.113   0.257   4.041
 3582SOL     OW11644   0.544   2.007   6.208
 3582SOL    HW111645   0.493   2.053   6.136
 3582SOL    HW211646   0.602   1.936   6.168
 3583SOL     OW11647   0.614   3.760   6.698
 3583SOL    HW111648   0.571   3.732   6.783
 3583SOL    HW211649   0.712   3.743   6.702
 3584SOL     OW11650   6.018   5.882   6.247
 3584SOL    HW111651   6.067   5.826   6.314
 3584SOL    HW211652   5.976   5.823   6.178
 3585SOL     OW11653   3.558   5.103   5.266
 3585SOL    HW111654   3.641   5.152   5.240
 3585SOL    HW211655   3.509   5.076   5.184
 3586SOL     OW11656   6.716   2.087   5.438
 3586SOL    HW111657   6.625   2.109   5.474
 3586SOL    HW211658   6.737   1.991   5.455
 3587SOL     OW11659   2.426   5.028   0.253
 3587SOL    HW111660   2.504   5.062   0.201
 3587SOL    HW211661   2.358   4.989   0.190
 3588SOL     OW11662   0.788   3.071   5.493
 3588SOL    HW111663   0.812   3.161   5.530
 3588SOL    HW211664   0.864   3.007   5.507
 3589SOL     OW11665   3.772   1.543   4.039
 3589SOL    HW111666   3.869   1.542   4.063
 3589SOL    HW211667   3.752   1.467   3.977
 3590SOL     OW11668   6.964   4.088   6.150
 3590SOL    HW111669   6.998   4.182   6.146
 3590SOL    HW211670   6.864   4.089   6.147
 3591SOL     OW11671   4.705   3.415   6.250
 3591SOL    HW111672   4.741   3.460   6.332
 3591SOL    HW211673   4.666   3.326   6.275
 3592SOL     OW11674   5.713   3.885   3.176
 3592SOL    HW111675   5.768   3.875   3.092
 3592SOL    HW211676   5.714   3.799   3.226
 3593SOL     OW11677   2.295   5.802   4.827
 3593SOL    HW111678   2.196   5.799   4.814
 3593SOL    HW211679   2.324   5.720   4.876
 3594SOL     OW11680   3.681   0.351   2.798
 3594SOL    HW111681   3.758   0.394   2.845
 3594SOL    HW211682   3.710   0.265   2.757
 3595SOL     OW11683   2.397   5.917   6.371
 3595SOL    HW111684   2.363   5.823   6.377
 3595SOL    HW211685   2.335   5.978   6.420
 3596SOL     OW11686   6.334   2.097   2.826
 3596SOL    HW111687   6.354   2.163   2.898
 3596SOL    HW211688   6.239   2.106   2.797
 3597SOL     OW11689   2.575   6.474   4.923
 3597SOL    HW111690   2.512   6.411   4.879
 3597SOL    HW211691   2.669   6.445   4.905
 3598SOL     OW11692   1.280   6.840   5.800
 3598SOL    HW111693   1.340   6.785   5.859
 3598SOL    HW211694   1.319   6.846   5.708
 3599SOL     OW11695   0.735   2.299   5.522
 3599SOL    HW111696   0.713   2.393   5.497
 3599SOL    HW211697   0.656   2.240   5.507
 3600SOL     OW11698   0.811   3.336   0.719
 3600SOL    HW111699   0.815   3.420   0.774
 3600SOL    HW211700   0.756   3.353   0.637
 3601SOL     OW11701   6.775   4.183   0.330
 3601SOL    HW111702   6.758   4.086   0.313
 3601SOL    HW211703   6.857   4.212   0.281
 3602SOL     OW11704   1.179   1.382   0.697
 3602SOL    HW111705   1.199   1.396   0.794
 3602SOL    HW211706   1.264   1.363   0.647
 3603SOL     OW11707   3.168   6.222   3.957
 3603SOL    HW111708   3.078   6.208   3.916
 3603SOL    HW211709   3.234   6.248   3.886
 3604SOL     OW11710   6.623   4.690   4.157
 3604SOL    HW111711   6.678   4.613   4.122
 3604SOL    HW211712   6.647   4.773   4.107
 3605SOL     OW11713   5.704   4.441   5.883
 3605SOL    HW111714   5.769   4.499   5.931
 3605SOL    HW211715   5.635   4.407   5.947
 3606SOL     OW11716   6.760   5.365   5.461
 3606SOL    HW111717   6.764   5.455   5.504
 3606SOL    HW211718   6.813   5.367   5.376
 3607SOL     OW11719   5.026   6.483   0.936
 3607SOL    HW111720   5.105   6.542   0.954
 3607SOL    HW211721   5.042   6.393   0.975
 3608SOL     OW11722   6.524   2.100   1.748
 3608SOL    HW111723   6.553   2.196   1.744
 3608SOL    HW211724   6.602   2.041   1.725
 3609SOL     OW11725   0.140   0.440   3.992
 3609SOL    HW111726   0.076   0.513   3.968
 3609SOL    HW211727   0.095   0.377   4.057
 3610SOL     OW11728   0.523   0.585   5.679
 3610SOL    HW111729   0.503   0.508   5.618
 3610SOL    HW211730   0.448   0.650   5.676
 3611SOL     OW11731   3.761   5.547   5.776
 3611SOL    HW111732   3.792   5.514   5.686
 3611SOL    HW211733   3.802   5.491   5.848
 3612SOL     OW11734   6.256   0.352   5.724
 3612SOL    HW111735   6.170   0.358   5.775
 3612SOL    HW211736   6.329   0.323   5.785
 3613SOL     OW11737   5.564   5.460   1.349
 3613SOL    HW111738   5.521   5.421   1.267
 3613SOL    HW211739   5.499   5.458   1.425
 3614SOL     OW11740   3.426   3.208   3.123
 3614SOL    HW111741   3.416   3.237   3.028
 3614SOL    HW211742   3.424   3.108   3.128
 3615SOL     OW11743   5.612   5.919   6.626
 3615SOL    HW111744   5.705   5.887   6.604
 3615SOL    HW211745   5.611   6.019   6.625
 3616SOL     OW11746   6.874   1.601   6.449
 3616SOL    HW111747   6.934   1.649   6.513
 3616SOL    HW211748   6.784   1.645   6.448
 3617SOL     OW11749   5.361   1.175   6.800
 3617SOL    HW111750   5.355   1.171   6.700
 3617SOL    HW211751   5.412   1.257   6.827
 3618SOL     OW11752   2.153   1.813   5.000
 3618SOL    HW111753   2.090   1.837   4.927
 3618SOL    HW211754   2.186   1.896   5.045
 3619SOL     OW11755   6.091   2.947   3.731
 3619SOL    HW111756   6.087   2.965   3.829
 3619SOL    HW211757   6.074   2.850   3.715
 3620SOL     OW11758   6.183   5.603   5.987
 3620SOL    HW111759   6.229   5.564   6.066
 3620SOL    HW211760   6.092   5.635   6.013
 3621SOL     OW11761   3.092   2.341   5.826
 3621SOL    HW111762   3.096   2.410   5.898
 3621SOL    HW211763   3.002   2.297   5.828
 3622SOL     OW11764   2.030   2.218   3.616
 3622SOL    HW111765   2.126   2.194   3.627
 3622SOL    HW211766   2.016   2.261   3.527
 3623SOL     OW11767   5.752   5.987   3.898
 3623SOL    HW111768   5.757   5.898   3.942
 3623SOL    HW211769   5.797   6.056   3.955
 3624SOL     OW11770   1.758   0.371   2.273
 3624SOL    HW111771   1.809   0.363   2.359
 3624SOL    HW211772   1.680   0.309   2.275
 3625SOL     OW11773   5.822   3.327   6.885
 3625SOL    HW111774   5.818   3.242   6.937
 3625SOL    HW211775   5.743   3.384   6.910
 3626SOL     OW11776   1.879   3.473   5.485
 3626SOL    HW111777   1.938   3.523   5.422
 3626SOL    HW211778   1.932   3.404   5.533
 3627SOL     OW11779   3.684   2.966   3.266
 3627SOL    HW111780   3.682   3.040   3.333
 3627SOL    HW211781   3.594   2.924   3.260
 3628SOL     OW11782   1.758   0.002   1.365
 3628SOL    HW111783   1.761   6.946   1.421
 3628SOL    HW211784   1.807   7.013   1.280
 3629SOL     OW11785   6.116   2.246   4.204
 3629SOL    HW111786   6.045   2.175   4.198
 3629SOL    HW211787   6.120   2.281   4.298
 3630SOL     OW11788   5.235   2.590   3.345
 3630SOL    HW111789   5.232   2.595   3.445
 3630SOL    HW211790   5.328   2.568   3.316
 3631SOL     OW11791   1.994   6.776   4.144
 3631SOL    HW111792   1.926   6.782   4.071
 3631SOL    HW211793   2.085   6.794   4.107
 3632SOL     OW11794   5.227   0.037   0.382
 3632SOL    HW111795   5.249   6.995   0.452
 3632SOL    HW211796   5.129   0.056   0.385
 3633SOL     OW11797   3.269   1.788   5.780
 3633SOL    HW111798   3.192   1.829   5.732
 3633SOL    HW211799   3.291   1.700   5.739
 3634SOL     OW11800   0.873   5.549   5.333
 3634SOL    HW111801   0.797   5.513   5.387
 3634SOL    HW211802   0.956   5.496   5.354
 3635SOL     OW11803   2.351   0.076   6.462
 3635SOL    HW111804   2.373   0.067   6.365
 3635SOL    HW211805   2.372   0.169   6.492
 3636SOL     OW11806   0.849   5.941   6.708
 3636SOL    HW111807   0.939   5.954   6.665
 3636SOL    HW211808   0.819   5.847   6.695
 3637SOL     OW11809   6.338   2.062   1.051
 3637SOL    HW111810   6.307   2.002   1.124
 3637SOL    HW211811   6.431   2.094   1.072
 3638SOL     OW11812   6.866   4.407   4.300
 3638SOL    HW111813   6.769   4.419   4.317
 3638SOL    HW211814   6.897   4.320   4.337
 3639SOL     OW11815   4.052   3.929   1.307
 3639SOL    HW111816   4.115   3.929   1.230
 3639SOL    HW211817   3.977   3.992   1.290
 3640SOL     OW11818   3.659   0.383   6.814
 3640SOL    HW111819   3.685   0.392   6.718
 3640SOL    HW211820   3.643   0.287   6.835
 3641SOL     OW11821   4.923   2.876   3.883
 3641SOL    HW111822   4.863   2.859   3.804
 3641SOL    HW211823   4.968   2.791   3.909
 3642SOL     OW11824   5.243   1.168   0.338
 3642SOL    HW111825   5.307   1.225   0.287
 3642SOL    HW211826   5.293   1.095   0.384
 3643SOL     OW11827   3.506   5.875   4.690
 3643SOL    HW111828   3.510   5.973   4.712
 3643SOL    HW211829   3.492   5.823   4.774
 3644SOL     OW11830   6.785   1.147   1.799
 3644SOL    HW111831   6.779   1.231   1.745
 3644SOL    HW211832   6.706   1.141   1.860
 3645SOL     OW11833   6.700   1.689   4.006
 3645SOL    HW111834   6.682   1.786   4.024
 3645SOL    HW211835   6.795   1.667   4.030
 3646SOL     OW11836   6.624   3.991   6.513
 3646SOL    HW111837   6.713   4.008   6.470
 3646SOL    HW211838   6.586   3.905   6.479
 3647SOL     OW11839   2.092   3.289   0.133
 3647SOL    HW111840   2.045   3.225   0.073
 3647SOL    HW211841   2.086   3.257   0.227
 3648SOL     OW11842   2.873   4.964   2.688
 3648SOL    HW111843   2.819   4.883   2.665
 3648SOL    HW211844   2.962   4.936   2.723
 3649SOL     OW11845   4.871   2.931   1.521
 3649SOL    HW111846   4.868   2.937   1.621
 3649SOL    HW211847   4.899   3.020   1.483
 3650SOL     OW11848   0.139   4.723   0.521
 3650SOL    HW111849   0.085   4.686   0.445
 3650SOL    HW211850   0.091   4.801   0.561
 3651SOL     OW11851   0.250   6.653   3.861
 3651SOL    HW111852   0.293   6.603   3.786
 3651SOL    HW211853   0.319   6.700   3.915
 3652SOL     OW11854   6.146   6.406   2.794
 3652SOL    HW111855   6.205   6.353   2.855
 3652SOL    HW211856   6.072   6.447   2.847
 3653SOL     OW11857   0.327   1.186   3.855
 3653SOL    HW111858   0.248   1.242   3.877
 3653SOL    HW211859   0.312   1.140   3.768
 3654SOL     OW11860   2.449   5.620   0.431
 3654SOL    HW111861   2.432   5.695   0.495
 3654SOL    HW211862   2.455   5.656   0.338
 3655SOL     OW11863   2.248   0.257   3.400
 3655SOL    HW111864   2.258   0.302   3.489
 3655SOL    HW211865   2.162   0.207   3.398
 3656SOL     OW11866   0.837   3.373   2.308
 3656SOL    HW111867   0.796   3.300   2.253
 3656SOL    HW211868   0.936   3.368   2.300
 3657SOL     OW11869   5.045   5.106   6.161
 3657SOL    HW111870   5.070   5.058   6.076
 3657SOL    HW211871   4.968   5.059   6.203
 3658SOL     OW11872   2.034   6.071   4.250
 3658SOL    HW111873   2.031   6.113   4.160
 3658SOL    HW211874   1.940   6.055   4.282
 3659SOL     OW11875   2.584   3.427   5.649
 3659SOL    HW111876   2.553   3.369   5.724
 3659SOL    HW211877   2.682   3.414   5.635
 3660SOL     OW11878   4.614   0.346   2.945
 3660SOL    HW111879   4.618   0.429   3.001
 3660SOL    HW211880   4.673   0.276   2.985
 3661SOL     OW11881   4.739   1.678   5.878
 3661SOL    HW111882   4.740   1.689   5.977
 3661SOL    HW211883   4.676   1.744   5.838
 3662SOL     OW11884   4.409   0.574   3.522
 3662SOL    HW111885   4.375   0.560   3.615
 3662SOL    HW211886   4.454   0.491   3.490
 3663SOL     OW11887   1.829   1.793   0.205
 3663SOL    HW111888   1.741   1.822   0.167
 3663SOL    HW211889   1.902   1.822   0.143
 3664SOL     OW11890   4.809   2.015   1.686
 3664SOL    HW111891   4.846   2.106   1.706
 3664SOL    HW211892   4.848   1.948   1.750
 3665SOL     OW11893   1.608   6.475   5.618
 3665SOL    HW111894   1.587   6.514   5.528
 3665SOL    HW211895   1.619   6.376   5.609
 3666SOL     OW11896   1.827   3.805   3.043
 3666SOL    HW111897   1.810   3.889   3.095
 3666SOL    HW211898   1.751   3.742   3.056
 3667SOL     OW11899   6.919   0.499   1.006
 3667SOL    HW111900   6.835   0.528   0.960
 3667SOL    HW211901   6.899   0.479   1.102
 3668SOL     OW11902   1.362   1.257   2.135
 3668SOL    HW111903   1.329   1.179   2.082
 3668SOL    HW211904   1.441   1.297   2.090
 3669SOL     OW11905   5.713   1.579   3.355
 3669SOL    HW111906   5.648   1.650   3.325
 3669SOL    HW211907   5.795   1.622   3.391
 3670SOL     OW11908   2.129   4.536   0.275
 3670SOL    HW111909   2.160   4.447   0.309
 3670SOL    HW211910   2.137   4.604   0.348
 3671SOL     OW11911   6.036   0.331   3.711
 3671SOL    HW111912   5.951   0.357   3.756
 3671SOL    HW211913   6.025   0.240   3.671
 3672SOL     OW11914   5.543   2.371   1.762
 3672SOL    HW111915   5.445   2.391   1.772
 3672SOL    HW211916   5.563   2.281   1.800
 3673SOL     OW11917   4.045   0.243   6.668
 3673SOL    HW111918   3.996   0.301   6.604
 3673SOL    HW211919   4.080   0.162   6.621
 3674SOL     OW11920   0.451   6.892   5.147
 3674SOL    HW111921   0.383   6.899   5.220
 3674SOL    HW211922   0.462   6.797   5.120
 3675SOL     OW11923   1.674   3.188   4.863
 3675SOL    HW111924   1.694   3.185   4.765
 3675SOL    HW211925   1.656   3.283   4.890
 3676SOL     OW11926   4.985   4.603   4.388
 3676SOL    HW111927   4.966   4.509   4.417
 3676SOL    HW211928   5.084   4.618   4.387
 3677SOL     OW11929   2.250   6.627   3.110
 3677SOL    HW111930   2.164   6.679   3.108
 3677SOL    HW211931   2.327   6.689   3.095
 3678SOL     OW11932   0.422   3.465   4.248
 3678SOL    HW111933   0.462   3.555   4.233
 3678SOL    HW211934   0.333   3.460   4.202
 3679SOL     OW11935   1.518   0.421   3.091
 3679SOL    HW111936   1.537   0.516   3.065
 3679SOL    HW211937   1.506   0.366   3.009
 3680SOL     OW11938   5.756   2.242   3.060
 3680SOL    HW111939   5.665   2.253   3.019
 3680SOL    HW211940   5.787   2.330   3.096
 3681SOL     OW11941   0.537   0.811   5.363
 3681SOL    HW111942   0.578   0.860   5.286
 3681SOL    HW211943   0.548   0.713   5.350
 3682SOL     OW11944   5.394   2.509   7.011
 3682SOL    HW111945   5.408   2.473   6.919
 3682SOL    HW211946   5.399   2.434   0.050
 3683SOL     OW11947   7.003   6.502   3.425
 3683SOL    HW111948   0.061   6.492   3.372
 3683SOL    HW211949   6.936   6.553   3.371
 3684SOL     OW11950   1.316   4.828   0.105
 3684SOL    HW111951   1.217   4.820   0.099
 3684SOL    HW211952   1.339   4.915   0.150
 3685SOL     OW11953   6.261   6.585   6.255
 3685SOL    HW111954   6.165   6.554   6.260
 3685SOL    HW211955   6.288   6.589   6.159
 3686SOL     OW11956   6.077   6.708   2.725
 3686SOL    HW111957   6.068   6.654   2.809
 3686SOL    HW211958   6.010   6.782   2.726
 3687SOL     OW11959   3.990   5.924   5.345
 3687SOL    HW111960   4.057   5.985   5.388
 3687SOL    HW211961   3.918   5.902   5.411
 3688SOL     OW11962   6.939   3.121   6.559
 3688SOL    HW111963   7.018   3.135   6.499
 3688SOL    HW211964   6.855   3.116   6.504
 3689SOL     OW11965   1.962   0.966   0.032
 3689SOL    HW111966   1.879   0.912   0.020
 3689SOL    HW211967   2.018   0.925   0.104
 3690SOL     OW11968   4.490   6.570   6.893
 3690SOL    HW111969   4.547   6.492   6.919
 3690SOL    HW211970   4.498   6.642   6.962
 3691SOL     OW11971   3.059   2.627   6.850
 3691SOL    HW111972   3.004   2.643   6.932
 3691SOL    HW211973   3.102   2.713   6.821
 3692SOL     OW11974   0.737   5.956   5.226
 3692SOL    HW111975   0.750   6.015   5.146
 3692SOL    HW211976   0.712   6.013   5.305
 3693SOL     OW11977   1.854   2.815   2.828
 3693SOL    HW111978   1.774   2.825   2.888
 3693SOL    HW211979   1.837   2.862   2.742
 3694SOL     OW11980   1.497   5.413   2.652
 3694SOL    HW111981   1.470   5.344   2.719
 3694SOL    HW211982   1.447   5.498   2.670
 3695SOL     OW11983   6.579   2.936   2.291
 3695SOL    HW111984   6.675   2.959   2.278
 3695SOL    HW211985   6.571   2.862   2.358
 3696SOL     OW11986   2.931   5.682   5.397
 3696SOL    HW111987   2.876   5.649   5.320
 3696SOL    HW211988   2.898   5.772   5.426
 3697SOL     OW11989   0.040   6.045   3.460
 3697SOL    HW111990   0.051   6.127   3.516
 3697SOL    HW211991   0.119   5.986   3.471
 3698SOL     OW11992   2.067   6.921   4.836
 3698SOL    HW111993   2.096   6.986   4.766
 3698SOL    HW211994   2.026   6.841   4.793
 3699SOL     OW11995   7.025   3.291   3.408
 3699SOL    HW111996   0.010   3.370   3.348
 3699SOL    HW211997   0.023   3.208   3.358
 3700SOL     OW11998   0.070   0.509   4.558
 3700SOL    HW111999   0.073   0.602   4.593
 3700SOL    HW212000   0.012   0.453   4.617
 3701SOL     OW12001   1.079   0.496   3.636
 3701SOL    HW112002   1.134   0.560   3.585
 3701SOL    HW212003   1.007   0.459   3.577
 3702SOL     OW12004   6.126   6.282   2.251
 3702SOL    HW112005   6.212   6.231   2.250
 3702SOL    HW212006   6.074   6.257   2.333
 3703SOL     OW12007   4.106   2.169   6.424
 3703SOL    HW112008   4.087   2.079   6.386
 3703SOL    HW212009   4.020   2.212   6.453
 3704SOL     OW12010   3.554   1.502   1.187
 3704SOL    HW112011   3.561   1.510   1.088
 3704SOL    HW212012   3.460   1.483   1.212
 3705SOL     OW12013   5.003   5.859   3.564
 3705SOL    HW112014   4.955   5.929   3.618
 3705SOL    HW212015   5.060   5.804   3.625
 3706SOL     OW12016   1.715   3.687   5.203
 3706SOL    HW112017   1.769   3.724   5.278
 3706SOL    HW212018   1.626   3.733   5.200
 3707SOL     OW12019   5.606   4.199   5.564
 3707SOL    HW112020   5.661   4.127   5.605
 3707SOL    HW212021   5.524   4.158   5.523
 3708SOL     OW12022   6.892   1.118   6.535
 3708SOL    HW112023   6.838   1.035   6.540
 3708SOL    HW212024   6.950   1.115   6.453
 3709SOL     OW12025   3.535   0.793   1.048
 3709SOL    HW112026   3.510   0.779   0.952
 3709SOL    HW212027   3.591   0.876   1.055
 3710SOL     OW12028   0.075   5.632   6.992
 3710SOL    HW112029   0.155   5.591   6.948
 3710SOL    HW212030   0.005   5.650   6.922
 3711SOL     OW12031   0.263   6.887   2.506
 3711SOL    HW112032   0.285   6.792   2.482
 3711SOL    HW212033   0.264   6.898   2.605
 3712SOL     OW12034   0.063   6.452   6.735
 3712SOL    HW112035   0.062   6.526   6.802
 3712SOL    HW212036   0.054   6.490   6.643
 3713SOL     OW12037   1.830   5.982   4.607
 3713SOL    HW112038   1.849   6.076   4.635
 3713SOL    HW212039   1.899   5.952   4.541
 3714SOL     OW12040   4.628   5.284   5.030
 3714SOL    HW112041   4.561   5.249   5.095
 3714SOL    HW212042   4.719   5.283   5.071
 3715SOL     OW12043   5.811   3.911   2.836
 3715SOL    HW112044   5.832   3.990   2.778
 3715SOL    HW212045   5.739   3.856   2.793
 3716SOL     OW12046   6.023   6.569   5.154
 3716SOL    HW112047   6.007   6.607   5.062
 3716SOL    HW212048   5.985   6.631   5.222
 3717SOL     OW12049   5.461   5.461   6.002
 3717SOL    HW112050   5.379   5.483   5.949
 3717SOL    HW212051   5.483   5.537   6.063
 3718SOL     OW12052   1.920   0.574   0.047
 3718SOL    HW112053   1.853   0.648   0.044
 3718SOL    HW212054   2.002   0.602   7.023
 3719SOL     OW12055   5.559   4.591   0.920
 3719SOL    HW112056   5.627   4.528   0.882
 3719SOL    HW212057   5.583   4.685   0.896
 3720SOL     OW12058   6.515   1.924   5.803
 3720SOL    HW112059   6.444   1.972   5.752
 3720SOL    HW212060   6.548   1.847   5.748
 3721SOL     OW12061   5.273   4.628   1.209
 3721SOL    HW112062   5.276   4.568   1.289
 3721SOL    HW212063   5.190   4.684   1.211
 3722SOL     OW12064   6.408   6.548   1.557
 3722SOL    HW112065   6.414   6.588   1.649
 3722SOL    HW212066   6.477   6.590   1.499
 3723SOL     OW12067   6.532   5.995   2.040
 3723SOL    HW112068   6.576   6.047   1.967
 3723SOL    HW212069   6.598   5.979   2.114
 3724SOL     OW12070   1.896   5.114   6.010
 3724SOL    HW112071   1.830   5.137   5.939
 3724SOL    HW212072   1.891   5.016   6.030
 3725SOL     OW12073   5.755   5.263   0.773
 3725SOL    HW112074   5.766   5.198   0.698
 3725SOL    HW212075   5.747   5.356   0.736
 3726SOL     OW12076   6.408   5.044   0.509
 3726SOL    HW112077   6.385   5.140   0.526
 3726SOL    HW212078   6.326   4.994   0.481
 3727SOL     OW12079   6.866   1.793   5.918
 3727SOL    HW112080   6.853   1.873   5.977
 3727SOL    HW212081   6.876   1.824   5.823
 3728SOL     OW12082   0.809   4.192   6.996
 3728SOL    HW112083   0.802   4.094   7.015
 3728SOL    HW212084   0.888   4.230   0.018
 3729SOL     OW12085   1.098   2.094   3.392
 3729SOL    HW112086   1.100   2.020   3.459
 3729SOL    HW212087   1.060   2.060   3.306
 3730SOL     OW12088   2.539   5.300   6.656
 3730SOL    HW112089   2.637   5.314   6.672
 3730SOL    HW212090   2.489   5.383   6.680
 3731SOL     OW12091   4.980   0.476   1.002
 3731SOL    HW112092   4.985   0.470   1.102
 3731SOL    HW212093   4.929   0.558   0.976
 3732SOL     OW12094   1.802   2.240   6.200
 3732SOL    HW112095   1.847   2.170   6.256
 3732SOL    HW212096   1.785   2.321   6.256
 3733SOL     OW12097   1.516   3.471   2.195
 3733SOL    HW112098   1.440   3.533   2.213
 3733SOL    HW212099   1.574   3.509   2.123
 3734SOL     OW12100   4.880   1.190   1.880
 3734SOL    HW112101   4.839   1.151   1.962
 3734SOL    HW212102   4.811   1.243   1.830
 3735SOL     OW12103   2.412   0.583   3.601
 3735SOL    HW112104   2.460   0.608   3.517
 3735SOL    HW212105   2.402   0.663   3.659
 3736SOL     OW12106   6.418   2.209   0.382
 3736SOL    HW112107   6.511   2.177   0.368
 3736SOL    HW212108   6.377   2.160   0.459
 3737SOL     OW12109   4.977   0.401   3.474
 3737SOL    HW112110   4.958   0.305   3.455
 3737SOL    HW212111   4.937   0.459   3.402
 3738SOL     OW12112   7.022   5.672   2.048
 3738SOL    HW112113   0.087   5.659   2.084
 3738SOL    HW212114   6.981   5.754   2.089
 3739SOL     OW12115   2.427   4.705   1.692
 3739SOL    HW112116   2.429   4.605   1.698
 3739SOL    HW212117   2.342   4.739   1.731
 3740SOL     OW12118   5.518   6.916   0.434
 3740SOL    HW112119   5.429   6.872   0.446
 3740SOL    HW212120   5.506   7.015   0.426
 3741SOL     OW12121   4.898   3.312   1.232
 3741SOL    HW112122   4.888   3.409   1.206
 3741SOL    HW212123   4.820   3.261   1.198
 3742SOL     OW12124   2.634   1.900   6.423
 3742SOL    HW112125   2.688   1.883   6.341
 3742SOL    HW212126   2.694   1.903   6.503
 3743SOL     OW12127   5.078   3.599   1.019
 3743SOL    HW112128   5.108   3.510   0.986
 3743SOL    HW212129   4.993   3.625   0.973
 3744SOL     OW12130   0.598   6.231   2.812
 3744SOL    HW112131   0.580   6.240   2.910
 3744SOL    HW212132   0.657   6.152   2.796
 3745SOL     OW12133   3.989   5.228   1.954
 3745SOL    HW112134   3.948   5.181   1.876
 3745SOL    HW212135   4.082   5.194   1.968
 3746SOL     OW12136   5.333   1.486   2.822
 3746SOL    HW112137   5.419   1.477   2.874
 3746SOL    HW212138   5.314   1.582   2.805
 3747SOL     OW12139   2.833   0.282   5.448
 3747SOL    HW112140   2.761   0.287   5.379
 3747SOL    HW212141   2.801   0.323   5.533
 3748SOL     OW12142   5.714   0.155   1.967
 3748SOL    HW112143   5.697   0.060   1.941
 3748SOL    HW212144   5.644   0.214   1.925
 3749SOL     OW12145   1.889   6.539   4.244
 3749SOL    HW112146   1.945   6.490   4.310
 3749SOL    HW212147   1.940   6.616   4.206
 3750SOL     OW12148   1.205   3.682   0.779
 3750SOL    HW112149   1.253   3.727   0.704
 3750SOL    HW212150   1.271   3.636   0.838
 3751SOL     OW12151   6.744   3.599   1.860
 3751SOL    HW112152   6.788   3.682   1.825
 3751SOL    HW212153   6.647   3.617   1.877
 3752SOL     OW12154   5.352   0.677   6.727
 3752SOL    HW112155   5.383   0.588   6.696
 3752SOL    HW212156   5.431   0.732   6.754
 3753SOL     OW12157   5.909   0.748   5.418
 3753SOL    HW112158   5.869   0.695   5.343
 3753SOL    HW212159   5.913   0.691   5.500
 3754SOL     OW12160   2.354   0.251   1.630
 3754SOL    HW112161   2.355   0.250   1.530
 3754SOL    HW212162   2.348   0.345   1.663
 3755SOL     OW12163   4.897   5.531   4.932
 3755SOL    HW112164   4.890   5.455   4.997
 3755SOL    HW212165   4.948   5.606   4.974
 3756SOL     OW12166   2.821   5.785   6.431
 3756SOL    HW112167   2.765   5.702   6.429
 3756SOL    HW212168   2.832   5.816   6.525
 3757SOL     OW12169   5.929   5.256   2.177
 3757SOL    HW112170   5.930   5.347   2.136
 3757SOL    HW212171   5.927   5.187   2.105
 3758SOL     OW12172   2.285   1.399   4.164
 3758SOL    HW112173   2.239   1.386   4.252
 3758SOL    HW212174   2.229   1.455   4.104
 3759SOL     OW12175   3.958   0.167   5.892
 3759SOL    HW112176   4.026   0.123   5.833
 3759SOL    HW212177   3.935   0.257   5.855
 3760SOL     OW12178   0.620   1.618   4.271
 3760SOL    HW112179   0.712   1.598   4.237
 3760SOL    HW212180   0.552   1.570   4.215
 3761SOL     OW12181   6.532   0.890   5.437
 3761SOL    HW112182   6.493   0.980   5.421
 3761SOL    HW212183   6.630   0.891   5.414
 3762SOL     OW12184   1.270   4.537   1.280
 3762SOL    HW112185   1.362   4.519   1.315
 3762SOL    HW212186   1.203   4.493   1.339
 3763SOL     OW12187   0.123   3.548   0.246
 3763SOL    HW112188   0.114   3.591   0.156
 3763SOL    HW212189   0.212   3.573   0.286
 3764SOL     OW12190   1.667   6.981   2.164
 3764SOL    HW112191   1.707   6.991   2.073
 3764SOL    HW212192   1.739   6.961   2.231
 3765SOL     OW12193   5.762   1.350   1.075
 3765SOL    HW112194   5.859   1.355   1.052
 3765SOL    HW212195   5.747   1.390   1.165
 3766SOL     OW12196   2.044   2.163   4.203
 3766SOL    HW112197   1.999   2.173   4.292
 3766SOL    HW212198   2.095   2.246   4.181
 3767SOL     OW12199   3.183   4.477   6.324
 3767SOL    HW112200   3.089   4.443   6.319
 3767SOL    HW212201   3.188   4.553   6.389
 3768SOL     OW12202   0.549   0.062   4.630
 3768SOL    HW112203   0.633   0.086   4.680
 3768SOL    HW212204   0.521   0.139   4.573
 3769SOL     OW12205   6.172   5.431   5.055
 3769SOL    HW112206   6.224   5.485   5.121
 3769SOL    HW212207   6.167   5.481   4.969
 3770SOL     OW12208   1.282   0.565   6.862
 3770SOL    HW112209   1.260   0.544   6.957
 3770SOL    HW212210   1.266   0.485   6.805
 3771SOL     OW12211   5.568   4.466   6.573
 3771SOL    HW112212   5.592   4.553   6.616
 3771SOL    HW212213   5.475   4.441   6.599
 3772SOL     OW12214   0.727   0.307   0.444
 3772SOL    HW112215   0.803   0.357   0.403
 3772SOL    HW212216   0.757   0.266   0.530
 3773SOL     OW12217   6.307   3.311   5.114
 3773SOL    HW112218   6.249   3.358   5.048
 3773SOL    HW212219   6.280   3.337   5.207
 3774SOL     OW12220   5.667   5.671   1.667
 3774SOL    HW112221   5.730   5.610   1.620
 3774SOL    HW212222   5.667   5.652   1.765
 3775SOL     OW12223   4.244   5.268   3.183
 3775SOL    HW112224   4.339   5.267   3.152
 3775SOL    HW212225   4.198   5.348   3.144
 3776SOL     OW12226   3.562   2.464   6.637
 3776SOL    HW112227   3.536   2.503   6.549
 3776SOL    HW212228   3.519   2.374   6.648
 3777SOL     OW12229   2.337   5.059   3.560
 3777SOL    HW112230   2.276   5.044   3.638
 3777SOL    HW212231   2.395   4.979   3.548
 3778SOL     OW12232   2.430   5.819   3.302
 3778SOL    HW112233   2.375   5.735   3.299
 3778SOL    HW212234   2.402   5.880   3.228
 3779SOL     OW12235   0.687   5.118   0.704
 3779SOL    HW112236   0.682   5.191   0.772
 3779SOL    HW212237   0.594   5.097   0.672
 3780SOL     OW12238   6.423   3.782   4.670
 3780SOL    HW112239   6.382   3.806   4.758
 3780SOL    HW212240   6.356   3.731   4.615
 3781SOL     OW12241   0.386   0.314   3.935
 3781SOL    HW112242   0.297   0.356   3.952
 3781SOL    HW212243   0.373   0.218   3.910
 3782SOL     OW12244   3.678   6.899   2.927
 3782SOL    HW112245   3.773   6.871   2.912
 3782SOL    HW212246   3.627   6.892   2.841
 3783SOL     OW12247   6.077   5.176   4.011
 3783SOL    HW112248   6.078   5.272   4.041
 3783SOL    HW212249   5.990   5.156   3.966
 3784SOL     OW12250   5.236   3.208   2.644
 3784SOL    HW112251   5.226   3.234   2.741
 3784SOL    HW212252   5.291   3.124   2.638
 3785SOL     OW12253   1.489   2.983   4.745
 3785SOL    HW112254   1.571   3.014   4.697
 3785SOL    HW212255   1.415   3.050   4.731
 3786SOL     OW12256   2.198   3.990   3.006
 3786SOL    HW112257   2.129   3.942   2.952
 3786SOL    HW212258   2.287   3.984   2.959
 3787SOL     OW12259   5.669   0.890   2.324
 3787SOL    HW112260   5.611   0.819   2.364
 3787SOL    HW212261   5.743   0.913   2.387
 3788SOL     OW12262   6.646   4.317   4.762
 3788SOL    HW112263   6.671   4.404   4.804
 3788SOL    HW212264   6.549   4.298   4.781
 3789SOL     OW12265   0.150   3.738   3.626
 3789SOL    HW112266   0.196   3.814   3.581
 3789SOL    HW212267   0.217   3.684   3.678
 3790SOL     OW12268   0.862   4.859   6.179
 3790SOL    HW112269   0.931   4.796   6.214
 3790SOL    HW212270   0.906   4.941   6.143
 3791SOL     OW12271   4.715   1.702   6.157
 3791SOL    HW112272   4.692   1.635   6.227
 3791SOL    HW212273   4.805   1.742   6.177
 3792SOL     OW12274   1.417   1.668   3.959
 3792SOL    HW112275   1.412   1.634   4.052
 3792SOL    HW212276   1.512   1.691   3.936
 3793SOL     OW12277   4.416   6.390   1.705
 3793SOL    HW112278   4.437   6.487   1.701
 3793SOL    HW212279   4.319   6.378   1.729
 3794SOL     OW12280   2.728   2.864   1.624
 3794SOL    HW112281   2.742   2.765   1.628
 3794SOL    HW212282   2.630   2.883   1.611
 3795SOL     OW12283   4.302   5.786   1.227
 3795SOL    HW112284   4.332   5.795   1.322
 3795SOL    HW212285   4.202   5.776   1.225
 3796SOL     OW12286   4.253   2.368   2.362
 3796SOL    HW112287   4.167   2.418   2.352
 3796SOL    HW212288   4.283   2.335   2.272
 3797SOL     OW12289   0.442   3.347   3.133
 3797SOL    HW112290   0.452   3.255   3.171
 3797SOL    HW212291   0.383   3.401   3.192
 3798SOL     OW12292   2.277   6.455   2.728
 3798SOL    HW112293   2.343   6.526   2.753
 3798SOL    HW212294   2.189   6.474   2.772
 3799SOL     OW12295   6.690   2.788   3.886
 3799SOL    HW112296   6.605   2.764   3.840
 3799SOL    HW212297   6.752   2.709   3.884
 3800SOL     OW12298   5.552   1.815   3.329
 3800SOL    HW112299   5.539   1.810   3.230
 3800SOL    HW212300   5.609   1.894   3.351
 3801SOL     OW12301   5.962   6.515   1.938
 3801SOL    HW112302   5.996   6.457   1.864
 3801SOL    HW212303   5.884   6.568   1.906
 3802SOL     OW12304   0.890   1.513   1.831
 3802SOL    HW112305   0.955   1.588   1.839
 3802SOL    HW212306   0.884   1.484   1.736
 3803SOL     OW12307   4.026   3.856   3.149
 3803SOL    HW112308   3.978   3.940   3.174
 3803SOL    HW212309   4.041   3.855   3.050
 3804SOL     OW12310   4.332   1.363   3.890
 3804SOL    HW112311   4.417   1.413   3.871
 3804SOL    HW212312   4.317   1.294   3.819
 3805SOL     OW12313   1.836   2.822   1.578
 3805SOL    HW112314   1.859   2.838   1.482
 3805SOL    HW212315   1.810   2.727   1.590
 3806SOL     OW12316   3.249   3.477   5.725
 3806SOL    HW112317   3.260   3.377   5.719
 3806SOL    HW212318   3.338   3.520   5.724
 3807SOL     OW12319   2.380   5.384   2.920
 3807SOL    HW112320   2.370   5.483   2.921
 3807SOL    HW212321   2.351   5.346   3.008
 3808SOL     OW12322   4.003   0.928   0.153
 3808SOL    HW112323   4.096   0.965   0.153
 3808SOL    HW212324   3.938   1.001   0.129
 3809SOL     OW12325   5.302   3.002   1.462
 3809SOL    HW112326   5.248   3.003   1.377
 3809SOL    HW212327   5.382   3.061   1.451
 3810SOL     OW12328   6.004   2.665   3.759
 3810SOL    HW112329   5.910   2.699   3.753
 3810SOL    HW212330   6.016   2.615   3.844
 3811SOL     OW12331   0.288   6.660   4.570
 3811SOL    HW112332   0.286   6.759   4.578
 3811SOL    HW212333   0.241   6.632   4.486
 3812SOL     OW12334   3.617   4.747   5.862
 3812SOL    HW112335   3.672   4.784   5.787
 3812SOL    HW212336   3.521   4.772   5.848
 3813SOL     OW12337   5.963   3.800   0.279
 3813SOL    HW112338   5.959   3.843   0.189
 3813SOL    HW212339   5.994   3.705   0.269
 3814SOL     OW12340   6.517   7.001   5.010
 3814SOL    HW112341   6.532   0.067   4.975
 3814SOL    HW212342   6.604   6.951   5.011
 3815SOL     OW12343   3.961   2.271   0.548
 3815SOL    HW112344   3.888   2.236   0.488
 3815SOL    HW212345   4.050   2.249   0.508
 3816SOL     OW12346   1.206   5.061   6.618
 3816SOL    HW112347   1.207   5.161   6.625
 3816SOL    HW212348   1.112   5.030   6.602
 3817SOL     OW12349   4.983   3.500   2.032
 3817SOL    HW112350   5.066   3.531   2.079
 3817SOL    HW212351   4.912   3.569   2.044
 3818SOL     OW12352   6.671   1.345   0.114
 3818SOL    HW112353   6.697   1.429   0.066
 3818SOL    HW212354   6.735   1.272   0.091
 3819SOL     OW12355   6.144   4.870   2.573
 3819SOL    HW112356   6.053   4.911   2.568
 3819SOL    HW212357   6.208   4.936   2.613
 3820SOL     OW12358   5.283   6.737   4.454
 3820SOL    HW112359   5.289   6.671   4.379
 3820SOL    HW212360   5.375   6.768   4.479
 3821SOL     OW12361   1.275   0.848   1.794
 3821SOL    HW112362   1.198   0.865   1.733
 3821SOL    HW212363   1.269   0.755   1.830
 3822SOL     OW12364   1.914   6.305   0.634
 3822SOL    HW112365   1.906   6.210   0.605
 3822SOL    HW212366   1.823   6.341   0.655
 3823SOL     OW12367   3.880   3.773   6.683
 3823SOL    HW112368   3.851   3.851   6.739
 3823SOL    HW212369   3.808   3.749   6.618
 3824SOL     OW12370   0.659   2.484   0.861
 3824SOL    HW112371   0.696   2.577   0.855
 3824SOL    HW212372   0.683   2.443   0.949
 3825SOL     OW12373   0.352   4.662   6.850
 3825SOL    HW112374   0.393   4.637   6.938
 3825SOL    HW212375   0.415   4.639   6.776
 3826SOL     OW12376   0.438   3.465   1.099
 3826SOL    HW112377   0.374   3.388   1.097
 3826SOL    HW212378   0.434   3.510   1.188
 3827SOL     OW12379   1.008   0.834   1.445
 3827SOL    HW112380   0.983   0.747   1.403
 3827SOL    HW212381   0.927   0.892   1.454
 3828SOL     OW12382   3.225   3.561   3.708
 3828SOL    HW112383   3.247   3.464   3.716
 3828SOL    HW212384   3.310   3.614   3.700
 3829SOL     OW12385   0.430   4.127   2.182
 3829SOL    HW112386   0.428   4.044   2.126
 3829SOL    HW212387   0.515   4.176   2.166
 3830SOL     OW12388   0.929   1.262   5.535
 3830SOL    HW112389   1.019   1.227   5.510
 3830SOL    HW212390   0.936   1.314   5.620
 3831SOL     OW12391   4.427   2.171   2.377
 3831SOL    HW112392   4.457   2.177   2.281
 3831SOL    HW212393   4.343   2.225   2.388
 3832SOL     OW12394   6.684   0.741   2.886
 3832SOL    HW112395   6.608   0.687   2.921
 3832SOL    HW212396   6.763   0.681   2.871
 3833SOL     OW12397   0.196   6.094   6.434
 3833SOL    HW112398   0.237   6.009   6.465
 3833SOL    HW212399   0.252   6.133   6.361
 3834SOL     OW12400   3.635   4.287   0.771
 3834SOL    HW112401   3.660   4.366   0.715
 3834SOL    HW212402   3.549   4.248   0.738
 3835SOL     OW12403   4.120   6.100   4.802
 3835SOL    HW112404   4.084   6.036   4.871
 3835SOL    HW212405   4.220   6.097   4.803
 3836SOL     OW12406   0.009   5.093   5.585
 3836SOL    HW112407   6.963   5.108   5.652
 3836SOL    HW212408   0.062   5.177   5.574
 3837SOL     OW12409   4.626   4.533   6.019
 3837SOL    HW112410   4.688   4.489   6.084
 3837SOL    HW212411   4.677   4.559   5.938
 3838SOL     OW12412   0.594   2.918   3.813
 3838SOL    HW112413   0.552   2.851   3.752
 3838SOL    HW212414   0.691   2.930   3.787
 3839SOL     OW12415   5.681   1.749   2.650
 3839SOL    HW112416   5.721   1.798   2.728
 3839SOL    HW212417   5.653   1.658   2.678
 3840SOL     OW12418   2.881   1.455   6.397
 3840SOL    HW112419   2.957   1.514   6.369
 3840SOL    HW212420   2.901   1.361   6.371
 3841SOL     OW12421   0.287   3.083   4.523
 3841SOL    HW112422   0.195   3.088   4.486
 3841SOL    HW212423   0.335   3.005   4.483
 3842SOL     OW12424   1.486   2.256   2.522
 3842SOL    HW112425   1.549   2.322   2.562
 3842SOL    HW212426   1.496   2.256   2.423
 3843SOL     OW12427   5.494   3.913   2.393
 3843SOL    HW112428   5.509   3.820   2.361
 3843SOL    HW212429   5.456   3.969   2.319
 3844SOL     OW12430   0.983   2.897   5.052
 3844SOL    HW112431   1.005   2.857   4.963
 3844SOL    HW212432   1.061   2.952   5.083
 3845SOL     OW12433   3.106   4.444   5.928
 3845SOL    HW112434   3.043   4.485   5.862
 3845SOL    HW212435   3.191   4.496   5.929
 3846SOL     OW12436   0.586   4.687   3.365
 3846SOL    HW112437   0.563   4.735   3.281
 3846SOL    HW212438   0.683   4.665   3.367
 3847SOL     OW12439   5.412   3.347   4.884
 3847SOL    HW112440   5.488   3.390   4.834
 3847SOL    HW212441   5.428   3.249   4.890
 3848SOL     OW12442   4.611   4.678   2.829
 3848SOL    HW112443   4.532   4.689   2.769
 3848SOL    HW212444   4.610   4.585   2.868
 3849SOL     OW12445   0.865   1.628   6.145
 3849SOL    HW112446   0.905   1.540   6.170
 3849SOL    HW212447   0.916   1.667   6.068
 3850SOL     OW12448   2.763   3.800   1.760
 3850SOL    HW112449   2.766   3.708   1.798
 3850SOL    HW212450   2.854   3.825   1.725
 3851SOL     OW12451   1.020   3.927   3.136
 3851SOL    HW112452   0.946   3.869   3.104
 3851SOL    HW212453   1.074   3.878   3.205
 3852SOL     OW12454   3.913   6.739   3.796
 3852SOL    HW112455   3.938   6.642   3.794
 3852SOL    HW212456   3.828   6.751   3.848
 3853SOL     OW12457   0.694   4.086   3.810
 3853SOL    HW112458   0.705   4.158   3.879
 3853SOL    HW212459   0.746   4.006   3.838
 3854SOL     OW12460   1.240   2.100   2.851
 3854SOL    HW112461   1.191   2.129   2.933
 3854SOL    HW212462   1.318   2.160   2.836
 3855SOL     OW12463   4.859   6.188   6.495
 3855SOL    HW112464   4.934   6.249   6.467
 3855SOL    HW212465   4.867   6.167   6.592
 3856SOL     OW12466   6.603   0.780   6.014
 3856SOL    HW112467   6.666   0.705   6.033
 3856SOL    HW212468   6.576   0.778   5.918
 3857SOL     OW12469   0.771   6.116   6.420
 3857SOL    HW112470   0.685   6.065   6.415
 3857SOL    HW212471   0.786   6.145   6.515
 3858SOL     OW12472   2.358   0.850   5.624
 3858SOL    HW112473   2.419   0.779   5.588
 3858SOL    HW212474   2.263   0.825   5.604
 3859SOL     OW12475   5.438   1.101   1.371
 3859SOL    HW112476   5.365   1.118   1.305
 3859SOL    HW212477   5.443   1.177   1.436
 3860SOL     OW12478   2.150   1.601   3.744
 3860SOL    HW112479   2.115   1.687   3.781
 3860SOL    HW212480   2.088   1.526   3.769
 3861SOL     OW12481   4.310   5.251   3.487
 3861SOL    HW112482   4.395   5.285   3.527
 3861SOL    HW212483   4.309   5.270   3.389
 3862SOL     OW12484   0.314   0.618   4.799
 3862SOL    HW112485   0.351   0.677   4.871
 3862SOL    HW212486   0.268   0.539   4.841
 3863SOL     OW12487   5.881   2.391   0.058
 3863SOL    HW112488   5.811   2.414   7.018
 3863SOL    HW212489   5.890   2.465   0.124
 3864SOL     OW12490   2.137   0.941   5.916
 3864SOL    HW112491   2.066   0.954   5.847
 3864SOL    HW212492   2.225   0.971   5.880
 3865SOL     OW12493   4.118   0.907   0.754
 3865SOL    HW112494   4.049   0.837   0.732
 3865SOL    HW212495   4.076   0.977   0.812
 3866SOL     OW12496   4.276   0.033   0.447
 3866SOL    HW112497   4.183   7.025   0.455
 3866SOL    HW212498   4.275   0.132   0.443
 3867SOL     OW12499   0.752   5.624   4.537
 3867SOL    HW112500   0.818   5.640   4.610
 3867SOL    HW212501   0.711   5.534   4.548
 3868SOL     OW12502   2.546   6.524   0.559
 3868SOL    HW112503   2.451   6.536   0.589
 3868SOL    HW212504   2.591   6.455   0.615
 3869SOL     OW12505   6.527   3.790   4.356
 3869SOL    HW112506   6.535   3.809   4.258
 3869SOL    HW212507   6.486   3.869   4.402
 3870SOL     OW12508   5.895   6.812   6.983
 3870SOL    HW112509   5.838   6.741   6.943
 3870SOL    HW212510   5.854   6.902   6.966
 3871SOL     OW12511   4.096   1.136   3.140
 3871SOL    HW112512   4.104   1.038   3.158
 3871SOL    HW212513   4.009   1.155   3.094
 3872SOL     OW12514   3.692   2.973   4.152
 3872SOL    HW112515   3.664   3.036   4.225
 3872SOL    HW212516   3.611   2.940   4.104
 3873SOL     OW12517   6.743   2.906   0.882
 3873SOL    HW112518   6.800   2.963   0.941
 3873SOL    HW212519   6.710   2.961   0.805
 3874SOL     OW12520   4.669   6.223   6.846
 3874SOL    HW112521   4.675   6.287   6.923
 3874SOL    HW212522   4.748   6.161   6.848
 3875SOL     OW12523   2.119   3.063   2.609
 3875SOL    HW112524   2.028   3.100   2.628
 3875SOL    HW212525   2.134   3.061   2.510
 3876SOL     OW12526   4.038   5.754   1.173
 3876SOL    HW112527   3.995   5.819   1.111
 3876SOL    HW212528   3.968   5.709   1.229
 3877SOL     OW12529   5.532   2.929   0.577
 3877SOL    HW112530   5.442   2.959   0.610
 3877SOL    HW212531   5.545   2.833   0.598
 3878SOL     OW12532   3.444   0.397   4.795
 3878SOL    HW112533   3.405   0.472   4.741
 3878SOL    HW212534   3.410   0.310   4.760
 3879SOL     OW12535   5.603   5.089   0.983
 3879SOL    HW112536   5.629   5.149   0.907
 3879SOL    HW212537   5.580   5.145   1.063
 3880SOL     OW12538   5.646   4.779   4.233
 3880SOL    HW112539   5.698   4.695   4.217
 3880SOL    HW212540   5.650   4.802   4.330
 3881SOL     OW12541   1.314   3.227   1.842
 3881SOL    HW112542   1.274   3.289   1.910
 3881SOL    HW212543   1.253   3.149   1.827
 3882SOL     OW12544   1.385   1.101   5.549
 3882SOL    HW112545   1.406   1.194   5.582
 3882SOL    HW212546   1.350   1.047   5.625
 3883SOL     OW12547   4.451   1.026   3.318
 3883SOL    HW112548   4.368   1.077   3.341
 3883SOL    HW212549   4.453   0.941   3.370
 3884SOL     OW12550   0.414   5.619   2.694
 3884SOL    HW112551   0.398   5.531   2.650
 3884SOL    HW212552   0.416   5.607   2.793
 3885SOL     OW12553   6.181   6.665   2.488
 3885SOL    HW112554   6.158   6.670   2.585
 3885SOL    HW212555   6.118   6.722   2.436
 3886SOL     OW12556   5.925   5.577   4.674
 3886SOL    HW112557   5.876   5.498   4.638
 3886SOL    HW212558   5.908   5.656   4.616
 3887SOL     OW12559   0.666   0.293   0.082
 3887SOL    HW112560   0.710   0.339   0.005
 3887SOL    HW212561   0.645   0.360   0.153
 3888SOL     OW12562   6.476   0.664   4.927
 3888SOL    HW112563   6.407   0.681   4.857
 3888SOL    HW212564   6.475   0.567   4.953
 3889SOL     OW12565   0.322   3.691   0.451
 3889SOL    HW112566   0.419   3.713   0.454
 3889SOL    HW212567   0.269   3.772   0.475
 3890SOL     OW12568   5.632   5.872   3.176
 3890SOL    HW112569   5.656   5.926   3.256
 3890SOL    HW212570   5.536   5.847   3.180
 3891SOL     OW12571   5.887   4.721   4.462
 3891SOL    HW112572   5.858   4.655   4.392
 3891SOL    HW212573   5.884   4.678   4.552
 3892SOL     OW12574   6.911   2.382   1.780
 3892SOL    HW112575   6.889   2.315   1.851
 3892SOL    HW212576   7.010   2.397   1.778
 3893SOL     OW12577   4.635   4.573   0.811
 3893SOL    HW112578   4.663   4.653   0.864
 3893SOL    HW212579   4.717   4.525   0.778
 3894SOL     OW12580   3.762   1.674   1.234
 3894SOL    HW112581   3.698   1.597   1.233
 3894SOL    HW212582   3.791   1.691   1.329
 3895SOL     OW12583   1.347   0.697   5.311
 3895SOL    HW112584   1.376   0.601   5.312
 3895SOL    HW212585   1.248   0.702   5.323
 3896SOL     OW12586   0.015   0.817   6.372
 3896SOL    HW112587   6.956   0.765   6.372
 3896SOL    HW212588   0.071   0.790   6.451
 3897SOL     OW12589   3.330   5.235   2.841
 3897SOL    HW112590   3.268   5.211   2.766
 3897SOL    HW212591   3.277   5.276   2.916
 3898SOL     OW12592   3.079   3.521   5.025
 3898SOL    HW112593   3.019   3.546   4.949
 3898SOL    HW212594   3.151   3.590   5.035
 3899SOL     OW12595   5.717   0.302   4.744
 3899SOL    HW112596   5.813   0.298   4.775
 3899SOL    HW212597   5.657   0.300   4.824
 3900SOL     OW12598   4.913   3.463   3.998
 3900SOL    HW112599   4.910   3.505   3.908
 3900SOL    HW212600   4.890   3.366   3.991
 3901SOL     OW12601   2.988   0.165   6.394
 3901SOL    HW112602   2.990   0.140   6.297
 3901SOL    HW212603   3.016   0.261   6.404
 3902SOL     OW12604   5.443   4.036   2.136
 3902SOL    HW112605   5.541   4.055   2.127
 3902SOL    HW212606   5.409   3.995   2.052
 3903SOL     OW12607   3.891   6.083   7.021
 3903SOL    HW112608   3.927   6.176   7.024
 3903SOL    HW212609   3.797   6.084   6.986
 3904SOL     OW12610   2.288   0.641   4.906
 3904SOL    HW112611   2.193   0.672   4.914
 3904SOL    HW212612   2.329   0.682   4.824
 3905SOL     OW12613   6.979   0.074   6.030
 3905SOL    HW112614   6.976   7.026   5.964
 3905SOL    HW212615   6.887   0.112   6.041
 3906SOL     OW12616   3.700   4.911   5.426
 3906SOL    HW112617   3.764   4.862   5.368
 3906SOL    HW212618   3.662   4.989   5.376
 3907SOL     OW12619   5.366   0.303   4.883
 3907SOL    HW112620   5.275   0.341   4.866
 3907SOL    HW212621   5.360   0.204   4.892
 3908SOL     OW12622   0.988   1.132   0.439
 3908SOL    HW112623   1.056   1.193   0.399
 3908SOL    HW212624   0.900   1.147   0.393
 3909SOL     OW12625   0.194   5.462   5.283
 3909SOL    HW112626   0.155   5.434   5.195
 3909SOL    HW212627   0.291   5.435   5.286
 3910SOL     OW12628   3.528   3.834   2.022
 3910SOL    HW112629   3.473   3.915   2.039
 3910SOL    HW212630   3.554   3.792   2.109
 3911SOL     OW12631   4.596   1.322   0.101
 3911SOL    HW112632   4.693   1.316   0.076
 3911SOL    HW212633   4.580   1.407   0.152
 3912SOL     OW12634   3.966   0.177   6.161
 3912SOL    HW112635   3.962   0.165   6.062
 3912SOL    HW212636   3.885   0.137   6.203
 3913SOL     OW12637   2.472   6.409   5.903
 3913SOL    HW112638   2.429   6.368   5.822
 3913SOL    HW212639   2.507   6.336   5.962
 3914SOL     OW12640   4.230   1.061   1.013
 3914SOL    HW112641   4.285   0.977   1.009
 3914SOL    HW212642   4.263   1.118   1.088
 3915SOL     OW12643   3.716   6.283   2.235
 3915SOL    HW112644   3.801   6.241   2.269
 3915SOL    HW212645   3.638   6.236   2.275
 3916SOL     OW12646   1.567   6.125   3.773
 3916SOL    HW112647   1.559   6.138   3.674
 3916SOL    HW212648   1.540   6.208   3.821
 3917SOL     OW12649   1.231   4.828   6.852
 3917SOL    HW112650   1.248   4.866   6.761
 3917SOL    HW212651   1.282   4.880   6.921
 3918SOL     OW12652   4.785   0.360   2.748
 3918SOL    HW112653   4.837   0.275   2.742
 3918SOL    HW212654   4.705   0.346   2.807
 3919SOL     OW12655   2.674   5.755   6.706
 3919SOL    HW112656   2.583   5.766   6.666
 3919SOL    HW212657   2.715   5.845   6.721
 3920SOL     OW12658   2.271   2.746   6.822
 3920SOL    HW112659   2.201   2.706   6.764
 3920SOL    HW212660   2.353   2.763   6.768
 3921SOL     OW12661   6.820   3.093   1.066
 3921SOL    HW112662   6.779   3.040   1.139
 3921SOL    HW212663   6.870   3.170   1.105
 3922SOL     OW12664   5.987   4.437   0.862
 3922SOL    HW112665   6.060   4.484   0.811
 3922SOL    HW212666   6.024   4.357   0.909
 3923SOL     OW12667   6.580   1.891   0.011
 3923SOL    HW112668   6.583   1.849   6.947
 3923SOL    HW212669   6.485   1.906   0.037
 3924SOL     OW12670   0.193   5.537   3.173
 3924SOL    HW112671   0.184   5.527   3.074
 3924SOL    HW212672   0.149   5.459   3.218
 3925SOL     OW12673   3.993   4.676   1.267
 3925SOL    HW112674   3.921   4.707   1.329
 3925SOL    HW212675   3.954   4.614   1.199
 3926SOL     OW12676   6.644   5.672   2.614
 3926SOL    HW112677   6.732   5.710   2.585
 3926SOL    HW212678   6.581   5.747   2.636
 3927SOL     OW12679   6.925   3.765   3.479
 3927SOL    HW112680   7.005   3.743   3.535
 3927SOL    HW212681   6.850   3.705   3.505
 3928SOL     OW12682   2.389   5.481   5.479
 3928SOL    HW112683   2.401   5.461   5.576
 3928SOL    HW212684   2.472   5.523   5.443
 3929SOL     OW12685   0.649   1.952   5.655
 3929SOL    HW112686   0.686   2.003   5.733
 3929SOL    HW212687   0.638   1.856   5.680
 3930SOL     OW12688   2.130   1.599   4.073
 3930SOL    HW112689   2.062   1.598   4.000
 3930SOL    HW212690   2.156   1.693   4.095
 3931SOL     OW12691   1.538   1.987   2.925
 3931SOL    HW112692   1.443   2.019   2.913
 3931SOL    HW212693   1.579   2.036   3.002
 3932SOL     OW12694   1.863   3.813   2.526
 3932SOL    HW112695   1.894   3.718   2.533
 3932SOL    HW212696   1.823   3.841   2.613
 3933SOL     OW12697   2.278   0.107   6.851
 3933SOL    HW112698   2.195   0.143   6.894
 3933SOL    HW212699   2.346   0.180   6.845
 3934SOL     OW12700   6.917   0.793   1.152
 3934SOL    HW112701   6.880   0.884   1.172
 3934SOL    HW212702   6.950   0.790   1.057
 3935SOL     OW12703   2.062   6.875   6.797
 3935SOL    HW112704   2.038   6.950   6.736
 3935SOL    HW212705   2.043   6.901   6.891
 3936SOL     OW12706   0.401   5.107   5.584
 3936SOL    HW112707   0.339   5.037   5.551
 3936SOL    HW212708   0.349   5.189   5.607
 3937SOL     OW12709   6.934   0.478   2.139
 3937SOL    HW112710   6.933   0.427   2.225
 3937SOL    HW212711   7.006   0.442   2.080
 3938SOL     OW12712   6.772   1.947   3.798
 3938SOL    HW112713   6.687   1.894   3.806
 3938SOL    HW212714   6.752   2.037   3.760
 3939SOL     OW12715   3.254   1.766   2.080
 3939SOL    HW112716   3.160   1.799   2.076
 3939SOL    HW212717   3.311   1.819   2.017
 3940SOL     OW12718   4.515   5.383   2.262
 3940SOL    HW112719   4.432   5.341   2.300
 3940SOL    HW212720   4.490   5.448   2.191
 3941SOL     OW12721   5.204   1.354   6.232
 3941SOL    HW112722   5.236   1.307   6.150
 3941SOL    HW212723   5.122   1.308   6.267
 3942SOL     OW12724   0.187   0.141   5.919
 3942SOL    HW112725   0.248   0.190   5.980
 3942SOL    HW212726   0.101   0.121   5.965
 3943SOL     OW12727   1.369   3.695   2.940
 3943SOL    HW112728   1.292   3.733   2.992
 3943SOL    HW212729   1.370   3.596   2.950
 3944SOL     OW12730   5.855   3.787   5.481
 3944SOL    HW112731   5.896   3.757   5.568
 3944SOL    HW212732   5.921   3.772   5.407
 3945SOL     OW12733   0.537   2.246   1.965
 3945SOL    HW112734   0.597   2.195   1.904
 3945SOL    HW212735   0.449   2.198   1.972
 3946SOL     OW12736   6.129   5.049   6.026
 3946SOL    HW112737   6.145   4.965   5.975
 3946SOL    HW212738   6.159   5.127   5.971
 3947SOL     OW12739   6.062   5.131   1.336
 3947SOL    HW112740   6.150   5.158   1.296
 3947SOL    HW212741   6.013   5.072   1.272
 3948SOL     OW12742   0.715   5.226   1.643
 3948SOL    HW112743   0.730   5.129   1.628
 3948SOL    HW212744   0.783   5.261   1.707
 3949SOL     OW12745   5.742   0.479   2.957
 3949SOL    HW112746   5.733   0.546   3.030
 3949SOL    HW212747   5.688   0.508   2.878
 3950SOL     OW12748   2.976   4.179   1.749
 3950SOL    HW112749   3.064   4.210   1.713
 3950SOL    HW212750   2.942   4.246   1.815
 3951SOL     OW12751   0.507   0.031   0.670
 3951SOL    HW112752   0.482   0.046   0.766
 3951SOL    HW212753   0.450   6.985   0.631
 3952SOL     OW12754   6.934   3.993   3.662
 3952SOL    HW112755   6.974   3.953   3.745
 3952SOL    HW212756   6.932   3.925   3.589
 3953SOL     OW12757   3.780   4.551   1.060
 3953SOL    HW112758   3.682   4.531   1.058
 3953SOL    HW212759   3.795   4.650   1.058
 3954SOL     OW12760   5.532   5.548   5.194
 3954SOL    HW112761   5.499   5.512   5.281
 3954SOL    HW212762   5.584   5.477   5.146
 3955SOL     OW12763   3.509   6.261   6.141
 3955SOL    HW112764   3.532   6.327   6.213
 3955SOL    HW212765   3.531   6.169   6.172
 3956SOL     OW12766   0.476   1.243   2.620
 3956SOL    HW112767   0.433   1.329   2.591
 3956SOL    HW212768   0.554   1.263   2.680
 3957SOL     OW12769   5.103   6.541   3.656
 3957SOL    HW112770   5.043   6.546   3.576
 3957SOL    HW212771   5.090   6.453   3.702
 3958SOL     OW12772   5.639   0.382   5.934
 3958SOL    HW112773   5.545   0.411   5.948
 3958SOL    HW212774   5.680   0.435   5.860
 3959SOL     OW12775   3.862   6.345   1.459
 3959SOL    HW112776   3.954   6.384   1.464
 3959SOL    HW212777   3.826   6.355   1.366
 3960SOL     OW12778   4.574   1.560   6.753
 3960SOL    HW112779   4.645   1.615   6.798
 3960SOL    HW212780   4.525   1.617   6.687
 3961SOL     OW12781   5.682   2.583   1.875
 3961SOL    HW112782   5.775   2.558   1.848
 3961SOL    HW212783   5.617   2.529   1.821
 3962SOL     OW12784   1.894   4.692   7.012
 3962SOL    HW112785   1.821   4.662   6.950
 3962SOL    HW212786   1.861   4.688   0.080
 3963SOL     OW12787   4.687   4.241   4.402
 3963SOL    HW112788   4.646   4.186   4.329
 3963SOL    HW212789   4.641   4.330   4.406
 3964SOL     OW12790   4.409   4.935   3.816
 3964SOL    HW112791   4.379   4.853   3.865
 3964SOL    HW212792   4.477   4.984   3.871
 3965SOL     OW12793   4.451   3.137   6.075
 3965SOL    HW112794   4.502   3.147   5.990
 3965SOL    HW212795   4.512   3.103   6.147
 3966SOL     OW12796   5.432   5.783   0.442
 3966SOL    HW112797   5.348   5.837   0.449
 3966SOL    HW212798   5.496   5.812   0.513
 3967SOL     OW12799   1.332   4.145   2.438
 3967SOL    HW112800   1.282   4.186   2.514
 3967SOL    HW212801   1.397   4.212   2.401
 3968SOL     OW12802   6.000   6.981   1.226
 3968SOL    HW112803   6.013   0.029   1.292
 3968SOL    HW212804   6.086   6.964   1.178
 3969SOL     OW12805   1.681   3.658   2.821
 3969SOL    HW112806   1.704   3.755   2.819
 3969SOL    HW212807   1.746   3.610   2.880
 3970SOL     OW12808   5.831   5.497   4.030
 3970SOL    HW112809   5.802   5.405   4.057
 3970SOL    HW212810   5.900   5.490   3.958
 3971SOL     OW12811   2.724   5.327   1.764
 3971SOL    HW112812   2.813   5.341   1.808
 3971SOL    HW212813   2.721   5.235   1.724
 3972SOL     OW12814   1.086   5.630   0.745
 3972SOL    HW112815   1.078   5.656   0.649
 3972SOL    HW212816   1.046   5.701   0.803
 3973SOL     OW12817   0.818   4.362   5.977
 3973SOL    HW112818   0.900   4.419   5.975
 3973SOL    HW212819   0.738   4.417   5.953
 3974SOL     OW12820   1.437   0.811   4.789
 3974SOL    HW112821   1.374   0.800   4.866
 3974SOL    HW212822   1.421   0.739   4.722
 3975SOL     OW12823   5.302   0.042   5.895
 3975SOL    HW112824   5.370   0.026   5.966
 3975SOL    HW212825   5.227   7.003   5.906
 3976SOL     OW12826   1.551   5.378   1.683
 3976SOL    HW112827   1.628   5.368   1.746
 3976SOL    HW212828   1.545   5.473   1.653
 3977SOL     OW12829   2.691   4.328   5.891
 3977SOL    HW112830   2.694   4.259   5.963
 3977SOL    HW212831   2.733   4.291   5.807
 3978SOL     OW12832   5.363   6.741   4.881
 3978SOL    HW112833   5.449   6.719   4.836
 3978SOL    HW212834   5.323   6.658   4.920
 3979SOL     OW12835   2.703   5.667   1.759
 3979SOL    HW112836   2.709   5.612   1.676
 3979SOL    HW212837   2.617   5.717   1.760
 3980SOL     OW12838   0.294   6.159   6.185
 3980SOL    HW112839   0.265   6.117   6.099
 3980SOL    HW212840   0.277   6.257   6.183
 3981SOL     OW12841   2.031   1.752   6.986
 3981SOL    HW112842   2.129   1.735   6.991
 3981SOL    HW212843   1.989   1.688   6.921
 3982SOL     OW12844   2.263   0.423   4.203
 3982SOL    HW112845   2.271   0.336   4.155
 3982SOL    HW212846   2.230   0.493   4.140
 3983SOL     OW12847   4.520   5.262   4.184
 3983SOL    HW112848   4.570   5.264   4.098
 3983SOL    HW212849   4.433   5.215   4.171
 3984SOL     OW12850   0.839   0.601   2.672
 3984SOL    HW112851   0.772   0.623   2.743
 3984SOL    HW212852   0.806   0.525   2.616
 3985SOL     OW12853   3.772   4.810   6.239
 3985SOL    HW112854   3.836   4.776   6.170
 3985SOL    HW212855   3.737   4.899   6.211
 3986SOL     OW12856   6.461   1.900   2.651
 3986SOL    HW112857   6.436   1.972   2.715
 3986SOL    HW212858   6.555   1.914   2.620
 3987SOL     OW12859   2.946   5.230   4.324
 3987SOL    HW112860   2.906   5.202   4.411
 3987SOL    HW212861   3.044   5.209   4.324
 3988SOL     OW12862   4.000   3.549   6.869
 3988SOL    HW112863   3.937   3.590   6.803
 3988SOL    HW212864   3.975   3.578   6.962
 3989SOL     OW12865   6.874   1.915   0.120
 3989SOL    HW112866   6.941   1.931   0.048
 3989SOL    HW212867   6.786   1.889   0.080
 3990SOL     OW12868   5.574   2.488   2.646
 3990SOL    HW112869   5.585   2.389   2.653
 3990SOL    HW212870   5.653   2.533   2.688
 3991SOL     OW12871   5.799   1.647   2.009
 3991SOL    HW112872   5.899   1.657   2.002
 3991SOL    HW212873   5.755   1.720   1.956
 3992SOL     OW12874   3.229   2.129   6.828
 3992SOL    HW112875   3.196   2.096   6.917
 3992SOL    HW212876   3.225   2.228   6.825
 3993SOL     OW12877   0.464   2.449   3.433
 3993SOL    HW112878   0.535   2.459   3.363
 3993SOL    HW212879   0.375   2.475   3.394
 3994SOL     OW12880   0.542   1.221   6.463
 3994SOL    HW112881   0.556   1.275   6.380
 3994SOL    HW212882   0.565   1.276   6.543
 3995SOL     OW12883   1.556   4.076   4.434
 3995SOL    HW112884   1.613   4.036   4.362
 3995SOL    HW212885   1.575   4.174   4.441
 3996SOL     OW12886   1.137   1.266   4.305
 3996SOL    HW112887   1.106   1.184   4.355
 3996SOL    HW212888   1.226   1.295   4.341
 3997SOL     OW12889   5.273   1.921   3.353
 3997SOL    HW112890   5.248   2.013   3.321
 3997SOL    HW212891   5.316   1.871   3.278
 3998SOL     OW12892   3.876   1.198   2.719
 3998SOL    HW112893   3.802   1.166   2.778
 3998SOL    HW212894   3.857   1.171   2.624
 3999SOL     OW12895   5.374   3.316   3.922
 3999SOL    HW112896   5.374   3.216   3.930
 3999SOL    HW212897   5.283   3.348   3.899
 4000SOL     OW12898   2.972   5.334   3.228
 4000SOL    HW112899   3.056   5.321   3.174
 4000SOL    HW212900   2.981   5.417   3.283
 4001SOL     OW12901   2.568   1.833   4.073
 4001SOL    HW112902   2.544   1.760   4.137
 4001SOL    HW212903   2.514   1.825   3.990
 4002SOL     OW12904   2.882   2.676   0.316
 4002SOL    HW112905   2.980   2.657   0.312
 4002SOL    HW212906   2.863   2.738   0.392
 4003SOL     OW12907   2.991   5.931   4.904
 4003SOL    HW112908   2.971   6.011   4.848
 4003SOL    HW212909   3.064   5.954   4.970
 4004SOL     OW12910   5.746   2.400   3.691
 4004SOL    HW112911   5.683   2.341   3.641
 4004SOL    HW212912   5.761   2.363   3.782
 4005SOL     OW12913   5.295   5.929   1.078
 4005SOL    HW112914   5.348   6.012   1.058
 4005SOL    HW212915   5.352   5.849   1.062
 4006SOL     OW12916   3.624   5.072   2.888
 4006SOL    HW112917   3.584   5.122   2.965
 4006SOL    HW212918   3.572   5.090   2.805
 4007SOL     OW12919   1.168   2.727   1.650
 4007SOL    HW112920   1.257   2.688   1.674
 4007SOL    HW212921   1.113   2.658   1.602
 4008SOL     OW12922   3.237   2.189   4.206
 4008SOL    HW112923   3.157   2.236   4.244
 4008SOL    HW212924   3.218   2.092   4.197
 4009SOL     OW12925   5.147   3.311   0.484
 4009SOL    HW112926   5.077   3.302   0.413
 4009SOL    HW212927   5.226   3.253   0.460
 4010SOL     OW12928   2.132   3.083   1.822
 4010SOL    HW112929   2.159   2.996   1.780
 4010SOL    HW212930   2.205   3.150   1.809
 4011SOL     OW12931   0.349   0.743   2.008
 4011SOL    HW112932   0.422   0.741   2.076
 4011SOL    HW212933   0.389   0.750   1.916
 4012SOL     OW12934   4.048   5.690   1.696
 4012SOL    HW112935   4.037   5.611   1.635
 4012SOL    HW212936   3.980   5.686   1.769
 4013SOL     OW12937   3.259   6.831   0.202
 4013SOL    HW112938   3.320   6.757   0.232
 4013SOL    HW212939   3.233   6.886   0.281
 4014SOL     OW12940   3.841   5.960   3.279
 4014SOL    HW112941   3.911   6.003   3.337
 4014SOL    HW212942   3.761   5.939   3.335
 4015SOL     OW12943   4.698   5.626   6.415
 4015SOL    HW112944   4.644   5.629   6.332
 4015SOL    HW212945   4.670   5.700   6.476
 4016SOL     OW12946   2.046   6.121   6.759
 4016SOL    HW112947   1.954   6.131   6.721
 4016SOL    HW212948   2.046   6.048   6.827
 4017SOL     OW12949   0.224   6.398   1.105
 4017SOL    HW112950   0.158   6.322   1.104
 4017SOL    HW212951   0.295   6.381   1.037
 4018SOL     OW12952   4.869   6.182   3.123
 4018SOL    HW112953   4.898   6.147   3.033
 4018SOL    HW212954   4.906   6.273   3.137
 4019SOL     OW12955   5.655   3.694   2.746
 4019SOL    HW112956   5.620   3.710   2.838
 4019SOL    HW212957   5.584   3.717   2.679
 4020SOL     OW12958   5.490   2.333   5.929
 4020SOL    HW112959   5.477   2.430   5.908
 4020SOL    HW212960   5.525   2.286   5.847
 4021SOL     OW12961   3.576   3.026   5.995
 4021SOL    HW112962   3.588   3.092   5.921
 4021SOL    HW212963   3.487   2.980   5.986
 4022SOL     OW12964   4.398   0.519   0.330
 4022SOL    HW112965   4.365   0.459   0.403
 4022SOL    HW212966   4.455   0.466   0.267
 4023SOL     OW12967   6.562   1.542   5.446
 4023SOL    HW112968   6.486   1.585   5.398
 4023SOL    HW212969   6.584   1.455   5.403
 4024SOL     OW12970   3.205   5.855   4.139
 4024SOL    HW112971   3.218   5.944   4.182
 4024SOL    HW212972   3.216   5.783   4.207
 4025SOL     OW12973   0.951   6.407   4.411
 4025SOL    HW112974   0.879   6.381   4.347
 4025SOL    HW212975   1.025   6.340   4.407
 4026SOL     OW12976   6.324   5.989   4.273
 4026SOL    HW112977   6.236   5.993   4.320
 4026SOL    HW212978   6.364   5.898   4.287
 4027SOL     OW12979   3.817   3.992   2.075
 4027SOL    HW112980   3.725   3.960   2.054
 4027SOL    HW212981   3.884   3.935   2.027
 4028SOL     OW12982   1.377   2.506   3.934
 4028SOL    HW112983   1.381   2.587   3.875
 4028SOL    HW212984   1.303   2.517   4.000
 4029SOL     OW12985   1.962   4.035   6.746
 4029SOL    HW112986   1.868   4.023   6.714
 4029SOL    HW212987   1.979   4.132   6.763
 4030SOL     OW12988   1.403   1.929   5.970
 4030SOL    HW112989   1.358   1.934   6.059
 4030SOL    HW212990   1.342   1.884   5.905
 4031SOL     OW12991   4.627   6.064   2.969
 4031SOL    HW112992   4.723   6.082   2.945
 4031SOL    HW212993   4.618   5.972   3.005
 4032SOL     OW12994   5.931   0.259   3.015
 4032SOL    HW112995   5.921   0.170   2.969
 4032SOL    HW212996   5.861   0.322   2.980
 4033SOL     OW12997   3.043   3.611   2.998
 4033SOL    HW112998   2.989   3.554   2.936
 4033SOL    HW212999   3.025   3.708   2.979
 4034SOL     OW13000   5.978   1.833   5.097
 4034SOL    HW113001   5.908   1.863   5.162
 4034SOL    HW213002   5.958   1.739   5.068
 4035SOL     OW13003   6.600   3.260   1.006
 4035SOL    HW113004   6.688   3.213   1.004
 4035SOL    HW213005   6.531   3.204   0.960
 4036SOL     OW13006   5.507   6.792   2.793
 4036SOL    HW113007   5.596   6.832   2.771
 4036SOL    HW213008   5.503   6.698   2.760
 4037SOL     OW13009   1.763   1.916   0.844
 4037SOL    HW113010   1.803   1.881   0.929
 4037SOL    HW213011   1.832   1.911   0.771
 4038SOL     OW13012   5.004   4.929   1.727
 4038SOL    HW113013   5.059   5.001   1.683
 4038SOL    HW213014   4.919   4.917   1.676
 4039SOL     OW13015   5.198   5.270   1.197
 4039SOL    HW113016   5.143   5.256   1.114
 4039SOL    HW213017   5.180   5.361   1.234
 4040SOL     OW13018   2.766   6.680   0.078
 4040SOL    HW113019   2.812   6.648   0.161
 4040SOL    HW213020   2.761   6.605   0.012
 4041SOL     OW13021   1.610   5.577   1.906
 4041SOL    HW113022   1.667   5.496   1.894
 4041SOL    HW213023   1.664   5.650   1.946
 4042SOL     OW13024   6.535   4.448   3.089
 4042SOL    HW113025   6.485   4.364   3.069
 4042SOL    HW213026   6.615   4.454   3.029
 4043SOL     OW13027   5.355   2.531   4.701
 4043SOL    HW113028   5.353   2.611   4.760
 4043SOL    HW213029   5.288   2.542   4.628
 4044SOL     OW13030   4.865   0.563   4.450
 4044SOL    HW113031   4.940   0.628   4.440
 4044SOL    HW213032   4.800   0.575   4.374
 4045SOL     OW13033   2.885   4.435   6.309
 4045SOL    HW113034   2.798   4.472   6.276
 4045SOL    HW213035   2.876   4.407   6.404
 4046SOL     OW13036   0.853   1.889   3.705
 4046SOL    HW113037   0.802   1.953   3.649
 4046SOL    HW213038   0.896   1.820   3.647
 4047SOL     OW13039   3.047   2.313   0.742
 4047SOL    HW113040   2.993   2.278   0.818
 4047SOL    HW213041   3.057   2.412   0.750
 4048SOL     OW13042   5.730   1.150   1.355
 4048SOL    HW113043   5.632   1.130   1.356
 4048SOL    HW213044   5.743   1.249   1.347
 4049SOL     OW13045   6.135   6.481   6.628
 4049SOL    HW113046   6.133   6.581   6.633
 4049SOL    HW213047   6.230   6.450   6.633
 4050SOL     OW13048   1.652   6.452   0.664
 4050SOL    HW113049   1.654   6.537   0.718
 4050SOL    HW213050   1.609   6.380   0.718
 4051SOL     OW13051   3.531   3.353   0.004
 4051SOL    HW113052   3.469   3.333   0.079
 4051SOL    HW213053   3.625   3.359   0.039
 4052SOL     OW13054   0.988   0.364   1.343
 4052SOL    HW113055   0.958   0.458   1.360
 4052SOL    HW213056   1.082   0.353   1.376
 4053SOL     OW13057   3.201   5.129   4.305
 4053SOL    HW113058   3.241   5.220   4.314
 4053SOL    HW213059   3.221   5.093   4.214
 4054SOL     OW13060   2.137   2.441   1.135
 4054SOL    HW113061   2.215   2.381   1.122
 4054SOL    HW213062   2.169   2.535   1.148
 4055SOL     OW13063   3.004   2.939   5.294
 4055SOL    HW113064   3.049   3.008   5.350
 4055SOL    HW213065   3.073   2.879   5.253
 4056SOL     OW13066   4.254   3.042   6.720
 4056SOL    HW113067   4.266   3.044   6.820
 4056SOL    HW213068   4.160   3.015   6.698
 4057SOL     OW13069   5.127   2.793   0.501
 4057SOL    HW113070   5.088   2.877   0.463
 4057SOL    HW213071   5.192   2.815   0.573
 4058SOL     OW13072   1.141   1.466   4.037
 4058SOL    HW113073   1.215   1.469   4.105
 4058SOL    HW213074   1.070   1.403   4.069
 4059SOL     OW13075   2.173   2.230   2.798
 4059SOL    HW113076   2.133   2.146   2.834
 4059SOL    HW213077   2.122   2.309   2.833
 4060SOL     OW13078   4.273   4.761   5.438
 4060SOL    HW113079   4.312   4.720   5.520
 4060SOL    HW213080   4.221   4.691   5.387
 4061SOL     OW13081   3.386   4.451   1.544
 4061SOL    HW113082   3.439   4.453   1.629
 4061SOL    HW213083   3.441   4.410   1.471
 4062SOL     OW13084   4.017   1.606   3.302
 4062SOL    HW113085   4.074   1.659   3.239
 4062SOL    HW213086   3.995   1.518   3.260
 4063SOL     OW13087   4.378   6.687   5.238
 4063SOL    HW113088   4.352   6.696   5.142
 4063SOL    HW213089   4.472   6.720   5.250
 4064SOL     OW13090   2.445   6.669   2.741
 4064SOL    HW113091   2.460   6.759   2.701
 4064SOL    HW213092   2.473   6.670   2.837
 4065SOL     OW13093   1.348   6.566   0.505
 4065SOL    HW113094   1.362   6.641   0.569
 4065SOL    HW213095   1.421   6.566   0.437
 4066SOL     OW13096   5.529   4.770   2.440
 4066SOL    HW113097   5.596   4.747   2.369
 4066SOL    HW213098   5.452   4.707   2.434
 4067SOL     OW13099   6.151   2.742   2.476
 4067SOL    HW113100   6.109   2.752   2.386
 4067SOL    HW213101   6.222   2.812   2.488
 4068SOL     OW13102   4.609   0.305   4.693
 4068SOL    HW113103   4.536   0.348   4.641
 4068SOL    HW213104   4.581   0.296   4.789
 4069SOL     OW13105   4.513   3.478   6.915
 4069SOL    HW113106   4.452   3.522   6.981
 4069SOL    HW213107   4.469   3.396   6.878
 4070SOL     OW13108   1.814   3.421   2.960
 4070SOL    HW113109   1.764   3.431   3.046
 4070SOL    HW213110   1.911   3.437   2.977
 4071SOL     OW13111   1.316   1.157   5.100
 4071SOL    HW113112   1.414   1.167   5.116
 4071SOL    HW213113   1.279   1.089   5.164
 4072SOL     OW13114   1.641   6.637   4.328
 4072SOL    HW113115   1.702   6.564   4.298
 4072SOL    HW213116   1.660   6.720   4.276
 4073SOL     OW13117   2.588   5.668   6.134
 4073SOL    HW113118   2.673   5.719   6.145
 4073SOL    HW213119   2.600   5.576   6.172
 4074SOL     OW13120   1.284   2.775   1.976
 4074SOL    HW113121   1.341   2.855   1.991
 4074SOL    HW213122   1.339   2.692   1.985
 4075SOL     OW13123   4.856   2.555   3.002
 4075SOL    HW113124   4.771   2.575   2.953
 4075SOL    HW213125   4.923   2.627   2.984
 4076SOL     OW13126   2.447   3.797   5.638
 4076SOL    HW113127   2.515   3.744   5.588
 4076SOL    HW213128   2.358   3.751   5.633
 4077SOL     OW13129   2.875   6.166   0.940
 4077SOL    HW113130   2.939   6.090   0.950
 4077SOL    HW213131   2.917   6.249   0.977
 4078SOL     OW13132   6.559   5.562   1.746
 4078SOL    HW113133   6.524   5.530   1.834
 4078SOL    HW213134   6.483   5.574   1.683
 4079SOL     OW13135   1.374   0.825   3.018
 4079SOL    HW113136   1.396   0.922   3.011
 4079SOL    HW213137   1.459   0.771   3.024
 4080SOL     OW13138   2.472   3.041   6.695
 4080SOL    HW113139   2.556   3.067   6.649
 4080SOL    HW213140   2.394   3.059   6.635
 4081SOL     OW13141   1.793   1.089   4.462
 4081SOL    HW113142   1.707   1.037   4.470
 4081SOL    HW213143   1.776   1.174   4.414
 4082SOL     OW13144   1.639   1.821   7.024
 4082SOL    HW113145   1.578   1.887   0.040
 4082SOL    HW213146   1.637   1.833   6.924
 4083SOL     OW13147   5.830   4.034   3.402
 4083SOL    HW113148   5.925   4.002   3.403
 4083SOL    HW213149   5.781   3.990   3.327
 4084SOL     OW13150   4.938   3.024   2.938
 4084SOL    HW113151   4.890   3.076   3.009
 4084SOL    HW213152   5.036   3.024   2.957
 4085SOL     OW13153   2.948   5.161   1.350
 4085SOL    HW113154   2.995   5.153   1.262
 4085SOL    HW213155   2.995   5.104   1.417
 4086SOL     OW13156   0.091   4.701   0.860
 4086SOL    HW113157   0.126   4.708   0.953
 4086SOL    HW213158   0.134   4.772   0.803
 4087SOL     OW13159   2.578   1.371   2.560
 4087SOL    HW113160   2.532   1.395   2.646
 4087SOL    HW213161   2.626   1.451   2.524
 4088SOL     OW13162   6.245   1.149   5.726
 4088SOL    HW113163   6.309   1.120   5.797
 4088SOL    HW213164   6.186   1.072   5.701
 4089SOL     OW13165   0.255   5.611   4.447
 4089SOL    HW113166   0.278   5.529   4.499
 4089SOL    HW213167   0.182   5.661   4.494
 4090SOL     OW13168   1.768   5.998   5.178
 4090SOL    HW113169   1.829   5.924   5.206
 4090SOL    HW213170   1.818   6.064   5.123
 4091SOL     OW13171   0.969   5.348   0.258
 4091SOL    HW113172   0.915   5.275   0.215
 4091SOL    HW213173   0.982   5.327   0.355
 4092SOL     OW13174   4.996   2.882   4.157
 4092SOL    HW113175   5.039   2.969   4.181
 4092SOL    HW213176   4.957   2.889   4.065
 4093SOL     OW13177   5.662   5.984   1.547
 4093SOL    HW113178   5.607   6.031   1.617
 4093SOL    HW213179   5.654   5.885   1.558
 4094SOL     OW13180   0.999   4.540   0.098
 4094SOL    HW113181   1.022   4.636   0.081
 4094SOL    HW213182   0.899   4.530   0.095
 4095SOL     OW13183   0.827   3.316   0.241
 4095SOL    HW113184   0.903   3.381   0.250
 4095SOL    HW213185   0.794   3.316   0.147
 4096SOL     OW13186   2.256   0.750   6.442
 4096SOL    HW113187   2.266   0.834   6.496
 4096SOL    HW213188   2.335   0.741   6.382
 4097SOL     OW13189   5.728   4.377   5.354
 4097SOL    HW113190   5.662   4.344   5.423
 4097SOL    HW213191   5.805   4.420   5.400
 4098SOL     OW13192   2.162   2.762   1.409
 4098SOL    HW113193   2.075   2.790   1.368
 4098SOL    HW213194   2.200   2.685   1.358
 4099SOL     OW13195   3.614   5.141   0.103
 4099SOL    HW113196   3.652   5.166   0.014
 4099SOL    HW213197   3.563   5.055   0.094
 4100SOL     OW13198   1.274   0.806   3.881
 4100SOL    HW113199   1.247   0.837   3.789
 4100SOL    HW213200   1.244   0.873   3.949
 4101SOL     OW13201   0.053   1.095   6.343
 4101SOL    HW113202   0.030   0.999   6.329
 4101SOL    HW213203   0.152   1.108   6.334
 4102SOL     OW13204   2.034   1.002   0.759
 4102SOL    HW113205   2.093   1.015   0.839
 4102SOL    HW213206   1.987   1.087   0.738
 4103SOL     OW13207   0.218   6.976   2.023
 4103SOL    HW113208   0.151   6.944   1.956
 4103SOL    HW213209   0.286   6.905   2.038
 4104SOL     OW13210   0.074   5.061   3.417
 4104SOL    HW113211   0.097   5.019   3.504
 4104SOL    HW213212   7.002   5.074   3.411
 4105SOL     OW13213   4.851   1.561   1.937
 4105SOL    HW113214   4.763   1.526   1.970
 4105SOL    HW213215   4.925   1.525   1.994
 4106SOL     OW13216   0.418   2.215   3.798
 4106SOL    HW113217   0.371   2.289   3.749
 4106SOL    HW213218   0.377   2.202   3.888
 4107SOL     OW13219   0.161   6.154   6.710
 4107SOL    HW113220   0.157   6.142   6.611
 4107SOL    HW213221   0.102   6.230   6.737
 4108SOL     OW13222   0.399   5.849   4.705
 4108SOL    HW113223   0.394   5.788   4.784
 4108SOL    HW213224   0.348   5.808   4.629
 4109SOL     OW13225   5.484   6.527   3.938
 4109SOL    HW113226   5.415   6.456   3.953
 4109SOL    HW213227   5.441   6.617   3.942
 4110SOL     OW13228   4.148   3.386   6.593
 4110SOL    HW113229   4.190   3.475   6.611
 4110SOL    HW213230   4.103   3.353   6.675
 4111SOL     OW13231   5.839   5.280   6.290
 4111SOL    HW113232   5.828   5.300   6.193
 4111SOL    HW213233   5.776   5.206   6.316
 4112SOL     OW13234   5.161   6.802   4.712
 4112SOL    HW113235   5.235   6.777   4.775
 4112SOL    HW213236   5.196   6.805   4.618
 4113SOL     OW13237   4.841   5.547   4.454
 4113SOL    HW113238   4.824   5.505   4.543
 4113SOL    HW213239   4.774   5.513   4.387
 4114SOL     OW13240   6.319   1.229   3.134
 4114SOL    HW113241   6.307   1.141   3.182
 4114SOL    HW213242   6.409   1.231   3.091
 4115SOL     OW13243   2.547   4.875   3.553
 4115SOL    HW113244   2.636   4.880   3.597
 4115SOL    HW213245   2.515   4.780   3.552
 4116SOL     OW13246   4.907   2.637   3.506
 4116SOL    HW113247   4.967   2.615   3.428
 4116SOL    HW213248   4.813   2.642   3.474
 4117SOL     OW13249   1.619   2.120   3.170
 4117SOL    HW113250   1.522   2.141   3.175
 4117SOL    HW213251   1.648   2.072   3.253
 4118SOL     OW13252   6.059   6.635   5.977
 4118SOL    HW113253   6.116   6.553   5.970
 4118SOL    HW213254   6.039   6.670   5.885
 4119SOL     OW13255   3.038   1.153   3.344
 4119SOL    HW113256   3.125   1.107   3.327
 4119SOL    HW213257   3.022   1.221   3.272
 4120SOL     OW13258   3.770   1.246   6.396
 4120SOL    HW113259   3.847   1.299   6.431
 4120SOL    HW213260   3.802   1.158   6.363
 4121SOL     OW13261   6.652   6.953   2.651
 4121SOL    HW113262   6.614   7.020   2.588
 4121SOL    HW213263   6.624   6.861   2.622
 4122SOL     OW13264   1.412   0.082   4.790
 4122SOL    HW113265   1.419   0.161   4.728
 4122SOL    HW213266   1.475   0.094   4.866
 4123SOL     OW13267   3.936   4.895   4.141
 4123SOL    HW113268   3.987   4.899   4.227
 4123SOL    HW213269   3.846   4.937   4.154
 4124SOL     OW13270   6.820   6.452   0.993
 4124SOL    HW113271   6.892   6.521   0.993
 4124SOL    HW213272   6.806   6.419   1.086
 4125SOL     OW13273   4.518   2.478   2.708
 4125SOL    HW113274   4.557   2.531   2.634
 4125SOL    HW213275   4.512   2.382   2.681
 4126SOL     OW13276   1.895   3.224   2.517
 4126SOL    HW113277   1.836   3.209   2.438
 4126SOL    HW213278   1.839   3.255   2.595
 4127SOL     OW13279   5.147   2.486   5.123
 4127SOL    HW113280   5.234   2.443   5.096
 4127SOL    HW213281   5.156   2.585   5.116
 4128SOL     OW13282   0.876   3.053   1.524
 4128SOL    HW113283   0.951   3.013   1.471
 4128SOL    HW213284   0.805   3.085   1.461
 4129SOL     OW13285   3.426   1.246   0.273
 4129SOL    HW113286   3.504   1.308   0.281
 4129SOL    HW213287   3.360   1.266   0.345
 4130SOL     OW13288   6.159   2.318   0.236
 4130SOL    HW113289   6.252   2.302   0.270
 4130SOL    HW213290   6.162   2.335   0.138
 4131SOL     OW13291   6.873   1.140   2.787
 4131SOL    HW113292   6.893   1.230   2.826
 4131SOL    HW213293   6.954   1.083   2.793
 4132SOL     OW13294   5.469   4.091   4.327
 4132SOL    HW113295   5.401   4.163   4.339
 4132SOL    HW213296   5.431   4.003   4.354
 4133SOL     OW13297   4.126   6.450   1.460
 4133SOL    HW113298   4.193   6.431   1.388
 4133SOL    HW213299   4.168   6.507   1.530
 4134SOL     OW13300   2.314   3.072   0.794
 4134SOL    HW113301   2.337   3.169   0.787
 4134SOL    HW213302   2.394   3.021   0.825
 4135SOL     OW13303   0.043   2.606   2.508
 4135SOL    HW113304   7.003   2.623   2.435
 4135SOL    HW213305   0.009   2.534   2.569
 4136SOL     OW13306   1.445   3.802   1.899
 4136SOL    HW113307   1.529   3.809   1.847
 4136SOL    HW213308   1.441   3.876   1.967
 4137SOL     OW13309   1.071   3.022   6.803
 4137SOL    HW113310   1.033   3.095   6.745
 4137SOL    HW213311   1.170   3.031   6.807
 4138SOL     OW13312   3.732   5.324   1.606
 4138SOL    HW113313   3.792   5.253   1.643
 4138SOL    HW213314   3.642   5.284   1.586
 4139SOL     OW13315   1.434   1.459   3.588
 4139SOL    HW113316   1.400   1.450   3.681
 4139SOL    HW213317   1.443   1.368   3.547
 4140SOL     OW13318   3.037   1.911   3.992
 4140SOL    HW113319   3.079   1.912   4.083
 4140SOL    HW213320   2.942   1.943   3.999
 4141SOL     OW13321   5.251   6.815   0.745
 4141SOL    HW113322   5.318   6.822   0.819
 4141SOL    HW213323   5.199   6.900   0.739
 4142SOL     OW13324   6.305   4.039   1.526
 4142SOL    HW113325   6.211   4.064   1.503
 4142SOL    HW213326   6.366   4.062   1.450
 4143SOL     OW13327   5.347   3.164   0.348
 4143SOL    HW113328   5.296   3.103   0.409
 4143SOL    HW213329   5.364   3.119   0.261
 4144SOL     OW13330   5.175   1.388   0.045
 4144SOL    HW113331   5.275   1.392   0.041
 4144SOL    HW213332   5.147   1.299   0.080
 4145SOL     OW13333   0.810   6.382   0.294
 4145SOL    HW113334   0.831   6.289   0.266
 4145SOL    HW213335   0.892   6.439   0.285
 4146SOL     OW13336   6.679   0.878   3.365
 4146SOL    HW113337   6.755   0.936   3.335
 4146SOL    HW213338   6.672   0.799   3.304
 4147SOL     OW13339   4.794   4.403   6.198
 4147SOL    HW113340   4.846   4.324   6.164
 4147SOL    HW213341   4.848   4.450   6.268
 4148SOL     OW13342   3.047   0.479   5.698
 4148SOL    HW113343   3.005   0.563   5.732
 4148SOL    HW213344   3.044   0.408   5.768
 4149SOL     OW13345   0.585   3.692   1.686
 4149SOL    HW113346   0.633   3.640   1.757
 4149SOL    HW213347   0.516   3.633   1.643
 4150SOL     OW13348   0.003   1.931   5.309
 4150SOL    HW113349   6.982   1.844   5.296
 4150SOL    HW213350   0.048   1.957   5.223
 4151SOL     OW13351   1.910   6.786   6.324
 4151SOL    HW113352   2.002   6.789   6.286
 4151SOL    HW213353   1.903   6.850   6.400
 4152SOL     OW13354   3.854   5.657   1.870
 4152SOL    HW113355   3.915   5.603   1.929
 4152SOL    HW213356   3.762   5.620   1.876
 4153SOL     OW13357   6.452   5.195   1.661
 4153SOL    HW113358   6.451   5.232   1.568
 4153SOL    HW213359   6.467   5.270   1.726
 4154SOL     OW13360   0.494   5.874   3.965
 4154SOL    HW113361   0.507   5.945   4.034
 4154SOL    HW213362   0.430   5.805   4.000
 4155SOL     OW13363   0.189   1.660   1.360
 4155SOL    HW113364   0.221   1.747   1.395
 4155SOL    HW213365   0.248   1.630   1.286
 4156SOL     OW13366   6.577   5.596   5.077
 4156SOL    HW113367   6.488   5.619   5.117
 4156SOL    HW213368   6.634   5.678   5.073
 4157SOL     OW13369   5.467   6.216   3.613
 4157SOL    HW113370   5.454   6.248   3.519
 4157SOL    HW213371   5.545   6.263   3.654
 4158SOL     OW13372   1.648   2.741   2.418
 4158SOL    HW113373   1.618   2.656   2.460
 4158SOL    HW213374   1.720   2.721   2.351
 4159SOL     OW13375   2.590   2.508   3.821
 4159SOL    HW113376   2.562   2.577   3.754
 4159SOL    HW213377   2.540   2.423   3.804
 4160SOL     OW13378   5.754   7.003   6.841
 4160SOL    HW113379   5.851   7.021   6.826
 4160SOL    HW213380   5.700   0.043   6.790
 4161SOL     OW13381   2.033   1.684   1.976
 4161SOL    HW113382   1.977   1.720   1.902
 4161SOL    HW213383   1.982   1.689   2.062
 4162SOL     OW13384   6.158   5.600   0.928
 4162SOL    HW113385   6.196   5.689   0.952
 4162SOL    HW213386   6.088   5.611   0.858
 4163SOL     OW13387   6.168   1.419   3.232
 4163SOL    HW113388   6.076   1.385   3.212
 4163SOL    HW213389   6.236   1.364   3.183
 4164SOL     OW13390   0.799   7.023   5.453
 4164SOL    HW113391   0.800   7.004   5.552
 4164SOL    HW213392   0.893   0.005   5.421
 4165SOL     OW13393   4.941   0.597   5.354
 4165SOL    HW113394   4.985   0.645   5.430
 4165SOL    HW213395   4.865   0.652   5.319
 4166SOL     OW13396   5.256   1.224   1.576
 4166SOL    HW113397   5.211   1.312   1.591
 4166SOL    HW213398   5.195   1.164   1.525
 4167SOL     OW13399   3.473   4.993   6.509
 4167SOL    HW113400   3.450   5.033   6.598
 4167SOL    HW213401   3.567   5.018   6.485
 4168SOL     OW13402   0.151   4.449   1.150
 4168SOL    HW113403   0.160   4.403   1.062
 4168SOL    HW213404   0.207   4.402   1.218
 4169SOL     OW13405   5.839   4.136   4.819
 4169SOL    HW113406   5.918   4.119   4.878
 4169SOL    HW213407   5.771   4.064   4.834
 4170SOL     OW13408   5.197   3.161   5.129
 4170SOL    HW113409   5.189   3.206   5.217
 4170SOL    HW213410   5.286   3.116   5.122
 4171SOL     OW13411   0.222   5.148   0.974
 4171SOL    HW113412   0.125   5.161   0.996
 4171SOL    HW213413   0.231   5.075   0.906
 4172SOL     OW13414   2.694   2.500   0.243
 4172SOL    HW113415   2.714   2.485   0.146
 4172SOL    HW213416   2.767   2.554   0.284
 4173SOL     OW13417   5.396   3.737   5.175
 4173SOL    HW113418   5.428   3.700   5.088
 4173SOL    HW213419   5.307   3.699   5.197
 4174SOL     OW13420   5.047   1.435   2.100
 4174SOL    HW113421   5.015   1.351   2.143
 4174SOL    HW213422   5.081   1.497   2.170
 4175SOL     OW13423   1.672   4.506   4.716
 4175SOL    HW113424   1.670   4.481   4.812
 4175SOL    HW213425   1.688   4.604   4.707
 4176SOL     OW13426   4.165   6.796   1.175
 4176SOL    HW113427   4.247   6.746   1.204
 4176SOL    HW213428   4.091   6.777   1.239
 4177SOL     OW13429   5.550   4.828   5.140
 4177SOL    HW113430   5.643   4.860   5.125
 4177SOL    HW213431   5.548   4.728   5.138
 4178SOL     OW13432   4.313   0.235   3.852
 4178SOL    HW113433   4.225   0.188   3.853
 4178SOL    HW213434   4.353   0.230   3.761
 4179SOL     OW13435   5.228   4.223   3.116
 4179SOL    HW113436   5.305   4.225   3.179
 4179SOL    HW213437   5.208   4.129   3.090
 4180SOL     OW13438   4.627   2.559   0.872
 4180SOL    HW113439   4.697   2.552   0.943
 4180SOL    HW213440   4.653   2.630   0.806
 4181SOL     OW13441   4.339   0.753   0.274
 4181SOL    HW113442   4.369   0.662   0.302
 4181SOL    HW213443   4.350   0.763   0.176
 4182SOL     OW13444   0.567   5.340   3.018
 4182SOL    HW113445   0.638   5.402   2.984
 4182SOL    HW213446   0.603   5.247   3.021
 4183SOL     OW13447   2.996   1.556   0.796
 4183SOL    HW113448   3.031   1.634   0.849
 4183SOL    HW213449   2.903   1.576   0.765
 4184SOL     OW13450   3.710   6.858   2.445
 4184SOL    HW113451   3.686   6.827   2.353
 4184SOL    HW213452   3.737   6.954   2.443
 4185SOL     OW13453   0.973   4.112   3.365
 4185SOL    HW113454   0.889   4.166   3.354
 4185SOL    HW213455   0.982   4.048   3.289
 4186SOL     OW13456   2.256   5.040   6.834
 4186SOL    HW113457   2.355   5.031   6.819
 4186SOL    HW213458   2.209   4.960   6.798
 4187SOL     OW13459   2.700   2.760   5.662
 4187SOL    HW113460   2.734   2.815   5.737
 4187SOL    HW213461   2.641   2.816   5.602
 4188SOL     OW13462   5.197   0.597   5.167
 4188SOL    HW113463   5.145   0.642   5.094
 4188SOL    HW213464   5.140   0.592   5.249
 4189SOL     OW13465   3.514   4.926   4.323
 4189SOL    HW113466   3.582   4.973   4.267
 4189SOL    HW213467   3.440   4.892   4.265
 4190SOL     OW13468   0.831   0.583   1.378
 4190SOL    HW113469   0.805   0.549   1.287
 4190SOL    HW213470   0.783   0.669   1.395
 4191SOL     OW13471   5.392   4.691   4.923
 4191SOL    HW113472   5.343   4.621   4.974
 4191SOL    HW213473   5.378   4.780   4.967
 4192SOL     OW13474   0.687   1.683   2.922
 4192SOL    HW113475   0.740   1.663   2.840
 4192SOL    HW213476   0.706   1.613   2.991
 4193SOL     OW13477   5.726   0.326   1.034
 4193SOL    HW113478   5.768   0.415   1.018
 4193SOL    HW213479   5.793   0.253   1.018
 4194SOL     OW13480   4.640   0.199   4.432
 4194SOL    HW113481   4.605   0.273   4.375
 4194SOL    HW213482   4.603   0.208   4.524
 4195SOL     OW13483   3.983   5.436   1.533
 4195SOL    HW113484   3.890   5.426   1.569
 4195SOL    HW213485   4.036   5.354   1.554
 4196SOL     OW13486   6.255   2.760   2.887
 4196SOL    HW113487   6.321   2.686   2.903
 4196SOL    HW213488   6.247   2.816   2.970
 4197SOL     OW13489   4.728   5.367   5.516
 4197SOL    HW113490   4.712   5.328   5.607
 4197SOL    HW213491   4.642   5.400   5.478
 4198SOL     OW13492   6.336   1.921   0.816
 4198SOL    HW113493   6.273   1.843   0.815
 4198SOL    HW213494   6.338   1.961   0.907
 4199SOL     OW13495   0.962   2.533   5.614
 4199SOL    HW113496   1.029   2.465   5.587
 4199SOL    HW213497   0.935   2.587   5.534
 4200SOL     OW13498   3.095   6.994   6.542
 4200SOL    HW113499   3.022   6.926   6.535
 4200SOL    HW213500   3.065   0.053   6.500
 4201SOL     OW13501   5.831   6.892   3.763
 4201SOL    HW113502   5.851   6.794   3.762
 4201SOL    HW213503   5.897   6.938   3.822
 4202SOL     OW13504   3.098   5.641   6.312
 4202SOL    HW113505   3.041   5.561   6.330
 4202SOL    HW213506   3.069   5.717   6.370
 4203SOL     OW13507   4.698   4.124   0.293
 4203SOL    HW113508   4.722   4.182   0.370
 4203SOL    HW213509   4.650   4.179   0.224
 4204SOL     OW13510   4.139   3.567   4.081
 4204SOL    HW113511   4.119   3.530   3.990
 4204SOL    HW213512   4.236   3.553   4.102
 4205SOL     OW13513   4.389   6.086   4.772
 4205SOL    HW113514   4.454   6.126   4.837
 4205SOL    HW213515   4.438   6.029   4.706
 4206SOL     OW13516   6.237   1.235   5.237
 4206SOL    HW113517   6.139   1.224   5.256
 4206SOL    HW213518   6.254   1.219   5.140
 4207SOL     OW13519   2.131   2.248   2.093
 4207SOL    HW113520   2.073   2.247   2.012
 4207SOL    HW213521   2.227   2.258   2.065
 4208SOL     OW13522   6.843   3.639   5.322
 4208SOL    HW113523   6.939   3.665   5.325
 4208SOL    HW213524   6.786   3.722   5.325
 4209SOL     OW13525   6.750   6.237   4.048
 4209SOL    HW113526   6.741   6.213   4.144
 4209SOL    HW213527   6.783   6.331   4.040
 4210SOL     OW13528   3.857   3.383   2.524
 4210SOL    HW113529   3.838   3.321   2.601
 4210SOL    HW213530   3.835   3.476   2.551
 4211SOL     OW13531   3.800   0.846   5.818
 4211SOL    HW113532   3.840   0.919   5.763
 4211SOL    HW213533   3.748   0.886   5.894
 4212SOL     OW13534   6.085   2.431   2.340
 4212SOL    HW113535   6.145   2.412   2.418
 4212SOL    HW213536   6.096   2.360   2.271
 4213SOL     OW13537   2.582   0.713   2.474
 4213SOL    HW113538   2.520   0.642   2.507
 4213SOL    HW213539   2.533   0.775   2.413
 4214SOL     OW13540   0.571   5.561   5.635
 4214SOL    HW113541   0.670   5.570   5.621
 4214SOL    HW213542   0.544   5.616   5.714
 4215SOL     OW13543   4.267   6.641   6.022
 4215SOL    HW113544   4.187   6.686   6.063
 4215SOL    HW213545   4.241   6.549   5.992
 4216SOL     OW13546   1.761   0.734   3.306
 4216SOL    HW113547   1.751   0.635   3.318
 4216SOL    HW213548   1.676   0.772   3.270
 4217SOL     OW13549   0.983   0.470   2.901
 4217SOL    HW113550   0.928   0.537   2.850
 4217SOL    HW213551   1.063   0.516   2.940
 4218SOL     OW13552   3.374   0.910   1.665
 4218SOL    HW113553   3.388   0.964   1.747
 4218SOL    HW213554   3.461   0.872   1.633
 4219SOL     OW13555   4.283   5.765   4.496
 4219SOL    HW113556   4.263   5.685   4.439
 4219SOL    HW213557   4.233   5.844   4.461
 4220SOL     OW13558   6.473   3.170   3.327
 4220SOL    HW113559   6.394   3.216   3.368
 4220SOL    HW213560   6.532   3.238   3.282
 4221SOL     OW13561   6.258   5.090   6.327
 4221SOL    HW113562   6.209   5.040   6.256
 4221SOL    HW213563   6.329   5.147   6.286
 4222SOL     OW13564   0.184   1.652   1.987
 4222SOL    HW113565   0.089   1.633   2.011
 4222SOL    HW213566   0.218   1.580   1.927
 4223SOL     OW13567   3.279   3.882   0.425
 4223SOL    HW113568   3.245   3.847   0.512
 4223SOL    HW213569   3.213   3.862   0.352
 4224SOL     OW13570   5.356   5.039   3.795
 4224SOL    HW113571   5.421   5.110   3.770
 4224SOL    HW213572   5.400   4.949   3.790
 4225SOL     OW13573   2.469   2.773   5.300
 4225SOL    HW113574   2.462   2.868   5.268
 4225SOL    HW213575   2.565   2.751   5.318
 4226SOL     OW13576   0.606   6.683   2.551
 4226SOL    HW113577   0.545   6.651   2.479
 4226SOL    HW213578   0.658   6.606   2.587
 4227SOL     OW13579   3.395   5.622   1.825
 4227SOL    HW113580   3.387   5.691   1.753
 4227SOL    HW213581   3.473   5.563   1.805
 4228SOL     OW13582   0.881   5.482   5.671
 4228SOL    HW113583   0.953   5.445   5.613
 4228SOL    HW213584   0.841   5.408   5.726
 4229SOL     OW13585   4.415   6.007   5.850
 4229SOL    HW113586   4.467   6.087   5.880
 4229SOL    HW213587   4.462   5.965   5.772
 4230SOL     OW13588   0.870   5.559   2.632
 4230SOL    HW113589   0.886   5.656   2.652
 4230SOL    HW213590   0.827   5.551   2.542
 4231SOL     OW13591   5.407   6.797   5.812
 4231SOL    HW113592   5.498   6.767   5.840
 4231SOL    HW213593   5.340   6.772   5.882
 4232SOL     OW13594   0.718   4.903   2.935
 4232SOL    HW113595   0.704   4.888   3.032
 4232SOL    HW213596   0.671   4.987   2.907
 4233SOL     OW13597   5.809   0.310   5.374
 4233SOL    HW113598   5.826   0.409   5.373
 4233SOL    HW213599   5.719   0.291   5.335
 4234SOL     OW13600   2.236   5.409   5.051
 4234SOL    HW113601   2.233   5.327   4.993
 4234SOL    HW213602   2.284   5.482   5.003
 4235SOL     OW13603   5.497   4.172   5.984
 4235SOL    HW113604   5.471   4.257   6.028
 4235SOL    HW213605   5.467   4.094   6.039
 4236SOL     OW13606   6.558   3.925   1.889
 4236SOL    HW113607   6.601   3.980   1.817
 4236SOL    HW213608   6.522   3.841   1.849
 4237SOL     OW13609   5.589   5.518   3.178
 4237SOL    HW113610   5.686   5.494   3.178
 4237SOL    HW213611   5.573   5.590   3.246
 4238SOL     OW13612   1.946   6.684   2.618
 4238SOL    HW113613   1.889   6.641   2.548
 4238SOL    HW213614   2.041   6.689   2.585
 4239SOL     OW13615   5.033   1.216   2.682
 4239SOL    HW113616   5.059   1.141   2.621
 4239SOL    HW213617   4.962   1.185   2.745
 4240SOL     OW13618   2.225   5.937   0.517
 4240SOL    HW113619   2.223   6.036   0.507
 4240SOL    HW213620   2.313   5.908   0.553
 4241SOL     OW13621   5.978   0.866   0.519
 4241SOL    HW113622   5.968   0.769   0.540
 4241SOL    HW213623   6.075   0.891   0.525
 4242SOL     OW13624   3.166   1.902   4.250
 4242SOL    HW113625   3.231   1.827   4.264
 4242SOL    HW213626   3.128   1.931   4.338
 4243SOL     OW13627   6.294   3.014   2.079
 4243SOL    HW113628   6.379   3.046   2.122
 4243SOL    HW213629   6.317   2.957   2.001
 4244SOL     OW13630   4.277   4.514   1.735
 4244SOL    HW113631   4.353   4.523   1.670
 4244SOL    HW213632   4.311   4.477   1.821
 4245SOL     OW13633   6.543   1.286   6.397
 4245SOL    HW113634   6.542   1.261   6.494
 4245SOL    HW213635   6.637   1.305   6.369
 4246SOL     OW13636   0.143   4.157   3.143
 4246SOL    HW113637   0.053   4.135   3.107
 4246SOL    HW213638   0.156   4.113   3.232
 4247SOL     OW13639   2.602   6.212   3.362
 4247SOL    HW113640   2.625   6.237   3.456
 4247SOL    HW213641   2.505   6.190   3.356
 4248SOL     OW13642   3.778   1.392   3.818
 4248SOL    HW113643   3.732   1.305   3.796
 4248SOL    HW213644   3.874   1.386   3.789
 4249SOL     OW13645   5.985   3.147   4.491
 4249SOL    HW113646   6.076   3.126   4.528
 4249SOL    HW213647   5.916   3.093   4.540
 4250SOL     OW13648   6.739   4.485   2.928
 4250SOL    HW113649   6.835   4.473   2.955
 4250SOL    HW213650   6.726   4.575   2.886
 4251SOL     OW13651   5.727   4.825   1.103
 4251SOL    HW113652   5.647   4.796   1.155
 4251SOL    HW213653   5.702   4.836   1.007
 4252SOL     OW13654   5.340   6.387   5.797
 4252SOL    HW113655   5.413   6.319   5.792
 4252SOL    HW213656   5.295   6.395   5.708
 4253SOL     OW13657   3.619   6.606   0.766
 4253SOL    HW113658   3.619   6.690   0.819
 4253SOL    HW213659   3.577   6.623   0.676
 4254SOL     OW13660   0.527   2.517   2.361
 4254SOL    HW113661   0.558   2.471   2.277
 4254SOL    HW213662   0.599   2.514   2.429
 4255SOL     OW13663   6.079   3.910   3.380
 4255SOL    HW113664   6.152   3.906   3.448
 4255SOL    HW213665   6.117   3.900   3.288
 4256SOL     OW13666   1.952   6.686   0.098
 4256SOL    HW113667   2.002   6.768   0.072
 4256SOL    HW213668   1.869   6.678   0.043
 4257SOL     OW13669   2.955   0.396   4.324
 4257SOL    HW113670   2.939   0.443   4.411
 4257SOL    HW213671   2.968   0.464   4.252
 4258SOL     OW13672   5.094   6.236   1.020
 4258SOL    HW113673   5.037   6.191   0.951
 4258SOL    HW213674   5.075   6.196   1.109
 4259SOL     OW13675   3.027   0.786   0.830
 4259SOL    HW113676   3.001   0.865   0.775
 4259SOL    HW213677   3.123   0.793   0.855
 4260SOL     OW13678   5.269   6.857   0.188
 4260SOL    HW113679   5.252   6.920   0.264
 4260SOL    HW213680   5.269   6.908   0.102
 4261SOL     OW13681   1.743   6.837   1.563
 4261SOL    HW113682   1.697   6.757   1.601
 4261SOL    HW213683   1.842   6.829   1.577
 4262SOL     OW13684   0.648   4.742   5.368
 4262SOL    HW113685   0.620   4.768   5.461
 4262SOL    HW213686   0.747   4.741   5.362
 4263SOL     OW13687   2.520   6.854   3.265
 4263SOL    HW113688   2.454   6.791   3.305
 4263SOL    HW213689   2.512   6.943   3.310
 4264SOL     OW13690   7.016   2.818   2.871
 4264SOL    HW113691   6.996   2.769   2.956
 4264SOL    HW213692   6.937   2.812   2.810
 4265SOL     OW13693   5.435   1.445   0.602
 4265SOL    HW113694   5.484   1.418   0.685
 4265SOL    HW213695   5.344   1.479   0.627
 4266SOL     OW13696   1.792   5.079   0.266
 4266SOL    HW113697   1.766   5.002   0.325
 4266SOL    HW213698   1.888   5.102   0.282
 4267SOL     OW13699   2.069   3.331   4.531
 4267SOL    HW113700   2.096   3.396   4.460
 4267SOL    HW213701   1.973   3.345   4.555
 4268SOL     OW13702   1.098   6.104   6.309
 4268SOL    HW113703   1.173   6.153   6.265
 4268SOL    HW213704   1.013   6.155   6.297
 4269SOL     OW13705   2.365   1.075   1.884
 4269SOL    HW113706   2.285   1.111   1.933
 4269SOL    HW213707   2.411   1.007   1.941
 4270SOL     OW13708   3.984   3.826   3.414
 4270SOL    HW113709   3.995   3.814   3.315
 4270SOL    HW213710   3.962   3.922   3.433
 4271SOL     OW13711   0.309   0.988   6.755
 4271SOL    HW113712   0.240   1.055   6.726
 4271SOL    HW213713   0.281   0.947   6.842
 4272SOL     OW13714   6.215   3.048   4.625
 4272SOL    HW113715   6.271   2.965   4.617
 4272SOL    HW213716   6.264   3.126   4.585
 4273SOL     OW13717   4.258   6.282   4.991
 4273SOL    HW113718   4.325   6.213   5.019
 4273SOL    HW213719   4.248   6.281   4.892
 4274SOL     OW13720   1.363   6.598   2.064
 4274SOL    HW113721   1.304   6.544   2.123
 4274SOL    HW213722   1.395   6.679   2.114
 4275SOL     OW13723   6.479   0.770   4.283
 4275SOL    HW113724   6.558   0.748   4.340
 4275SOL    HW213725   6.428   0.686   4.264
 4276SOL     OW13726   2.232   5.225   3.116
 4276SOL    HW113727   2.238   5.134   3.158
 4276SOL    HW213728   2.162   5.224   3.044
 4277SOL     OW13729   6.354   4.685   4.266
 4277SOL    HW113730   6.433   4.672   4.206
 4277SOL    HW213731   6.297   4.603   4.264
 4278SOL     OW13732   0.086   0.615   4.315
 4278SOL    HW113733   0.148   0.538   4.299
 4278SOL    HW213734   0.041   0.604   4.404
 4279SOL     OW13735   3.423   0.682   4.379
 4279SOL    HW113736   3.496   0.635   4.428
 4279SOL    HW213737   3.339   0.629   4.387
 4280SOL     OW13738   5.032   0.115   6.194
 4280SOL    HW113739   5.041   0.197   6.252
 4280SOL    HW213740   5.074   0.132   6.105
 4281SOL     OW13741   0.436   5.127   3.682
 4281SOL    HW113742   0.366   5.126   3.753
 4281SOL    HW213743   0.400   5.082   3.600
 4282SOL     OW13744   3.505   4.006   6.694
 4282SOL    HW113745   3.445   4.016   6.615
 4282SOL    HW213746   3.488   4.079   6.759
 4283SOL     OW13747   1.773   0.767   3.582
 4283SOL    HW113748   1.698   0.833   3.586
 4283SOL    HW213749   1.781   0.730   3.489
 4284SOL     OW13750   4.457   4.884   1.432
 4284SOL    HW113751   4.409   4.797   1.429
 4284SOL    HW213752   4.500   4.902   1.343
 4285SOL     OW13753   0.531   0.661   6.128
 4285SOL    HW113754   0.503   0.616   6.212
 4285SOL    HW213755   0.602   0.728   6.148
 4286SOL     OW13756   4.720   5.918   6.023
 4286SOL    HW113757   4.661   5.844   6.056
 4286SOL    HW213758   4.664   5.988   5.979
 4287SOL     OW13759   5.451   2.164   6.539
 4287SOL    HW113760   5.513   2.114   6.477
 4287SOL    HW213761   5.375   2.202   6.487
 4288SOL     OW13762   0.869   6.077   3.727
 4288SOL    HW113763   0.796   6.133   3.687
 4288SOL    HW213764   0.852   6.063   3.824
 4289SOL     OW13765   6.829   2.968   0.538
 4289SOL    HW113766   6.855   2.872   0.532
 4289SOL    HW213767   6.738   2.976   0.577
 4290SOL     OW13768   1.843   0.166   2.544
 4290SOL    HW113769   1.881   0.253   2.574
 4290SOL    HW213770   1.883   0.092   2.597
 4291SOL     OW13771   4.039   3.574   1.635
 4291SOL    HW113772   4.096   3.494   1.656
 4291SOL    HW213773   4.097   3.656   1.633
 4292SOL     OW13774   6.611   4.279   6.763
 4292SOL    HW113775   6.692   4.314   6.716
 4292SOL    HW213776   6.565   4.355   6.810
 4293SOL     OW13777   1.610   3.065   0.657
 4293SOL    HW113778   1.603   2.975   0.614
 4293SOL    HW213779   1.519   3.100   0.676
 4294SOL     OW13780   2.818   2.870   6.570
 4294SOL    HW113781   2.810   2.963   6.607
 4294SOL    HW213782   2.883   2.870   6.494
 4295SOL     OW13783   4.003   5.484   4.093
 4295SOL    HW113784   4.081   5.544   4.114
 4295SOL    HW213785   4.037   5.396   4.060
 4296SOL     OW13786   4.242   0.681   0.655
 4296SOL    HW113787   4.218   0.676   0.559
 4296SOL    HW213788   4.221   0.772   0.690
 4297SOL     OW13789   5.123   0.983   6.835
 4297SOL    HW113790   5.156   0.897   6.874
 4297SOL    HW213791   5.195   1.052   6.841
 4298SOL     OW13792   3.497   5.559   0.188
 4298SOL    HW113793   3.433   5.488   0.217
 4298SOL    HW213794   3.556   5.584   0.265
 4299SOL     OW13795   1.440   2.484   6.849
 4299SOL    HW113796   1.450   2.392   6.885
 4299SOL    HW213797   1.344   2.512   6.853
 4300SOL     OW13798   4.492   0.248   0.246
 4300SOL    HW113799   4.393   0.234   0.239
 4300SOL    HW213800   4.519   0.249   0.342
 4301SOL     OW13801   3.721   1.872   1.062
 4301SOL    HW113802   3.673   1.944   1.111
 4301SOL    HW213803   3.731   1.792   1.121
 4302SOL     OW13804   1.416   6.541   5.806
 4302SOL    HW113805   1.447   6.600   5.880
 4302SOL    HW213806   1.494   6.515   5.749
 4303SOL     OW13807   6.787   4.502   4.064
 4303SOL    HW113808   6.817   4.464   4.151
 4303SOL    HW213809   6.821   4.446   3.989
 4304SOL     OW13810   3.405   3.986   2.982
 4304SOL    HW113811   3.384   3.888   2.977
 4304SOL    HW213812   3.442   4.007   3.073
 4305SOL     OW13813   6.468   0.804   4.619
 4305SOL    HW113814   6.520   0.795   4.535
 4305SOL    HW213815   6.405   0.727   4.627
 4306SOL     OW13816   6.293   3.691   6.800
 4306SOL    HW113817   6.324   3.609   6.753
 4306SOL    HW213818   6.193   3.694   6.800
 4307SOL     OW13819   4.127   3.937   6.328
 4307SOL    HW113820   4.058   3.872   6.295
 4307SOL    HW213821   4.094   3.982   6.411
 4308SOL     OW13822   6.136   5.430   6.609
 4308SOL    HW113823   6.039   5.450   6.596
 4308SOL    HW213824   6.178   5.407   6.521
 4309SOL     OW13825   1.031   1.488   0.453
 4309SOL    HW113826   1.082   1.411   0.490
 4309SOL    HW213827   1.016   1.556   0.525
 4310SOL     OW13828   1.555   2.631   2.787
 4310SOL    HW113829   1.543   2.596   2.880
 4310SOL    HW213830   1.521   2.725   2.783
 4311SOL     OW13831   2.063   6.072   3.447
 4311SOL    HW113832   2.059   6.105   3.541
 4311SOL    HW213833   1.986   6.012   3.429
 4312SOL     OW13834   1.447   5.211   1.072
 4312SOL    HW113835   1.426   5.256   0.985
 4312SOL    HW213836   1.383   5.135   1.086
 4313SOL     OW13837   4.667   1.837   1.529
 4313SOL    HW113838   4.734   1.782   1.479
 4313SOL    HW213839   4.713   1.886   1.603
 4314SOL     OW13840   5.875   1.373   3.920
 4314SOL    HW113841   5.804   1.312   3.955
 4314SOL    HW213842   5.962   1.352   3.964
 4315SOL     OW13843   2.940   6.954   2.116
 4315SOL    HW113844   2.844   6.939   2.138
 4315SOL    HW213845   2.996   6.888   2.166
 4316SOL     OW13846   5.500   0.047   1.733
 4316SOL    HW113847   5.427   0.065   1.798
 4316SOL    HW213848   5.470   0.075   1.641
 4317SOL     OW13849   4.470   1.316   5.175
 4317SOL    HW113850   4.540   1.380   5.143
 4317SOL    HW213851   4.453   1.247   5.105
 4318SOL     OW13852   0.603   3.692   4.238
 4318SOL    HW113853   0.679   3.747   4.203
 4318SOL    HW213854   0.618   3.673   4.335
 4319SOL     OW13855   2.257   2.585   0.726
 4319SOL    HW113856   2.331   2.651   0.707
 4319SOL    HW213857   2.274   2.501   0.675
 4320SOL     OW13858   6.255   6.093   1.628
 4320SOL    HW113859   6.156   6.099   1.613
 4320SOL    HW213860   6.279   5.998   1.652
 4321SOL     OW13861   6.675   6.877   5.242
 4321SOL    HW113862   6.601   6.840   5.186
 4321SOL    HW213863   6.762   6.838   5.212
 4322SOL     OW13864   6.572   2.455   6.619
 4322SOL    HW113865   6.666   2.432   6.645
 4322SOL    HW213866   6.537   2.528   6.678
 4323SOL     OW13867   4.742   3.973   1.100
 4323SOL    HW113868   4.654   3.937   1.131
 4323SOL    HW213869   4.782   4.029   1.173
 4324SOL     OW13870   5.503   4.421   6.089
 4324SOL    HW113871   5.438   4.453   6.158
 4324SOL    HW213872   5.579   4.486   6.083
 4325SOL     OW13873   2.810   1.212   1.444
 4325SOL    HW113874   2.847   1.124   1.412
 4325SOL    HW213875   2.870   1.251   1.513
 4326SOL     OW13876   4.780   4.683   5.183
 4326SOL    HW113877   4.867   4.722   5.211
 4326SOL    HW213878   4.781   4.666   5.084
 4327SOL     OW13879   5.949   5.536   2.115
 4327SOL    HW113880   6.020   5.591   2.070
 4327SOL    HW213881   5.893   5.596   2.173
 4328SOL     OW13882   4.333   3.756   5.656
 4328SOL    HW113883   4.291   3.724   5.570
 4328SOL    HW213884   4.346   3.678   5.717
 4329SOL     OW13885   4.279   1.262   6.090
 4329SOL    HW113886   4.265   1.164   6.079
 4329SOL    HW213887   4.192   1.310   6.083
 4330SOL     OW13888   2.620   0.209   5.257
 4330SOL    HW113889   2.567   0.280   5.209
 4330SOL    HW213890   2.585   0.199   5.350
 4331SOL     OW13891   5.138   2.603   0.877
 4331SOL    HW113892   5.216   2.544   0.899
 4331SOL    HW213893   5.105   2.647   0.960
 4332SOL     OW13894   4.841   4.786   2.163
 4332SOL    HW113895   4.841   4.712   2.230
 4332SOL    HW213896   4.922   4.781   2.105
 4333SOL     OW13897   3.776   0.580   5.336
 4333SOL    HW113898   3.735   0.505   5.284
 4333SOL    HW213899   3.732   0.588   5.425
 4334SOL     OW13900   1.889   2.652   2.573
 4334SOL    HW113901   1.861   2.725   2.511
 4334SOL    HW213902   1.989   2.651   2.580
 4335SOL     OW13903   3.610   3.799   2.810
 4335SOL    HW113904   3.529   3.833   2.762
 4335SOL    HW213905   3.654   3.728   2.755
 4336SOL     OW13906   1.777   6.668   6.797
 4336SOL    HW113907   1.752   6.715   6.712
 4336SOL    HW213908   1.875   6.649   6.796
 4337SOL     OW13909   0.169   4.730   1.128
 4337SOL    HW113910   0.156   4.639   1.166
 4337SOL    HW213911   0.260   4.764   1.154
 4338SOL     OW13912   5.574   5.781   4.723
 4338SOL    HW113913   5.489   5.802   4.674
 4338SOL    HW213914   5.555   5.720   4.800
 4339SOL     OW13915   5.557   3.201   5.306
 4339SOL    HW113916   5.481   3.219   5.369
 4339SOL    HW213917   5.612   3.284   5.297
 4340SOL     OW13918   6.672   3.552   1.354
 4340SOL    HW113919   6.688   3.559   1.452
 4340SOL    HW213920   6.581   3.512   1.338
 4341SOL     OW13921   0.378   5.727   1.990
 4341SOL    HW113922   0.323   5.665   2.046
 4341SOL    HW213923   0.418   5.677   1.914
 4342SOL     OW13924   5.778   3.851   4.050
 4342SOL    HW113925   5.856   3.897   4.008
 4342SOL    HW213926   5.788   3.752   4.042
 4343SOL     OW13927   2.558   6.176   5.642
 4343SOL    HW113928   2.614   6.132   5.713
 4343SOL    HW213929   2.521   6.106   5.581
 4344SOL     OW13930   1.374   5.225   2.836
 4344SOL    HW113931   1.314   5.167   2.782
 4344SOL    HW213932   1.320   5.291   2.888
 4345SOL     OW13933   2.835   3.207   5.207
 4345SOL    HW113934   2.746   3.192   5.251
 4345SOL    HW213935   2.884   3.120   5.201
 4346SOL     OW13936   1.808   3.318   2.038
 4346SOL    HW113937   1.903   3.306   2.008
 4346SOL    HW213938   1.749   3.332   1.958
 4347SOL     OW13939   6.279   0.123   3.039
 4347SOL    HW113940   6.341   0.139   3.116
 4347SOL    HW213941   6.326   0.071   2.968
 4348SOL     OW13942   0.358   4.457   2.824
 4348SOL    HW113943   0.380   4.393   2.897
 4348SOL    HW213944   0.381   4.415   2.736
 4349SOL     OW13945   0.152   1.522   2.786
 4349SOL    HW113946   0.143   1.457   2.711
 4349SOL    HW213947   0.239   1.571   2.779
 4350SOL     OW13948   5.253   1.826   4.173
 4350SOL    HW113949   5.256   1.865   4.081
 4350SOL    HW213950   5.311   1.881   4.234
 4351SOL     OW13951   2.314   6.084   1.479
 4351SOL    HW113952   2.263   6.162   1.442
 4351SOL    HW213953   2.276   6.059   1.568
 4352SOL     OW13954   0.642   3.155   2.499
 4352SOL    HW113955   0.598   3.220   2.561
 4352SOL    HW213956   0.741   3.160   2.510
 4353SOL     OW13957   3.154   3.310   0.031
 4353SOL    HW113958   3.188   3.404   0.034
 4353SOL    HW213959   3.137   3.284   6.962
 4354SOL     OW13960   2.344   0.151   5.959
 4354SOL    HW113961   2.399   0.233   5.975
 4354SOL    HW213962   2.252   0.178   5.930
 4355SOL     OW13963   2.865   0.243   2.335
 4355SOL    HW113964   2.923   0.212   2.259
 4355SOL    HW213965   2.899   0.331   2.369
 4356SOL     OW13966   5.051   4.347   0.752
 4356SOL    HW113967   5.131   4.397   0.784
 4356SOL    HW213968   5.017   4.289   0.826
 4357SOL     OW13969   6.611   0.632   0.301
 4357SOL    HW113970   6.666   0.645   0.383
 4357SOL    HW213971   6.636   0.700   0.233
 4358SOL     OW13972   0.480   6.427   0.007
 4358SOL    HW113973   0.436   6.349   0.050
 4358SOL    HW213974   0.456   6.430   6.937
 4359SOL     OW13975   2.450   2.110   6.477
 4359SOL    HW113976   2.477   2.182   6.413
 4359SOL    HW213977   2.501   2.026   6.457
 4360SOL     OW13978   1.164   2.159   4.330
 4360SOL    HW113979   1.215   2.130   4.249
 4360SOL    HW213980   1.188   2.253   4.352
 4361SOL     OW13981   2.275   3.106   1.108
 4361SOL    HW113982   2.339   3.179   1.132
 4361SOL    HW213983   2.278   3.090   1.009
 4362SOL     OW13984   6.094   5.243   3.042
 4362SOL    HW113985   6.170   5.236   3.107
 4362SOL    HW213986   6.118   5.197   2.957
 4363SOL     OW13987   5.088   2.603   0.310
 4363SOL    HW113988   5.016   2.656   0.264
 4363SOL    HW213989   5.127   2.658   0.384
 4364SOL     OW13990   3.316   3.975   5.073
 4364SOL    HW113991   3.363   4.032   5.006
 4364SOL    HW213992   3.332   3.879   5.052
 4365SOL     OW13993   2.357   1.674   1.657
 4365SOL    HW113994   2.419   1.598   1.640
 4365SOL    HW213995   2.308   1.697   1.572
 4366SOL     OW13996   6.696   6.761   0.242
 4366SOL    HW113997   6.714   6.856   0.267
 4366SOL    HW213998   6.605   6.735   0.275
 4367SOL     OW13999   2.388   4.475   4.932
 4367SOL    HW114000   2.487   4.474   4.928
 4367SOL    HW214001   2.358   4.528   5.012
 4368SOL     OW14002   4.050   4.261   1.151
 4368SOL    HW114003   4.065   4.243   1.054
 4368SOL    HW214004   3.977   4.203   1.185
 4369SOL     OW14005   4.009   5.219   3.334
 4369SOL    HW114006   4.052   5.214   3.244
 4369SOL    HW214007   3.911   5.199   3.325
 4370SOL     OW14008   4.670   5.261   2.570
 4370SOL    HW114009   4.572   5.271   2.587
 4370SOL    HW214010   4.696   5.315   2.491
 4371SOL     OW14011   1.304   2.115   1.672
 4371SOL    HW114012   1.367   2.107   1.749
 4371SOL    HW214013   1.227   2.052   1.685
 4372SOL     OW14014   3.631   1.592   3.051
 4372SOL    HW114015   3.629   1.545   3.139
 4372SOL    HW214016   3.674   1.682   3.062
 4373SOL     OW14017   6.844   2.393   6.322
 4373SOL    HW114018   6.862   2.456   6.397
 4373SOL    HW214019   6.892   2.424   6.240
 4374SOL     OW14020   1.511   1.914   2.435
 4374SOL    HW114021   1.425   1.962   2.452
 4374SOL    HW214022   1.573   1.929   2.512
 4375SOL     OW14023   3.658   0.178   3.275
 4375SOL    HW114024   3.692   0.193   3.368
 4375SOL    HW214025   3.700   0.245   3.213
 4376SOL     OW14026   6.951   6.496   1.423
 4376SOL    HW114027   6.908   6.442   1.496
 4376SOL    HW214028   0.022   6.478   1.421
 4377SOL     OW14029   5.310   4.390   1.076
 4377SOL    HW114030   5.298   4.484   1.106
 4377SOL    HW214031   5.333   4.388   0.979
 4378SOL     OW14032   2.176   1.815   2.717
 4378SOL    HW114033   2.114   1.877   2.766
 4378SOL    HW214034   2.179   1.839   2.620
 4379SOL     OW14035   2.161   1.152   2.557
 4379SOL    HW114036   2.105   1.211   2.499
 4379SOL    HW214037   2.106   1.077   2.592
 4380SOL     OW14038   1.580   0.184   2.268
 4380SOL    HW114039   1.588   0.146   2.361
 4380SOL    HW214040   1.558   0.112   2.204
 4381SOL     OW14041   0.542   5.233   5.319
 4381SOL    HW114042   0.518   5.264   5.411
 4381SOL    HW214043   0.492   5.288   5.251
 4382SOL     OW14044   0.680   3.441   5.311
 4382SOL    HW114045   0.670   3.488   5.223
 4382SOL    HW214046   0.591   3.437   5.356
 4383SOL     OW14047   1.108   2.742   6.771
 4383SOL    HW114048   1.096   2.838   6.796
 4383SOL    HW214049   1.022   2.693   6.784
 4384SOL     OW14050   5.672   0.888   4.815
 4384SOL    HW114051   5.629   0.970   4.852
 4384SOL    HW214052   5.756   0.913   4.767
 4385SOL     OW14053   5.781   2.697   5.121
 4385SOL    HW114054   5.828   2.646   5.193
 4385SOL    HW214055   5.698   2.648   5.094
 4386SOL     OW14056   1.798   3.896   5.967
 4386SOL    HW114057   1.837   3.857   5.883
 4386SOL    HW214058   1.781   3.993   5.953
 4387SOL     OW14059   6.834   2.388   1.528
 4387SOL    HW114060   6.856   2.379   1.625
 4387SOL    HW214061   6.757   2.451   1.517
 4388SOL     OW14062   4.355   2.852   5.749
 4388SOL    HW114063   4.389   2.946   5.749
 4388SOL    HW214064   4.327   2.827   5.842
 4389SOL     OW14065   6.078   2.904   1.342
 4389SOL    HW114066   5.987   2.935   1.370
 4389SOL    HW214067   6.122   2.976   1.288
 4390SOL     OW14068   3.849   0.157   1.806
 4390SOL    HW114069   3.899   0.151   1.892
 4390SOL    HW214070   3.910   0.133   1.730
 4391SOL     OW14071   2.104   5.925   6.977
 4391SOL    HW114072   2.108   5.825   6.975
 4391SOL    HW214073   2.192   5.961   7.009
 4392SOL     OW14074   6.871   3.170   5.508
 4392SOL    HW114075   6.940   3.100   5.527
 4392SOL    HW214076   6.903   3.229   5.434
 4393SOL     OW14077   6.236   0.810   2.053
 4393SOL    HW114078   6.208   0.802   2.149
 4393SOL    HW214079   6.175   0.756   1.995
 4394SOL     OW14080   6.521   5.627   2.213
 4394SOL    HW114081   6.553   5.673   2.130
 4394SOL    HW214082   6.473   5.543   2.187
 4395SOL     OW14083   2.106   0.213   1.851
 4395SOL    HW114084   2.071   0.304   1.873
 4395SOL    HW214085   2.109   0.203   1.751
 4396SOL     OW14086   1.968   1.562   4.338
 4396SOL    HW114087   1.991   1.585   4.244
 4396SOL    HW214088   2.051   1.548   4.391
 4397SOL     OW14089   1.603   2.410   4.311
 4397SOL    HW114090   1.524   2.389   4.367
 4397SOL    HW214091   1.605   2.350   4.231
 4398SOL     OW14092   0.775   3.846   5.582
 4398SOL    HW114093   0.790   3.866   5.679
 4398SOL    HW214094   0.863   3.834   5.537
 4399SOL     OW14095   3.462   6.585   2.726
 4399SOL    HW114096   3.371   6.544   2.722
 4399SOL    HW214097   3.497   6.582   2.820
 4400SOL     OW14098   2.428   6.618   5.529
 4400SOL    HW114099   2.523   6.648   5.539
 4400SOL    HW214100   2.370   6.699   5.517
 4401SOL     OW14101   2.798   7.022   5.644
 4401SOL    HW114102   2.735   6.991   5.573
 4401SOL    HW214103   2.844   6.943   5.684
 4402SOL     OW14104   1.692   0.952   2.380
 4402SOL    HW114105   1.642   0.878   2.425
 4402SOL    HW214106   1.787   0.953   2.412
 4403SOL     OW14107   0.871   0.546   0.350
 4403SOL    HW114108   0.893   0.642   0.368
 4403SOL    HW214109   0.953   0.490   0.365
 4404SOL     OW14110   1.894   6.120   5.867
 4404SOL    HW114111   1.898   6.026   5.899
 4404SOL    HW214112   1.983   6.148   5.832
 4405SOL     OW14113   1.699   4.193   2.051
 4405SOL    HW114114   1.760   4.182   1.973
 4405SOL    HW214115   1.753   4.190   2.135
 4406SOL     OW14116   0.938   2.829   0.493
 4406SOL    HW114117   0.967   2.839   0.588
 4406SOL    HW214118   0.868   2.897   0.472
 4407SOL     OW14119   6.443   5.549   0.813
 4407SOL    HW114120   6.371   5.608   0.848
 4407SOL    HW214121   6.505   5.603   0.755
 4408SOL     OW14122   2.471   0.041   1.166
 4408SOL    HW114123   2.539   0.029   1.239
 4408SOL    HW214124   2.402   6.996   1.173
 4409SOL     OW14125   4.241   1.396   2.349
 4409SOL    HW114126   4.252   1.382   2.447
 4409SOL    HW214127   4.180   1.325   2.312
 4410SOL     OW14128   1.153   4.476   0.292
 4410SOL    HW114129   1.079   4.500   0.229
 4410SOL    HW214130   1.177   4.556   0.347
 4411SOL     OW14131   3.568   4.217   5.193
 4411SOL    HW114132   3.564   4.128   5.240
 4411SOL    HW214133   3.658   4.258   5.207
 4412SOL     OW14134   4.391   6.099   4.102
 4412SOL    HW114135   4.464   6.076   4.167
 4412SOL    HW214136   4.326   6.161   4.147
 4413SOL     OW14137   5.802   4.498   4.342
 4413SOL    HW114138   5.862   4.419   4.354
 4413SOL    HW214139   5.709   4.474   4.366
 4414SOL     OW14140   3.569   6.051   1.317
 4414SOL    HW114141   3.659   6.020   1.347
 4414SOL    HW214142   3.577   6.142   1.276
 4415SOL     OW14143   5.176   2.284   0.324
 4415SOL    HW114144   5.141   2.370   0.289
 4415SOL    HW214145   5.274   2.293   0.345
 4416SOL     OW14146   3.995   1.901   3.930
 4416SOL    HW114147   3.937   1.878   4.008
 4416SOL    HW214148   3.957   1.980   3.883
 4417SOL     OW14149   5.379   3.791   3.985
 4417SOL    HW114150   5.313   3.724   3.952
 4417SOL    HW214151   5.444   3.746   4.047
 4418SOL     OW14152   6.579   2.100   2.188
 4418SOL    HW114153   6.526   2.078   2.270
 4418SOL    HW214154   6.528   2.164   2.131
 4419SOL     OW14155   6.252   0.082   5.620
 4419SOL    HW114156   6.236   0.180   5.620
 4419SOL    HW214157   6.167   0.033   5.599
 4420SOL     OW14158   4.074   1.500   2.085
 4420SOL    HW114159   4.066   1.411   2.131
 4420SOL    HW214160   4.015   1.500   2.004
 4421SOL     OW14161   1.738   1.732   4.854
 4421SOL    HW114162   1.723   1.791   4.933
 4421SOL    HW214163   1.733   1.636   4.883
 4422SOL     OW14164   1.019   4.156   0.168
 4422SOL    HW114165   1.068   4.088   0.114
 4422SOL    HW214166   1.084   4.205   0.227
 4423SOL     OW14167   0.064   3.451   5.423
 4423SOL    HW114168   0.134   3.392   5.463
 4423SOL    HW214169   0.089   3.547   5.436
 4424SOL     OW14170   5.510   0.763   4.185
 4424SOL    HW114171   5.537   0.736   4.278
 4424SOL    HW214172   5.525   0.688   4.122
 4425SOL     OW14173   2.918   4.686   0.522
 4425SOL    HW114174   2.973   4.769   0.536
 4425SOL    HW214175   2.945   4.643   0.436
 4426SOL     OW14176   0.953   0.881   4.182
 4426SOL    HW114177   0.973   0.898   4.085
 4426SOL    HW214178   0.861   0.842   4.190
 4427SOL     OW14179   6.371   6.165   2.253
 4427SOL    HW114180   6.451   6.129   2.205
 4427SOL    HW214181   6.399   6.207   2.339
 4428SOL     OW14182   4.307   0.913   3.674
 4428SOL    HW114183   4.209   0.910   3.653
 4428SOL    HW214184   4.359   0.878   3.597
 4429SOL     OW14185   3.251   0.194   2.316
 4429SOL    HW114186   3.298   0.234   2.238
 4429SOL    HW214187   3.302   0.214   2.400
 4430SOL     OW14188   5.055   4.822   5.175
 4430SOL    HW114189   5.130   4.877   5.212
 4430SOL    HW214190   5.094   4.742   5.128
 4431SOL     OW14191   2.712   1.269   2.997
 4431SOL    HW114192   2.634   1.226   3.042
 4431SOL    HW214193   2.711   1.245   2.900
 4432SOL     OW14194   2.877   3.201   5.881
 4432SOL    HW114195   2.855   3.229   5.975
 4432SOL    HW214196   2.827   3.259   5.817
 4433SOL     OW14197   5.893   2.072   4.202
 4433SOL    HW114198   5.891   2.039   4.297
 4433SOL    HW214199   5.832   2.016   4.146
 4434SOL     OW14200   5.815   1.215   2.618
 4434SOL    HW114201   5.789   1.181   2.528
 4434SOL    HW214202   5.783   1.309   2.629
 4435SOL     OW14203   4.437   4.133   1.245
 4435SOL    HW114204   4.504   4.200   1.276
 4435SOL    HW214205   4.464   4.042   1.276
 4436SOL     OW14206   4.384   0.838   1.728
 4436SOL    HW114207   4.390   0.777   1.808
 4436SOL    HW214208   4.291   0.873   1.720
 4437SOL     OW14209   1.161   3.196   2.513
 4437SOL    HW114210   1.154   3.270   2.447
 4437SOL    HW214211   1.256   3.167   2.522
 4438SOL     OW14212   4.767   0.207   6.592
 4438SOL    HW114213   4.711   0.173   6.517
 4438SOL    HW214214   4.749   0.152   6.674
 4439SOL     OW14215   6.979   4.365   1.616
 4439SOL    HW114216   6.970   4.312   1.532
 4439SOL    HW214217   0.042   4.410   1.617
 4440SOL     OW14218   2.873   4.696   1.052
 4440SOL    HW114219   2.851   4.609   1.096
 4440SOL    HW214220   2.927   4.679   0.969
 4441SOL     OW14221   0.651   1.628   1.944
 4441SOL    HW114222   0.730   1.602   1.889
 4441SOL    HW214223   0.633   1.726   1.934
 4442SOL     OW14224   1.840   4.825   4.222
 4442SOL    HW114225   1.749   4.810   4.185
 4442SOL    HW214226   1.864   4.747   4.281
 4443SOL     OW14227   1.597   3.449   5.533
 4443SOL    HW114228   1.586   3.455   5.632
 4443SOL    HW214229   1.689   3.477   5.508
 4444SOL     OW14230   3.540   3.795   6.885
 4444SOL    HW114231   3.524   3.886   6.847
 4444SOL    HW214232   3.473   3.731   6.847
 4445SOL     OW14233   1.589   6.539   0.366
 4445SOL    HW114234   1.623   6.502   0.453
 4445SOL    HW214235   1.643   6.501   0.291
 4446SOL     OW14236   5.043   2.236   1.415
 4446SOL    HW114237   5.041   2.161   1.350
 4446SOL    HW214238   5.138   2.265   1.430
 4447SOL     OW14239   5.263   4.293   5.857
 4447SOL    HW114240   5.196   4.306   5.930
 4447SOL    HW214241   5.321   4.214   5.879
 4448SOL     OW14242   2.439   5.038   1.589
 4448SOL    HW114243   2.403   5.031   1.496
 4448SOL    HW214244   2.444   4.947   1.629
 4449SOL     OW14245   5.326   0.819   6.401
 4449SOL    HW114246   5.308   0.896   6.462
 4449SOL    HW214247   5.246   0.803   6.344
 4450SOL     OW14248   3.978   2.234   5.887
 4450SOL    HW114249   3.880   2.214   5.892
 4450SOL    HW214250   4.001   2.300   5.959
 4451SOL     OW14251   5.288   4.470   3.781
 4451SOL    HW114252   5.276   4.387   3.836
 4451SOL    HW214253   5.385   4.480   3.756
 4452SOL     OW14254   5.710   5.785   4.491
 4452SOL    HW114255   5.704   5.704   4.433
 4452SOL    HW214256   5.656   5.771   4.574
 4453SOL     OW14257   1.869   2.543   1.640
 4453SOL    HW114258   1.851   2.468   1.704
 4453SOL    HW214259   1.798   2.544   1.569
 4454SOL     OW14260   1.442   1.508   0.251
 4454SOL    HW114261   1.357   1.457   0.263
 4454SOL    HW214262   1.465   1.513   0.154
 4455SOL     OW14263   5.470   5.579   5.530
 4455SOL    HW114264   5.411   5.504   5.502
 4455SOL    HW214265   5.452   5.659   5.473
 4456SOL     OW14266   2.401   6.406   3.242
 4456SOL    HW114267   2.383   6.450   3.154
 4456SOL    HW214268   2.500   6.403   3.257
 4457SOL     OW14269   3.731   1.634   3.445
 4457SOL    HW114270   3.739   1.669   3.539
 4457SOL    HW214271   3.801   1.675   3.388
 4458SOL     OW14272   1.963   2.947   0.620
 4458SOL    HW114273   2.045   2.937   0.562
 4458SOL    HW214274   1.904   3.017   0.581
 4459SOL     OW14275   4.186   2.009   4.265
 4459SOL    HW114276   4.105   2.067   4.276
 4459SOL    HW214277   4.178   1.957   4.180
 4460SOL     OW14278   1.462   3.095   0.254
 4460SOL    HW114279   1.502   3.152   0.327
 4460SOL    HW214280   1.364   3.083   0.271
 4461SOL     OW14281   1.833   0.799   0.996
 4461SOL    HW114282   1.931   0.804   0.980
 4461SOL    HW214283   1.801   0.885   1.036
 4462SOL     OW14284   6.652   4.584   2.110
 4462SOL    HW114285   6.642   4.485   2.115
 4462SOL    HW214286   6.717   4.614   2.180
 4463SOL     OW14287   5.045   0.870   0.840
 4463SOL    HW114288   5.003   0.850   0.752
 4463SOL    HW214289   5.138   0.903   0.826
 4464SOL     OW14290   6.818   5.799   0.317
 4464SOL    HW114291   6.797   5.886   0.360
 4464SOL    HW214292   6.733   5.757   0.282
 4465SOL     OW14293   3.705   5.207   1.048
 4465SOL    HW114294   3.782   5.170   1.100
 4465SOL    HW214295   3.668   5.136   0.988
 4466SOL     OW14296   1.183   1.870   3.070
 4466SOL    HW114297   1.264   1.904   3.023
 4466SOL    HW214298   1.207   1.787   3.120
 4467SOL     OW14299   1.793   5.506   3.343
 4467SOL    HW114300   1.775   5.584   3.404
 4467SOL    HW214301   1.725   5.505   3.270
 4468SOL     OW14302   1.573   4.051   0.497
 4468SOL    HW114303   1.546   4.011   0.584
 4468SOL    HW214304   1.550   4.148   0.496
 4469SOL     OW14305   3.604   0.825   1.541
 4469SOL    HW114306   3.667   0.802   1.467
 4469SOL    HW214307   3.655   0.859   1.619
 4470SOL     OW14308   0.626   1.948   2.148
 4470SOL    HW114309   0.670   1.864   2.181
 4470SOL    HW214310   0.573   1.989   2.222
 4471SOL     OW14311   0.941   2.393   6.600
 4471SOL    HW114312   0.915   2.302   6.568
 4471SOL    HW214313   0.927   2.459   6.527
 4472SOL     OW14314   0.500   2.769   1.885
 4472SOL    HW114315   0.593   2.732   1.884
 4472SOL    HW214316   0.469   2.783   1.791
 4473SOL     OW14317   5.564   3.226   4.130
 4473SOL    HW114318   5.496   3.181   4.189
 4473SOL    HW214319   5.519   3.261   4.048
 4474SOL     OW14320   2.380   6.793   2.398
 4474SOL    HW114321   2.396   6.785   2.300
 4474SOL    HW214322   2.451   6.850   2.439
 4475SOL     OW14323   1.095   4.125   2.022
 4475SOL    HW114324   1.129   4.210   1.981
 4475SOL    HW214325   1.007   4.101   1.980
 4476SOL     OW14326   5.969   0.990   3.418
 4476SOL    HW114327   6.055   1.033   3.448
 4476SOL    HW214328   5.902   1.061   3.397
 4477SOL     OW14329   1.457   0.535   5.601
 4477SOL    HW114330   1.551   0.537   5.569
 4477SOL    HW214331   1.407   0.613   5.562
 4478SOL     OW14332   3.234   0.480   2.364
 4478SOL    HW114333   3.289   0.512   2.287
 4478SOL    HW214334   3.285   0.410   2.415
 4479SOL     OW14335   0.265   2.270   1.565
 4479SOL    HW114336   0.353   2.298   1.603
 4479SOL    HW214337   0.227   2.197   1.621
 4480SOL     OW14338   0.244   3.944   5.126
 4480SOL    HW114339   0.343   3.937   5.110
 4480SOL    HW214340   0.196   3.937   5.038
 4481SOL     OW14341   2.568   5.213   4.923
 4481SOL    HW114342   2.615   5.288   4.877
 4481SOL    HW214343   2.492   5.181   4.866
 4482SOL     OW14344   1.990   2.802   5.016
 4482SOL    HW114345   2.081   2.821   5.053
 4482SOL    HW214346   1.952   2.885   4.976
 4483SOL     OW14347   6.589   2.462   2.165
 4483SOL    HW114348   6.540   2.544   2.195
 4483SOL    HW214349   6.525   2.401   2.118
 4484SOL     OW14350   3.213   2.349   6.637
 4484SOL    HW114351   3.197   2.402   6.554
 4484SOL    HW214352   3.219   2.410   6.716
 4485SOL     OW14353   6.003   2.565   4.320
 4485SOL    HW114354   6.034   2.490   4.378
 4485SOL    HW214355   6.071   2.638   4.320
 4486SOL     OW14356   5.935   5.581   5.207
 4486SOL    HW114357   6.018   5.631   5.232
 4486SOL    HW214358   5.903   5.612   5.118
 4487SOL     OW14359   2.855   2.513   6.707
 4487SOL    HW114360   2.881   2.494   6.613
 4487SOL    HW214361   2.922   2.574   6.749
 4488SOL     OW14362   1.074   3.690   5.594
 4488SOL    HW114363   1.015   3.687   5.675
 4488SOL    HW214364   1.123   3.603   5.586
 4489SOL     OW14365   5.396   5.397   4.688
 4489SOL    HW114366   5.308   5.361   4.656
 4489SOL    HW214367   5.441   5.445   4.613
 4490SOL     OW14368   5.410   1.815   1.563
 4490SOL    HW114369   5.484   1.748   1.557
 4490SOL    HW214370   5.322   1.770   1.546
 4491SOL     OW14371   6.784   3.227   3.534
 4491SOL    HW114372   6.829   3.305   3.489
 4491SOL    HW214373   6.791   3.237   3.633
 4492SOL     OW14374   6.060   4.573   2.399
 4492SOL    HW114375   6.050   4.672   2.393
 4492SOL    HW214376   6.099   4.538   2.313
 4493SOL     OW14377   5.100   5.963   4.526
 4493SOL    HW114378   5.046   5.975   4.443
 4493SOL    HW214379   5.042   5.929   4.600
 4494SOL     OW14380   0.458   0.811   6.506
 4494SOL    HW114381   0.476   0.738   6.439
 4494SOL    HW214382   0.541   0.866   6.517
 4495SOL     OW14383   4.519   0.429   4.046
 4495SOL    HW114384   4.554   0.523   4.038
 4495SOL    HW214385   4.488   0.398   3.956
 4496SOL     OW14386   5.709   6.240   0.850
 4496SOL    HW114387   5.615   6.273   0.863
 4496SOL    HW214388   5.772   6.297   0.904
 4497SOL     OW14389   4.220   1.909   6.654
 4497SOL    HW114390   4.281   1.920   6.576
 4497SOL    HW214391   4.229   1.816   6.691
 4498SOL     OW14392   0.190   3.751   6.796
 4498SOL    HW114393   0.266   3.771   6.734
 4498SOL    HW214394   0.191   3.654   6.819
 4499SOL     OW14395   5.850   3.337   3.734
 4499SOL    HW114396   5.764   3.365   3.776
 4499SOL    HW214397   5.915   3.312   3.806
 4500SOL     OW14398   3.132   3.134   5.408
 4500SOL    HW114399   3.198   3.148   5.482
 4500SOL    HW214400   3.128   3.216   5.350
 4501SOL     OW14401   6.903   3.660   2.850
 4501SOL    HW114402   6.862   3.655   2.940
 4501SOL    HW214403   6.835   3.690   2.783
 4502SOL     OW14404   0.682   2.752   0.152
 4502SOL    HW114405   0.680   2.686   0.226
 4502SOL    HW214406   0.775   2.786   0.139
 4503SOL     OW14407   3.738   0.077   1.353
 4503SOL    HW114408   3.704   7.010   1.357
 4503SOL    HW214409   3.661   0.141   1.351
 4504SOL     OW14410   0.755   0.998   4.481
 4504SOL    HW114411   0.728   1.071   4.417
 4504SOL    HW214412   0.673   0.952   4.516
 4505SOL     OW14413   6.143   5.207   1.856
 4505SOL    HW114414   6.165   5.164   1.768
 4505SOL    HW214415   6.224   5.254   1.891
 4506SOL     OW14416   4.906   2.917   3.213
 4506SOL    HW114417   4.949   2.952   3.129
 4506SOL    HW214418   4.828   2.860   3.188
 4507SOL     OW14419   6.887   3.915   3.263
 4507SOL    HW114420   6.904   4.013   3.265
 4507SOL    HW214421   6.913   3.875   3.351
 4508SOL     OW14422   1.294   4.629   6.453
 4508SOL    HW114423   1.384   4.594   6.426
 4508SOL    HW214424   1.301   4.726   6.475
 4509SOL     OW14425   4.971   2.524   3.253
 4509SOL    HW114426   5.069   2.541   3.249
 4509SOL    HW214427   4.935   2.516   3.160
 4510SOL     OW14428   4.428   2.419   4.227
 4510SOL    HW114429   4.338   2.428   4.186
 4510SOL    HW214430   4.460   2.325   4.219
 4511SOL     OW14431   5.971   3.692   6.613
 4511SOL    HW114432   6.023   3.776   6.631
 4511SOL    HW214433   5.880   3.716   6.580
 4512SOL     OW14434   3.183   0.640   6.113
 4512SOL    HW114435   3.196   0.697   6.193
 4512SOL    HW214436   3.264   0.642   6.055
 4513SOL     OW14437   0.900   4.821   5.892
 4513SOL    HW114438   0.928   4.825   5.989
 4513SOL    HW214439   0.918   4.910   5.849
 4514SOL     OW14440   3.285   2.645   6.075
 4514SOL    HW114441   3.362   2.581   6.072
 4514SOL    HW214442   3.203   2.601   6.040
 4515SOL     OW14443   6.148   1.793   5.292
 4515SOL    HW114444   6.099   1.799   5.205
 4515SOL    HW214445   6.084   1.805   5.367
 4516SOL     OW14446   2.320   7.011   0.415
 4516SOL    HW114447   2.414   0.015   0.398
 4516SOL    HW214448   2.317   6.911   0.415
 4517SOL     OW14449   4.593   6.689   6.630
 4517SOL    HW114450   4.597   6.746   6.712
 4517SOL    HW214451   4.509   6.635   6.631
 4518SOL     OW14452   0.153   0.079   2.374
 4518SOL    HW114453   0.073   0.040   2.329
 4518SOL    HW214454   0.216   0.006   2.401
 4519SOL     OW14455   5.460   6.880   0.932
 4519SOL    HW114456   5.519   6.949   0.888
 4519SOL    HW214457   5.517   6.804   0.964
 4520SOL     OW14458   4.035   6.196   6.252
 4520SOL    HW114459   3.993   6.287   6.254
 4520SOL    HW214460   3.963   6.126   6.249
 4521SOL     OW14461   5.976   2.098   5.553
 4521SOL    HW114462   5.891   2.150   5.545
 4521SOL    HW214463   6.053   2.159   5.535
 4522SOL     OW14464   5.441   5.405   2.989
 4522SOL    HW114465   5.489   5.460   3.057
 4522SOL    HW214466   5.348   5.439   2.978
 4523SOL     OW14467   1.236   4.231   0.333
 4523SOL    HW114468   1.214   4.328   0.338
 4523SOL    HW214469   1.309   4.217   0.266
 4524SOL     OW14470   6.315   3.510   1.977
 4524SOL    HW114471   6.326   3.516   2.076
 4524SOL    HW214472   6.291   3.417   1.951
 4525SOL     OW14473   4.208   2.700   5.592
 4525SOL    HW114474   4.192   2.607   5.626
 4525SOL    HW214475   4.256   2.753   5.662
 4526SOL     OW14476   0.023   0.265   6.654
 4526SOL    HW114477   7.025   0.345   6.600
 4526SOL    HW214478   0.072   0.293   6.736
 4527SOL     OW14479   6.541   0.318   2.901
 4527SOL    HW114480   6.516   0.280   2.812
 4527SOL    HW214481   6.504   0.411   2.908
 4528SOL     OW14482   4.884   0.381   6.388
 4528SOL    HW114483   4.822   0.454   6.358
 4528SOL    HW214484   4.859   0.352   6.480
 4529SOL     OW14485   1.714   0.527   5.029
 4529SOL    HW114486   1.688   0.623   5.036
 4529SOL    HW214487   1.809   0.517   5.058
 4530SOL     OW14488   2.235   5.567   3.569
 4530SOL    HW114489   2.184   5.627   3.506
 4530SOL    HW214490   2.256   5.481   3.523
 4531SOL     OW14491   0.582   3.119   5.975
 4531SOL    HW114492   0.582   3.069   5.889
 4531SOL    HW214493   0.558   3.214   5.959
 4532SOL     OW14494   6.958   1.598   2.574
 4532SOL    HW114495   6.956   1.582   2.476
 4532SOL    HW214496   6.974   1.511   2.622
 4533SOL     OW14497   2.197   1.141   3.031
 4533SOL    HW114498   2.167   1.171   2.940
 4533SOL    HW214499   2.289   1.175   3.049
 4534SOL     OW14500   5.345   4.179   5.390
 4534SOL    HW114501   5.389   4.122   5.320
 4534SOL    HW214502   5.290   4.121   5.450
 4535SOL     OW14503   3.606   0.676   2.258
 4535SOL    HW114504   3.519   0.642   2.222
 4535SOL    HW214505   3.589   0.722   2.345
 4536SOL     OW14506   3.633   1.715   4.712
 4536SOL    HW114507   3.629   1.617   4.694
 4536SOL    HW214508   3.717   1.753   4.674
 4537SOL     OW14509   4.193   3.382   1.236
 4537SOL    HW114510   4.213   3.333   1.321
 4537SOL    HW214511   4.201   3.480   1.251
 4538SOL     OW14512   2.741   0.665   2.113
 4538SOL    HW114513   2.760   0.692   2.018
 4538SOL    HW214514   2.768   0.570   2.126
 4539SOL     OW14515   3.355   5.754   5.146
 4539SOL    HW114516   3.430   5.744   5.212
 4539SOL    HW214517   3.308   5.666   5.135
 4540SOL     OW14518   2.302   2.025   0.217
 4540SOL    HW114519   2.357   2.008   0.136
 4540SOL    HW214520   2.265   2.118   0.214
 4541SOL     OW14521   5.314   1.598   6.290
 4541SOL    HW114522   5.283   1.590   6.385
 4541SOL    HW214523   5.268   1.529   6.235
 4542SOL     OW14524   0.076   2.528   1.548
 4542SOL    HW114525   0.105   2.511   1.642
 4542SOL    HW214526   0.022   2.450   1.515
 4543SOL     OW14527   5.224   2.249   1.061
 4543SOL    HW114528   5.220   2.216   0.966
 4543SOL    HW214529   5.164   2.194   1.118
 4544SOL     OW14530   3.350   5.891   6.971
 4544SOL    HW114531   3.334   5.797   6.940
 4544SOL    HW214532   3.421   5.933   6.914
 4545SOL     OW14533   6.007   3.414   4.558
 4545SOL    HW114534   5.979   3.322   4.532
 4545SOL    HW214535   5.930   3.477   4.545
 4546SOL     OW14536   2.540   6.964   4.640
 4546SOL    HW114537   2.568   6.870   4.658
 4546SOL    HW214538   2.470   6.965   4.568
 4547SOL     OW14539   6.336   1.509   0.434
 4547SOL    HW114540   6.432   1.510   0.406
 4547SOL    HW214541   6.293   1.423   0.405
 4548SOL     OW14542   2.214   2.370   3.749
 4548SOL    HW114543   2.135   2.418   3.710
 4548SOL    HW214544   2.181   2.298   3.810
 4549SOL     OW14545   5.403   3.760   2.599
 4549SOL    HW114546   5.411   3.821   2.520
 4549SOL    HW214547   5.340   3.686   2.577
 4550SOL     OW14548   1.297   4.567   2.901
 4550SOL    HW114549   1.278   4.532   2.809
 4550SOL    HW214550   1.362   4.506   2.946
 4551SOL     OW14551   0.645   3.618   4.505
 4551SOL    HW114552   0.664   3.521   4.521
 4551SOL    HW214553   0.571   3.648   4.564
 4552SOL     OW14554   5.713   1.842   0.999
 4552SOL    HW114555   5.764   1.781   0.939
 4552SOL    HW214556   5.682   1.921   0.947
 4553SOL     OW14557   4.884   4.020   0.111
 4553SOL    HW114558   4.821   4.042   0.037
 4553SOL    HW214559   4.839   4.034   0.199
 4554SOL     OW14560   6.778   0.229   2.107
 4554SOL    HW114561   6.765   0.204   2.012
 4554SOL    HW214562   6.821   0.319   2.113
 4555SOL     OW14563   1.868   1.445   5.738
 4555SOL    HW114564   1.919   1.530   5.749
 4555SOL    HW214565   1.932   1.368   5.747
 4556SOL     OW14566   5.664   3.847   4.628
 4556SOL    HW114567   5.674   3.928   4.686
 4556SOL    HW214568   5.666   3.875   4.532
 4557SOL     OW14569   4.678   5.479   4.253
 4557SOL    HW114570   4.617   5.407   4.221
 4557SOL    HW214571   4.741   5.505   4.179
 4558SOL     OW14572   0.231   4.181   4.746
 4558SOL    HW114573   0.325   4.196   4.777
 4558SOL    HW214574   0.192   4.102   4.794
 4559SOL     OW14575   6.853   3.468   2.463
 4559SOL    HW114576   6.884   3.563   2.476
 4559SOL    HW214577   6.809   3.437   2.547
 4560SOL     OW14578   5.628   3.603   1.239
 4560SOL    HW114579   5.708   3.594   1.297
 4560SOL    HW214580   5.579   3.516   1.236
 4561SOL     OW14581   3.516   2.093   3.501
 4561SOL    HW114582   3.538   2.118   3.407
 4561SOL    HW214583   3.438   2.030   3.501
 4562SOL     OW14584   1.550   6.795   0.311
 4562SOL    HW114585   1.498   6.762   0.232
 4562SOL    HW214586   1.588   6.718   0.361
 4563SOL     OW14587   0.144   2.983   1.504
 4563SOL    HW114588   0.055   3.010   1.539
 4563SOL    HW214589   0.133   2.909   1.438
 4564SOL     OW14590   0.122   6.023   1.922
 4564SOL    HW114591   0.105   6.119   1.899
 4564SOL    HW214592   0.218   6.011   1.945
 4565SOL     OW14593   1.435   0.593   4.579
 4565SOL    HW114594   1.486   0.531   4.519
 4565SOL    HW214595   1.379   0.654   4.522
 4566SOL     OW14596   0.256   3.262   1.119
 4566SOL    HW114597   0.189   3.319   1.071
 4566SOL    HW214598   0.216   3.228   1.204
 4567SOL     OW14599   6.663   1.517   6.690
 4567SOL    HW114600   6.675   1.612   6.720
 4567SOL    HW214601   6.594   1.513   6.618
 4568SOL     OW14602   1.934   3.789   5.748
 4568SOL    HW114603   1.978   3.703   5.775
 4568SOL    HW214604   1.987   3.831   5.674
 4569SOL     OW14605   2.393   0.404   3.236
 4569SOL    HW114606   2.317   0.360   3.284
 4569SOL    HW214607   2.473   0.406   3.296
 4570SOL     OW14608   6.591   6.488   2.446
 4570SOL    HW114609   6.507   6.469   2.394
 4570SOL    HW214610   6.667   6.498   2.382
 4571SOL     OW14611   4.833   3.657   6.147
 4571SOL    HW114612   4.767   3.582   6.146
 4571SOL    HW214613   4.843   3.695   6.055
 4572SOL     OW14614   2.137   1.034   6.349
 4572SOL    HW114615   2.230   0.996   6.344
 4572SOL    HW214616   2.119   1.066   6.442
 4573SOL     OW14617   0.005   6.993   0.700
 4573SOL    HW114618   6.934   7.009   0.685
 4573SOL    HW214619   0.058   0.025   0.639
 4574SOL     OW14620   6.056   4.063   0.333
 4574SOL    HW114621   6.135   4.081   0.391
 4574SOL    HW214622   6.036   3.965   0.334
 4575SOL     OW14623   5.395   0.443   5.116
 4575SOL    HW114624   5.307   0.487   5.135
 4575SOL    HW214625   5.386   0.384   5.036
 4576SOL     OW14626   3.821   5.445   5.537
 4576SOL    HW114627   3.808   5.359   5.585
 4576SOL    HW214628   3.901   5.440   5.478
 4577SOL     OW14629   0.913   2.866   4.460
 4577SOL    HW114630   1.006   2.844   4.489
 4577SOL    HW214631   0.875   2.936   4.520
 4578SOL     OW14632   1.054   2.009   5.273
 4578SOL    HW114633   0.971   1.954   5.260
 4578SOL    HW214634   1.044   2.064   5.356
 4579SOL     OW14635   4.494   0.342   3.242
 4579SOL    HW114636   4.497   0.431   3.197
 4579SOL    HW214637   4.560   0.342   3.318
 4580SOL     OW14638   5.499   3.620   0.395
 4580SOL    HW114639   5.405   3.620   0.430
 4580SOL    HW214640   5.555   3.683   0.450
 4581SOL     OW14641   2.288   5.908   2.655
 4581SOL    HW114642   2.263   5.933   2.562
 4581SOL    HW214643   2.251   5.818   2.677
 4582SOL     OW14644   4.687   0.649   4.233
 4582SOL    HW114645   4.780   0.679   4.209
 4582SOL    HW214646   4.622   0.722   4.214
 4583SOL     OW14647   2.986   1.858   6.950
 4583SOL    HW114648   2.919   1.932   6.951
 4583SOL    HW214649   3.031   1.855   6.861
 4584SOL     OW14650   1.834   5.029   5.392
 4584SOL    HW114651   1.766   5.015   5.464
 4584SOL    HW214652   1.790   5.024   5.302
 4585SOL     OW14653   1.684   5.387   3.102
 4585SOL    HW114654   1.667   5.418   3.009
 4585SOL    HW214655   1.630   5.305   3.120
 4586SOL     OW14656   4.122   4.169   0.907
 4586SOL    HW114657   4.178   4.199   0.830
 4586SOL    HW214658   4.039   4.126   0.874
 4587SOL     OW14659   3.375   4.130   3.484
 4587SOL    HW114660   3.450   4.193   3.506
 4587SOL    HW214661   3.315   4.122   3.563
 4588SOL     OW14662   2.784   2.925   5.867
 4588SOL    HW114663   2.825   3.016   5.868
 4588SOL    HW214664   2.713   2.919   5.937
 4589SOL     OW14665   5.811   0.666   2.173
 4589SOL    HW114666   5.860   0.628   2.252
 4589SOL    HW214667   5.756   0.744   2.203
 4590SOL     OW14668   4.497   5.501   1.536
 4590SOL    HW114669   4.431   5.481   1.463
 4590SOL    HW214670   4.487   5.434   1.609
 4591SOL     OW14671   1.325   0.473   4.815
 4591SOL    HW114672   1.394   0.525   4.865
 4591SOL    HW214673   1.363   0.441   4.728
 4592SOL     OW14674   2.755   1.365   3.380
 4592SOL    HW114675   2.808   1.360   3.296
 4592SOL    HW214676   2.813   1.338   3.457
 4593SOL     OW14677   5.792   6.239   1.890
 4593SOL    HW114678   5.857   6.270   1.821
 4593SOL    HW214679   5.840   6.181   1.957
 4594SOL     OW14680   2.877   0.770   3.213
 4594SOL    HW114681   2.940   0.732   3.145
 4594SOL    HW214682   2.859   0.866   3.191
 4595SOL     OW14683   5.045   3.074   5.812
 4595SOL    HW114684   4.945   3.072   5.803
 4595SOL    HW214685   5.074   3.161   5.852
 4596SOL     OW14686   6.461   0.584   2.903
 4596SOL    HW114687   6.437   0.613   2.810
 4596SOL    HW214688   6.390   0.615   2.966
 4597SOL     OW14689   2.749   5.566   6.865
 4597SOL    HW114690   2.719   5.621   6.788
 4597SOL    HW214691   2.836   5.601   6.899
 4598SOL     OW14692   1.369   5.774   1.194
 4598SOL    HW114693   1.291   5.713   1.206
 4598SOL    HW214694   1.446   5.723   1.156
 4599SOL     OW14695   1.151   5.322   1.118
 4599SOL    HW114696   1.170   5.230   1.084
 4599SOL    HW214697   1.154   5.387   1.041
 4600SOL     OW14698   0.438   6.192   5.550
 4600SOL    HW114699   0.355   6.155   5.507
 4600SOL    HW214700   0.444   6.160   5.645
 4601SOL     OW14701   1.238   1.553   5.118
 4601SOL    HW114702   1.302   1.630   5.117
 4601SOL    HW214703   1.256   1.493   5.041
 4602SOL     OW14704   3.324   6.414   0.478
 4602SOL    HW114705   3.325   6.325   0.524
 4602SOL    HW214706   3.232   6.434   0.445
 4603SOL     OW14707   3.919   6.138   1.123
 4603SOL    HW114708   4.003   6.188   1.100
 4603SOL    HW214709   3.863   6.193   1.184
 4604SOL     OW14710   4.486   6.786   0.053
 4604SOL    HW114711   4.421   6.856   0.083
 4604SOL    HW214712   4.540   6.755   0.132
 4605SOL     OW14713   1.369   6.245   2.176
 4605SOL    HW114714   1.363   6.167   2.239
 4605SOL    HW214715   1.283   6.296   2.178
 4606SOL     OW14716   0.809   6.478   2.530
 4606SOL    HW114717   0.894   6.437   2.563
 4606SOL    HW214718   0.800   6.463   2.431
 4607SOL     OW14719   2.115   3.440   3.228
 4607SOL    HW114720   2.125   3.358   3.284
 4607SOL    HW214721   2.115   3.521   3.286
 4608SOL     OW14722   0.285   5.056   3.882
 4608SOL    HW114723   0.324   4.979   3.933
 4608SOL    HW214724   0.212   5.098   3.936
 4609SOL     OW14725   5.109   5.117   6.782
 4609SOL    HW114726   5.171   5.105   6.704
 4609SOL    HW214727   5.097   5.214   6.800
 4610SOL     OW14728   4.879   1.729   0.720
 4610SOL    HW114729   4.929   1.651   0.683
 4610SOL    HW214730   4.798   1.697   0.768
 4611SOL     OW14731   0.991   6.874   5.817
 4611SOL    HW114732   0.914   6.931   5.787
 4611SOL    HW214733   1.077   6.921   5.796
 4612SOL     OW14734   2.140   6.767   0.920
 4612SOL    HW114735   2.042   6.768   0.899
 4612SOL    HW214736   2.153   6.778   1.019
 4613SOL     OW14737   1.749   5.744   2.068
 4613SOL    HW114738   1.692   5.825   2.081
 4613SOL    HW214739   1.845   5.770   2.079
 4614SOL     OW14740   5.700   3.179   3.567
 4614SOL    HW114741   5.752   3.247   3.619
 4614SOL    HW214742   5.603   3.188   3.587
 4615SOL     OW14743   0.733   1.474   0.696
 4615SOL    HW114744   0.824   1.503   0.666
 4615SOL    HW214745   0.708   1.389   0.650
 4616SOL     OW14746   6.219   1.347   4.436
 4616SOL    HW114747   6.223   1.250   4.460
 4616SOL    HW214748   6.268   1.361   4.350
 4617SOL     OW14749   0.970   1.666   3.134
 4617SOL    HW114750   0.882   1.703   3.105
 4617SOL    HW214751   0.975   1.665   3.233
 4618SOL     OW14752   2.563   3.228   5.354
 4618SOL    HW114753   2.494   3.301   5.350
 4618SOL    HW214754   2.533   3.151   5.298
 4619SOL     OW14755   2.742   5.926   3.431
 4619SOL    HW114756   2.783   6.012   3.399
 4619SOL    HW214757   2.654   5.912   3.386
 4620SOL     OW14758   0.747   5.387   0.891
 4620SOL    HW114759   0.655   5.397   0.853
 4620SOL    HW214760   0.741   5.367   0.989
 4621SOL     OW14761   4.839   1.015   2.362
 4621SOL    HW114762   4.814   1.111   2.357
 4621SOL    HW214763   4.805   0.976   2.448
 4622SOL     OW14764   4.013   4.642   0.591
 4622SOL    HW114765   3.957   4.704   0.646
 4622SOL    HW214766   4.089   4.609   0.647
 4623SOL     OW14767   5.032   5.874   1.639
 4623SOL    HW114768   5.029   5.786   1.593
 4623SOL    HW214769   5.103   5.932   1.597
 4624SOL     OW14770   3.453   0.155   2.975
 4624SOL    HW114771   3.438   0.155   3.074
 4624SOL    HW214772   3.535   0.102   2.954
 4625SOL     OW14773   1.568   5.131   1.831
 4625SOL    HW114774   1.587   5.068   1.756
 4625SOL    HW214775   1.470   5.132   1.850
 4626SOL     OW14776   4.638   4.013   1.733
 4626SOL    HW114777   4.584   4.089   1.770
 4626SOL    HW214778   4.658   3.948   1.806
 4627SOL     OW14779   1.937   4.838   4.923
 4627SOL    HW114780   2.002   4.832   4.847
 4627SOL    HW214781   1.921   4.934   4.945
 4628SOL     OW14782   4.556   4.542   4.875
 4628SOL    HW114783   4.577   4.639   4.864
 4628SOL    HW214784   4.479   4.531   4.937
 4629SOL     OW14785   2.472   5.472   5.745
 4629SOL    HW114786   2.564   5.507   5.726
 4629SOL    HW214787   2.453   5.480   5.842
 4630SOL     OW14788   2.243   5.565   2.200
 4630SOL    HW114789   2.245   5.540   2.103
 4630SOL    HW214790   2.188   5.497   2.250
 4631SOL     OW14791   1.201   6.361   3.263
 4631SOL    HW114792   1.256   6.407   3.194
 4631SOL    HW214793   1.204   6.262   3.247
 4632SOL     OW14794   2.292   4.230   2.266
 4632SOL    HW114795   2.359   4.170   2.223
 4632SOL    HW214796   2.235   4.273   2.196
 4633SOL     OW14797   5.766   1.029   4.406
 4633SOL    HW114798   5.848   1.062   4.359
 4633SOL    HW214799   5.773   0.931   4.420
 4634SOL     OW14800   2.680   3.922   5.302
 4634SOL    HW114801   2.738   3.848   5.267
 4634SOL    HW214802   2.594   3.923   5.253
 4635SOL     OW14803   4.468   4.328   1.586
 4635SOL    HW114804   4.387   4.282   1.549
 4635SOL    HW214805   4.479   4.304   1.682
 4636SOL     OW14806   1.860   4.199   0.535
 4636SOL    HW114807   1.913   4.118   0.559
 4636SOL    HW214808   1.836   4.196   0.438
 4637SOL     OW14809   0.965   6.615   0.994
 4637SOL    HW114810   0.899   6.542   1.014
 4637SOL    HW214811   0.998   6.654   1.079
 4638SOL     OW14812   4.163   5.591   0.208
 4638SOL    HW114813   4.251   5.635   0.227
 4638SOL    HW214814   4.092   5.661   0.200
 4639SOL     OW14815   3.216   2.778   6.315
 4639SOL    HW114816   3.232   2.755   6.219
 4639SOL    HW214817   3.290   2.835   6.349
 4640SOL     OW14818   5.124   4.013   4.521
 4640SOL    HW114819   5.053   3.965   4.469
 4640SOL    HW214820   5.213   3.999   4.476
 4641SOL     OW14821   2.516   0.627   4.455
 4641SOL    HW114822   2.516   0.727   4.454
 4641SOL    HW214823   2.571   0.592   4.379
 4642SOL     OW14824   1.384   0.226   2.864
 4642SOL    HW114825   1.333   0.297   2.815
 4642SOL    HW214826   1.324   0.183   2.931
 4643SOL     OW14827   6.619   1.500   0.343
 4643SOL    HW114828   6.636   1.461   0.253
 4643SOL    HW214829   6.679   1.580   0.356
 4644SOL     OW14830   0.764   0.431   5.153
 4644SOL    HW114831   0.819   0.438   5.069
 4644SOL    HW214832   0.688   0.369   5.138
 4645SOL     OW14833   1.695   0.774   4.660
 4645SOL    HW114834   1.623   0.836   4.691
 4645SOL    HW214835   1.681   0.683   4.701
 4646SOL     OW14836   2.435   5.892   3.568
 4646SOL    HW114837   2.405   5.810   3.617
 4646SOL    HW214838   2.443   5.872   3.470
 4647SOL     OW14839   1.623   0.880   2.676
 4647SOL    HW114840   1.611   0.782   2.683
 4647SOL    HW214841   1.705   0.908   2.727
 4648SOL     OW14842   3.840   1.025   3.473
 4648SOL    HW114843   3.865   1.088   3.400
 4648SOL    HW214844   3.744   1.037   3.496
 4649SOL     OW14845   5.737   0.752   0.799
 4649SOL    HW114846   5.699   0.818   0.864
 4649SOL    HW214847   5.837   0.759   0.799
 4650SOL     OW14848   4.614   5.568   2.016
 4650SOL    HW114849   4.523   5.562   1.974
 4650SOL    HW214850   4.656   5.656   1.992
 4651SOL     OW14851   6.819   3.405   6.320
 4651SOL    HW114852   6.800   3.464   6.399
 4651SOL    HW214853   6.861   3.459   6.247
 4652SOL     OW14854   6.737   5.956   4.691
 4652SOL    HW114855   6.709   5.867   4.725
 4652SOL    HW214856   6.837   5.961   4.688
 4653SOL     OW14857   5.489   6.257   1.194
 4653SOL    HW114858   5.541   6.303   1.267
 4653SOL    HW214859   5.443   6.177   1.232
 4654SOL     OW14860   0.703   5.774   6.099
 4654SOL    HW114861   0.655   5.751   6.184
 4654SOL    HW214862   0.800   5.753   6.109
 4655SOL     OW14863   6.128   3.562   1.263
 4655SOL    HW114864   6.174   3.475   1.247
 4655SOL    HW214865   6.096   3.598   1.175
 4656SOL     OW14866   1.238   1.262   1.563
 4656SOL    HW114867   1.219   1.164   1.574
 4656SOL    HW214868   1.301   1.292   1.634
 4657SOL     OW14869   4.618   6.007   1.680
 4657SOL    HW114870   4.711   6.037   1.701
 4657SOL    HW214871   4.552   6.071   1.718
 4658SOL     OW14872   2.839   0.793   4.521
 4658SOL    HW114873   2.893   0.837   4.449
 4658SOL    HW214874   2.836   0.694   4.504
 4659SOL     OW14875   2.420   4.148   6.377
 4659SOL    HW114876   2.374   4.059   6.372
 4659SOL    HW214877   2.510   4.141   6.335
 4660SOL     OW14878   1.064   6.112   4.647
 4660SOL    HW114879   1.100   6.173   4.577
 4660SOL    HW214880   1.101   6.138   4.736
 4661SOL     OW14881   3.190   4.758   6.386
 4661SOL    HW114882   3.289   4.750   6.387
 4661SOL    HW214883   3.162   4.826   6.318
 4662SOL     OW14884   2.722   0.451   5.695
 4662SOL    HW114885   2.774   0.536   5.709
 4662SOL    HW214886   2.724   0.397   5.779
 4663SOL     OW14887   0.316   0.736   1.400
 4663SOL    HW114888   0.246   0.682   1.354
 4663SOL    HW214889   0.336   0.697   1.489
 4664SOL     OW14890   1.267   0.718   0.390
 4664SOL    HW114891   1.188   0.770   0.424
 4664SOL    HW214892   1.280   0.636   0.445
 4665SOL     OW14893   3.243   6.898   6.148
 4665SOL    HW114894   3.339   6.878   6.164
 4665SOL    HW214895   3.192   6.812   6.138
 4666SOL     OW14896   2.278   2.689   0.312
 4666SOL    HW114897   2.219   2.611   0.334
 4666SOL    HW214898   2.242   2.772   0.356
 4667SOL     OW14899   6.309   3.793   1.646
 4667SOL    HW114900   6.275   3.804   1.739
 4667SOL    HW214901   6.304   3.881   1.598
 4668SOL     OW14902   4.629   1.312   4.151
 4668SOL    HW114903   4.569   1.243   4.192
 4668SOL    HW214904   4.627   1.395   4.208
 4669SOL     OW14905   4.905   6.091   6.750
 4669SOL    HW114906   4.990   6.065   6.703
 4669SOL    HW214907   4.850   6.009   6.766
 4670SOL     OW14908   1.098   2.287   6.265
 4670SOL    HW114909   1.186   2.327   6.241
 4670SOL    HW214910   1.107   2.233   6.349
 4671SOL     OW14911   0.567   3.202   6.701
 4671SOL    HW114912   0.488   3.260   6.680
 4671SOL    HW214913   0.553   3.155   6.788
 4672SOL     OW14914   3.003   4.734   6.570
 4672SOL    HW114915   3.050   4.768   6.489
 4672SOL    HW214916   3.069   4.686   6.628
 4673SOL     OW14917   5.032   0.478   1.298
 4673SOL    HW114918   4.937   0.482   1.329
 4673SOL    HW214919   5.083   0.554   1.339
 4674SOL     OW14920   5.580   1.331   6.970
 4674SOL    HW114921   5.580   1.394   6.892
 4674SOL    HW214922   5.673   1.297   6.986
 4675SOL     OW14923   3.323   0.940   0.613
 4675SOL    HW114924   3.332   0.872   0.540
 4675SOL    HW214925   3.388   1.014   0.598
 4676SOL     OW14926   0.162   6.636   4.309
 4676SOL    HW114927   0.137   6.571   4.238
 4676SOL    HW214928   0.082   6.659   4.364
 4677SOL     OW14929   3.049   1.006   0.343
 4677SOL    HW114930   2.990   0.933   0.377
 4677SOL    HW214931   3.077   1.065   0.419
 4678SOL     OW14932   1.572   4.318   2.442
 4678SOL    HW114933   1.577   4.268   2.529
 4678SOL    HW214934   1.645   4.386   2.439
 4679SOL     OW14935   3.482   1.194   0.001
 4679SOL    HW114936   3.429   1.230   0.078
 4679SOL    HW214937   3.540   1.119   0.033
 4680SOL     OW14938   1.861   0.359   2.022
 4680SOL    HW114939   1.812   0.371   2.108
 4680SOL    HW214940   1.836   0.271   1.981
 4681SOL     OW14941   6.085   5.174   5.670
 4681SOL    HW114942   6.166   5.186   5.728
 4681SOL    HW214943   6.029   5.258   5.674
 4682SOL     OW14944   4.331   4.281   6.806
 4682SOL    HW114945   4.354   4.243   6.895
 4682SOL    HW214946   4.385   4.363   6.789
 4683SOL     OW14947   4.646   4.761   2.443
 4683SOL    HW114948   4.693   4.843   2.476
 4683SOL    HW214949   4.713   4.694   2.413
 4684SOL     OW14950   6.904   1.692   4.386
 4684SOL    HW114951   6.971   1.627   4.421
 4684SOL    HW214952   6.811   1.656   4.400
 4685SOL     OW14953   0.348   6.562   5.151
 4685SOL    HW114954   0.347   6.465   5.178
 4685SOL    HW214955   0.285   6.613   5.210
 4686SOL     OW14956   5.415   5.546   0.308
 4686SOL    HW114957   5.489   5.527   0.243
 4686SOL    HW214958   5.429   5.636   0.350
 4687SOL     OW14959   0.200   4.988   5.265
 4687SOL    HW114960   0.289   4.966   5.224
 4687SOL    HW214961   0.194   4.949   5.356
 4688SOL     OW14962   6.833   3.357   5.685
 4688SOL    HW114963   6.920   3.382   5.725
 4688SOL    HW214964   6.843   3.270   5.635
 4689SOL     OW14965   6.109   0.542   6.879
 4689SOL    HW114966   6.160   0.611   6.930
 4689SOL    HW214967   6.046   0.495   6.941
 4690SOL     OW14968   1.487   0.917   6.943
 4690SOL    HW114969   1.496   1.014   6.966
 4690SOL    HW214970   1.391   0.895   6.926
 4691SOL     OW14971   3.053   4.750   1.784
 4691SOL    HW114972   2.997   4.699   1.849
 4691SOL    HW214973   3.088   4.833   1.828
 4692SOL     OW14974   6.734   6.084   2.535
 4692SOL    HW114975   6.755   6.179   2.559
 4692SOL    HW214976   6.696   6.036   2.613
 4693SOL     OW14977   0.446   0.715   3.631
 4693SOL    HW114978   0.499   0.634   3.656
 4693SOL    HW214979   0.349   0.689   3.624
 4694SOL     OW14980   2.965   0.383   0.325
 4694SOL    HW114981   2.943   0.289   0.352
 4694SOL    HW214982   3.009   0.430   0.402
 4695SOL     OW14983   2.576   3.159   1.674
 4695SOL    HW114984   2.514   3.202   1.740
 4695SOL    HW214985   2.547   3.065   1.659
 4696SOL     OW14986   0.308   4.401   5.461
 4696SOL    HW114987   0.329   4.308   5.493
 4696SOL    HW214988   0.370   4.425   5.386
 4697SOL     OW14989   1.801   2.825   0.974
 4697SOL    HW114990   1.735   2.889   1.013
 4697SOL    HW214991   1.884   2.874   0.947
 4698SOL     OW14992   3.791   5.626   2.831
 4698SOL    HW114993   3.849   5.545   2.826
 4698SOL    HW214994   3.777   5.652   2.926
 4699SOL     OW14995   1.101   6.123   2.459
 4699SOL    HW114996   1.194   6.118   2.495
 4699SOL    HW214997   1.102   6.108   2.360
 4700SOL     OW14998   6.466   1.431   2.753
 4700SOL    HW114999   6.493   1.496   2.682
 4700SOL    HW215000   6.434   1.346   2.711
 4701SOL     OW15001   1.953   1.827   1.026
 4701SOL    HW115002   2.025   1.853   0.961
 4701SOL    HW215003   1.943   1.728   1.027
 4702SOL     OW15004   5.979   4.813   6.760
 4702SOL    HW115005   5.965   4.874   6.682
 4702SOL    HW215006   5.995   4.867   6.842
 4703SOL     OW15007   1.420   2.636   1.675
 4703SOL    HW115008   1.441   2.701   1.748
 4703SOL    HW215009   1.504   2.615   1.625
 4704SOL     OW15010   1.229   6.516   6.913
 4704SOL    HW115011   1.215   6.531   6.816
 4704SOL    HW215012   1.278   6.594   6.953
 4705SOL     OW15013   3.624   3.382   2.777
 4705SOL    HW115014   3.708   3.328   2.789
 4705SOL    HW215015   3.647   3.469   2.732
 4706SOL     OW15016   3.608   6.409   6.347
 4706SOL    HW115017   3.648   6.362   6.425
 4706SOL    HW215018   3.557   6.490   6.378
 4707SOL     OW15019   2.281   5.534   0.841
 4707SOL    HW115020   2.313   5.486   0.759
 4707SOL    HW215021   2.329   5.499   0.921
 4708SOL     OW15022   1.677   2.499   6.629
 4708SOL    HW115023   1.710   2.565   6.697
 4708SOL    HW215024   1.579   2.484   6.644
 4709SOL     OW15025   3.782   5.271   5.246
 4709SOL    HW115026   3.789   5.366   5.215
 4709SOL    HW215027   3.826   5.210   5.180
 4710SOL     OW15028   3.641   1.428   6.128
 4710SOL    HW115029   3.589   1.349   6.094
 4710SOL    HW215030   3.588   1.473   6.200
 4711SOL     OW15031   5.356   0.735   1.976
 4711SOL    HW115032   5.436   0.676   1.985
 4711SOL    HW215033   5.291   0.695   1.911
 4712SOL     OW15034   3.099   4.341   0.587
 4712SOL    HW115035   3.094   4.296   0.498
 4712SOL    HW215036   3.124   4.273   0.657
 4713SOL     OW15037   3.148   4.089   1.130
 4713SOL    HW115038   3.155   3.994   1.101
 4713SOL    HW215039   3.093   4.140   1.063
 4714SOL     OW15040   1.839   2.330   0.235
 4714SOL    HW115041   1.794   2.282   0.160
 4714SOL    HW215042   1.825   2.278   0.320
 4715SOL     OW15043   6.393   3.412   1.568
 4715SOL    HW115044   6.311   3.417   1.511
 4715SOL    HW215045   6.423   3.316   1.574
 4716SOL     OW15046   4.122   6.215   6.502
 4716SOL    HW115047   4.069   6.154   6.561
 4716SOL    HW215048   4.104   6.194   6.406
 4717SOL     OW15049   0.065   6.288   3.573
 4717SOL    HW115050   0.029   6.364   3.518
 4717SOL    HW215051   0.015   6.283   3.660
 4718SOL     OW15052   5.615   1.918   6.848
 4718SOL    HW115053   5.546   1.988   6.862
 4718SOL    HW215054   5.706   1.959   6.852
 4719SOL     OW15055   5.082   3.341   2.467
 4719SOL    HW115056   5.128   3.302   2.547
 4719SOL    HW215057   5.113   3.293   2.385
 4720SOL     OW15058   1.958   5.939   5.594
 4720SOL    HW115059   1.975   5.879   5.516
 4720SOL    HW215060   1.868   5.981   5.584
 4721SOL     OW15061   6.816   2.612   1.240
 4721SOL    HW115062   6.912   2.584   1.231
 4721SOL    HW215063   6.756   2.534   1.222
 4722SOL     OW15064   1.122   5.703   6.618
 4722SOL    HW115065   1.058   5.663   6.684
 4722SOL    HW215066   1.092   5.797   6.596
 4723SOL     OW15067   2.315   4.870   6.171
 4723SOL    HW115068   2.372   4.857   6.089
 4723SOL    HW215069   2.275   4.962   6.169
 4724SOL     OW15070   5.245   5.934   2.781
 4724SOL    HW115071   5.215   5.909   2.873
 4724SOL    HW215072   5.176   5.905   2.714
 4725SOL     OW15073   6.516   6.735   2.156
 4725SOL    HW115074   6.558   6.753   2.244
 4725SOL    HW215075   6.451   6.659   2.164
 4726SOL     OW15076   2.005   3.100   6.443
 4726SOL    HW115077   1.999   3.028   6.375
 4726SOL    HW215078   1.923   3.099   6.501
 4727SOL     OW15079   0.079   6.551   6.451
 4727SOL    HW115080   0.162   6.603   6.473
 4727SOL    HW215081   0.001   6.614   6.446
 4728SOL     OW15082   4.960   0.586   0.334
 4728SOL    HW115083   4.998   0.576   0.243
 4728SOL    HW215084   4.955   0.683   0.358
 4729SOL     OW15085   2.390   1.448   1.852
 4729SOL    HW115086   2.395   1.392   1.769
 4729SOL    HW215087   2.295   1.462   1.878
 4730SOL     OW15088   2.618   5.645   5.316
 4730SOL    HW115089   2.596   5.733   5.274
 4730SOL    HW215090   2.641   5.658   5.412
 4731SOL     OW15091   4.396   6.919   5.972
 4731SOL    HW115092   4.324   6.907   6.040
 4731SOL    HW215093   4.468   6.851   5.987
 4732SOL     OW15094   0.055   3.954   5.697
 4732SOL    HW115095   0.021   4.013   5.623
 4732SOL    HW215096   0.139   3.992   5.734
 4733SOL     OW15097   1.453   4.212   3.477
 4733SOL    HW115098   1.537   4.164   3.503
 4733SOL    HW215099   1.415   4.170   3.395
 4734SOL     OW15100   5.042   2.942   6.483
 4734SOL    HW115101   4.995   2.944   6.571
 4734SOL    HW215102   5.005   2.868   6.426
 4735SOL     OW15103   0.838   5.443   4.318
 4735SOL    HW115104   0.813   5.512   4.385
 4735SOL    HW215105   0.903   5.379   4.359
 4736SOL     OW15106   0.254   1.763   6.252
 4736SOL    HW115107   0.264   1.667   6.278
 4736SOL    HW215108   0.233   1.818   6.333
 4737SOL     OW15109   1.029   5.091   2.418
 4737SOL    HW115110   0.956   5.113   2.482
 4737SOL    HW215111   1.039   4.992   2.411
 4738SOL     OW15112   0.009   5.685   2.799
 4738SOL    HW115113   0.050   5.740   2.872
 4738SOL    HW215114   7.026   5.741   2.717
 4739SOL     OW15115   4.932   6.575   3.457
 4739SOL    HW115116   4.917   6.630   3.374
 4739SOL    HW215117   4.852   6.518   3.474
 4740SOL     OW15118   0.298   1.534   1.166
 4740SOL    HW115119   0.200   1.523   1.185
 4740SOL    HW215120   0.349   1.461   1.211
 4741SOL     OW15121   3.382   2.841   1.268
 4741SOL    HW115122   3.352   2.765   1.325
 4741SOL    HW215123   3.315   2.856   1.195
 4742SOL     OW15124   2.239   6.401   5.198
 4742SOL    HW115125   2.197   6.341   5.129
 4742SOL    HW215126   2.176   6.413   5.274
 4743SOL     OW15127   2.178   4.018   2.705
 4743SOL    HW115128   2.123   3.936   2.722
 4743SOL    HW215129   2.152   4.059   2.617
 4744SOL     OW15130   1.736   5.141   0.843
 4744SOL    HW115131   1.788   5.203   0.785
 4744SOL    HW215132   1.791   5.116   0.922
 4745SOL     OW15133   2.841   4.310   6.590
 4745SOL    HW115134   2.921   4.254   6.611
 4745SOL    HW215135   2.792   4.271   6.513
 4746SOL     OW15136   4.515   6.656   3.858
 4746SOL    HW115137   4.511   6.742   3.909
 4746SOL    HW215138   4.440   6.597   3.887
 4747SOL     OW15139   0.941   3.798   0.770
 4747SOL    HW115140   1.016   3.734   0.757
 4747SOL    HW215141   0.976   3.892   0.764
 4748SOL     OW15142   1.844   5.892   1.310
 4748SOL    HW115143   1.797   5.806   1.330
 4748SOL    HW215144   1.829   5.956   1.385
 4749SOL     OW15145   1.875   6.544   6.441
 4749SOL    HW115146   1.890   6.635   6.403
 4749SOL    HW215147   1.779   6.518   6.430
 4750SOL     OW15148   6.879   3.315   5.291
 4750SOL    HW115149   6.911   3.321   5.197
 4750SOL    HW215150   6.884   3.405   5.334
 4751SOL     OW15151   4.614   2.638   2.911
 4751SOL    HW115152   4.643   2.726   2.873
 4751SOL    HW215153   4.572   2.583   2.839
 4752SOL     OW15154   4.243   1.046   0.148
 4752SOL    HW115155   4.227   1.141   0.175
 4752SOL    HW215156   4.332   1.039   0.101
 4753SOL     OW15157   0.578   0.251   4.105
 4753SOL    HW115158   0.604   0.341   4.140
 4753SOL    HW215159   0.496   0.260   4.049
 4754SOL     OW15160   5.152   4.071   4.832
 4754SOL    HW115161   5.167   3.997   4.897
 4754SOL    HW215162   5.239   4.105   4.798
 4755SOL     OW15163   2.988   1.026   0.705
 4755SOL    HW115164   3.065   1.088   0.719
 4755SOL    HW215165   2.905   1.079   0.688
 4756SOL     OW15166   5.580   3.725   5.504
 4756SOL    HW115167   5.562   3.685   5.414
 4756SOL    HW215168   5.673   3.762   5.505
 4757SOL     OW15169   2.519   1.992   1.331
 4757SOL    HW115170   2.466   2.070   1.298
 4757SOL    HW215171   2.457   1.918   1.358
 4758SOL     OW15172   1.551   6.549   3.094
 4758SOL    HW115173   1.574   6.456   3.067
 4758SOL    HW215174   1.634   6.604   3.100
 4759SOL     OW15175   0.803   4.462   6.295
 4759SOL    HW115176   0.891   4.487   6.333
 4759SOL    HW215177   0.813   4.445   6.196
 4760SOL     OW15178   2.643   1.780   0.354
 4760SOL    HW115179   2.668   1.875   0.374
 4760SOL    HW215180   2.559   1.757   0.403
 4761SOL     OW15181   1.246   0.327   0.730
 4761SOL    HW115182   1.330   0.311   0.782
 4761SOL    HW215183   1.168   0.290   0.781
 4762SOL     OW15184   1.318   6.015   2.709
 4762SOL    HW115185   1.390   5.957   2.747
 4762SOL    HW215186   1.352   6.059   2.625
 4763SOL     OW15187   5.282   0.509   2.647
 4763SOL    HW115188   5.208   0.552   2.700
 4763SOL    HW215189   5.257   0.506   2.551
 4764SOL     OW15190   4.450   3.614   5.359
 4764SOL    HW115191   4.540   3.596   5.317
 4764SOL    HW215192   4.392   3.661   5.292
 4765SOL     OW15193   3.625   0.657   5.716
 4765SOL    HW115194   3.581   0.688   5.632
 4765SOL    HW215195   3.678   0.732   5.756
 4766SOL     OW15196   6.054   6.109   4.344
 4766SOL    HW115197   6.061   6.189   4.284
 4766SOL    HW215198   5.988   6.044   4.307
 4767SOL     OW15199   3.333   4.850   5.262
 4767SOL    HW115200   3.238   4.818   5.263
 4767SOL    HW215201   3.374   4.836   5.352
 4768SOL     OW15202   3.734   2.681   6.059
 4768SOL    HW115203   3.799   2.716   6.127
 4768SOL    HW215204   3.781   2.667   5.972
 4769SOL     OW15205   4.409   6.027   0.529
 4769SOL    HW115206   4.410   5.941   0.580
 4769SOL    HW215207   4.371   6.010   0.437
 4770SOL     OW15208   0.449   2.067   4.481
 4770SOL    HW115209   0.394   1.987   4.506
 4770SOL    HW215210   0.532   2.037   4.433
 4771SOL     OW15211   2.910   6.803   6.499
 4771SOL    HW115212   2.938   6.740   6.427
 4771SOL    HW215213   2.890   6.753   6.583
 4772SOL     OW15214   3.575   4.653   0.743
 4772SOL    HW115215   3.584   4.753   0.750
 4772SOL    HW215216   3.478   4.629   0.738
 4773SOL     OW15217   0.474   5.564   5.370
 4773SOL    HW115218   0.501   5.549   5.465
 4773SOL    HW215219   0.487   5.661   5.347
 4774SOL     OW15220   1.615   4.046   1.069
 4774SOL    HW115221   1.528   4.006   1.039
 4774SOL    HW215222   1.667   3.978   1.121
 4775SOL     OW15223   4.818   6.713   3.771
 4775SOL    HW115224   4.751   6.645   3.802
 4775SOL    HW215225   4.895   6.666   3.728
 4776SOL     OW15226   0.813   1.040   5.423
 4776SOL    HW115227   0.721   1.044   5.383
 4776SOL    HW215228   0.836   1.130   5.461
 4777SOL     OW15229   1.878   5.652   1.061
 4777SOL    HW115230   1.846   5.596   1.138
 4777SOL    HW215231   1.953   5.711   1.092
 4778SOL     OW15232   0.021   2.439   4.519
 4778SOL    HW115233   0.036   2.538   4.525
 4778SOL    HW215234   0.014   2.401   4.611
 4779SOL     OW15235   5.666   6.953   3.506
 4779SOL    HW115236   5.711   6.896   3.574
 4779SOL    HW215237   5.636   6.897   3.429
 4780SOL     OW15238   5.708   2.430   6.885
 4780SOL    HW115239   5.666   2.518   6.864
 4780SOL    HW215240   5.763   2.400   6.807
 4781SOL     OW15241   2.910   5.658   1.999
 4781SOL    HW115242   2.827   5.606   2.018
 4781SOL    HW215243   2.915   5.678   1.901
 4782SOL     OW15244   5.844   5.790   6.501
 4782SOL    HW115245   5.938   5.758   6.488
 4782SOL    HW215246   5.783   5.737   6.442
 4783SOL     OW15247   5.623   3.512   6.831
 4783SOL    HW115248   5.649   3.509   6.735
 4783SOL    HW215249   5.608   3.607   6.859
 4784SOL     OW15250   6.309   2.283   6.167
 4784SOL    HW115251   6.275   2.203   6.118
 4784SOL    HW215252   6.388   2.257   6.222
 4785SOL     OW15253   0.156   6.549   3.178
 4785SOL    HW115254   0.251   6.540   3.149
 4785SOL    HW215255   0.098   6.494   3.118
 4786SOL     OW15256   2.498   6.756   0.226
 4786SOL    HW115257   2.577   6.699   0.248
 4786SOL    HW215258   2.502   6.783   0.130
 4787SOL     OW15259   3.912   2.007   3.353
 4787SOL    HW115260   3.868   2.058   3.279
 4787SOL    HW215261   3.864   2.025   3.439
 4788SOL     OW15262   6.593   5.674   0.620
 4788SOL    HW115263   6.557   5.662   0.527
 4788SOL    HW215264   6.679   5.624   0.629
 4789SOL     OW15265   5.003   1.941   1.445
 4789SOL    HW115266   5.043   1.891   1.522
 4789SOL    HW215267   4.910   1.970   1.469
 4790SOL     OW15268   5.725   1.745   5.813
 4790SOL    HW115269   5.797   1.810   5.787
 4790SOL    HW215270   5.686   1.704   5.731
 4791SOL     OW15271   0.202   2.987   1.791
 4791SOL    HW115272   0.146   2.978   1.709
 4791SOL    HW215273   0.160   2.933   1.865
 4792SOL     OW15274   2.211   4.336   4.457
 4792SOL    HW115275   2.211   4.401   4.532
 4792SOL    HW215276   2.252   4.250   4.488
 4793SOL     OW15277   1.933   3.836   5.066
 4793SOL    HW115278   1.868   3.771   5.106
 4793SOL    HW215279   1.903   3.929   5.086
 4794SOL     OW15280   4.295   6.729   4.596
 4794SOL    HW115281   4.202   6.730   4.634
 4794SOL    HW215282   4.346   6.653   4.636
 4795SOL     OW15283   6.523   1.543   4.197
 4795SOL    HW115284   6.560   1.563   4.106
 4795SOL    HW215285   6.586   1.579   4.267
 4796SOL     OW15286   4.338   0.373   6.302
 4796SOL    HW115287   4.325   0.283   6.262
 4796SOL    HW215288   4.379   0.435   6.235
 4797SOL     OW15289   0.763   6.217   4.721
 4797SOL    HW115290   0.700   6.260   4.656
 4797SOL    HW215291   0.857   6.226   4.687
 4798SOL     OW15292   6.329   4.834   5.433
 4798SOL    HW115293   6.272   4.905   5.474
 4798SOL    HW215294   6.372   4.869   5.350
 4799SOL     OW15295   4.471   1.487   0.976
 4799SOL    HW115296   4.391   1.540   1.004
 4799SOL    HW215297   4.445   1.421   0.905
 4800SOL     OW15298   1.700   4.144   6.771
 4800SOL    HW115299   1.647   4.228   6.786
 4800SOL    HW215300   1.721   4.101   6.859
 4801SOL     OW15301   3.168   2.547   6.474
 4801SOL    HW115302   3.202   2.604   6.400
 4801SOL    HW215303   3.068   2.557   6.481
 4802SOL     OW15304   0.353   6.698   1.777
 4802SOL    HW115305   0.388   6.787   1.805
 4802SOL    HW215306   0.362   6.688   1.678
 4803SOL     OW15307   6.895   4.466   1.058
 4803SOL    HW115308   6.807   4.434   1.094
 4803SOL    HW215309   6.965   4.457   1.128
 4804SOL     OW15310   6.896   6.795   1.216
 4804SOL    HW115311   6.818   6.843   1.176
 4804SOL    HW215312   6.867   6.749   1.300
 4805SOL     OW15313   6.504   1.245   2.200
 4805SOL    HW115314   6.576   1.286   2.256
 4805SOL    HW215315   6.441   1.315   2.169
 4806SOL     OW15316   0.954   3.600   2.782
 4806SOL    HW115317   1.022   3.669   2.757
 4806SOL    HW215318   0.986   3.510   2.752
 4807SOL     OW15319   0.767   4.138   6.236
 4807SOL    HW115320   0.832   4.209   6.210
 4807SOL    HW215321   0.747   4.145   6.334
 4808SOL     OW15322   3.968   5.414   1.065
 4808SOL    HW115323   3.897   5.484   1.071
 4808SOL    HW215324   4.055   5.452   1.097
 4809SOL     OW15325   3.790   5.096   1.373
 4809SOL    HW115326   3.807   5.170   1.438
 4809SOL    HW215327   3.835   5.116   1.286
 4810SOL     OW15328   1.875   4.403   2.972
 4810SOL    HW115329   1.973   4.421   2.959
 4810SOL    HW215330   1.848   4.432   3.064
 4811SOL     OW15331   3.740   3.676   3.037
 4811SOL    HW115332   3.700   3.722   2.958
 4811SOL    HW215333   3.839   3.678   3.029
 4812SOL     OW15334   0.401   0.536   2.450
 4812SOL    HW115335   0.315   0.527   2.398
 4812SOL    HW215336   0.433   0.445   2.476
 4813SOL     OW15337   6.069   1.428   6.418
 4813SOL    HW115338   5.970   1.424   6.436
 4813SOL    HW215339   6.084   1.471   6.329
 4814SOL     OW15340   0.080   3.219   1.864
 4814SOL    HW115341   0.142   3.141   1.875
 4814SOL    HW215342   0.059   3.231   1.767
 4815SOL     OW15343   5.643   4.414   2.894
 4815SOL    HW115344   5.599   4.502   2.913
 4815SOL    HW215345   5.689   4.381   2.976
 4816SOL     OW15346   2.211   5.307   1.463
 4816SOL    HW115347   2.289   5.293   1.524
 4816SOL    HW215348   2.127   5.299   1.515
 4817SOL     OW15349   2.947   1.116   1.748
 4817SOL    HW115350   2.957   1.212   1.722
 4817SOL    HW215351   3.025   1.064   1.713
 4818SOL     OW15352   0.923   1.193   4.044
 4818SOL    HW115353   0.914   1.111   3.988
 4818SOL    HW215354   0.858   1.189   4.120
 4819SOL     OW15355   2.760   2.425   1.458
 4819SOL    HW115356   2.826   2.384   1.520
 4819SOL    HW215357   2.789   2.517   1.433
 4820SOL     OW15358   6.637   2.037   0.321
 4820SOL    HW115359   6.582   1.954   0.325
 4820SOL    HW215360   6.733   2.012   0.310
 4821SOL     OW15361   6.973   0.052   1.225
 4821SOL    HW115362   6.955   6.980   1.232
 4821SOL    HW215363   6.943   0.097   1.309
 4822SOL     OW15364   1.818   2.786   3.581
 4822SOL    HW115365   1.904   2.821   3.542
 4822SOL    HW215366   1.813   2.809   3.678
 4823SOL     OW15367   0.338   1.668   3.863
 4823SOL    HW115368   0.288   1.611   3.797
 4823SOL    HW215369   0.418   1.708   3.818
 4824SOL     OW15370   5.660   1.996   3.828
 4824SOL    HW115371   5.616   1.908   3.845
 4824SOL    HW215372   5.753   1.981   3.796
 4825SOL     OW15373   2.055   2.735   4.204
 4825SOL    HW115374   2.073   2.825   4.243
 4825SOL    HW215375   2.011   2.676   4.272
 4826SOL     OW15376   0.630   0.375   6.669
 4826SOL    HW115377   0.652   0.278   6.687
 4826SOL    HW215378   0.566   0.408   6.739
 4827SOL     OW15379   5.883   1.065   1.554
 4827SOL    HW115380   5.839   1.006   1.622
 4827SOL    HW215381   5.813   1.111   1.500
 4828SOL     OW15382   5.496   3.175   0.882
 4828SOL    HW115383   5.466   3.192   0.788
 4828SOL    HW215384   5.474   3.081   0.908
 4829SOL     OW15385   3.978   6.272   6.810
 4829SOL    HW115386   3.954   6.314   6.897
 4829SOL    HW215387   4.008   6.342   6.746
 4830SOL     OW15388   5.231   5.848   3.935
 4830SOL    HW115389   5.295   5.901   3.880
 4830SOL    HW215390   5.269   5.836   4.027
 4831SOL     OW15391   6.804   5.471   5.830
 4831SOL    HW115392   6.836   5.396   5.887
 4831SOL    HW215393   6.883   5.522   5.795
 4832SOL     OW15394   2.828   2.509   5.705
 4832SOL    HW115395   2.735   2.546   5.705
 4832SOL    HW215396   2.889   2.574   5.660
 4833SOL     OW15397   5.138   1.203   3.087
 4833SOL    HW115398   5.137   1.127   3.022
 4833SOL    HW215399   5.105   1.286   3.042
 4834SOL     OW15400   3.865   0.523   0.642
 4834SOL    HW115401   3.873   0.602   0.703
 4834SOL    HW215402   3.777   0.478   0.657
 4835SOL     OW15403   1.035   1.133   6.664
 4835SOL    HW115404   1.086   1.157   6.582
 4835SOL    HW215405   1.071   1.048   6.703
 4836SOL     OW15406   4.861   3.201   3.444
 4836SOL    HW115407   4.923   3.128   3.474
 4836SOL    HW215408   4.793   3.220   3.515
 4837SOL     OW15409   4.591   3.525   1.679
 4837SOL    HW115410   4.659   3.597   1.694
 4837SOL    HW215411   4.637   3.437   1.669
 4838SOL     OW15412   1.758   4.954   2.001
 4838SOL    HW115413   1.800   4.928   1.914
 4838SOL    HW215414   1.692   5.028   1.985
 4839SOL     OW15415   1.815   3.795   5.442
 4839SOL    HW115416   1.763   3.757   5.518
 4839SOL    HW215417   1.913   3.790   5.463
 4840SOL     OW15418   0.708   6.725   5.359
 4840SOL    HW115419   0.722   6.819   5.328
 4840SOL    HW215420   0.633   6.723   5.426
 4841SOL     OW15421   2.555   6.201   1.425
 4841SOL    HW115422   2.635   6.178   1.370
 4841SOL    HW215423   2.488   6.127   1.420
 4842SOL     OW15424   3.364   4.711   1.709
 4842SOL    HW115425   3.323   4.796   1.741
 4842SOL    HW215426   3.460   4.708   1.738
 4843SOL     OW15427   5.881   3.725   0.525
 4843SOL    HW115428   5.920   3.633   0.539
 4843SOL    HW215429   5.883   3.747   0.427
 4844SOL     OW15430   6.672   3.412   5.878
 4844SOL    HW115431   6.715   3.378   5.794
 4844SOL    HW215432   6.729   3.484   5.918
 4845SOL     OW15433   6.722   5.652   4.459
 4845SOL    HW115434   6.673   5.649   4.546
 4845SOL    HW215435   6.666   5.610   4.388
 4846SOL     OW15436   6.632   3.361   3.196
 4846SOL    HW115437   6.601   3.394   3.107
 4846SOL    HW215438   6.647   3.438   3.257
 4847SOL     OW15439   3.406   1.276   5.803
 4847SOL    HW115440   3.459   1.318   5.729
 4847SOL    HW215441   3.391   1.344   5.876
 4848SOL     OW15442   1.537   0.903   3.572
 4848SOL    HW115443   1.463   0.866   3.515
 4848SOL    HW215444   1.499   0.968   3.638
 4849SOL     OW15445   1.047   6.422   6.065
 4849SOL    HW115446   0.989   6.368   6.125
 4849SOL    HW215447   0.990   6.481   6.008
 4850SOL     OW15448   4.147   1.563   2.555
 4850SOL    HW115449   4.075   1.529   2.615
 4850SOL    HW215450   4.107   1.590   2.467
 4851SOL     OW15451   3.697   6.009   5.155
 4851SOL    HW115452   3.729   5.918   5.128
 4851SOL    HW215453   3.757   6.078   5.113
 4852SOL     OW15454   0.656   0.535   5.398
 4852SOL    HW115455   0.663   0.521   5.300
 4852SOL    HW215456   0.586   0.474   5.436
 4853SOL     OW15457   3.163   0.965   3.002
 4853SOL    HW115458   3.187   0.986   3.097
 4853SOL    HW215459   3.136   0.869   2.995
 4854SOL     OW15460   5.172   0.096   2.233
 4854SOL    HW115461   5.121   0.125   2.152
 4854SOL    HW215462   5.112   0.096   2.312
 4855SOL     OW15463   5.774   2.627   2.171
 4855SOL    HW115464   5.753   2.691   2.097
 4855SOL    HW215465   5.750   2.669   2.259
 4856SOL     OW15466   1.948   4.020   2.363
 4856SOL    HW115467   1.988   3.986   2.278
 4856SOL    HW215468   1.928   3.943   2.424
 4857SOL     OW15469   2.215   2.892   5.754
 4857SOL    HW115470   2.208   2.800   5.716
 4857SOL    HW215471   2.188   2.958   5.684
 4858SOL     OW15472   1.145   1.527   4.788
 4858SOL    HW115473   1.087   1.505   4.867
 4858SOL    HW215474   1.128   1.461   4.715
 4859SOL     OW15475   1.660   0.822   4.367
 4859SOL    HW115476   1.738   0.766   4.338
 4859SOL    HW215477   1.624   0.787   4.453
 4860SOL     OW15478   3.926   4.812   2.001
 4860SOL    HW115479   3.843   4.763   2.028
 4860SOL    HW215480   3.949   4.790   1.906
 4861SOL     OW15481   5.159   5.092   0.310
 4861SOL    HW115482   5.083   5.040   0.271
 4861SOL    HW215483   5.244   5.042   0.295
 4862SOL     OW15484   2.984   4.849   4.986
 4862SOL    HW115485   3.022   4.896   5.065
 4862SOL    HW215486   2.949   4.760   5.014
 4863SOL     OW15487   5.923   4.357   1.786
 4863SOL    HW115488   5.888   4.360   1.693
 4863SOL    HW215489   6.015   4.318   1.786
 4864SOL     OW15490   3.935   1.163   3.737
 4864SOL    HW115491   3.921   1.085   3.676
 4864SOL    HW215492   4.030   1.162   3.771
 4865SOL     OW15493   2.445   0.628   5.821
 4865SOL    HW115494   2.465   0.653   5.727
 4865SOL    HW215495   2.349   0.603   5.829
 4866SOL     OW15496   0.265   2.354   0.534
 4866SOL    HW115497   0.252   2.451   0.512
 4866SOL    HW215498   0.338   2.344   0.601
 4867SOL     OW15499   3.835   4.977   3.199
 4867SOL    HW115500   3.896   5.005   3.125
 4867SOL    HW215501   3.886   4.922   3.266
 4868SOL     OW15502   6.898   5.161   2.760
 4868SOL    HW115503   6.905   5.212   2.845
 4868SOL    HW215504   6.801   5.150   2.735
 4869SOL     OW15505   1.314   1.675   2.387
 4869SOL    HW115506   1.369   1.758   2.377
 4869SOL    HW215507   1.266   1.677   2.475
 4870SOL     OW15508   0.628   6.312   1.753
 4870SOL    HW115509   0.679   6.394   1.779
 4870SOL    HW215510   0.658   6.281   1.663
 4871SOL     OW15511   1.567   0.854   3.887
 4871SOL    HW115512   1.570   0.950   3.858
 4871SOL    HW215513   1.472   0.823   3.888
 4872SOL     OW15514   6.525   0.172   3.680
 4872SOL    HW115515   6.441   0.224   3.697
 4872SOL    HW215516   6.520   0.130   3.590
 4873SOL     OW15517   6.720   5.061   4.206
 4873SOL    HW115518   6.650   5.108   4.260
 4873SOL    HW215519   6.676   4.999   4.141
 4874SOL     OW15520   6.026   4.018   2.038
 4874SOL    HW115521   6.012   4.009   1.940
 4874SOL    HW215522   5.945   4.058   2.080
 4875SOL     OW15523   5.979   1.619   0.507
 4875SOL    HW115524   6.050   1.568   0.555
 4875SOL    HW215525   5.893   1.614   0.559
 4876SOL     OW15526   6.073   2.146   2.707
 4876SOL    HW115527   6.052   2.243   2.716
 4876SOL    HW215528   6.013   2.106   2.637
 4877SOL     OW15529   1.514   2.082   5.776
 4877SOL    HW115530   1.467   2.063   5.863
 4877SOL    HW215531   1.523   1.997   5.725
 4878SOL     OW15532   6.287   0.956   1.819
 4878SOL    HW115533   6.210   1.017   1.803
 4878SOL    HW215534   6.264   0.892   1.893
 4879SOL     OW15535   4.582   1.837   2.837
 4879SOL    HW115536   4.486   1.834   2.863
 4879SOL    HW215537   4.590   1.843   2.737
 4880SOL     OW15538   5.205   3.153   0.018
 4880SOL    HW115539   5.241   3.232   6.996
 4880SOL    HW215540   5.142   3.183   0.089
 4881SOL     OW15541   1.667   1.182   6.824
 4881SOL    HW115542   1.622   1.182   6.913
 4881SOL    HW215543   1.617   1.240   6.760
 4882SOL     OW15544   4.857   0.424   4.696
 4882SOL    HW115545   4.773   0.374   4.673
 4882SOL    HW215546   4.880   0.487   4.622
 4883SOL     OW15547   5.092   5.094   1.532
 4883SOL    HW115548   5.155   5.086   1.455
 4883SOL    HW215549   5.006   5.134   1.502
 4884SOL     OW15550   3.105   6.171   1.954
 4884SOL    HW115551   3.073   6.085   1.992
 4884SOL    HW215552   3.190   6.156   1.904
 4885SOL     OW15553   2.273   5.050   1.346
 4885SOL    HW115554   2.248   5.142   1.376
 4885SOL    HW215555   2.190   4.998   1.324
 4886SOL     OW15556   1.758   5.766   1.676
 4886SOL    HW115557   1.676   5.807   1.715
 4886SOL    HW215558   1.738   5.731   1.585
 4887SOL     OW15559   6.976   7.019   1.600
 4887SOL    HW115560   7.024   6.932   1.609
 4887SOL    HW215561   7.010   0.057   1.669
 4888SOL     OW15562   2.646   0.499   4.874
 4888SOL    HW115563   2.688   0.553   4.947
 4888SOL    HW215564   2.654   0.401   4.896
 4889SOL     OW15565   6.833   1.415   5.107
 4889SOL    HW115566   6.902   1.343   5.105
 4889SOL    HW215567   6.746   1.379   5.074
 4890SOL     OW15568   6.985   1.335   5.946
 4890SOL    HW115569   6.927   1.269   5.994
 4890SOL    HW215570   6.932   1.418   5.928
 4891SOL     OW15571   1.594   4.647   0.243
 4891SOL    HW115572   1.686   4.610   0.229
 4891SOL    HW215573   1.533   4.612   0.171
 4892SOL     OW15574   3.596   5.601   2.215
 4892SOL    HW115575   3.657   5.557   2.281
 4892SOL    HW215576   3.532   5.533   2.179
 4893SOL     OW15577   6.321   2.600   1.633
 4893SOL    HW115578   6.353   2.518   1.584
 4893SOL    HW215579   6.225   2.616   1.610
 4894SOL     OW15580   3.486   0.777   2.496
 4894SOL    HW115581   3.421   0.825   2.437
 4894SOL    HW215582   3.438   0.738   2.575
 4895SOL     OW15583   0.737   5.061   4.504
 4895SOL    HW115584   0.765   5.063   4.408
 4895SOL    HW215585   0.734   4.967   4.536
 4896SOL     OW15586   2.131   4.333   1.535
 4896SOL    HW115587   2.133   4.386   1.620
 4896SOL    HW215588   2.038   4.301   1.517
 4897SOL     OW15589   2.198   4.476   5.747
 4897SOL    HW115590   2.271   4.537   5.714
 4897SOL    HW215591   2.112   4.501   5.703
 4898SOL     OW15592   4.661   0.699   4.562
 4898SOL    HW115593   4.673   0.793   4.596
 4898SOL    HW215594   4.749   0.663   4.533
 4899SOL     OW15595   5.828   5.446   2.894
 4899SOL    HW115596   5.737   5.422   2.862
 4899SOL    HW215597   5.838   5.417   2.989
 4900SOL     OW15598   3.063   6.194   5.242
 4900SOL    HW115599   3.104   6.112   5.202
 4900SOL    HW215600   3.135   6.259   5.266
 4901SOL     OW15601   2.724   1.501   5.493
 4901SOL    HW115602   2.636   1.486   5.447
 4901SOL    HW215603   2.792   1.532   5.427
 4902SOL     OW15604   2.005   1.670   5.181
 4902SOL    HW115605   1.932   1.726   5.220
 4902SOL    HW215606   2.073   1.728   5.137
 4903SOL     OW15607   3.752   5.832   0.494
 4903SOL    HW115608   3.742   5.883   0.408
 4903SOL    HW215609   3.717   5.888   0.570
 4904SOL     OW15610   2.324   0.437   5.402
 4904SOL    HW115611   2.340   0.386   5.487
 4904SOL    HW215612   2.374   0.523   5.405
 4905SOL     OW15613   3.328   0.735   3.209
 4905SOL    HW115614   3.262   0.667   3.240
 4905SOL    HW215615   3.360   0.712   3.117
 4906SOL     OW15616   5.154   1.535   6.530
 4906SOL    HW115617   5.209   1.590   6.593
 4906SOL    HW215618   5.146   1.442   6.566
 4907SOL     OW15619   4.342   6.735   2.203
 4907SOL    HW115620   4.267   6.728   2.138
 4907SOL    HW215621   4.360   6.645   2.243
 4908SOL     OW15622   5.643   6.325   0.214
 4908SOL    HW115623   5.650   6.424   0.228
 4908SOL    HW215624   5.656   6.304   0.117
 4909SOL     OW15625   0.502   6.527   3.713
 4909SOL    HW115626   0.425   6.478   3.672
 4909SOL    HW215627   0.528   6.603   3.653
 4910SOL     OW15628   5.083   1.141   4.510
 4910SOL    HW115629   5.093   1.082   4.429
 4910SOL    HW215630   5.061   1.234   4.480
 4911SOL     OW15631   1.733   4.185   3.015
 4911SOL    HW115632   1.782   4.249   2.956
 4911SOL    HW215633   1.795   4.149   3.084
 4912SOL     OW15634   5.745   0.860   6.138
 4912SOL    HW115635   5.772   0.844   6.233
 4912SOL    HW215636   5.793   0.941   6.103
 4913SOL     OW15637   3.901   3.354   5.318
 4913SOL    HW115638   3.865   3.297   5.391
 4913SOL    HW215639   3.993   3.385   5.343
 4914SOL     OW15640   3.984   0.022   4.943
 4914SOL    HW115641   4.039   7.014   5.019
 4914SOL    HW215642   4.045   0.068   4.878
 4915SOL     OW15643   3.021   5.763   5.879
 4915SOL    HW115644   3.088   5.691   5.863
 4915SOL    HW215645   3.054   5.823   5.952
 4916SOL     OW15646   1.180   0.681   4.188
 4916SOL    HW115647   1.096   0.734   4.195
 4916SOL    HW215648   1.164   0.600   4.131
 4917SOL     OW15649   2.521   5.239   1.264
 4917SOL    HW115650   2.617   5.261   1.251
 4917SOL    HW215651   2.498   5.157   1.212
 4918SOL     OW15652   5.047   6.677   2.151
 4918SOL    HW115653   4.995   6.752   2.193
 4918SOL    HW215654   5.090   6.709   2.067
 4919SOL     OW15655   3.544   2.562   0.420
 4919SOL    HW115656   3.529   2.533   0.514
 4919SOL    HW215657   3.629   2.521   0.386
 4920SOL     OW15658   5.396   0.005   4.597
 4920SOL    HW115659   5.328   0.045   4.536
 4920SOL    HW215660   5.371   0.024   4.692
 4921SOL     OW15661   0.953   5.600   6.893
 4921SOL    HW115662   0.948   5.699   6.908
 4921SOL    HW215663   1.017   5.560   6.958
 4922SOL     OW15664   2.973   2.143   4.870
 4922SOL    HW115665   2.919   2.222   4.841
 4922SOL    HW215666   3.063   2.173   4.900
 4923SOL     OW15667   3.647   1.375   2.570
 4923SOL    HW115668   3.563   1.401   2.523
 4923SOL    HW215669   3.685   1.454   2.618
 4924SOL     OW15670   3.300   1.308   4.912
 4924SOL    HW115671   3.214   1.332   4.867
 4924SOL    HW215672   3.284   1.296   5.010
 4925SOL     OW15673   6.220   7.022   2.225
 4925SOL    HW115674   6.167   0.061   2.280
 4925SOL    HW215675   6.163   6.943   2.204
 4926SOL     OW15676   5.104   1.445   0.968
 4926SOL    HW115677   5.110   1.437   1.068
 4926SOL    HW215678   5.016   1.411   0.937
 4927SOL     OW15679   3.548   3.755   4.722
 4927SOL    HW115680   3.582   3.731   4.812
 4927SOL    HW215681   3.524   3.672   4.672
 4928SOL     OW15682   1.644   0.148   6.974
 4928SOL    HW115683   1.670   0.201   0.029
 4928SOL    HW215684   1.686   0.188   6.893
 4929SOL     OW15685   6.544   6.833   4.455
 4929SOL    HW115686   6.463   6.874   4.497
 4929SOL    HW215687   6.528   6.736   4.438
 4930SOL     OW15688   5.575   0.874   2.822
 4930SOL    HW115689   5.559   0.936   2.746
 4930SOL    HW215690   5.662   0.897   2.866
 4931SOL     OW15691   0.008   6.649   1.052
 4931SOL    HW115692   0.064   6.714   1.000
 4931SOL    HW215693   6.986   6.697   1.124
 4932SOL     OW15694   3.553   3.091   1.924
 4932SOL    HW115695   3.607   3.019   1.966
 4932SOL    HW215696   3.475   3.051   1.876
 4933SOL     OW15697   2.244   6.521   2.356
 4933SOL    HW115698   2.253   6.586   2.431
 4933SOL    HW215699   2.213   6.433   2.391
 4934SOL     OW15700   3.489   5.294   3.149
 4934SOL    HW115701   3.410   5.256   3.198
 4934SOL    HW215702   3.470   5.389   3.125
 4935SOL     OW15703   1.546   2.119   6.176
 4935SOL    HW115704   1.557   2.026   6.209
 4935SOL    HW215705   1.634   2.166   6.180
 4936SOL     OW15706   3.266   5.308   1.378
 4936SOL    HW115707   3.356   5.348   1.365
 4936SOL    HW215708   3.247   5.244   1.304
 4937SOL     OW15709   5.858   3.069   6.207
 4937SOL    HW115710   5.901   3.082   6.118
 4937SOL    HW215711   5.797   3.146   6.226
 4938SOL     OW15712   1.998   5.371   6.070
 4938SOL    HW115713   1.974   5.278   6.041
 4938SOL    HW215714   2.042   5.419   5.994
 4939SOL     OW15715   5.794   2.360   4.627
 4939SOL    HW115716   5.715   2.416   4.600
 4939SOL    HW215717   5.765   2.266   4.641
 4940SOL     OW15718   0.652   1.236   4.887
 4940SOL    HW115719   0.719   1.161   4.879
 4940SOL    HW215720   0.611   1.254   4.798
 4941SOL     OW15721   4.618   1.914   5.789
 4941SOL    HW115722   4.659   1.994   5.834
 4941SOL    HW215723   4.602   1.934   5.692
 4942SOL     OW15724   5.260   2.921   5.868
 4942SOL    HW115725   5.181   2.979   5.849
 4942SOL    HW215726   5.270   2.908   5.966
 4943SOL     OW15727   4.639   3.170   6.756
 4943SOL    HW115728   4.557   3.224   6.775
 4943SOL    HW215729   4.681   3.141   6.842
 4944SOL     OW15730   1.971   4.179   1.933
 4944SOL    HW115731   2.069   4.157   1.926
 4944SOL    HW215732   1.960   4.264   1.986
 4945SOL     OW15733   1.124   1.193   3.801
 4945SOL    HW115734   1.162   1.283   3.820
 4945SOL    HW215735   1.156   1.127   3.869
 4946SOL     OW15736   0.400   3.037   1.134
 4946SOL    HW115737   0.363   3.130   1.124
 4946SOL    HW215738   0.330   2.971   1.106
 4947SOL     OW15739   2.087   1.013   1.525
 4947SOL    HW115740   2.025   0.934   1.525
 4947SOL    HW215741   2.179   0.982   1.499
 4948SOL     OW15742   1.996   1.252   2.844
 4948SOL    HW115743   2.085   1.278   2.807
 4948SOL    HW215744   1.955   1.182   2.784
 4949SOL     OW15745   4.123   6.486   6.596
 4949SOL    HW115746   4.113   6.392   6.564
 4949SOL    HW215747   4.034   6.520   6.627
 4950SOL     OW15748   3.061   5.408   4.610
 4950SOL    HW115749   3.026   5.315   4.614
 4950SOL    HW215750   3.122   5.424   4.687
 4951SOL     OW15751   5.018   1.404   4.465
 4951SOL    HW115752   4.921   1.430   4.463
 4951SOL    HW215753   5.067   1.455   4.395
 4952SOL     OW15754   0.128   0.790   5.054
 4952SOL    HW115755   0.222   0.759   5.040
 4952SOL    HW215756   0.106   0.784   5.152
 4953SOL     OW15757   2.027   6.595   2.174
 4953SOL    HW115758   1.950   6.585   2.238
 4953SOL    HW215759   2.112   6.576   2.223
 4954SOL     OW15760   4.328   3.900   6.934
 4954SOL    HW115761   4.317   3.889   6.836
 4954SOL    HW215762   4.254   3.957   6.970
 4955SOL     OW15763   2.400   6.239   6.558
 4955SOL    HW115764   2.355   6.290   6.631
 4955SOL    HW215765   2.356   6.149   6.548
 4956SOL     OW15766   2.624   6.766   5.079
 4956SOL    HW115767   2.559   6.697   5.047
 4956SOL    HW215768   2.711   6.755   5.033
 4957SOL     OW15769   6.981   1.906   2.853
 4957SOL    HW115770   0.012   1.905   2.771
 4957SOL    HW215771   0.006   1.944   2.930
 4958SOL     OW15772   6.809   6.328   5.455
 4958SOL    HW115773   6.736   6.396   5.448
 4958SOL    HW215774   6.841   6.304   5.364
 4959SOL     OW15775   6.765   1.769   6.824
 4959SOL    HW115776   6.774   1.859   6.780
 4959SOL    HW215777   6.855   1.725   6.827
 4960SOL     OW15778   3.383   5.648   3.759
 4960SOL    HW115779   3.376   5.733   3.811
 4960SOL    HW215780   3.401   5.572   3.821
 4961SOL     OW15781   5.049   1.737   5.675
 4961SOL    HW115782   5.017   1.808   5.737
 4961SOL    HW215783   5.124   1.773   5.618
 4962SOL     OW15784   5.953   2.786   0.792
 4962SOL    HW115785   5.881   2.733   0.747
 4962SOL    HW215786   6.039   2.776   0.742
 4963SOL     OW15787   6.576   6.147   6.785
 4963SOL    HW115788   6.564   6.243   6.760
 4963SOL    HW215789   6.512   6.123   6.858
 4964SOL     OW15790   3.588   6.693   3.852
 4964SOL    HW115791   3.564   6.634   3.775
 4964SOL    HW215792   3.510   6.750   3.877
 4965SOL     OW15793   7.025   0.477   3.633
 4965SOL    HW115794   6.928   0.456   3.645
 4965SOL    HW215795   0.052   0.393   3.640
 4966SOL     OW15796   1.717   0.291   5.374
 4966SOL    HW115797   1.715   0.224   5.448
 4966SOL    HW215798   1.809   0.297   5.336
 4967SOL     OW15799   4.193   3.209   5.786
 4967SOL    HW115800   4.202   3.286   5.722
 4967SOL    HW215801   4.121   3.230   5.852
 4968SOL     OW15802   5.583   2.791   3.249
 4968SOL    HW115803   5.544   2.850   3.321
 4968SOL    HW215804   5.592   2.698   3.284
 4969SOL     OW15805   2.169   1.191   2.067
 4969SOL    HW115806   2.248   1.227   2.115
 4969SOL    HW215807   2.104   1.265   2.050
 4970SOL     OW15808   1.692   2.138   4.450
 4970SOL    HW115809   1.686   2.092   4.538
 4970SOL    HW215810   1.607   2.123   4.398
 4971SOL     OW15811   5.889   5.887   3.438
 4971SOL    HW115812   5.805   5.928   3.403
 4971SOL    HW215813   5.893   5.791   3.411
 4972SOL     OW15814   1.317   2.861   0.658
 4972SOL    HW115815   1.316   2.822   0.751
 4972SOL    HW215816   1.406   2.845   0.616
 4973SOL     OW15817   0.144   0.482   2.322
 4973SOL    HW115818   0.121   0.384   2.325
 4973SOL    HW215819   0.087   0.531   2.389
 4974SOL     OW15820   5.976   4.723   1.052
 4974SOL    HW115821   5.895   4.749   1.104
 4974SOL    HW215822   6.000   4.628   1.073
 4975SOL     OW15823   5.387   5.202   6.172
 4975SOL    HW115824   5.419   5.259   6.097
 4975SOL    HW215825   5.315   5.249   6.222
 4976SOL     OW15826   3.187   0.040   4.930
 4976SOL    HW115827   3.252   0.030   4.855
 4976SOL    HW215828   3.094   0.024   4.896
 4977SOL     OW15829   5.133   4.133   0.177
 4977SOL    HW115830   5.047   4.084   0.160
 4977SOL    HW215831   5.124   4.188   0.260
 4978SOL     OW15832   6.672   3.554   5.546
 4978SOL    HW115833   6.739   3.548   5.472
 4978SOL    HW215834   6.694   3.487   5.617
 4979SOL     OW15835   0.202   1.064   5.272
 4979SOL    HW115836   0.156   0.977   5.289
 4979SOL    HW215837   0.293   1.061   5.314
 4980SOL     OW15838   4.617   0.081   3.418
 4980SOL    HW115839   4.669   7.023   3.427
 4980SOL    HW215840   4.561   0.078   3.336
 4981SOL     OW15841   4.703   5.391   6.012
 4981SOL    HW115842   4.799   5.371   5.996
 4981SOL    HW215843   4.652   5.306   6.021
 4982SOL     OW15844   1.929   2.144   6.883
 4982SOL    HW115845   1.933   2.081   6.805
 4982SOL    HW215846   1.957   2.096   6.966
 4983SOL     OW15847   5.166   2.651   4.200
 4983SOL    HW115848   5.085   2.710   4.194
 4983SOL    HW215849   5.140   2.564   4.243
 4984SOL     OW15850   5.756   3.816   4.335
 4984SOL    HW115851   5.701   3.733   4.333
 4984SOL    HW215852   5.772   3.847   4.241
 4985SOL     OW15853   6.075   6.372   3.073
 4985SOL    HW115854   6.138   6.449   3.077
 4985SOL    HW215855   5.982   6.403   3.093
 4986SOL     OW15856   6.719   4.005   2.959
 4986SOL    HW115857   6.686   4.031   2.869
 4986SOL    HW215858   6.655   4.038   3.029
 4987SOL     OW15859   0.964   2.134   1.244
 4987SOL    HW115860   1.058   2.129   1.279
 4987SOL    HW215861   0.965   2.169   1.150
 4988SOL     OW15862   6.141   1.859   3.656
 4988SOL    HW115863   6.145   1.907   3.568
 4988SOL    HW215864   6.232   1.854   3.696
 4989SOL     OW15865   5.263   0.555   1.006
 4989SOL    HW115866   5.172   0.520   0.983
 4989SOL    HW215867   5.332   0.500   0.959
 4990SOL     OW15868   1.631   1.627   5.793
 4990SOL    HW115869   1.665   1.702   5.851
 4990SOL    HW215870   1.706   1.563   5.774
 4991SOL     OW15871   0.703   3.411   4.041
 4991SOL    HW115872   0.792   3.445   4.071
 4991SOL    HW215873   0.631   3.453   4.096
 4992SOL     OW15874   5.071   1.030   4.254
 4992SOL    HW115875   5.137   1.008   4.182
 4992SOL    HW215876   4.998   1.088   4.217
 4993SOL     OW15877   3.361   5.626   4.278
 4993SOL    HW115878   3.415   5.646   4.197
 4993SOL    HW215879   3.382   5.692   4.350
 4994SOL     OW15880   1.357   0.354   2.225
 4994SOL    HW115881   1.326   0.424   2.290
 4994SOL    HW215882   1.432   0.302   2.266
 4995SOL     OW15883   6.523   2.434   6.038
 4995SOL    HW115884   6.451   2.365   6.034
 4995SOL    HW215885   6.554   2.444   6.133
 4996SOL     OW15886   1.687   1.243   2.595
 4996SOL    HW115887   1.682   1.341   2.579
 4996SOL    HW215888   1.610   1.214   2.653
 4997SOL     OW15889   6.299   1.843   2.968
 4997SOL    HW115890   6.223   1.800   2.920
 4997SOL    HW215891   6.316   1.934   2.929
 4998SOL     OW15892   2.114   3.688   4.934
 4998SOL    HW115893   2.206   3.727   4.928
 4998SOL    HW215894   2.055   3.747   4.989
 4999SOL     OW15895   5.472   5.220   1.191
 4999SOL    HW115896   5.372   5.229   1.197
 4999SOL    HW215897   5.502   5.143   1.247
 5000SOL     OW15898   1.572   0.442   4.390
 5000SOL    HW115899   1.521   0.356   4.382
 5000SOL    HW215900   1.539   0.507   4.321
 5001SOL     OW15901   1.395   4.148   6.147
 5001SOL    HW115902   1.319   4.203   6.111
 5001SOL    HW215903   1.437   4.197   6.223
 5002SOL     OW15904   1.555   3.166   2.935
 5002SOL    HW115905   1.490   3.204   2.870
 5002SOL    HW215906   1.507   3.111   3.003
 5003SOL     OW15907   2.084   7.002   2.931
 5003SOL    HW115908   2.047   6.930   2.990
 5003SOL    HW215909   2.179   6.981   2.909
 5004SOL     OW15910   2.847   4.818   5.530
 5004SOL    HW115911   2.749   4.805   5.519
 5004SOL    HW215912   2.865   4.910   5.565
 5005SOL     OW15913   3.341   2.669   0.909
 5005SOL    HW115914   3.407   2.710   0.972
 5005SOL    HW215915   3.361   2.700   0.816
 5006SOL     OW15916   5.446   6.372   6.842
 5006SOL    HW115917   5.545   6.357   6.845
 5006SOL    HW215918   5.420   6.404   6.750
 5007SOL     OW15919   2.217   0.426   6.855
 5007SOL    HW115920   2.201   0.420   6.757
 5007SOL    HW215921   2.146   0.374   6.904
 5008SOL     OW15922   6.468   0.764   3.519
 5008SOL    HW115923   6.501   0.677   3.484
 5008SOL    HW215924   6.526   0.838   3.485
 5009SOL     OW15925   1.995   6.448   1.959
 5009SOL    HW115926   1.970   6.506   2.037
 5009SOL    HW215927   2.093   6.430   1.961
 5010SOL     OW15928   3.041   3.104   3.254
 5010SOL    HW115929   3.108   3.067   3.319
 5010SOL    HW215930   3.078   3.100   3.161
 5011SOL     OW15931   1.898   3.635   1.994
 5011SOL    HW115932   1.814   3.581   1.992
 5011SOL    HW215933   1.950   3.618   1.910
 5012SOL     OW15934   4.980   3.364   5.887
 5012SOL    HW115935   5.002   3.460   5.908
 5012SOL    HW215936   4.927   3.325   5.962
 5013SOL     OW15937   5.123   2.043   6.840
 5013SOL    HW115938   5.115   1.985   6.759
 5013SOL    HW215939   5.108   1.989   6.922
 5014SOL     OW15940   5.375   4.810   0.658
 5014SOL    HW115941   5.341   4.851   0.743
 5014SOL    HW215942   5.334   4.720   0.644
 5015SOL     OW15943   4.485   2.158   4.234
 5015SOL    HW115944   4.412   2.090   4.229
 5015SOL    HW215945   4.564   2.125   4.181
 5016SOL     OW15946   2.736   1.658   1.409
 5016SOL    HW115947   2.768   1.586   1.346
 5016SOL    HW215948   2.799   1.735   1.406
 5017SOL     OW15949   2.037   2.354   0.598
 5017SOL    HW115950   2.135   2.338   0.607
 5017SOL    HW215951   2.006   2.410   0.675
 5018SOL     OW15952   0.798   4.594   1.443
 5018SOL    HW115953   0.814   4.645   1.527
 5018SOL    HW215954   0.703   4.561   1.442
 5019SOL     OW15955   2.569   4.129   0.229
 5019SOL    HW115956   2.563   4.131   0.130
 5019SOL    HW215957   2.487   4.086   0.267
 5020SOL     OW15958   4.633   6.394   5.715
 5020SOL    HW115959   4.541   6.358   5.702
 5020SOL    HW215960   4.647   6.473   5.656
 5021SOL     OW15961   1.642   2.418   5.492
 5021SOL    HW115962   1.589   2.495   5.456
 5021SOL    HW215963   1.621   2.336   5.439
 5022SOL     OW15964   2.076   0.476   0.853
 5022SOL    HW115965   2.037   0.512   0.769
 5022SOL    HW215966   2.014   0.407   0.891
 5023SOL     OW15967   6.425   2.871   1.334
 5023SOL    HW115968   6.406   2.878   1.236
 5023SOL    HW215969   6.437   2.774   1.359
 5024SOL     OW15970   6.992   4.405   3.030
 5024SOL    HW115971   0.048   4.462   3.024
 5024SOL    HW215972   7.013   4.313   2.995
 5025SOL     OW15973   4.286   2.089   1.684
 5025SOL    HW115974   4.366   2.036   1.712
 5025SOL    HW215975   4.225   2.032   1.630
 5026SOL     OW15976   5.690   5.648   6.337
 5026SOL    HW115977   5.681   5.655   6.238
 5026SOL    HW215978   5.608   5.605   6.375
 5027SOL     OW15979   0.300   0.218   2.067
 5027SOL    HW115980   0.336   0.218   2.160
 5027SOL    HW215981   0.269   0.125   2.043
 5028SOL     OW15982   0.145   6.949   2.771
 5028SOL    HW115983   0.188   6.903   2.848
 5028SOL    HW215984   0.133   0.019   2.792
 5029SOL     OW15985   6.328   3.049   3.881
 5029SOL    HW115986   6.393   3.003   3.941
 5029SOL    HW215987   6.235   3.022   3.906
 5030SOL     OW15988   6.839   0.591   7.019
 5030SOL    HW115989   6.770   0.518   7.019
 5030SOL    HW215990   6.800   0.673   0.034
 5031SOL     OW15991   5.546   1.228   4.760
 5031SOL    HW115992   5.472   1.188   4.707
 5031SOL    HW215993   5.597   1.292   4.703
 5032SOL     OW15994   1.035   4.185   1.265
 5032SOL    HW115995   0.993   4.188   1.174
 5032SOL    HW215996   0.997   4.258   1.322
 5033SOL     OW15997   1.535   4.610   6.603
 5033SOL    HW115998   1.555   4.565   6.515
 5033SOL    HW215999   1.488   4.697   6.586
 5034SOL     OW16000   6.461   3.354   2.664
 5034SOL    HW116001   6.408   3.420   2.610
 5034SOL    HW216002   6.531   3.312   2.607
 5035SOL     OW16003   6.121   4.190   0.723
 5035SOL    HW116004   6.127   4.213   0.820
 5035SOL    HW216005   6.026   4.167   0.700
 5036SOL     OW16006   0.441   5.243   6.636
 5036SOL    HW116007   0.482   5.265   6.724
 5036SOL    HW216008   0.347   5.210   6.650
 5037SOL     OW16009   4.537   2.516   2.395
 5037SOL    HW116010   4.464   2.450   2.414
 5037SOL    HW216011   4.509   2.576   2.321
 5038SOL     OW16012   1.863   5.206   5.621
 5038SOL    HW116013   1.815   5.164   5.545
 5038SOL    HW216014   1.802   5.270   5.668
 5039SOL     OW16015   2.073   3.610   5.322
 5039SOL    HW116016   2.120   3.696   5.302
 5039SOL    HW216017   2.074   3.552   5.241
 5040SOL     OW16018   2.254   4.352   6.276
 5040SOL    HW116019   2.310   4.281   6.320
 5040SOL    HW216020   2.294   4.375   6.188
 5041SOL     OW16021   1.179   3.523   1.357
 5041SOL    HW116022   1.178   3.432   1.399
 5041SOL    HW216023   1.165   3.593   1.427
 5042SOL     OW16024   0.252   2.989   6.735
 5042SOL    HW116025   0.183   3.031   6.793
 5042SOL    HW216026   0.343   3.003   6.774
 5043SOL     OW16027   3.459   1.021   5.715
 5043SOL    HW116028   3.446   1.113   5.753
 5043SOL    HW216029   3.383   0.963   5.743
 5044SOL     OW16030   6.033   0.013   2.968
 5044SOL    HW116031   6.114   0.071   2.968
 5044SOL    HW216032   6.046   6.964   3.033
 5045SOL     OW16033   5.134   2.925   6.935
 5045SOL    HW116034   5.180   3.001   6.981
 5045SOL    HW216035   5.142   2.842   6.991
 5046SOL     OW16036   4.099   3.692   4.804
 5046SOL    HW116037   4.152   3.772   4.829
 5046SOL    HW216038   4.043   3.663   4.882
 5047SOL     OW16039   6.635   2.294   2.448
 5047SOL    HW116040   6.654   2.374   2.391
 5047SOL    HW216041   6.678   2.213   2.407
 5048SOL     OW16042   6.933   2.317   1.057
 5048SOL    HW116043   7.002   2.303   1.128
 5048SOL    HW216044   6.863   2.380   1.091
 5049SOL     OW16045   0.071   1.349   3.951
 5049SOL    HW116046   0.099   1.410   4.025
 5049SOL    HW216047   7.019   1.294   3.980
 5050SOL     OW16048   0.883   1.319   2.065
 5050SOL    HW116049   0.951   1.346   2.134
 5050SOL    HW216050   0.865   1.397   2.004
 5051SOL     OW16051   4.218   3.992   0.667
 5051SOL    HW116052   4.272   4.067   0.629
 5051SOL    HW216053   4.264   3.957   0.749
 5052SOL     OW16054   2.822   5.330   6.007
 5052SOL    HW116055   2.912   5.303   5.973
 5052SOL    HW216056   2.786   5.404   5.951
 5053SOL     OW16057   1.919   4.090   3.185
 5053SOL    HW116058   1.978   4.162   3.222
 5053SOL    HW216059   1.975   4.010   3.162
 5054SOL     OW16060   3.678   5.473   4.861
 5054SOL    HW116061   3.584   5.443   4.846
 5054SOL    HW216062   3.739   5.420   4.802
 5055SOL     OW16063   0.320   1.392   5.258
 5055SOL    HW116064   0.417   1.416   5.264
 5055SOL    HW216065   0.302   1.310   5.313
 5056SOL     OW16066   6.412   4.198   0.017
 5056SOL    HW116067   6.320   4.175   0.049
 5056SOL    HW216068   6.474   4.121   0.034
 5057SOL     OW16069   1.155   5.444   3.519
 5057SOL    HW116070   1.235   5.503   3.529
 5057SOL    HW216071   1.075   5.499   3.496
 5058SOL     OW16072   2.516   3.593   6.289
 5058SOL    HW116073   2.424   3.605   6.326
 5058SOL    HW216074   2.566   3.680   6.295
 5059SOL     OW16075   5.255   3.657   4.499
 5059SOL    HW116076   5.220   3.685   4.588
 5059SOL    HW216077   5.179   3.639   4.437
 5060SOL     OW16078   0.102   2.588   5.338
 5060SOL    HW116079   0.080   2.549   5.248
 5060SOL    HW216080   0.069   2.682   5.342
 5061SOL     OW16081   3.201   2.990   3.584
 5061SOL    HW116082   3.232   3.051   3.511
 5061SOL    HW216083   3.187   2.898   3.548
 5062SOL     OW16084   5.760   1.455   2.197
 5062SOL    HW116085   5.776   1.511   2.278
 5062SOL    HW216086   5.755   1.515   2.117
 5063SOL     OW16087   0.985   5.790   1.882
 5063SOL    HW116088   0.946   5.878   1.853
 5063SOL    HW216089   0.965   5.721   1.812
 5064SOL     OW16090   4.931   5.486   1.308
 5064SOL    HW116091   4.924   5.387   1.309
 5064SOL    HW216092   5.027   5.513   1.321
 5065SOL     OW16093   1.750   0.993   3.043
 5065SOL    HW116094   1.680   1.062   3.028
 5065SOL    HW216095   1.825   1.006   2.977
 5066SOL     OW16096   2.653   4.501   1.711
 5066SOL    HW116097   2.663   4.551   1.624
 5066SOL    HW216098   2.730   4.522   1.770
 5067SOL     OW16099   4.520   1.085   2.788
 5067SOL    HW116100   4.460   1.085   2.708
 5067SOL    HW216101   4.514   1.174   2.834
 5068SOL     OW16102   3.129   5.681   6.714
 5068SOL    HW116103   3.086   5.728   6.637
 5068SOL    HW216104   3.137   5.584   6.694
 5069SOL     OW16105   2.563   3.255   5.888
 5069SOL    HW116106   2.549   3.156   5.887
 5069SOL    HW216107   2.479   3.300   5.917
 5070SOL     OW16108   5.920   4.545   4.697
 5070SOL    HW116109   5.821   4.531   4.686
 5070SOL    HW216110   5.952   4.494   4.777
 5071SOL     OW16111   4.113   2.216   3.230
 5071SOL    HW116112   4.129   2.127   3.273
 5071SOL    HW216113   4.200   2.265   3.222
 5072SOL     OW16114   1.847   1.138   1.415
 5072SOL    HW116115   1.832   1.074   1.341
 5072SOL    HW216116   1.937   1.121   1.456
 5073SOL     OW16117   1.658   5.200   1.258
 5073SOL    HW116118   1.584   5.199   1.191
 5073SOL    HW216119   1.641   5.129   1.327
 5074SOL     OW16120   4.136   2.375   1.548
 5074SOL    HW116121   4.234   2.395   1.551
 5074SOL    HW216122   4.101   2.367   1.641
 5075SOL     OW16123   1.168   2.070   0.021
 5075SOL    HW116124   1.090   2.118   0.060
 5075SOL    HW216125   1.166   1.974   0.049
 5076SOL     OW16126   5.738   6.788   0.351
 5076SOL    HW116127   5.818   6.789   0.410
 5076SOL    HW216128   5.665   6.843   0.392
 5077SOL     OW16129   0.168   3.797   5.998
 5077SOL    HW116130   0.191   3.891   5.973
 5077SOL    HW216131   0.083   3.797   6.051
 5078SOL     OW16132   0.427   0.995   4.189
 5078SOL    HW116133   0.387   0.928   4.127
 5078SOL    HW216134   0.355   1.059   4.219
 5079SOL     OW16135   2.386   2.728   5.554
 5079SOL    HW116136   2.399   2.768   5.463
 5079SOL    HW216137   2.467   2.676   5.580
 5080SOL     OW16138   5.610   5.718   5.707
 5080SOL    HW116139   5.709   5.720   5.700
 5080SOL    HW216140   5.571   5.659   5.637
 5081SOL     OW16141   2.954   4.593   5.727
 5081SOL    HW116142   2.933   4.548   5.640
 5081SOL    HW216143   2.891   4.669   5.740
 5082SOL     OW16144   5.285   6.808   0.467
 5082SOL    HW116145   5.307   6.793   0.563
 5082SOL    HW216146   5.199   6.761   0.445
 5083SOL     OW16147   3.540   0.588   1.885
 5083SOL    HW116148   3.449   0.582   1.845
 5083SOL    HW216149   3.601   0.525   1.838
 5084SOL     OW16150   0.770   5.079   4.203
 5084SOL    HW116151   0.686   5.105   4.155
 5084SOL    HW216152   0.831   5.158   4.208
 5085SOL     OW16153   0.415   3.142   5.459
 5085SOL    HW116154   0.475   3.132   5.380
 5085SOL    HW216155   0.384   3.052   5.489
 5086SOL     OW16156   0.988   4.513   2.551
 5086SOL    HW116157   1.083   4.497   2.579
 5086SOL    HW216158   0.926   4.468   2.614
 5087SOL     OW16159   0.004   5.539   1.522
 5087SOL    HW116160   6.986   5.476   1.586
 5087SOL    HW216161   0.044   5.615   1.574
 5088SOL     OW16162   5.584   6.893   3.175
 5088SOL    HW116163   5.676   6.895   3.136
 5088SOL    HW216164   5.543   6.984   3.168
 5089SOL     OW16165   6.037   4.353   4.304
 5089SOL    HW116166   6.136   4.353   4.287
 5089SOL    HW216167   5.989   4.346   4.216
 5090SOL     OW16168   2.037   1.616   2.443
 5090SOL    HW116169   2.028   1.712   2.416
 5090SOL    HW216170   1.991   1.603   2.531
 5091SOL     OW16171   6.538   0.804   1.418
 5091SOL    HW116172   6.555   0.813   1.516
 5091SOL    HW216173   6.441   0.790   1.402
 5092SOL     OW16174   3.421   2.858   3.406
 5092SOL    HW116175   3.459   2.786   3.463
 5092SOL    HW216176   3.410   2.941   3.460
 5093SOL     OW16177   3.548   1.441   0.915
 5093SOL    HW116178   3.520   1.396   0.831
 5093SOL    HW216179   3.643   1.417   0.935
 5094SOL     OW16180   2.206   6.002   6.540
 5094SOL    HW116181   2.157   6.060   6.606
 5094SOL    HW216182   2.156   5.916   6.529
 5095SOL     OW16183   0.188   2.449   3.372
 5095SOL    HW116184   0.100   2.495   3.363
 5095SOL    HW216185   0.174   2.350   3.378
 5096SOL     OW16186   4.936   4.923   6.542
 5096SOL    HW116187   4.899   4.892   6.629
 5096SOL    HW216188   5.036   4.915   6.543
 5097SOL     OW16189   0.103   6.624   6.942
 5097SOL    HW116190   0.030   6.678   6.985
 5097SOL    HW216191   0.156   6.578   7.013
 5098SOL     OW16192   3.317   1.295   1.915
 5098SOL    HW116193   3.339   1.279   2.011
 5098SOL    HW216194   3.222   1.326   1.907
 5099SOL     OW16195   0.543   6.537   2.200
 5099SOL    HW116196   0.491   6.497   2.124
 5099SOL    HW216197   0.626   6.484   2.216
 5100SOL     OW16198   3.287   5.388   4.386
 5100SOL    HW116199   3.312   5.467   4.330
 5100SOL    HW216200   3.201   5.407   4.434
 5101SOL     OW16201   4.364   6.688   5.743
 5101SOL    HW116202   4.313   6.708   5.826
 5101SOL    HW216203   4.333   6.601   5.705
 5102SOL     OW16204   5.278   6.408   4.328
 5102SOL    HW116205   5.284   6.432   4.425
 5102SOL    HW216206   5.269   6.491   4.273
 5103SOL     OW16207   0.904   1.436   4.321
 5103SOL    HW116208   0.988   1.394   4.285
 5103SOL    HW216209   0.868   1.379   4.395
 5104SOL     OW16210   2.791   6.622   1.993
 5104SOL    HW116211   2.763   6.660   2.081
 5104SOL    HW216212   2.760   6.682   1.919
 5105SOL     OW16213   3.384   3.148   6.812
 5105SOL    HW116214   3.457   3.211   6.785
 5105SOL    HW216215   3.425   3.063   6.847
 5106SOL     OW16216   4.232   1.309   1.720
 5106SOL    HW116217   4.274   1.367   1.789
 5106SOL    HW216218   4.190   1.366   1.649
 5107SOL     OW16219   4.688   2.388   1.747
 5107SOL    HW116220   4.686   2.488   1.737
 5107SOL    HW216221   4.724   2.347   1.664
 5108SOL     OW16222   3.960   3.653   5.032
 5108SOL    HW116223   3.885   3.691   4.978
 5108SOL    HW216224   3.950   3.682   5.128
 5109SOL     OW16225   1.058   2.110   0.753
 5109SOL    HW116226   0.967   2.090   0.716
 5109SOL    HW216227   1.085   2.039   0.817
 5110SOL     OW16228   1.043   0.702   6.375
 5110SOL    HW116229   1.124   0.668   6.424
 5110SOL    HW216230   0.974   0.732   6.442
 5111SOL     OW16231   1.794   0.567   4.344
 5111SOL    HW116232   1.711   0.539   4.392
 5111SOL    HW216233   1.782   0.555   4.246
 5112SOL     OW16234   0.546   0.387   2.762
 5112SOL    HW116235   0.597   0.404   2.677
 5112SOL    HW216236   0.515   0.292   2.762
 5113SOL     OW16237   1.422   5.770   1.573
 5113SOL    HW116238   1.381   5.689   1.615
 5113SOL    HW216239   1.352   5.821   1.524
 5114SOL     OW16240   4.108   0.035   6.502
 5114SOL    HW116241   4.174   7.000   6.545
 5114SOL    HW216242   4.140   0.059   6.411
 5115SOL     OW16243   1.501   4.785   2.867
 5115SOL    HW116244   1.556   4.765   2.948
 5115SOL    HW216245   1.404   4.768   2.888
 5116SOL     OW16246   0.936   6.405   0.774
 5116SOL    HW116247   0.980   6.489   0.742
 5116SOL    HW216248   0.952   6.393   0.872
 5117SOL     OW16249   0.782   3.741   3.647
 5117SOL    HW116250   0.831   3.771   3.730
 5117SOL    HW216251   0.714   3.672   3.672
 5118SOL     OW16252   5.372   0.808   0.106
 5118SOL    HW116253   5.295   0.775   0.052
 5118SOL    HW216254   5.412   0.888   0.062
 5119SOL     OW16255   4.615   0.932   2.590
 5119SOL    HW116256   4.697   0.876   2.598
 5119SOL    HW216257   4.606   0.990   2.671
 5120SOL     OW16258   4.164   6.966   5.134
 5120SOL    HW116259   4.211   0.028   5.137
 5120SOL    HW216260   4.154   6.930   5.227
 5121SOL     OW16261   3.538   3.069   0.006
 5121SOL    HW116262   3.625   3.069   0.057
 5121SOL    HW216263   3.500   3.161   0.004
 5122SOL     OW16264   3.293   5.993   3.540
 5122SOL    HW116265   3.362   5.921   3.547
 5122SOL    HW216266   3.230   5.985   3.618
 5123SOL     OW16267   5.362   1.767   4.596
 5123SOL    HW116268   5.447   1.819   4.582
 5123SOL    HW216269   5.365   1.684   4.540
 5124SOL     OW16270   1.991   5.842   4.451
 5124SOL    HW116271   2.052   5.765   4.470
 5124SOL    HW216272   1.948   5.829   4.362
 5125SOL     OW16273   6.297   3.015   3.132
 5125SOL    HW116274   6.381   2.992   3.084
 5125SOL    HW216275   6.310   3.098   3.185
 5126SOL     OW16276   6.681   5.748   6.841
 5126SOL    HW116277   6.768   5.699   6.829
 5126SOL    HW216278   6.676   5.822   6.774
 5127SOL     OW16279   0.073   3.737   0.026
 5127SOL    HW116280   7.009   3.778   0.041
 5127SOL    HW216281   0.091   3.729   6.955
 5128SOL     OW16282   0.482   0.162   0.420
 5128SOL    HW116283   0.574   0.200   0.406
 5128SOL    HW216284   0.484   0.100   0.499
 5129SOL     OW16285   6.403   6.742   2.986
 5129SOL    HW116286   6.353   6.818   2.944
 5129SOL    HW216287   6.470   6.705   2.922
 5130SOL     OW16288   6.926   5.698   2.345
 5130SOL    HW116289   6.888   5.768   2.285
 5130SOL    HW216290   6.862   5.621   2.351
 5131SOL     OW16291   1.863   3.577   4.435
 5131SOL    HW116292   1.930   3.635   4.387
 5131SOL    HW216293   1.831   3.505   4.373
 5132SOL     OW16294   4.185   2.693   6.347
 5132SOL    HW116295   4.107   2.755   6.353
 5132SOL    HW216296   4.172   2.631   6.270
 5133SOL     OW16297   1.719   5.030   7.025
 5133SOL    HW116298   1.775   5.018   0.081
 5133SOL    HW216299   1.679   5.122   7.025
 5134SOL     OW16300   6.866   2.816   2.099
 5134SOL    HW116301   6.857   2.752   2.175
 5134SOL    HW216302   6.837   2.907   2.128
 5135SOL     OW16303   6.165   2.663   5.191
 5135SOL    HW116304   6.103   2.585   5.178
 5135SOL    HW216305   6.114   2.748   5.175
 5136SOL     OW16306   4.675   0.541   6.316
 5136SOL    HW116307   4.644   0.463   6.263
 5136SOL    HW216308   4.597   0.584   6.362
 5137SOL     OW16309   5.443   3.411   6.227
 5137SOL    HW116310   5.397   3.471   6.161
 5137SOL    HW216311   5.396   3.323   6.230
 5138SOL     OW16312   2.880   2.644   6.005
 5138SOL    HW116313   2.867   2.688   6.094
 5138SOL    HW216314   2.792   2.639   5.957
 5139SOL     OW16315   1.840   0.157   3.009
 5139SOL    HW116316   1.929   0.195   3.036
 5139SOL    HW216317   1.807   0.205   2.927
 5140SOL     OW16318   3.802   2.148   0.341
 5140SOL    HW116319   3.722   2.134   0.398
 5140SOL    HW216320   3.777   2.138   0.245
 5141SOL     OW16321   6.607   3.656   0.359
 5141SOL    HW116322   6.553   3.597   0.299
 5141SOL    HW216323   6.567   3.658   0.450
 5142SOL     OW16324   6.052   0.611   4.007
 5142SOL    HW116325   5.964   0.576   3.976
 5142SOL    HW216326   6.071   0.574   4.098
 5143SOL     OW16327   7.015   4.409   3.640
 5143SOL    HW116328   0.057   4.347   3.678
 5143SOL    HW216329   0.032   4.473   3.577
 5144SOL     OW16330   1.091   4.710   6.231
 5144SOL    HW116331   1.114   4.645   6.304
 5144SOL    HW216332   1.151   4.790   6.237
 5145SOL     OW16333   2.304   4.742   5.515
 5145SOL    HW116334   2.236   4.815   5.505
 5145SOL    HW216335   2.269   4.659   5.471
 5146SOL     OW16336   3.883   3.992   5.103
 5146SOL    HW116337   3.936   4.069   5.140
 5146SOL    HW216338   3.793   3.990   5.147
 5147SOL     OW16339   7.013   4.640   2.698
 5147SOL    HW116340   0.083   4.649   2.676
 5147SOL    HW216341   6.983   4.720   2.750
 5148SOL     OW16342   1.332   6.220   1.405
 5148SOL    HW116343   1.299   6.308   1.372
 5148SOL    HW216344   1.414   6.235   1.461
 5149SOL     OW16345   6.226   6.203   3.619
 5149SOL    HW116346   6.138   6.166   3.650
 5149SOL    HW216347   6.293   6.129   3.614
 5150SOL     OW16348   2.217   5.134   2.490
 5150SOL    HW116349   2.207   5.171   2.582
 5150SOL    HW216350   2.167   5.048   2.483
 5151SOL     OW16351   5.412   1.969   0.664
 5151SOL    HW116352   5.405   2.010   0.573
 5151SOL    HW216353   5.326   1.921   0.685
 5152SOL     OW16354   2.134   4.180   0.016
 5152SOL    HW116355   2.108   4.218   6.954
 5152SOL    HW216356   2.204   4.239   0.058
 5153SOL     OW16357   2.590   0.235   0.106
 5153SOL    HW116358   2.522   0.270   0.171
 5153SOL    HW216359   2.561   0.258   0.013
 5154SOL     OW16360   1.651   3.133   6.083
 5154SOL    HW116361   1.728   3.081   6.121
 5154SOL    HW216362   1.676   3.230   6.079
 5155SOL     OW16363   4.059   7.024   2.693
 5155SOL    HW116364   4.151   7.010   2.728
 5155SOL    HW216365   3.997   6.959   2.737
 5156SOL     OW16366   6.752   3.100   6.369
 5156SOL    HW116367   6.661   3.106   6.410
 5156SOL    HW216368   6.773   3.185   6.321
 5157SOL     OW16369   4.279   2.193   3.703
 5157SOL    HW116370   4.221   2.213   3.783
 5157SOL    HW216371   4.344   2.268   3.690
 5158SOL     OW16372   3.635   1.105   1.409
 5158SOL    HW116373   3.701   1.170   1.372
 5158SOL    HW216374   3.671   1.065   1.494
 5159SOL     OW16375   0.045   3.120   4.086
 5159SOL    HW116376   0.033   3.182   4.009
 5159SOL    HW216377   0.116   3.053   4.065
 5160SOL     OW16378   0.482   4.283   3.384
 5160SOL    HW116379   0.449   4.287   3.478
 5160SOL    HW216380   0.420   4.335   3.325
 5161SOL     OW16381   1.528   3.436   4.822
 5161SOL    HW116382   1.474   3.448   4.906
 5161SOL    HW216383   1.590   3.513   4.811
 5162SOL     OW16384   1.502   4.895   3.616
 5162SOL    HW116385   1.589   4.880   3.663
 5162SOL    HW216386   1.427   4.883   3.681
 5163SOL     OW16387   4.260   6.004   1.077
 5163SOL    HW116388   4.276   5.938   1.151
 5163SOL    HW216389   4.241   6.094   1.117
 5164SOL     OW16390   4.569   2.702   6.453
 5164SOL    HW116391   4.559   2.801   6.466
 5164SOL    HW216392   4.534   2.676   6.363
 5165SOL     OW16393   5.861   4.123   5.305
 5165SOL    HW116394   5.885   4.130   5.401
 5165SOL    HW216395   5.844   4.214   5.267
 5166SOL     OW16396   0.101   5.507   2.375
 5166SOL    HW116397   0.063   5.419   2.348
 5166SOL    HW216398   0.029   5.576   2.376
 5167SOL     OW16399   6.390   5.817   5.503
 5167SOL    HW116400   6.327   5.808   5.580
 5167SOL    HW216401   6.355   5.884   5.438
 5168SOL     OW16402   5.200   3.604   3.307
 5168SOL    HW116403   5.205   3.596   3.208
 5168SOL    HW216404   5.247   3.687   3.337
 5169SOL     OW16405   4.228   1.735   5.161
 5169SOL    HW116406   4.223   1.782   5.249
 5169SOL    HW216407   4.139   1.740   5.116
 5170SOL     OW16408   0.289   3.963   5.446
 5170SOL    HW116409   0.325   4.022   5.518
 5170SOL    HW216410   0.240   4.019   5.379
 5171SOL     OW16411   1.639   5.652   3.812
 5171SOL    HW116412   1.574   5.583   3.843
 5171SOL    HW216413   1.723   5.644   3.865
 5172SOL     OW16414   6.711   2.565   2.511
 5172SOL    HW116415   6.657   2.496   2.560
 5172SOL    HW216416   6.653   2.643   2.489
 5173SOL     OW16417   5.724   4.599   6.117
 5173SOL    HW116418   5.798   4.536   6.144
 5173SOL    HW216419   5.676   4.630   6.198
 5174SOL     OW16420   2.365   4.751   3.207
 5174SOL    HW116421   2.344   4.686   3.135
 5174SOL    HW216422   2.456   4.732   3.244
 5175SOL     OW16423   2.341   3.955   7.019
 5175SOL    HW116424   2.284   3.878   0.020
 5175SOL    HW216425   2.293   4.041   0.013
 5176SOL     OW16426   4.786   3.179   6.521
 5176SOL    HW116427   4.813   3.273   6.500
 5176SOL    HW216428   4.732   3.179   6.606
 5177SOL     OW16429   5.228   0.071   6.430
 5177SOL    HW116430   5.157   0.046   6.364
 5177SOL    HW216431   5.219   0.168   6.453
 5178SOL     OW16432   1.550   3.760   1.375
 5178SOL    HW116433   1.456   3.793   1.377
 5178SOL    HW216434   1.584   3.752   1.469
 5179SOL     OW16435   3.975   5.777   4.998
 5179SOL    HW116436   3.906   5.800   4.928
 5179SOL    HW216437   4.034   5.856   5.013
 5180SOL     OW16438   3.151   2.934   0.037
 5180SOL    HW116439   3.123   3.010   0.096
 5180SOL    HW216440   3.098   2.853   0.058
 5181SOL     OW16441   4.968   1.962   2.125
 5181SOL    HW116442   4.955   2.042   2.183
 5181SOL    HW216443   4.924   1.883   2.166
 5182SOL     OW16444   3.871   5.116   1.669
 5182SOL    HW116445   3.810   5.048   1.708
 5182SOL    HW216446   3.955   5.071   1.638
 5183SOL     OW16447   3.926   1.474   2.711
 5183SOL    HW116448   3.846   1.533   2.702
 5183SOL    HW216449   3.897   1.382   2.735
 5184SOL     OW16450   0.277   2.287   4.276
 5184SOL    HW116451   0.275   2.378   4.316
 5184SOL    HW216452   0.366   2.245   4.291
 5185SOL     OW16453   5.488   0.711   2.408
 5185SOL    HW116454   5.398   0.708   2.365
 5185SOL    HW216455   5.489   0.654   2.489
 5186SOL     OW16456   5.898   3.458   0.810
 5186SOL    HW116457   5.953   3.527   0.857
 5186SOL    HW216458   5.858   3.396   0.878
 5187SOL     OW16459   6.734   0.903   3.675
 5187SOL    HW116460   6.699   0.989   3.637
 5187SOL    HW216461   6.687   0.884   3.762
 5188SOL     OW16462   0.790   5.536   0.273
 5188SOL    HW116463   0.849   5.457   0.253
 5188SOL    HW216464   0.698   5.504   0.294
 5189SOL     OW16465   4.877   5.011   1.103
 5189SOL    HW116466   4.927   5.072   1.164
 5189SOL    HW216467   4.936   4.934   1.077
 5190SOL     OW16468   0.077   3.054   4.372
 5190SOL    HW116469   0.075   3.115   4.292
 5190SOL    HW216470   0.088   2.959   4.341
 5191SOL     OW16471   4.736   0.546   2.082
 5191SOL    HW116472   4.721   0.639   2.115
 5191SOL    HW216473   4.653   0.492   2.096
 5192SOL     OW16474   2.698   5.567   2.975
 5192SOL    HW116475   2.674   5.650   3.027
 5192SOL    HW216476   2.700   5.489   3.037
 5193SOL     OW16477   5.025   4.819   4.039
 5193SOL    HW116478   5.122   4.796   4.045
 5193SOL    HW216479   4.971   4.735   4.030
 5194SOL     OW16480   4.318   0.741   7.004
 5194SOL    HW116481   4.236   0.785   6.966
 5194SOL    HW216482   4.399   0.776   6.958
 5195SOL     OW16483   6.981   5.858   4.184
 5195SOL    HW116484   0.017   5.785   4.159
 5195SOL    HW216485   0.005   5.941   4.205
 5196SOL     OW16486   1.557   3.896   0.777
 5196SOL    HW116487   1.594   3.805   0.758
 5196SOL    HW216488   1.508   3.895   0.864
 5197SOL     OW16489   1.317   5.279   5.166
 5197SOL    HW116490   1.332   5.356   5.227
 5197SOL    HW216491   1.220   5.276   5.139
 5198SOL     OW16492   4.156   6.877   3.857
 5198SOL    HW116493   4.219   6.872   3.779
 5198SOL    HW216494   4.066   6.844   3.829
 5199SOL     OW16495   1.038   6.617   6.649
 5199SOL    HW116496   0.985   6.608   6.565
 5199SOL    HW216497   1.129   6.652   6.627
 5200SOL     OW16498   1.567   1.873   5.613
 5200SOL    HW116499   1.491   1.865   5.548
 5200SOL    HW216500   1.591   1.781   5.646
 5201SOL     OW16501   5.678   6.111   4.224
 5201SOL    HW116502   5.732   6.188   4.192
 5201SOL    HW216503   5.739   6.039   4.257
 5202SOL     OW16504   5.906   4.167   5.593
 5202SOL    HW116505   5.877   4.262   5.604
 5202SOL    HW216506   5.844   4.107   5.644
 5203SOL     OW16507   2.398   0.745   0.034
 5203SOL    HW116508   2.461   0.700   0.097
 5203SOL    HW216509   2.425   0.840   0.022
 5204SOL     OW16510   3.701   6.288   0.532
 5204SOL    HW116511   3.737   6.319   0.620
 5204SOL    HW216512   3.649   6.204   0.545
 5205SOL     OW16513   6.902   6.115   6.931
 5205SOL    HW116514   6.894   6.197   6.875
 5205SOL    HW216515   6.921   6.036   6.873
 5206SOL     OW16516   6.940   5.612   6.779
 5206SOL    HW116517   6.981   5.624   6.688
 5206SOL    HW216518   6.963   5.521   6.814
 5207SOL     OW16519   0.897   0.386   3.479
 5207SOL    HW116520   0.921   0.289   3.482
 5207SOL    HW216521   0.885   0.415   3.384
 5208SOL     OW16522   4.346   2.420   6.890
 5208SOL    HW116523   4.433   2.400   6.935
 5208SOL    HW216524   4.317   2.341   6.836
 5209SOL     OW16525   5.357   0.861   1.477
 5209SOL    HW116526   5.375   0.870   1.575
 5209SOL    HW216527   5.419   0.920   1.426
 5210SOL     OW16528   4.868   3.820   0.614
 5210SOL    HW116529   4.958   3.836   0.573
 5210SOL    HW216530   4.842   3.725   0.600
 5211SOL     OW16531   4.828   1.737   5.260
 5211SOL    HW116532   4.785   1.751   5.171
 5211SOL    HW216533   4.764   1.692   5.322
 5212SOL     OW16534   1.908   2.797   1.306
 5212SOL    HW116535   1.875   2.710   1.268
 5212SOL    HW216536   1.848   2.871   1.275
 5213SOL     OW16537   4.486   3.646   1.114
 5213SOL    HW116538   4.391   3.643   1.146
 5213SOL    HW216539   4.518   3.554   1.094
 5214SOL     OW16540   5.642   2.736   5.727
 5214SOL    HW116541   5.651   2.699   5.635
 5214SOL    HW216542   5.630   2.836   5.722
 5215SOL     OW16543   0.544   4.735   4.293
 5215SOL    HW116544   0.461   4.767   4.339
 5215SOL    HW216545   0.614   4.716   4.361
 5216SOL     OW16546   4.663   5.233   1.300
 5216SOL    HW116547   4.570   5.252   1.332
 5216SOL    HW216548   4.683   5.291   1.221
 5217SOL     OW16549   3.758   5.806   4.503
 5217SOL    HW116550   3.723   5.897   4.482
 5217SOL    HW216551   3.691   5.737   4.477
 5218SOL     OW16552   0.532   1.560   1.482
 5218SOL    HW116553   0.518   1.471   1.438
 5218SOL    HW216554   0.523   1.632   1.414
 5219SOL     OW16555   3.572   1.996   4.751
 5219SOL    HW116556   3.492   2.032   4.702
 5219SOL    HW216557   3.577   1.897   4.739
 5220SOL     OW16558   1.280   4.993   3.165
 5220SOL    HW116559   1.309   5.089   3.157
 5220SOL    HW216560   1.329   4.950   3.241
 5221SOL     OW16561   6.397   0.602   2.619
 5221SOL    HW116562   6.336   0.679   2.640
 5221SOL    HW216563   6.361   0.551   2.541
 5222SOL     OW16564   3.949   6.470   2.360
 5222SOL    HW116565   3.948   6.374   2.387
 5222SOL    HW216566   3.856   6.507   2.363
 5223SOL     OW16567   0.165   2.644   6.968
 5223SOL    HW116568   0.151   2.739   6.996
 5223SOL    HW216569   0.221   2.597   0.011
 5224SOL     OW16570   6.710   2.794   4.258
 5224SOL    HW116571   6.775   2.833   4.193
 5224SOL    HW216572   6.637   2.860   4.277
 5225SOL     OW16573   6.344   0.988   3.329
 5225SOL    HW116574   6.331   1.012   3.425
 5225SOL    HW216575   6.435   1.015   3.299
 5226SOL     OW16576   0.601   6.585   3.967
 5226SOL    HW116577   0.692   6.544   3.973
 5226SOL    HW216578   0.568   6.577   3.873
 5227SOL     OW16579   0.386   4.278   5.926
 5227SOL    HW116580   0.455   4.271   5.855
 5227SOL    HW216581   0.329   4.359   5.910
 5228SOL     OW16582   0.957   2.156   0.182
 5228SOL    HW116583   0.860   2.177   0.182
 5228SOL    HW216584   1.002   2.202   0.258
 5229SOL     OW16585   3.074   6.443   0.343
 5229SOL    HW116586   3.063   6.438   0.244
 5229SOL    HW216587   3.016   6.515   0.381
 5230SOL     OW16588   6.755   6.237   2.154
 5230SOL    HW116589   6.737   6.301   2.229
 5230SOL    HW216590   6.829   6.272   2.097
 5231SOL     OW16591   4.633   2.691   3.429
 5231SOL    HW116592   4.553   2.631   3.428
 5231SOL    HW216593   4.660   2.713   3.336
 5232SOL     OW16594   0.901   3.941   6.108
 5232SOL    HW116595   0.991   3.922   6.145
 5232SOL    HW216596   0.861   4.019   6.155
 5233SOL     OW16597   3.507   1.210   2.785
 5233SOL    HW116598   3.538   1.256   2.702
 5233SOL    HW216599   3.412   1.182   2.775
 5234SOL     OW16600   2.278   2.389   6.637
 5234SOL    HW116601   2.322   2.441   6.710
 5234SOL    HW216602   2.328   2.402   6.552
 5235SOL     OW16603   2.113   2.107   0.769
 5235SOL    HW116604   2.084   2.174   0.838
 5235SOL    HW216605   2.178   2.150   0.707
 5236SOL     OW16606   3.617   5.879   2.222
 5236SOL    HW116607   3.620   5.779   2.225
 5236SOL    HW216608   3.701   5.913   2.179
 5237SOL     OW16609   1.127   1.154   4.908
 5237SOL    HW116610   1.226   1.162   4.924
 5237SOL    HW216611   1.077   1.190   4.986
 5238SOL     OW16612   0.570   6.036   0.243
 5238SOL    HW116613   0.669   6.026   0.244
 5238SOL    HW216614   0.536   6.041   0.337
 5239SOL     OW16615   3.638   2.472   6.909
 5239SOL    HW116616   3.736   2.479   6.891
 5239SOL    HW216617   3.589   2.458   6.823
 5240SOL     OW16618   3.362   2.239   5.347
 5240SOL    HW116619   3.325   2.184   5.421
 5240SOL    HW216620   3.291   2.302   5.314
 5241SOL     OW16621   0.851   5.654   4.135
 5241SOL    HW116622   0.906   5.723   4.183
 5241SOL    HW216623   0.842   5.573   4.191
 5242SOL     OW16624   5.718   6.733   2.180
 5242SOL    HW116625   5.804   6.763   2.138
 5242SOL    HW216626   5.665   6.814   2.206
 5243SOL     OW16627   1.985   5.590   1.783
 5243SOL    HW116628   1.897   5.632   1.762
 5243SOL    HW216629   2.057   5.637   1.732
 5244SOL     OW16630   3.668   4.908   6.757
 5244SOL    HW116631   3.697   4.925   6.663
 5244SOL    HW216632   3.570   4.926   6.765
 5245SOL     OW16633   3.711   4.473   0.570
 5245SOL    HW116634   3.800   4.468   0.525
 5245SOL    HW216635   3.713   4.547   0.638
 5246SOL     OW16636   6.554   2.781   2.020
 5246SOL    HW116637   6.533   2.848   2.091
 5246SOL    HW216638   6.641   2.736   2.043
 5247SOL     OW16639   2.691   0.175   6.310
 5247SOL    HW116640   2.783   0.186   6.347
 5247SOL    HW216641   2.661   0.080   6.320
 5248SOL     OW16642   6.377   2.242   3.059
 5248SOL    HW116643   6.378   2.236   3.159
 5248SOL    HW216644   6.468   2.219   3.024
 5249SOL     OW16645   0.932   5.621   6.149
 5249SOL    HW116646   0.977   5.680   6.216
 5249SOL    HW216647   0.999   5.592   6.080
 5250SOL     OW16648   1.052   6.194   0.365
 5250SOL    HW116649   1.108   6.268   0.327
 5250SOL    HW216650   1.096   6.158   0.447
 5251SOL     OW16651   1.029   3.229   0.556
 5251SOL    HW116652   0.975   3.268   0.630
 5251SOL    HW216653   1.023   3.129   0.560
 5252SOL     OW16654   2.927   6.427   1.029
 5252SOL    HW116655   2.877   6.422   1.116
 5252SOL    HW216656   3.002   6.492   1.037
 5253SOL     OW16657   6.828   3.945   4.873
 5253SOL    HW116658   6.802   3.848   4.877
 5253SOL    HW216659   6.771   3.991   4.805
 5254SOL     OW16660   5.509   1.038   3.399
 5254SOL    HW116661   5.548   0.957   3.442
 5254SOL    HW216662   5.464   1.094   3.468
 5255SOL     OW16663   5.454   2.139   5.249
 5255SOL    HW116664   5.431   2.044   5.270
 5255SOL    HW216665   5.384   2.200   5.286
 5256SOL     OW16666   5.335   2.070   3.860
 5256SOL    HW116667   5.329   1.972   3.879
 5256SOL    HW216668   5.343   2.085   3.761
 5257SOL     OW16669   4.846   6.846   1.245
 5257SOL    HW116670   4.894   6.927   1.213
 5257SOL    HW216671   4.905   6.793   1.305
 5258SOL     OW16672   5.863   3.056   1.829
 5258SOL    HW116673   5.962   3.063   1.818
 5258SOL    HW216674   5.830   2.974   1.782
 5259SOL     OW16675   4.826   5.891   2.617
 5259SOL    HW116676   4.793   5.897   2.522
 5259SOL    HW216677   4.919   5.853   2.617
 5260SOL     OW16678   4.571   3.875   0.432
 5260SOL    HW116679   4.647   3.862   0.496
 5260SOL    HW216680   4.584   3.961   0.383
 5261SOL     OW16681   6.442   3.890   5.993
 5261SOL    HW116682   6.370   3.861   5.930
 5261SOL    HW216683   6.404   3.954   6.060
 5262SOL     OW16684   2.557   1.504   3.277
 5262SOL    HW116685   2.596   1.564   3.207
 5262SOL    HW216686   2.629   1.443   3.312
 5263SOL     OW16687   1.887   1.507   3.352
 5263SOL    HW116688   1.902   1.440   3.280
 5263SOL    HW216689   1.974   1.539   3.388
 5264SOL     OW16690   6.460   2.274   2.021
 5264SOL    HW116691   6.520   2.256   1.943
 5264SOL    HW216692   6.381   2.327   1.991
 5265SOL     OW16693   5.991   3.584   3.756
 5265SOL    HW116694   5.933   3.589   3.838
 5265SOL    HW216695   5.996   3.490   3.725
 5266SOL     OW16696   3.418   5.694   6.803
 5266SOL    HW116697   3.367   5.692   6.718
 5266SOL    HW216698   3.437   5.600   6.833
 5267SOL     OW16699   4.933   2.401   4.943
 5267SOL    HW116700   4.991   2.347   4.881
 5267SOL    HW216701   4.990   2.460   5.000
 5268SOL     OW16702   5.736   0.892   0.396
 5268SOL    HW116703   5.819   0.876   0.449
 5268SOL    HW216704   5.707   0.806   0.353
 5269SOL     OW16705   0.765   6.464   2.977
 5269SOL    HW116706   0.682   6.417   2.948
 5269SOL    HW216707   0.840   6.397   2.987
 5270SOL     OW16708   5.129   1.129   1.978
 5270SOL    HW116709   5.120   1.146   2.076
 5270SOL    HW216710   5.052   1.169   1.930
 5271SOL     OW16711   6.061   4.291   5.037
 5271SOL    HW116712   6.098   4.323   5.124
 5271SOL    HW216713   6.079   4.193   5.027
 5272SOL     OW16714   3.471   6.486   1.717
 5272SOL    HW116715   3.538   6.421   1.681
 5272SOL    HW216716   3.510   6.536   1.794
 5273SOL     OW16717   0.317   2.780   3.498
 5273SOL    HW116718   0.340   2.748   3.406
 5273SOL    HW216719   0.333   2.879   3.504
 5274SOL     OW16720   6.159   0.420   2.912
 5274SOL    HW116721   6.077   0.371   2.942
 5274SOL    HW216722   6.225   0.424   2.987
 5275SOL     OW16723   3.984   1.928   0.342
 5275SOL    HW116724   3.923   2.008   0.341
 5275SOL    HW216725   3.964   1.872   0.422
 5276SOL     OW16726   1.939   0.255   0.970
 5276SOL    HW116727   1.968   0.167   0.931
 5276SOL    HW216728   1.840   0.262   0.965
 5277SOL     OW16729   2.270   1.536   2.329
 5277SOL    HW116730   2.265   1.470   2.253
 5277SOL    HW216731   2.179   1.553   2.365
 5278SOL     OW16732   5.412   5.991   3.397
 5278SOL    HW116733   5.396   6.088   3.416
 5278SOL    HW216734   5.351   5.961   3.324
 5279SOL     OW16735   2.054   5.147   0.303
 5279SOL    HW116736   2.118   5.172   0.376
 5279SOL    HW216737   2.077   5.198   0.220
 5280SOL     OW16738   3.210   5.606   5.400
 5280SOL    HW116739   3.225   5.553   5.317
 5280SOL    HW216740   3.119   5.647   5.398
 5281SOL     OW16741   6.719   1.902   1.704
 5281SOL    HW116742   6.786   1.938   1.768
 5281SOL    HW216743   6.760   1.894   1.613
 5282SOL     OW16744   4.055   1.814   3.472
 5282SOL    HW116745   4.055   1.722   3.432
 5282SOL    HW216746   3.993   1.872   3.419
 5283SOL     OW16747   4.413   6.401   2.377
 5283SOL    HW116748   4.429   6.451   2.462
 5283SOL    HW216749   4.500   6.384   2.332
 5284SOL     OW16750   4.580   4.565   3.279
 5284SOL    HW116751   4.623   4.510   3.351
 5284SOL    HW216752   4.601   4.525   3.190
 5285SOL     OW16753   2.453   4.587   4.228
 5285SOL    HW116754   2.421   4.493   4.222
 5285SOL    HW216755   2.406   4.644   4.161
 5286SOL     OW16756   1.765   4.644   0.479
 5286SOL    HW116757   1.828   4.721   0.492
 5286SOL    HW216758   1.671   4.677   0.488
 5287SOL     OW16759   3.290   0.782   0.336
 5287SOL    HW116760   3.207   0.745   0.295
 5287SOL    HW216761   3.315   0.867   0.289
 5288SOL     OW16762   2.887   7.026   1.835
 5288SOL    HW116763   2.954   6.983   1.774
 5288SOL    HW216764   2.919   7.020   1.930
 5289SOL     OW16765   1.733   4.833   6.404
 5289SOL    HW116766   1.738   4.917   6.458
 5289SOL    HW216767   1.686   4.852   6.318
 5290SOL     OW16768   2.472   5.800   5.756
 5290SOL    HW116769   2.516   5.866   5.816
 5290SOL    HW216770   2.373   5.817   5.756
 5291SOL     OW16771   2.323   5.864   5.294
 5291SOL    HW116772   2.264   5.945   5.291
 5291SOL    HW216773   2.290   5.801   5.364
 5292SOL     OW16774   5.672   2.866   7.017
 5292SOL    HW116775   5.607   2.902   0.057
 5292SOL    HW216776   5.632   2.870   6.925
 5293SOL     OW16777   0.356   1.039   5.019
 5293SOL    HW116778   0.335   1.136   5.007
 5293SOL    HW216779   0.276   0.992   5.057
 5294SOL     OW16780   5.053   3.449   6.216
 5294SOL    HW116781   5.067   3.441   6.314
 5294SOL    HW216782   4.968   3.498   6.198
 5295SOL     OW16783   6.414   1.120   2.752
 5295SOL    HW116784   6.481   1.105   2.826
 5295SOL    HW216785   6.445   1.072   2.670
 5296SOL     OW16786   1.698   6.018   6.932
 5296SOL    HW116787   1.697   6.035   6.834
 5296SOL    HW216788   1.731   5.925   6.950
 5297SOL     OW16789   1.632   2.205   1.457
 5297SOL    HW116790   1.557   2.152   1.417
 5297SOL    HW216791   1.710   2.204   1.394
 5298SOL     OW16792   6.596   5.971   2.314
 5298SOL    HW116793   6.642   6.031   2.380
 5298SOL    HW216794   6.516   5.930   2.358
 5299SOL     OW16795   2.965   2.003   1.194
 5299SOL    HW116796   2.966   1.971   1.099
 5299SOL    HW216797   2.971   2.103   1.196
 5300SOL     OW16798   0.322   5.410   2.543
 5300SOL    HW116799   0.245   5.451   2.493
 5300SOL    HW216800   0.287   5.340   2.605
 5301SOL     OW16801   4.516   1.385   0.422
 5301SOL    HW116802   4.520   1.451   0.346
 5301SOL    HW216803   4.607   1.349   0.439
 5302SOL     OW16804   6.376   4.628   3.244
 5302SOL    HW116805   6.445   4.649   3.313
 5302SOL    HW216806   6.414   4.566   3.176
 5303SOL     OW16807   6.792   6.724   3.776
 5303SOL    HW116808   6.885   6.742   3.809
 5303SOL    HW216809   6.794   6.645   3.714
 5304SOL     OW16810   5.823   2.146   6.052
 5304SOL    HW116811   5.870   2.233   6.037
 5304SOL    HW216812   5.796   2.108   5.963
 5305SOL     OW16813   0.901   0.486   4.088
 5305SOL    HW116814   0.841   0.543   4.032
 5305SOL    HW216815   0.875   0.497   4.185
 5306SOL     OW16816   1.785   6.359   5.188
 5306SOL    HW116817   1.715   6.428   5.170
 5306SOL    HW216818   1.746   6.286   5.245
 5307SOL     OW16819   4.395   6.388   6.096
 5307SOL    HW116820   4.339   6.330   6.155
 5307SOL    HW216821   4.460   6.439   6.151
 5308SOL     OW16822   7.009   1.090   3.972
 5308SOL    HW116823   0.019   1.011   3.921
 5308SOL    HW216824   6.913   1.104   3.947
 5309SOL     OW16825   3.848   4.022   3.249
 5309SOL    HW116826   3.796   4.082   3.188
 5309SOL    HW216827   3.835   4.051   3.344
 5310SOL     OW16828   5.237   2.649   2.044
 5310SOL    HW116829   5.167   2.612   2.105
 5310SOL    HW216830   5.328   2.624   2.077
 5311SOL     OW16831   0.307   5.992   6.868
 5311SOL    HW116832   0.398   5.988   6.826
 5311SOL    HW216833   0.251   6.060   6.820
 5312SOL     OW16834   0.275   4.679   2.303
 5312SOL    HW116835   0.324   4.761   2.274
 5312SOL    HW216836   0.188   4.674   2.254
 5313SOL     OW16837   0.560   5.691   6.853
 5313SOL    HW116838   0.649   5.685   6.807
 5313SOL    HW216839   0.567   5.753   6.931
 5314SOL     OW16840   4.695   5.301   0.692
 5314SOL    HW116841   4.700   5.220   0.751
 5314SOL    HW216842   4.631   5.367   0.732
 5315SOL     OW16843   4.512   4.502   1.902
 5315SOL    HW116844   4.594   4.549   1.870
 5315SOL    HW216845   4.532   4.405   1.915
 5316SOL     OW16846   0.475   5.342   4.697
 5316SOL    HW116847   0.498   5.347   4.600
 5316SOL    HW216848   0.516   5.419   4.746
 5317SOL     OW16849   5.678   1.529   4.068
 5317SOL    HW116850   5.754   1.513   4.005
 5317SOL    HW216851   5.595   1.487   4.032
 5318SOL     OW16852   6.866   1.928   4.909
 5318SOL    HW116853   6.847   1.993   4.836
 5318SOL    HW216854   6.787   1.869   4.923
 5319SOL     OW16855   5.120   6.378   6.492
 5319SOL    HW116856   5.078   6.413   6.576
 5319SOL    HW216857   5.183   6.303   6.515
 5320SOL     OW16858   6.172   4.982   0.393
 5320SOL    HW116859   6.121   5.060   0.357
 5320SOL    HW216860   6.212   4.931   0.317
 5321SOL     OW16861   0.909   4.900   3.677
 5321SOL    HW116862   0.975   4.829   3.700
 5321SOL    HW216863   0.913   4.972   3.747
 5322SOL     OW16864   3.862   6.523   6.715
 5322SOL    HW116865   3.881   6.580   6.794
 5322SOL    HW216866   3.791   6.567   6.659
 5323SOL     OW16867   4.519   2.923   1.266
 5323SOL    HW116868   4.523   2.825   1.289
 5323SOL    HW216869   4.564   2.976   1.337
 5324SOL     OW16870   3.691   2.557   1.739
 5324SOL    HW116871   3.756   2.541   1.665
 5324SOL    HW216872   3.694   2.480   1.803
 5325SOL     OW16873   5.701   0.041   2.955
 5325SOL    HW116874   5.626   0.090   2.999
 5325SOL    HW216875   5.714   0.075   2.862
 5326SOL     OW16876   6.113   5.232   2.394
 5326SOL    HW116877   6.154   5.145   2.365
 5326SOL    HW216878   6.023   5.242   2.352
 5327SOL     OW16879   0.631   6.389   5.604
 5327SOL    HW116880   0.599   6.460   5.667
 5327SOL    HW216881   0.554   6.333   5.574
 5328SOL     OW16882   3.529   2.336   5.696
 5328SOL    HW116883   3.434   2.315   5.672
 5328SOL    HW216884   3.584   2.344   5.612
 5329SOL     OW16885   6.762   4.188   0.807
 5329SOL    HW116886   6.673   4.168   0.765
 5329SOL    HW216887   6.823   4.227   0.737
 5330SOL     OW16888   3.753   4.322   6.765
 5330SOL    HW116889   3.814   4.352   6.839
 5330SOL    HW216890   3.663   4.299   6.804
 5331SOL     OW16891   4.866   2.140   0.797
 5331SOL    HW116892   4.932   2.215   0.793
 5331SOL    HW216893   4.776   2.175   0.820
 5332SOL     OW16894   6.403   4.687   0.243
 5332SOL    HW116895   6.340   4.746   0.191
 5332SOL    HW216896   6.411   4.599   0.197
 5333SOL     OW16897   2.036   0.802   3.630
 5333SOL    HW116898   1.937   0.784   3.637
 5333SOL    HW216899   2.055   0.859   3.551
 5334SOL     OW16900   4.974   4.867   4.511
 5334SOL    HW116901   4.949   4.772   4.492
 5334SOL    HW216902   5.003   4.876   4.606
 5335SOL     OW16903   6.616   4.306   2.751
 5335SOL    HW116904   6.525   4.280   2.783
 5335SOL    HW216905   6.668   4.347   2.827
 5336SOL     OW16906   2.078   1.832   3.913
 5336SOL    HW116907   2.028   1.894   3.852
 5336SOL    HW216908   2.176   1.843   3.899
 5337SOL     OW16909   6.049   4.695   1.517
 5337SOL    HW116910   6.127   4.744   1.480
 5337SOL    HW216911   6.071   4.663   1.610
 5338SOL     OW16912   5.436   2.950   0.116
 5338SOL    HW116913   5.383   2.866   0.121
 5338SOL    HW216914   5.430   2.988   0.024
 5339SOL     OW16915   5.964   1.831   1.699
 5339SOL    HW116916   5.985   1.757   1.763
 5339SOL    HW216917   5.956   1.917   1.750
 5340SOL     OW16918   5.362   4.051   1.676
 5340SOL    HW116919   5.405   4.077   1.589
 5340SOL    HW216920   5.393   3.960   1.702
 5341SOL     OW16921   4.272   4.755   4.370
 5341SOL    HW116922   4.176   4.784   4.376
 5341SOL    HW216923   4.326   4.828   4.330
 5342SOL     OW16924   4.675   6.587   5.498
 5342SOL    HW116925   4.665   6.605   5.400
 5342SOL    HW216926   4.623   6.655   5.550
 5343SOL     OW16927   3.635   3.426   4.489
 5343SOL    HW116928   3.696   3.429   4.409
 5343SOL    HW216929   3.550   3.474   4.467
 5344SOL     OW16930   0.335   1.573   6.878
 5344SOL    HW116931   0.261   1.508   6.894
 5344SOL    HW216932   0.335   1.600   6.781
 5345SOL     OW16933   5.032   1.173   0.189
 5345SOL    HW116934   5.119   1.171   0.239
 5345SOL    HW216935   4.983   1.087   0.206
 5346SOL     OW16936   2.713   4.837   4.087
 5346SOL    HW116937   2.744   4.790   4.169
 5346SOL    HW216938   2.671   4.925   4.112
 5347SOL     OW16939   0.049   2.835   3.379
 5347SOL    HW116940   7.023   2.750   3.372
 5347SOL    HW216941   0.133   2.817   3.431
 5348SOL     OW16942   0.170   1.599   5.158
 5348SOL    HW116943   0.117   1.550   5.089
 5348SOL    HW216944   0.233   1.536   5.204
 5349SOL     OW16945   1.864   3.086   1.681
 5349SOL    HW116946   1.952   3.119   1.716
 5349SOL    HW216947   1.870   2.988   1.662
 5350SOL     OW16948   1.701   6.890   5.710
 5350SOL    HW116949   1.691   6.916   5.806
 5350SOL    HW216950   1.744   6.800   5.704
 5351SOL     OW16951   0.360   4.449   1.965
 5351SOL    HW116952   0.361   4.542   1.927
 5351SOL    HW216953   0.423   4.444   2.042
 5352SOL     OW16954   2.400   4.460   2.704
 5352SOL    HW116955   2.488   4.502   2.725
 5352SOL    HW216956   2.385   4.461   2.605
 5353SOL     OW16957   3.167   5.169   3.637
 5353SOL    HW116958   3.139   5.089   3.689
 5353SOL    HW216959   3.086   5.216   3.602
 5354SOL     OW16960   3.049   4.538   0.295
 5354SOL    HW116961   3.147   4.555   0.300
 5354SOL    HW216962   3.014   4.568   0.206
 5355SOL     OW16963   4.766   5.076   5.209
 5355SOL    HW116964   4.808   5.020   5.280
 5355SOL    HW216965   4.670   5.051   5.199
 5356SOL     OW16966   6.553   3.071   1.895
 5356SOL    HW116967   6.615   3.102   1.824
 5356SOL    HW216968   6.524   2.977   1.876
 5357SOL     OW16969   4.194   4.763   2.143
 5357SOL    HW116970   4.253   4.806   2.075
 5357SOL    HW216971   4.112   4.727   2.098
 5358SOL     OW16972   4.621   2.071   0.314
 5358SOL    HW116973   4.575   2.070   0.225
 5358SOL    HW216974   4.595   1.990   0.366
 5359SOL     OW16975   2.246   2.524   7.026
 5359SOL    HW116976   2.158   2.493   6.990
 5359SOL    HW216977   2.269   2.613   6.984
 5360SOL     OW16978   5.401   6.095   3.026
 5360SOL    HW116979   5.428   6.178   2.977
 5360SOL    HW216980   5.458   6.019   2.996
 5361SOL     OW16981   2.853   6.558   3.164
 5361SOL    HW116982   2.934   6.499   3.168
 5361SOL    HW216983   2.771   6.502   3.155
 5362SOL     OW16984   6.314   6.587   2.274
 5362SOL    HW116985   6.222   6.550   2.282
 5362SOL    HW216986   6.321   6.672   2.326
 5363SOL     OW16987   5.311   6.435   4.613
 5363SOL    HW116988   5.271   6.519   4.648
 5363SOL    HW216989   5.253   6.357   4.638
 5364SOL     OW16990   5.235   0.729   2.238
 5364SOL    HW116991   5.141   0.763   2.234
 5364SOL    HW216992   5.280   0.742   2.150
 5365SOL     OW16993   3.160   3.956   2.513
 5365SOL    HW116994   3.076   3.949   2.567
 5365SOL    HW216995   3.160   3.885   2.442
 5366SOL     OW16996   6.829   0.185   1.827
 5366SOL    HW116997   6.904   0.217   1.769
 5366SOL    HW216998   6.744   0.229   1.798
 5367SOL     OW16999   6.286   0.133   0.768
 5367SOL    HW117000   6.309   0.053   0.713
 5367SOL    HW217001   6.188   0.151   0.762
 5368SOL     OW17002   0.144   5.909   2.193
 5368SOL    HW117003   0.114   5.915   2.097
 5368SOL    HW217004   0.071   5.942   2.252
 5369SOL     OW17005   2.611   5.709   1.339
 5369SOL    HW117006   2.618   5.609   1.338
 5369SOL    HW217007   2.543   5.737   1.407
 5370SOL     OW17008   4.226   3.249   1.842
 5370SOL    HW117009   4.310   3.245   1.788
 5370SOL    HW217010   4.158   3.188   1.802
 5371SOL     OW17011   0.038   5.000   5.054
 5371SOL    HW117012   0.110   4.984   5.122
 5371SOL    HW217013   0.058   5.083   5.002
 5372SOL     OW17014   0.829   0.205   2.413
 5372SOL    HW117015   0.860   0.182   2.321
 5372SOL    HW217016   0.883   0.155   2.481
 5373SOL     OW17017   3.778   6.605   6.230
 5373SOL    HW117018   3.701   6.668   6.214
 5373SOL    HW217019   3.743   6.520   6.269
 5374SOL     OW17020   2.406   4.684   1.030
 5374SOL    HW117021   2.336   4.748   1.061
 5374SOL    HW217022   2.496   4.717   1.060
 5375SOL     OW17023   0.881   6.514   5.360
 5375SOL    HW117024   0.928   6.517   5.448
 5375SOL    HW217025   0.809   6.584   5.358
 5376SOL     OW17026   1.304   1.908   1.960
 5376SOL    HW117027   1.230   1.975   1.949
 5376SOL    HW217028   1.359   1.905   1.876
 5377SOL     OW17029   2.413   0.978   3.252
 5377SOL    HW117030   2.483   0.999   3.321
 5377SOL    HW217031   2.426   0.884   3.220
 5378SOL     OW17032   6.024   0.141   0.718
 5378SOL    HW117033   6.043   0.130   0.620
 5378SOL    HW217034   5.987   0.233   0.735
 5379SOL     OW17035   1.205   2.926   5.802
 5379SOL    HW117036   1.167   2.840   5.837
 5379SOL    HW217037   1.274   2.960   5.867
 5380SOL     OW17038   3.341   7.018   1.215
 5380SOL    HW117039   3.347   0.005   1.314
 5380SOL    HW217040   3.412   0.047   1.171
 5381SOL     OW17041   6.236   5.944   2.080
 5381SOL    HW117042   6.305   5.981   2.018
 5381SOL    HW217043   6.245   5.987   2.170
 5382SOL     OW17044   3.830   2.029   2.445
 5382SOL    HW117045   3.887   1.961   2.398
 5382SOL    HW217046   3.734   2.006   2.433
 5383SOL     OW17047   0.855   2.984   4.732
 5383SOL    HW117048   0.870   3.056   4.800
 5383SOL    HW217049   0.913   2.906   4.753
 5384SOL     OW17050   4.533   5.110   4.778
 5384SOL    HW117051   4.497   5.020   4.801
 5384SOL    HW217052   4.610   5.130   4.838
 5385SOL     OW17053   6.531   2.389   5.691
 5385SOL    HW117054   6.532   2.465   5.756
 5385SOL    HW217055   6.504   2.305   5.738
 5386SOL     OW17056   5.400   2.601   4.026
 5386SOL    HW117057   5.408   2.514   3.976
 5386SOL    HW217058   5.310   2.606   4.069
 5387SOL     OW17059   2.687   6.996   2.938
 5387SOL    HW117060   2.735   0.057   2.943
 5387SOL    HW217061   2.697   6.947   3.025
 5388SOL     OW17062   1.407   6.653   2.882
 5388SOL    HW117063   1.462   6.615   2.956
 5388SOL    HW217064   1.444   6.742   2.855
 5389SOL     OW17065   4.408   2.477   4.508
 5389SOL    HW117066   4.322   2.438   4.542
 5389SOL    HW217067   4.416   2.459   4.410
 5390SOL     OW17068   5.511   3.601   4.189
 5390SOL    HW117069   5.424   3.563   4.218
 5390SOL    HW217070   5.585   3.537   4.214
 5391SOL     OW17071   2.873   2.349   0.027
 5391SOL    HW117072   2.965   2.341   0.064
 5391SOL    HW217073   2.810   2.292   0.081
 5392SOL     OW17074   4.740   2.783   2.517
 5392SOL    HW117075   4.777   2.707   2.463
 5392SOL    HW217076   4.745   2.867   2.463
 5393SOL     OW17077   4.279   0.161   5.256
 5393SOL    HW117078   4.254   0.225   5.183
 5393SOL    HW217079   4.375   0.175   5.281
 5394SOL     OW17080   0.935   6.149   1.508
 5394SOL    HW117081   0.837   6.167   1.511
 5394SOL    HW217082   0.985   6.235   1.518
 5395SOL     OW17083   4.835   0.720   0.966
 5395SOL    HW117084   4.825   0.752   1.061
 5395SOL    HW217085   4.886   0.788   0.914
 5396SOL     OW17086   5.419   5.945   2.069
 5396SOL    HW117087   5.432   5.846   2.074
 5396SOL    HW217088   5.379   5.969   1.980
 5397SOL     OW17089   6.939   1.925   2.300
 5397SOL    HW117090   6.912   1.980   2.220
 5397SOL    HW217091   0.009   1.940   2.319
 5398SOL     OW17092   4.073   2.275   3.854
 5398SOL    HW117093   3.999   2.208   3.864
 5398SOL    HW217094   4.043   2.349   3.794
 5399SOL     OW17095   2.032   6.460   5.825
 5399SOL    HW117096   2.105   6.394   5.810
 5399SOL    HW217097   1.964   6.421   5.887
 5400SOL     OW17098   3.631   3.217   0.966
 5400SOL    HW117099   3.636   3.231   0.867
 5400SOL    HW217100   3.664   3.125   0.989
 5401SOL     OW17101   4.728   4.809   3.391
 5401SOL    HW117102   4.673   4.742   3.341
 5401SOL    HW217103   4.671   4.886   3.417
 5402SOL     OW17104   3.203   6.356   0.819
 5402SOL    HW117105   3.194   6.438   0.875
 5402SOL    HW217106   3.200   6.274   0.877
 5403SOL     OW17107   5.375   3.150   6.242
 5403SOL    HW117108   5.346   3.099   6.322
 5403SOL    HW217109   5.302   3.149   6.173
 5404SOL     OW17110   0.253   0.816   0.865
 5404SOL    HW117111   0.326   0.750   0.881
 5404SOL    HW217112   0.181   0.774   0.809
 5405SOL     OW17113   5.580   5.030   0.011
 5405SOL    HW117114   5.516   5.009   0.085
 5405SOL    HW217115   5.674   5.019   0.043
 5406SOL     OW17116   1.965   0.724   4.679
 5406SOL    HW117117   2.026   0.770   4.744
 5406SOL    HW217118   1.874   0.765   4.684
 5407SOL     OW17119   2.920   0.988   1.246
 5407SOL    HW117120   2.900   0.891   1.265
 5407SOL    HW217121   2.882   1.013   1.157
 5408SOL     OW17122   3.839   1.852   4.612
 5408SOL    HW117123   3.824   1.943   4.573
 5408SOL    HW217124   3.929   1.819   4.584
 5409SOL     OW17125   6.271   2.100   1.866
 5409SOL    HW117126   6.367   2.099   1.895
 5409SOL    HW217127   6.264   2.150   1.779
 5410SOL     OW17128   0.188   2.923   1.031
 5410SOL    HW117129   0.181   2.973   0.945
 5410SOL    HW217130   0.175   2.825   1.015
 5411SOL     OW17131   5.875   4.184   7.003
 5411SOL    HW117132   5.834   4.268   6.967
 5411SOL    HW217133   5.815   4.145   0.047
 5412SOL     OW17134   2.134   1.398   6.233
 5412SOL    HW117135   2.110   1.343   6.313
 5412SOL    HW217136   2.171   1.338   6.161
 5413SOL     OW17137   6.668   0.122   5.623
 5413SOL    HW117138   6.593   0.100   5.562
 5413SOL    HW217139   6.755   0.111   5.574
 5414SOL     OW17140   0.354   4.643   5.680
 5414SOL    HW117141   0.422   4.714   5.663
 5414SOL    HW217142   0.355   4.578   5.604
 5415SOL     OW17143   3.172   5.807   0.135
 5415SOL    HW117144   3.110   5.764   0.069
 5415SOL    HW217145   3.241   5.860   0.088
 5416SOL     OW17146   2.980   5.181   4.923
 5416SOL    HW117147   2.949   5.131   4.842
 5416SOL    HW217148   2.990   5.118   5.000
 5417SOL     OW17149   4.713   6.670   4.139
 5417SOL    HW117150   4.645   6.740   4.121
 5417SOL    HW217151   4.760   6.690   4.225
 5418SOL     OW17152   5.614   4.719   4.746
 5418SOL    HW117153   5.549   4.754   4.814
 5418SOL    HW217154   5.620   4.620   4.754
 5419SOL     OW17155   3.993   6.678   6.912
 5419SOL    HW117156   3.977   6.755   6.974
 5419SOL    HW217157   4.091   6.673   6.890
 5420SOL     OW17158   1.358   1.656   1.787
 5420SOL    HW117159   1.386   1.564   1.812
 5420SOL    HW217160   1.436   1.706   1.750
 5421SOL     OW17161   3.389   5.410   2.159
 5421SOL    HW117162   3.353   5.393   2.250
 5421SOL    HW217163   3.314   5.429   2.096
 5422SOL     OW17164   2.141   5.617   4.169
 5422SOL    HW117165   2.238   5.626   4.149
 5422SOL    HW217166   2.125   5.533   4.220
 5423SOL     OW17167   6.364   5.418   2.145
 5423SOL    HW117168   6.377   5.330   2.192
 5423SOL    HW217169   6.294   5.471   2.192
 5424SOL     OW17170   4.984   4.471   4.739
 5424SOL    HW117171   5.060   4.436   4.683
 5424SOL    HW217172   4.898   4.431   4.706
 5425SOL     OW17173   6.390   3.043   5.027
 5425SOL    HW117174   6.381   3.137   5.061
 5425SOL    HW217175   6.318   3.026   4.959
 5426SOL     OW17176   5.076   5.344   1.910
 5426SOL    HW117177   4.981   5.362   1.935
 5426SOL    HW217178   5.109   5.263   1.960
 5427SOL     OW17179   4.687   2.999   0.017
 5427SOL    HW117180   4.712   2.928   6.977
 5427SOL    HW217181   4.636   2.958   0.092
 5428SOL     OW17182   5.413   5.844   2.411
 5428SOL    HW117183   5.424   5.747   2.435
 5428SOL    HW217184   5.482   5.898   2.460
 5429SOL     OW17185   2.857   7.026   4.515
 5429SOL    HW117186   2.815   0.077   4.468
 5429SOL    HW217187   2.832   6.941   4.468
 5430SOL     OW17188   2.024   3.289   5.606
 5430SOL    HW117189   2.042   3.191   5.608
 5430SOL    HW217190   2.109   3.339   5.623
 5431SOL     OW17191   3.382   5.104   6.159
 5431SOL    HW117192   3.323   5.023   6.154
 5431SOL    HW217193   3.359   5.157   6.240
 5432SOL     OW17194   5.693   5.949   0.798
 5432SOL    HW117195   5.730   5.930   0.707
 5432SOL    HW217196   5.719   6.042   0.826
 5433SOL     OW17197   1.175   0.070   1.257
 5433SOL    HW117198   1.111   0.025   1.319
 5433SOL    HW217199   1.215   0.150   1.302
 5434SOL     OW17200   4.750   0.879   4.760
 5434SOL    HW117201   4.834   0.933   4.767
 5434SOL    HW217202   4.701   0.883   4.847
 5435SOL     OW17203   6.305   3.796   0.454
 5435SOL    HW117204   6.331   3.892   0.458
 5435SOL    HW217205   6.236   3.778   0.524
 5436SOL     OW17206   0.377   5.751   2.989
 5436SOL    HW117207   0.400   5.741   3.086
 5436SOL    HW217208   0.325   5.670   2.959
 5437SOL     OW17209   3.176   4.903   6.144
 5437SOL    HW117210   3.157   4.870   6.052
 5437SOL    HW217211   3.111   4.975   6.169
 5438SOL     OW17212   5.048   4.407   1.969
 5438SOL    HW117213   5.120   4.381   2.033
 5438SOL    HW217214   5.039   4.336   1.899
 5439SOL     OW17215   0.933   3.992   0.380
 5439SOL    HW117216   0.965   4.057   0.449
 5439SOL    HW217217   0.940   4.033   0.290
 5440SOL     OW17218   5.861   6.874   3.139
 5440SOL    HW117219   5.872   6.968   3.169
 5440SOL    HW217220   5.854   6.814   3.219
 5441SOL     OW17221   4.892   3.150   3.983
 5441SOL    HW117222   4.853   3.139   4.074
 5441SOL    HW217223   4.893   3.061   3.936
 5442SOL     OW17224   5.093   0.658   3.850
 5442SOL    HW117225   5.117   0.609   3.766
 5442SOL    HW217226   4.998   0.639   3.874
 5443SOL     OW17227   4.689   6.799   4.380
 5443SOL    HW117228   4.590   6.788   4.374
 5443SOL    HW217229   4.710   6.881   4.434
 5444SOL     OW17230   0.333   1.969   4.231
 5444SOL    HW117231   0.334   1.997   4.327
 5444SOL    HW217232   0.322   2.050   4.173
 5445SOL     OW17233   5.149   5.271   4.878
 5445SOL    HW117234   5.156   5.273   4.978
 5445SOL    HW217235   5.149   5.365   4.843
 5446SOL     OW17236   6.682   4.822   5.059
 5446SOL    HW117237   6.753   4.753   5.075
 5446SOL    HW217238   6.683   4.889   5.133
 5447SOL     OW17239   2.540   1.505   1.537
 5447SOL    HW117240   2.547   1.407   1.517
 5447SOL    HW217241   2.609   1.555   1.484
 5448SOL     OW17242   4.384   5.694   4.058
 5448SOL    HW117243   4.466   5.723   4.107
 5448SOL    HW217244   4.342   5.617   4.107
 5449SOL     OW17245   3.046   1.338   1.945
 5449SOL    HW117246   3.013   1.400   1.873
 5449SOL    HW217247   3.052   1.388   2.032
 5450SOL     OW17248   3.421   6.145   1.903
 5450SOL    HW117249   3.450   6.049   1.909
 5450SOL    HW217250   3.497   6.204   1.928
 5451SOL     OW17251   1.029   0.079   2.551
 5451SOL    HW117252   1.051   0.019   2.474
 5451SOL    HW217253   1.018   0.025   2.634
 5452SOL     OW17254   1.491   4.836   1.124
 5452SOL    HW117255   1.412   4.778   1.104
 5452SOL    HW217256   1.470   4.896   1.201
 5453SOL     OW17257   4.795   3.945   2.628
 5453SOL    HW117258   4.825   3.993   2.546
 5453SOL    HW217259   4.829   3.851   2.626
 5454SOL     OW17260   5.905   5.976   2.270
 5454SOL    HW117261   5.955   6.017   2.193
 5454SOL    HW217262   5.811   6.009   2.269
 5455SOL     OW17263   0.701   1.336   2.743
 5455SOL    HW117264   0.761   1.416   2.739
 5455SOL    HW217265   0.745   1.259   2.695
 5456SOL     OW17266   5.156   0.710   6.929
 5456SOL    HW117267   5.137   0.633   6.990
 5456SOL    HW217268   5.237   0.689   6.874
 5457SOL     OW17269   6.333   2.097   7.008
 5457SOL    HW117270   6.297   2.034   0.051
 5457SOL    HW217271   6.267   2.171   6.992
 5458SOL     OW17272   6.184   4.987   0.796
 5458SOL    HW117273   6.127   4.907   0.818
 5458SOL    HW217274   6.237   4.968   0.714
 5459SOL     OW17275   2.224   5.146   5.507
 5459SOL    HW117276   2.311   5.097   5.503
 5459SOL    HW217277   2.220   5.211   5.431
 5460SOL     OW17278   2.205   1.302   1.272
 5460SOL    HW117279   2.273   1.233   1.249
 5460SOL    HW217280   2.243   1.366   1.340
 5461SOL     OW17281   1.305   1.668   5.567
 5461SOL    HW117282   1.341   1.667   5.474
 5461SOL    HW217283   1.207   1.645   5.565
 5462SOL     OW17284   5.458   5.985   6.938
 5462SOL    HW117285   5.463   6.021   0.005
 5462SOL    HW217286   5.373   6.014   6.895
 5463SOL     OW17287   6.544   2.150   6.299
 5463SOL    HW117288   6.523   2.081   6.229
 5463SOL    HW217289   6.638   2.140   6.329
 5464SOL     OW17290   6.325   5.568   5.212
 5464SOL    HW117291   6.272   5.653   5.212
 5464SOL    HW217292   6.374   5.559   5.299
 5465SOL     OW17293   6.398   6.864   3.229
 5465SOL    HW117294   6.493   6.874   3.256
 5465SOL    HW217295   6.392   6.834   3.134
 5466SOL     OW17296   5.600   2.955   5.472
 5466SOL    HW117297   5.601   3.038   5.417
 5466SOL    HW217298   5.528   2.961   5.541
 5467SOL     OW17299   5.884   3.835   3.690
 5467SOL    HW117300   5.922   3.743   3.705
 5467SOL    HW217301   5.887   3.856   3.593
 5468SOL     OW17302   6.962   2.549   3.315
 5468SOL    HW117303   6.915   2.464   3.291
 5468SOL    HW217304   6.900   2.607   3.369
 5469SOL     OW17305   1.662   6.796   6.171
 5469SOL    HW117306   1.752   6.758   6.193
 5469SOL    HW217307   1.593   6.755   6.232
 5470SOL     OW17308   4.217   5.286   4.021
 5470SOL    HW117309   4.257   5.312   3.934
 5470SOL    HW217310   4.209   5.186   4.026
 5471SOL     OW17311   5.966   0.713   2.420
 5471SOL    HW117312   5.968   0.809   2.393
 5471SOL    HW217313   5.945   0.706   2.518
 5472SOL     OW17314   3.339   2.605   5.764
 5472SOL    HW117315   3.260   2.638   5.815
 5472SOL    HW217316   3.314   2.524   5.711
 5473SOL     OW17317   1.270   4.952   0.667
 5473SOL    HW117318   1.290   5.018   0.594
 5473SOL    HW217319   1.325   4.974   0.747
 5474SOL     OW17320   1.178   5.852   3.712
 5474SOL    HW117321   1.278   5.851   3.703
 5474SOL    HW217322   1.139   5.915   3.645
 5475SOL     OW17323   1.947   1.503   1.008
 5475SOL    HW117324   1.864   1.535   0.962
 5475SOL    HW217325   1.923   1.464   1.097
 5476SOL     OW17326   2.540   5.042   5.278
 5476SOL    HW117327   2.447   5.035   5.242
 5476SOL    HW217328   2.587   4.954   5.270
 5477SOL     OW17329   1.890   4.150   2.752
 5477SOL    HW117330   1.976   4.143   2.803
 5477SOL    HW217331   1.904   4.203   2.668
 5478SOL     OW17332   4.598   5.652   6.097
 5478SOL    HW117333   4.675   5.594   6.073
 5478SOL    HW217334   4.514   5.597   6.095
 5479SOL     OW17335   4.486   0.808   4.088
 5479SOL    HW117336   4.477   0.828   4.186
 5479SOL    HW217337   4.498   0.893   4.037
 5480SOL     OW17338   6.156   5.015   4.987
 5480SOL    HW117339   6.229   4.947   4.988
 5480SOL    HW217340   6.190   5.099   4.944
 5481SOL     OW17341   5.042   0.728   5.000
 5481SOL    HW117342   4.953   0.684   4.988
 5481SOL    HW217343   5.077   0.757   4.911
 5482SOL     OW17344   3.380   4.059   2.126
 5482SOL    HW117345   3.282   4.043   2.122
 5482SOL    HW217346   3.402   4.111   2.208
 5483SOL     OW17347   6.404   2.689   5.384
 5483SOL    HW117348   6.385   2.683   5.482
 5483SOL    HW217349   6.318   2.682   5.333
 5484SOL     OW17350   5.942   0.055   3.316
 5484SOL    HW117351   5.977   0.057   3.410
 5484SOL    HW217352   5.846   0.083   3.316
 5485SOL     OW17353   2.956   0.037   4.786
 5485SOL    HW117354   2.902   0.104   4.837
 5485SOL    HW217355   2.918   0.025   4.695
 5486SOL     OW17356   2.216   6.788   4.001
 5486SOL    HW117357   2.277   6.842   3.943
 5486SOL    HW217358   2.247   6.693   4.002
 5487SOL     OW17359   6.072   3.933   6.685
 5487SOL    HW117360   6.131   3.962   6.761
 5487SOL    HW217361   5.986   3.985   6.688
 5488SOL     OW17362   4.665   1.605   0.808
 5488SOL    HW117363   4.636   1.567   0.896
 5488SOL    HW217364   4.608   1.567   0.735
 5489SOL     OW17365   1.504   3.971   1.596
 5489SOL    HW117366   1.563   3.963   1.676
 5489SOL    HW217367   1.408   3.965   1.625
 5490SOL     OW17368   3.896   6.973   0.866
 5490SOL    HW117369   3.879   0.042   0.841
 5490SOL    HW217370   3.994   6.959   0.881
 5491SOL     OW17371   1.242   4.228   6.825
 5491SOL    HW117372   1.243   4.195   6.730
 5491SOL    HW217373   1.176   4.303   6.833
 5492SOL     OW17374   1.079   1.713   5.977
 5492SOL    HW117375   1.136   1.773   5.921
 5492SOL    HW217376   1.073   1.623   5.934
 5493SOL     OW17377   3.562   3.299   4.717
 5493SOL    HW117378   3.580   3.352   4.634
 5493SOL    HW217379   3.608   3.210   4.710
 5494SOL     OW17380   6.510   2.489   0.463
 5494SOL    HW117381   6.510   2.392   0.486
 5494SOL    HW217382   6.432   2.534   0.508
 5495SOL     OW17383   2.952   2.971   1.719
 5495SOL    HW117384   3.005   2.905   1.665
 5495SOL    HW217385   2.860   2.934   1.735
 5496SOL     OW17386   2.652   6.579   2.492
 5496SOL    HW117387   2.619   6.485   2.494
 5496SOL    HW217388   2.588   6.638   2.541
 5497SOL     OW17389   0.133   2.173   3.351
 5497SOL    HW117390   0.089   2.089   3.381
 5497SOL    HW217391   0.226   2.153   3.321
 5498SOL     OW17392   5.469   0.485   0.441
 5498SOL    HW117393   5.518   0.486   0.528
 5498SOL    HW217394   5.424   0.574   0.428
 5499SOL     OW17395   0.945   0.906   3.913
 5499SOL    HW117396   0.985   0.840   3.850
 5499SOL    HW217397   0.864   0.948   3.871
 5500SOL     OW17398   1.669   5.763   6.664
 5500SOL    HW117399   1.572   5.758   6.689
 5500SOL    HW217400   1.696   5.678   6.618
 5501SOL     OW17401   3.127   6.977   0.935
 5501SOL    HW117402   3.027   6.980   0.927
 5501SOL    HW217403   3.153   6.899   0.991
 5502SOL     OW17404   5.865   4.405   6.207
 5502SOL    HW117405   5.939   4.391   6.273
 5502SOL    HW217406   5.781   4.363   6.241
 5503SOL     OW17407   0.455   4.262   2.998
 5503SOL    HW117408   0.404   4.176   2.991
 5503SOL    HW217409   0.544   4.244   3.038
 5504SOL     OW17410   2.999   1.254   5.663
 5504SOL    HW117411   3.068   1.231   5.732
 5504SOL    HW217412   2.942   1.329   5.697
 5505SOL     OW17413   2.699   5.278   4.667
 5505SOL    HW117414   2.600   5.268   4.670
 5505SOL    HW217415   2.722   5.375   4.658
 5506SOL     OW17416   6.502   0.581   5.738
 5506SOL    HW117417   6.540   0.490   5.749
 5506SOL    HW217418   6.421   0.591   5.796
 5507SOL     OW17419   2.350   7.026   2.664
 5507SOL    HW117420   2.346   0.014   2.763
 5507SOL    HW217421   2.260   6.994   2.632
 5508SOL     OW17422   2.690   1.169   7.023
 5508SOL    HW117423   2.774   1.125   0.028
 5508SOL    HW217424   2.712   1.259   6.986
 5509SOL     OW17425   1.016   6.550   0.183
 5509SOL    HW117426   1.026   6.642   0.220
 5509SOL    HW217427   1.002   6.555   0.084
 5510SOL     OW17428   5.170   5.793   0.753
 5510SOL    HW117429   5.235   5.810   0.827
 5510SOL    HW217430   5.145   5.879   0.710
 5511SOL     OW17431   2.561   0.149   4.145
 5511SOL    HW117432   2.587   0.052   4.135
 5511SOL    HW217433   2.462   0.156   4.157
 5512SOL     OW17434   6.685   1.819   0.904
 5512SOL    HW117435   6.706   1.726   0.872
 5512SOL    HW217436   6.734   1.885   0.847
 5513SOL     OW17437   4.269   4.475   6.283
 5513SOL    HW117438   4.221   4.455   6.198
 5513SOL    HW217439   4.354   4.422   6.287
 5514SOL     OW17440   5.079   5.815   2.583
 5514SOL    HW117441   5.101   5.721   2.608
 5514SOL    HW217442   5.115   5.835   2.492
 5515SOL     OW17443   0.218   4.188   1.325
 5515SOL    HW117444   0.316   4.207   1.321
 5515SOL    HW217445   0.198   4.139   1.410
 5516SOL     OW17446   1.202   2.888   0.410
 5516SOL    HW117447   1.263   2.895   0.489
 5516SOL    HW217448   1.118   2.840   0.436
 5517SOL     OW17449   2.576   2.261   2.563
 5517SOL    HW117450   2.540   2.354   2.570
 5517SOL    HW217451   2.644   2.247   2.635
 5518SOL     OW17452   6.509   6.345   6.114
 5518SOL    HW117453   6.450   6.417   6.077
 5518SOL    HW217454   6.454   6.263   6.131
 5519SOL     OW17455   4.997   3.676   2.825
 5519SOL    HW117456   4.970   3.654   2.919
 5519SOL    HW217457   4.956   3.610   2.763
 5520SOL     OW17458   0.467   4.743   2.808
 5520SOL    HW117459   0.504   4.676   2.744
 5520SOL    HW217460   0.513   4.733   2.897
 5521SOL     OW17461   3.874   6.058   2.621
 5521SOL    HW117462   3.845   6.034   2.714
 5521SOL    HW217463   3.798   6.046   2.558
 5522SOL     OW17464   1.307   4.332   0.749
 5522SOL    HW117465   1.299   4.345   0.848
 5522SOL    HW217466   1.367   4.402   0.711
 5523SOL     OW17467   3.071   6.900   3.183
 5523SOL    HW117468   2.974   6.904   3.158
 5523SOL    HW217469   3.121   6.848   3.114
 5524SOL     OW17470   6.907   5.437   4.437
 5524SOL    HW117471   6.871   5.528   4.460
 5524SOL    HW217472   6.913   5.428   4.338
 5525SOL     OW17473   6.957   3.571   0.471
 5525SOL    HW117474   7.021   3.578   0.395
 5525SOL    HW217475   7.008   3.567   0.557
 5526SOL     OW17476   6.133   3.628   5.230
 5526SOL    HW117477   6.096   3.721   5.227
 5526SOL    HW217478   6.216   3.628   5.286
 5527SOL     OW17479   0.851   3.446   3.449
 5527SOL    HW117480   0.886   3.536   3.473
 5527SOL    HW217481   0.883   3.421   3.357
 5528SOL     OW17482   0.993   1.943   6.561
 5528SOL    HW117483   1.001   2.015   6.630
 5528SOL    HW217484   1.080   1.935   6.511
 5529SOL     OW17485   2.380   6.836   4.828
 5529SOL    HW117486   2.400   6.915   4.771
 5529SOL    HW217487   2.403   6.856   4.923
 5530SOL     OW17488   6.779   2.764   2.700
 5530SOL    HW117489   6.726   2.730   2.778
 5530SOL    HW217490   6.791   2.691   2.633
 5531SOL     OW17491   3.659   3.788   3.287
 5531SOL    HW117492   3.745   3.837   3.301
 5531SOL    HW217493   3.657   3.751   3.194
 5532SOL     OW17494   1.243   1.476   1.381
 5532SOL    HW117495   1.268   1.440   1.470
 5532SOL    HW217496   1.145   1.459   1.365
 5533SOL     OW17497   3.266   1.096   2.780
 5533SOL    HW117498   3.180   1.141   2.757
 5533SOL    HW217499   3.250   1.028   2.852
 5534SOL     OW17500   1.172   3.206   5.808
 5534SOL    HW117501   1.177   3.107   5.795
 5534SOL    HW217502   1.081   3.230   5.842
 5535SOL     OW17503   0.316   3.120   3.580
 5535SOL    HW117504   0.228   3.157   3.608
 5535SOL    HW217505   0.387   3.189   3.597
 5536SOL     OW17506   3.600   1.573   4.410
 5536SOL    HW117507   3.697   1.585   4.389
 5536SOL    HW217508   3.590   1.538   4.503
 5537SOL     OW17509   3.140   0.626   4.464
 5537SOL    HW117510   3.165   0.530   4.453
 5537SOL    HW217511   3.123   0.645   4.561
 5538SOL     OW17512   3.268   0.596   5.114
 5538SOL    HW117513   3.364   0.592   5.087
 5538SOL    HW217514   3.216   0.644   5.044
 5539SOL     OW17515   1.058   2.900   0.732
 5539SOL    HW117516   1.155   2.888   0.713
 5539SOL    HW217517   1.043   2.901   0.831
 5540SOL     OW17518   5.665   3.692   2.339
 5540SOL    HW117519   5.633   3.620   2.277
 5540SOL    HW217520   5.723   3.652   2.410
 5541SOL     OW17521   5.367   2.478   6.173
 5541SOL    HW117522   5.429   2.430   6.111
 5541SOL    HW217523   5.416   2.552   6.219
 5542SOL     OW17524   5.605   6.450   5.628
 5542SOL    HW117525   5.515   6.492   5.630
 5542SOL    HW217526   5.597   6.353   5.604
 5543SOL     OW17527   2.508   5.182   6.391
 5543SOL    HW117528   2.468   5.222   6.474
 5543SOL    HW217529   2.584   5.121   6.416
 5544SOL     OW17530   5.021   5.914   6.298
 5544SOL    HW117531   4.980   5.998   6.264
 5544SOL    HW217532   5.080   5.875   6.227
 5545SOL     OW17533   4.483   1.368   3.535
 5545SOL    HW117534   4.562   1.308   3.546
 5545SOL    HW217535   4.415   1.324   3.476
 5546SOL     OW17536   0.820   0.025   4.382
 5546SOL    HW117537   0.820   6.965   4.431
 5546SOL    HW217538   0.730   0.069   4.391
 5547SOL     OW17539   4.181   0.834   4.680
 5547SOL    HW117540   4.176   0.933   4.672
 5547SOL    HW217541   4.255   0.800   4.621
 5548SOL     OW17542   6.079   3.299   4.970
 5548SOL    HW117543   5.979   3.293   4.976
 5548SOL    HW217544   6.119   3.210   4.992
 5549SOL     OW17545   3.942   4.437   0.831
 5549SOL    HW117546   3.895   4.502   0.891
 5549SOL    HW217547   3.926   4.344   0.863
 5550SOL     OW17548   2.155   4.378   2.095
 5550SOL    HW117549   2.192   4.367   2.003
 5550SOL    HW217550   2.086   4.450   2.095
 5551SOL     OW17551   1.764   6.715   3.055
 5551SOL    HW117552   1.721   6.797   3.019
 5551SOL    HW217553   1.864   6.722   3.045
 5552SOL     OW17554   6.775   0.505   6.644
 5552SOL    HW117555   6.859   0.550   6.675
 5552SOL    HW217556   6.755   0.428   6.705
 5553SOL     OW17557   4.650   6.207   6.259
 5553SOL    HW117558   4.587   6.129   6.256
 5553SOL    HW217559   4.599   6.292   6.251
 5554SOL     OW17560   4.273   2.244   6.678
 5554SOL    HW117561   4.247   2.157   6.636
 5554SOL    HW217562   4.204   2.313   6.656
 5555SOL     OW17563   0.968   4.003   2.867
 5555SOL    HW117564   0.948   3.962   2.956
 5555SOL    HW217565   0.999   4.097   2.880
 5556SOL     OW17566   6.361   1.800   3.230
 5556SOL    HW117567   6.341   1.830   3.137
 5556SOL    HW217568   6.282   1.751   3.267
 5557SOL     OW17569   3.597   6.534   2.962
 5557SOL    HW117570   3.688   6.524   2.922
 5557SOL    HW217571   3.589   6.475   3.042
 5558SOL     OW17572   3.695   3.849   5.801
 5558SOL    HW117573   3.738   3.939   5.810
 5558SOL    HW217574   3.766   3.778   5.803
 5559SOL     OW17575   2.061   0.203   1.469
 5559SOL    HW117576   2.086   0.158   1.383
 5559SOL    HW217577   2.131   0.271   1.492
 5560SOL     OW17578   0.451   5.333   1.649
 5560SOL    HW117579   0.385   5.268   1.614
 5560SOL    HW217580   0.540   5.289   1.659
 5561SOL     OW17581   1.757   1.275   4.288
 5561SOL    HW117582   1.698   1.348   4.321
 5561SOL    HW217583   1.852   1.306   4.287
 5562SOL     OW17584   4.220   2.729   6.643
 5562SOL    HW117585   4.257   2.822   6.643
 5562SOL    HW217586   4.206   2.698   6.549
 5563SOL     OW17587   3.408   4.852   2.439
 5563SOL    HW117588   3.490   4.796   2.450
 5563SOL    HW217589   3.392   4.869   2.341
 5564SOL     OW17590   4.900   0.194   0.830
 5564SOL    HW117591   4.802   0.183   0.847
 5564SOL    HW217592   4.919   0.289   0.806
 5565SOL     OW17593   4.462   2.235   6.225
 5565SOL    HW117594   4.489   2.156   6.281
 5565SOL    HW217595   4.387   2.283   6.270
 5566SOL     OW17596   1.444   3.656   6.511
 5566SOL    HW117597   1.457   3.578   6.573
 5566SOL    HW217598   1.533   3.690   6.481
 5567SOL     OW17599   0.123   2.662   0.966
 5567SOL    HW117600   0.042   2.676   0.910
 5567SOL    HW217601   0.186   2.599   0.920
 5568SOL     OW17602   4.983   2.013   3.954
 5568SOL    HW117603   4.990   2.062   3.868
 5568SOL    HW217604   4.977   1.914   3.936
 5569SOL     OW17605   2.175   1.997   2.460
 5569SOL    HW117606   2.156   2.093   2.439
 5569SOL    HW217607   2.109   1.939   2.412
 5570SOL     OW17608   6.609   3.572   5.189
 5570SOL    HW117609   6.616   3.478   5.158
 5570SOL    HW217610   6.696   3.601   5.228
 5571SOL     OW17611   6.406   6.057   0.384
 5571SOL    HW117612   6.486   6.101   0.425
 5571SOL    HW217613   6.431   5.967   0.350
 5572SOL     OW17614   1.071   2.795   4.758
 5572SOL    HW117615   1.126   2.780   4.841
 5572SOL    HW217616   1.075   2.714   4.700
 5573SOL     OW17617   2.088   5.345   5.679
 5573SOL    HW117618   2.155   5.287   5.632
 5573SOL    HW217619   2.000   5.299   5.681
 5574SOL     OW17620   0.132   1.852   2.631
 5574SOL    HW117621   0.144   1.887   2.538
 5574SOL    HW217622   0.090   1.761   2.628
 5575SOL     OW17623   6.934   0.878   0.876
 5575SOL    HW117624   7.011   0.937   0.900
 5575SOL    HW217625   6.909   0.893   0.780
 5576SOL     OW17626   0.875   4.713   1.702
 5576SOL    HW117627   0.808   4.654   1.747
 5576SOL    HW217628   0.967   4.679   1.719
 5577SOL     OW17629   3.235   2.985   5.706
 5577SOL    HW117630   3.235   2.912   5.637
 5577SOL    HW217631   3.151   3.037   5.700
 5578SOL     OW17632   3.297   3.460   1.165
 5578SOL    HW117633   3.276   3.425   1.074
 5578SOL    HW217634   3.331   3.554   1.158
 5579SOL     OW17635   0.740   3.095   0.865
 5579SOL    HW117636   0.752   3.163   0.793
 5579SOL    HW217637   0.786   3.127   0.948
 5580SOL     OW17638   5.417   2.548   5.593
 5580SOL    HW117639   5.486   2.574   5.525
 5580SOL    HW217640   5.457   2.553   5.685
 5581SOL     OW17641   1.598   6.646   1.674
 5581SOL    HW117642   1.574   6.561   1.722
 5581SOL    HW217643   1.520   6.709   1.678
 5582SOL     OW17644   2.917   3.418   5.379
 5582SOL    HW117645   2.858   3.369   5.316
 5582SOL    HW217646   3.012   3.396   5.361
 5583SOL     OW17647   4.766   0.643   2.816
 5583SOL    HW117648   4.766   0.547   2.788
 5583SOL    HW217649   4.672   0.674   2.829
 5584SOL     OW17650   6.094   5.079   3.573
 5584SOL    HW117651   5.998   5.109   3.567
 5584SOL    HW217652   6.098   4.992   3.622
 5585SOL     OW17653   5.266   5.313   3.491
 5585SOL    HW117654   5.331   5.269   3.552
 5585SOL    HW217655   5.173   5.287   3.517
 5586SOL     OW17656   0.623   2.531   6.405
 5586SOL    HW117657   0.707   2.584   6.419
 5586SOL    HW217658   0.610   2.516   6.307
 5587SOL     OW17659   4.373   6.642   1.459
 5587SOL    HW117660   4.406   6.560   1.411
 5587SOL    HW217661   4.422   6.722   1.425
 5588SOL     OW17662   2.007   5.536   3.183
 5588SOL    HW117663   1.970   5.583   3.102
 5588SOL    HW217664   1.934   5.521   3.249
 5589SOL     OW17665   6.375   3.481   5.540
 5589SOL    HW117666   6.456   3.529   5.506
 5589SOL    HW217667   6.373   3.484   5.640
 5590SOL     OW17668   6.853   6.481   4.095
 5590SOL    HW117669   6.816   6.562   4.141
 5590SOL    HW217670   6.952   6.479   4.107
 5591SOL     OW17671   5.210   1.632   0.129
 5591SOL    HW117672   5.178   1.551   0.080
 5591SOL    HW217673   5.182   1.626   0.225
 5592SOL     OW17674   0.152   5.058   2.154
 5592SOL    HW117675   0.205   5.095   2.078
 5592SOL    HW217676   0.210   5.046   2.233
 5593SOL     OW17677   0.794   3.636   0.129
 5593SOL    HW117678   0.846   3.607   0.049
 5593SOL    HW217679   0.855   3.643   0.208
 5594SOL     OW17680   4.200   0.880   6.344
 5594SOL    HW117681   4.292   0.911   6.364
 5594SOL    HW217682   4.135   0.925   6.406
 5595SOL     OW17683   6.871   0.872   4.713
 5595SOL    HW117684   6.833   0.898   4.623
 5595SOL    HW217685   6.962   0.834   4.701
 5596SOL     OW17686   4.882   0.579   3.260
 5596SOL    HW117687   4.882   0.518   3.181
 5596SOL    HW217688   4.809   0.647   3.250
 5597SOL     OW17689   5.294   2.727   4.898
 5597SOL    HW117690   5.200   2.753   4.872
 5597SOL    HW217691   5.338   2.803   4.945
 5598SOL     OW17692   5.894   3.711   3.414
 5598SOL    HW117693   5.962   3.782   3.395
 5598SOL    HW217694   5.930   3.622   3.384
 5599SOL     OW17695   0.728   2.582   1.769
 5599SOL    HW117696   0.709   2.654   1.702
 5599SOL    HW217697   0.820   2.593   1.806
 5600SOL     OW17698   1.529   0.864   1.649
 5600SOL    HW117699   1.616   0.889   1.691
 5600SOL    HW217700   1.455   0.880   1.714
 5601SOL     OW17701   2.336   0.940   6.668
 5601SOL    HW117702   2.359   1.020   6.724
 5601SOL    HW217703   2.396   0.864   6.693
 5602SOL     OW17704   0.162   1.971   1.300
 5602SOL    HW117705   0.210   1.969   1.388
 5602SOL    HW217706   0.092   2.042   1.301
 5603SOL     OW17707   5.868   2.610   0.242
 5603SOL    HW117708   5.769   2.619   0.229
 5603SOL    HW217709   5.886   2.573   0.334
 5604SOL     OW17710   6.178   2.169   4.654
 5604SOL    HW117711   6.224   2.176   4.743
 5604SOL    HW217712   6.153   2.073   4.638
 5605SOL     OW17713   6.760   0.897   5.077
 5605SOL    HW117714   6.669   0.909   5.039
 5605SOL    HW217715   6.828   0.936   5.016
 5606SOL     OW17716   4.988   6.059   0.108
 5606SOL    HW117717   5.063   6.072   0.173
 5606SOL    HW217718   4.903   6.043   0.160
 5607SOL     OW17719   5.873   0.987   2.797
 5607SOL    HW117720   5.820   1.071   2.806
 5607SOL    HW217721   5.970   1.006   2.816
 5608SOL     OW17722   5.532   0.474   3.974
 5608SOL    HW117723   5.570   0.562   3.947
 5608SOL    HW217724   5.546   0.408   3.900
 5609SOL     OW17725   3.283   6.057   1.393
 5609SOL    HW117726   3.354   6.102   1.447
 5609SOL    HW217727   3.326   6.006   1.319
 5610SOL     OW17728   4.676   5.623   1.062
 5610SOL    HW117729   4.596   5.602   1.006
 5610SOL    HW217730   4.663   5.586   1.154
 5611SOL     OW17731   0.629   5.767   2.870
 5611SOL    HW117732   0.536   5.751   2.904
 5611SOL    HW217733   0.626   5.776   2.770
 5612SOL     OW17734   4.077   1.992   6.042
 5612SOL    HW117735   4.142   2.065   6.020
 5612SOL    HW217736   4.099   1.911   5.988
 5613SOL     OW17737   6.952   4.856   3.625
 5613SOL    HW117738   0.023   4.871   3.638
 5613SOL    HW217739   6.938   4.785   3.556
 5614SOL     OW17740   4.626   2.286   4.557
 5614SOL    HW117741   4.613   2.237   4.643
 5614SOL    HW217742   4.557   2.357   4.548
 5615SOL     OW17743   6.710   1.577   3.756
 5615SOL    HW117744   6.705   1.607   3.851
 5615SOL    HW217745   6.659   1.492   3.745
 5616SOL     OW17746   2.740   2.412   4.440
 5616SOL    HW117747   2.678   2.334   4.446
 5616SOL    HW217748   2.833   2.379   4.421
 5617SOL     OW17749   2.759   6.337   5.496
 5617SOL    HW117750   2.789   6.282   5.419
 5617SOL    HW217751   2.660   6.351   5.491
 5618SOL     OW17752   0.388   4.457   3.670
 5618SOL    HW117753   0.400   4.405   3.755
 5618SOL    HW217754   0.437   4.544   3.676
 5619SOL     OW17755   3.658   4.086   4.733
 5619SOL    HW117756   3.704   4.115   4.649
 5619SOL    HW217757   3.700   4.001   4.766
 5620SOL     OW17758   4.320   3.536   0.820
 5620SOL    HW117759   4.244   3.583   0.866
 5620SOL    HW217760   4.376   3.603   0.772
 5621SOL     OW17761   2.546   2.718   0.345
 5621SOL    HW117762   2.449   2.706   0.322
 5621SOL    HW217763   2.597   2.638   0.313
 5622SOL     OW17764   4.964   0.401   5.843
 5622SOL    HW117765   4.939   0.371   5.751
 5622SOL    HW217766   5.006   0.492   5.839
 5623SOL     OW17767   3.883   5.525   5.100
 5623SOL    HW117768   3.926   5.615   5.097
 5623SOL    HW217769   3.841   5.504   5.012
 5624SOL     OW17770   0.764   4.289   3.398
 5624SOL    HW117771   0.671   4.286   3.362
 5624SOL    HW217772   0.762   4.321   3.492
 5625SOL     OW17773   5.505   0.477   4.660
 5625SOL    HW117774   5.597   0.438   4.658
 5625SOL    HW217775   5.447   0.423   4.720
 5626SOL     OW17776   2.313   6.073   4.885
 5626SOL    HW117777   2.335   6.111   4.795
 5626SOL    HW217778   2.299   5.974   4.877
 5627SOL     OW17779   0.367   5.413   6.250
 5627SOL    HW117780   0.378   5.380   6.157
 5627SOL    HW217781   0.376   5.513   6.252
 5628SOL     OW17782   1.293   2.141   2.223
 5628SOL    HW117783   1.336   2.063   2.268
 5628SOL    HW217784   1.194   2.139   2.241
 5629SOL     OW17785   3.886   3.648   2.225
 5629SOL    HW117786   3.944   3.711   2.276
 5629SOL    HW217787   3.793   3.649   2.263
 5630SOL     OW17788   1.861   3.671   6.684
 5630SOL    HW117789   1.796   3.666   6.608
 5630SOL    HW217790   1.810   3.670   6.770
 5631SOL     OW17791   4.446   2.195   1.363
 5631SOL    HW117792   4.355   2.217   1.328
 5631SOL    HW217793   4.453   2.224   1.458
 5632SOL     OW17794   2.904   2.495   6.428
 5632SOL    HW117795   2.865   2.405   6.412
 5632SOL    HW217796   2.874   2.558   6.356
 5633SOL     OW17797   6.302   4.185   4.688
 5633SOL    HW117798   6.341   4.262   4.740
 5633SOL    HW217799   6.215   4.213   4.648
 5634SOL     OW17800   2.264   5.174   3.904
 5634SOL    HW117801   2.275   5.273   3.911
 5634SOL    HW217802   2.353   5.131   3.891
 5635SOL     OW17803   2.065   5.019   5.724
 5635SOL    HW117804   2.119   5.028   5.641
 5635SOL    HW217805   1.969   5.039   5.704
 5636SOL     OW17806   4.755   6.991   4.915
 5636SOL    HW117807   4.722   0.023   4.990
 5636SOL    HW217808   4.680   6.975   4.851
 5637SOL     OW17809   5.059   0.576   2.801
 5637SOL    HW117810   5.045   0.668   2.837
 5637SOL    HW217811   4.970   0.535   2.780
 5638SOL     OW17812   6.518   4.131   0.686
 5638SOL    HW117813   6.486   4.096   0.773
 5638SOL    HW217814   6.453   4.107   0.614
 5639SOL     OW17815   1.114   0.891   2.695
 5639SOL    HW117816   1.201   0.939   2.687
 5639SOL    HW217817   1.078   0.871   2.604
 5640SOL     OW17818   3.556   0.127   3.695
 5640SOL    HW117819   3.563   0.219   3.657
 5640SOL    HW217820   3.575   0.060   3.623
 5641SOL     OW17821   0.776   5.070   4.871
 5641SOL    HW117822   0.687   5.029   4.854
 5641SOL    HW217823   0.787   5.090   4.968
 5642SOL     OW17824   1.896   6.556   4.975
 5642SOL    HW117825   1.880   6.610   5.058
 5642SOL    HW217826   1.818   6.495   4.959
 5643SOL     OW17827   4.379   1.157   5.390
 5643SOL    HW117828   4.328   1.217   5.451
 5643SOL    HW217829   4.417   1.210   5.315
 5644SOL     OW17830   2.834   0.514   5.231
 5644SOL    HW117831   2.735   0.524   5.242
 5644SOL    HW217832   2.867   0.437   5.286
 5645SOL     OW17833   6.280   4.797   3.600
 5645SOL    HW117834   6.264   4.718   3.541
 5645SOL    HW217835   6.194   4.826   3.642
 5646SOL     OW17836   1.695   4.811   3.789
 5646SOL    HW117837   1.664   4.821   3.884
 5646SOL    HW217838   1.758   4.885   3.767
 5647SOL     OW17839   4.773   5.339   1.026
 5647SOL    HW117840   4.869   5.313   1.014
 5647SOL    HW217841   4.764   5.438   1.015
 5648SOL     OW17842   1.901   6.948   2.719
 5648SOL    HW117843   1.954   6.980   2.798
 5648SOL    HW217844   1.931   6.856   2.693
 5649SOL     OW17845   0.586   0.501   4.232
 5649SOL    HW117846   0.497   0.538   4.205
 5649SOL    HW217847   0.646   0.576   4.259
 5650SOL     OW17848   0.226   5.604   1.157
 5650SOL    HW117849   0.303   5.581   1.098
 5650SOL    HW217850   0.255   5.673   1.224
 5651SOL     OW17851   1.595   0.639   1.507
 5651SOL    HW117852   1.579   0.557   1.563
 5651SOL    HW217853   1.583   0.720   1.564
 5652SOL     OW17854   6.631   0.103   1.553
 5652SOL    HW117855   6.661   0.197   1.567
 5652SOL    HW217856   6.575   0.097   1.470
 5653SOL     OW17857   6.190   6.259   6.361
 5653SOL    HW117858   6.137   6.246   6.445
 5653SOL    HW217859   6.135   6.312   6.296
 5654SOL     OW17860   0.311   6.304   5.260
 5654SOL    HW117861   0.262   6.303   5.348
 5654SOL    HW217862   0.248   6.280   5.187
 5655SOL     OW17863   1.236   3.628   4.025
 5655SOL    HW117864   1.244   3.727   4.036
 5655SOL    HW217865   1.159   3.607   3.964
 5656SOL     OW17866   6.990   3.771   6.198
 5656SOL    HW117867   7.001   3.673   6.180
 5656SOL    HW217868   7.009   3.789   6.295
 5657SOL     OW17869   6.224   2.605   6.962
 5657SOL    HW117870   6.166   2.654   0.001
 5657SOL    HW217871   6.207   2.507   6.970
 5658SOL     OW17872   3.486   3.390   6.705
 5658SOL    HW117873   3.465   3.461   6.638
 5658SOL    HW217874   3.516   3.432   6.790
 5659SOL     OW17875   3.421   3.214   5.164
 5659SOL    HW117876   3.518   3.198   5.146
 5659SOL    HW217877   3.376   3.247   5.081
 5660SOL     OW17878   4.324   6.881   6.275
 5660SOL    HW117879   4.261   6.803   6.280
 5660SOL    HW217880   4.400   6.865   6.337
 5661SOL     OW17881   1.617   5.479   5.194
 5661SOL    HW117882   1.656   5.476   5.286
 5661SOL    HW217883   1.629   5.390   5.150
 5662SOL     OW17884   2.732   6.231   3.940
 5662SOL    HW117885   2.645   6.197   3.978
 5662SOL    HW217886   2.739   6.203   3.844
 5663SOL     OW17887   2.311   2.329   0.631
 5663SOL    HW117888   2.341   2.312   0.537
 5663SOL    HW217889   2.373   2.282   0.695
 5664SOL     OW17890   6.941   3.326   4.499
 5664SOL    HW117891   6.959   3.354   4.593
 5664SOL    HW217892   6.944   3.226   4.492
 5665SOL     OW17893   2.486   0.772   0.428
 5665SOL    HW117894   2.493   0.822   0.514
 5665SOL    HW217895   2.393   0.777   0.393
 5666SOL     OW17896   6.450   0.171   3.333
 5666SOL    HW117897   6.538   0.133   3.360
 5666SOL    HW217898   6.463   0.263   3.295
 5667SOL     OW17899   1.659   4.936   4.583
 5667SOL    HW117900   1.611   4.937   4.671
 5667SOL    HW217901   1.640   4.849   4.536
 5668SOL     OW17902   5.270   2.891   3.380
 5668SOL    HW117903   5.367   2.901   3.402
 5668SOL    HW217904   5.252   2.796   3.353
 5669SOL     OW17905   6.898   3.627   0.931
 5669SOL    HW117906   6.837   3.664   1.002
 5669SOL    HW217907   6.843   3.584   0.860
 5670SOL     OW17908   1.011   3.581   3.877
 5670SOL    HW117909   1.033   3.504   3.817
 5670SOL    HW217910   0.962   3.651   3.825
 5671SOL     OW17911   5.772   5.610   5.449
 5671SOL    HW117912   5.824   5.600   5.364
 5671SOL    HW217913   5.827   5.662   5.515
 5672SOL     OW17914   4.324   3.631   0.029
 5672SOL    HW117915   4.331   3.715   7.002
 5672SOL    HW217916   4.263   3.645   0.106
 5673SOL     OW17917   2.288   6.628   1.224
 5673SOL    HW117918   2.264   6.569   1.301
 5673SOL    HW217919   2.287   6.574   1.139
 5674SOL     OW17920   0.447   4.292   5.042
 5674SOL    HW117921   0.377   4.344   4.994
 5674SOL    HW217922   0.483   4.346   5.119
 5675SOL     OW17923   4.210   3.039   6.045
 5675SOL    HW117924   4.296   3.080   6.076
 5675SOL    HW217925   4.196   3.060   5.949
 5676SOL     OW17926   2.759   1.589   2.500
 5676SOL    HW117927   2.803   1.658   2.558
 5676SOL    HW217928   2.717   1.633   2.421
 5677SOL     OW17929   0.563   0.970   0.863
 5677SOL    HW117930   0.607   0.898   0.809
 5677SOL    HW217931   0.466   0.947   0.876
 5678SOL     OW17932   4.204   6.622   2.823
 5678SOL    HW117933   4.206   6.693   2.894
 5678SOL    HW217934   4.120   6.569   2.832
 5679SOL     OW17935   6.297   1.494   3.624
 5679SOL    HW117936   6.231   1.427   3.591
 5679SOL    HW217937   6.299   1.494   3.724
 5680SOL     OW17938   1.702   5.202   6.404
 5680SOL    HW117939   1.772   5.233   6.468
 5680SOL    HW217940   1.699   5.264   6.325
 5681SOL     OW17941   0.743   3.481   1.829
 5681SOL    HW117942   0.827   3.486   1.775
 5681SOL    HW217943   0.718   3.386   1.844
 5682SOL     OW17944   2.012   5.266   4.704
 5682SOL    HW117945   1.997   5.358   4.739
 5682SOL    HW217946   1.927   5.230   4.665
 5683SOL     OW17947   3.701   1.182   5.814
 5683SOL    HW117948   3.635   1.171   5.888
 5683SOL    HW217949   3.662   1.148   5.728
 5684SOL     OW17950   2.153   3.489   5.806
 5684SOL    HW117951   2.125   3.527   5.894
 5684SOL    HW217952   2.169   3.390   5.817
 5685SOL     OW17953   2.294   1.435   3.340
 5685SOL    HW117954   2.266   1.402   3.430
 5685SOL    HW217955   2.393   1.451   3.339
 5686SOL     OW17956   2.723   1.832   6.189
 5686SOL    HW117957   2.762   1.790   6.107
 5686SOL    HW217958   2.761   1.924   6.201
 5687SOL     OW17959   0.326   5.629   6.690
 5687SOL    HW117960   0.407   5.647   6.745
 5687SOL    HW217961   0.273   5.555   6.732
 5688SOL     OW17962   1.205   2.403   2.292
 5688SOL    HW117963   1.261   2.324   2.267
 5688SOL    HW217964   1.265   2.481   2.312
 5689SOL     OW17965   3.329   1.557   1.385
 5689SOL    HW117966   3.350   1.467   1.423
 5689SOL    HW217967   3.307   1.548   1.288
 5690SOL     OW17968   1.695   6.211   0.305
 5690SOL    HW117969   1.777   6.198   0.361
 5690SOL    HW217970   1.676   6.127   0.254
 5691SOL     OW17971   4.264   0.479   2.109
 5691SOL    HW117972   4.271   0.449   2.205
 5691SOL    HW217973   4.174   0.521   2.094
 5692SOL     OW17974   5.624   3.861   0.793
 5692SOL    HW117975   5.717   3.880   0.825
 5692SOL    HW217976   5.580   3.796   0.855
 5693SOL     OW17977   4.625   1.838   2.560
 5693SOL    HW117978   4.705   1.783   2.534
 5693SOL    HW217979   4.542   1.784   2.545
 5694SOL     OW17980   1.181   1.245   3.105
 5694SOL    HW117981   1.178   1.146   3.091
 5694SOL    HW217982   1.122   1.290   3.038
 5695SOL     OW17983   1.798   2.003   4.202
 5695SOL    HW117984   1.734   2.067   4.245
 5695SOL    HW217985   1.842   1.947   4.272
 5696SOL     OW17986   0.969   1.077   3.605
 5696SOL    HW117987   1.018   1.081   3.692
 5696SOL    HW217988   0.936   0.984   3.589
 5697SOL     OW17989   6.238   2.069   1.450
 5697SOL    HW117990   6.143   2.055   1.421
 5697SOL    HW217991   6.244   2.150   1.509
 5698SOL     OW17992   0.860   4.561   3.774
 5698SOL    HW117993   0.903   4.568   3.864
 5698SOL    HW217994   0.924   4.592   3.704
 5699SOL     OW17995   0.888   2.831   3.447
 5699SOL    HW117996   0.950   2.876   3.383
 5699SOL    HW217997   0.852   2.899   3.511
 5700SOL     OW17998   6.304   0.014   3.531
 5700SOL    HW117999   6.345   6.951   3.547
 5700SOL    HW218000   6.348   0.056   3.451
 5701SOL     OW18001   0.516   0.355   1.311
 5701SOL    HW118002   0.443   0.374   1.378
 5701SOL    HW218003   0.573   0.280   1.344
 5702SOL     OW18004   2.763   5.414   4.212
 5702SOL    HW118005   2.784   5.493   4.269
 5702SOL    HW218006   2.831   5.342   4.227
 5703SOL     OW18007   6.228   4.624   0.722
 5703SOL    HW118008   6.251   4.528   0.739
 5703SOL    HW218009   6.311   4.680   0.725
 5704SOL     OW18010   4.848   4.207   2.997
 5704SOL    HW118011   4.855   4.116   2.956
 5704SOL    HW218012   4.877   4.276   2.931
 5705SOL     OW18013   5.012   6.695   6.989
 5705SOL    HW118014   5.072   6.707   6.909
 5705SOL    HW218015   5.067   6.666   0.041
 5706SOL     OW18016   6.850   3.011   2.323
 5706SOL    HW118017   6.901   3.025   2.407
 5706SOL    HW218018   6.826   3.100   2.283
 5707SOL     OW18019   7.021   6.711   0.731
 5707SOL    HW118020   6.930   6.685   0.701
 5707SOL    HW218021   0.006   6.810   0.722
 5708SOL     OW18022   5.171   5.840   2.315
 5708SOL    HW118023   5.157   5.935   2.288
 5708SOL    HW218024   5.264   5.828   2.349
 5709SOL     OW18025   1.233   1.423   2.697
 5709SOL    HW118026   1.227   1.523   2.701
 5709SOL    HW218027   1.177   1.390   2.621
 5710SOL     OW18028   2.981   3.060   0.799
 5710SOL    HW118029   2.944   2.967   0.797
 5710SOL    HW218030   3.000   3.086   0.894
 5711SOL     OW18031   5.385   1.326   2.606
 5711SOL    HW118032   5.339   1.368   2.528
 5711SOL    HW218033   5.370   1.382   2.687
 5712SOL     OW18034   6.401   0.472   0.218
 5712SOL    HW118035   6.322   0.488   0.278
 5712SOL    HW218036   6.478   0.526   0.250
 5713SOL     OW18037   2.971   3.989   1.391
 5713SOL    HW118038   2.978   3.993   1.491
 5713SOL    HW218039   2.974   3.894   1.361
 5714SOL     OW18040   0.254   5.581   0.679
 5714SOL    HW118041   0.215   5.587   0.587
 5714SOL    HW218042   0.262   5.673   0.717
 5715SOL     OW18043   0.953   0.743   2.480
 5715SOL    HW118044   1.008   0.678   2.427
 5715SOL    HW218045   0.904   0.695   2.553
 5716SOL     OW18046   1.589   4.832   6.164
 5716SOL    HW118047   1.526   4.768   6.120
 5716SOL    HW218048   1.542   4.919   6.181
 5717SOL     OW18049   1.638   4.856   0.638
 5717SOL    HW118050   1.727   4.867   0.683
 5717SOL    HW218051   1.566   4.891   0.699
 5718SOL     OW18052   0.614   3.121   0.315
 5718SOL    HW118053   0.672   3.199   0.290
 5718SOL    HW218054   0.592   3.068   0.233
 5719SOL     OW18055   1.673   2.516   0.040
 5719SOL    HW118056   1.684   2.419   0.016
 5719SOL    HW218057   1.688   2.572   6.986
 5720SOL     OW18058   2.539   5.864   5.129
 5720SOL    HW118059   2.459   5.889   5.183
 5720SOL    HW218060   2.585   5.947   5.097
 5721SOL     OW18061   6.369   3.638   0.953
 5721SOL    HW118062   6.394   3.693   1.033
 5721SOL    HW218063   6.439   3.569   0.936
 5722SOL     OW18064   6.796   2.168   5.135
 5722SOL    HW118065   6.789   2.122   5.047
 5722SOL    HW218066   6.705   2.173   5.177
 5723SOL     OW18067   4.260   3.212   0.352
 5723SOL    HW118068   4.321   3.281   0.313
 5723SOL    HW218069   4.233   3.147   0.281
 5724SOL     OW18070   5.190   2.872   4.428
 5724SOL    HW118071   5.244   2.789   4.413
 5724SOL    HW218072   5.229   2.947   4.373
 5725SOL     OW18073   6.294   5.158   3.771
 5725SOL    HW118074   6.226   5.141   3.699
 5725SOL    HW218075   6.249   5.199   3.850
 5726SOL     OW18076   6.549   5.594   4.052
 5726SOL    HW118077   6.498   5.533   3.991
 5726SOL    HW218078   6.557   5.552   4.142
 5727SOL     OW18079   6.059   2.335   4.476
 5727SOL    HW118080   5.964   2.354   4.504
 5727SOL    HW218081   6.106   2.286   4.550
 5728SOL     OW18082   4.002   6.302   5.582
 5728SOL    HW118083   4.052   6.237   5.639
 5728SOL    HW218084   4.057   6.385   5.571
 5729SOL     OW18085   2.401   0.304   0.289
 5729SOL    HW118086   2.416   0.360   0.371
 5729SOL    HW218087   2.309   0.266   0.291
 5730SOL     OW18088   5.304   4.732   6.263
 5730SOL    HW118089   5.321   4.638   6.293
 5730SOL    HW218090   5.291   4.733   6.163
 5731SOL     OW18091   0.267   6.829   2.987
 5731SOL    HW118092   0.356   6.875   2.981
 5731SOL    HW218093   0.246   6.808   3.082
 5732SOL     OW18094   0.237   5.538   3.912
 5732SOL    HW118095   0.248   5.531   3.813
 5732SOL    HW218096   0.309   5.485   3.958
 5733SOL     OW18097   3.474   6.443   5.495
 5733SOL    HW118098   3.567   6.418   5.471
 5733SOL    HW218099   3.471   6.538   5.524
 5734SOL     OW18100   0.885   0.724   5.074
 5734SOL    HW118101   0.808   0.724   5.009
 5734SOL    HW218102   0.862   0.781   5.152
 5735SOL     OW18103   4.018   2.005   1.540
 5735SOL    HW118104   3.999   1.999   1.638
 5735SOL    HW218105   3.940   2.047   1.494
 5736SOL     OW18106   6.163   4.175   0.116
 5736SOL    HW118107   6.115   4.119   0.048
 5736SOL    HW218108   6.143   4.140   0.207
 5737SOL     OW18109   5.560   6.162   0.471
 5737SOL    HW118110   5.652   6.202   0.476
 5737SOL    HW218111   5.533   6.130   0.562
 5738SOL     OW18112   2.001   2.436   5.746
 5738SOL    HW118113   2.022   2.508   5.681
 5738SOL    HW218114   1.934   2.373   5.707
 5739SOL     OW18115   2.089   0.675   5.972
 5739SOL    HW118116   2.104   0.674   6.071
 5739SOL    HW218117   2.109   0.766   5.936
 5740SOL     OW18118   4.259   4.517   0.685
 5740SOL    HW118119   4.271   4.541   0.781
 5740SOL    HW218120   4.348   4.492   0.646
 5741SOL     OW18121   1.149   5.528   4.950
 5741SOL    HW118122   1.091   5.609   4.953
 5741SOL    HW218123   1.219   5.533   5.022
 5742SOL     OW18124   5.593   6.531   2.691
 5742SOL    HW118125   5.589   6.439   2.653
 5742SOL    HW218126   5.665   6.583   2.644
 5743SOL     OW18127   2.545   6.130   5.031
 5743SOL    HW118128   2.533   6.207   5.093
 5743SOL    HW218129   2.466   6.125   4.969
 5744SOL     OW18130   4.694   0.223   2.504
 5744SOL    HW118131   4.761   0.293   2.529
 5744SOL    HW218132   4.644   0.252   2.422
 5745SOL     OW18133   3.547   0.512   3.835
 5745SOL    HW118134   3.588   0.602   3.849
 5745SOL    HW218135   3.555   0.458   3.919
 5746SOL     OW18136   5.386   0.124   1.487
 5746SOL    HW118137   5.400   0.048   1.424
 5746SOL    HW218138   5.391   0.211   1.438
 5747SOL     OW18139   0.078   4.941   2.432
 5747SOL    HW118140   0.171   4.968   2.408
 5747SOL    HW218141   0.070   4.842   2.429
 5748SOL     OW18142   1.232   5.431   0.449
 5748SOL    HW118143   1.139   5.395   0.457
 5748SOL    HW218144   1.232   5.529   0.469
 5749SOL     OW18145   2.040   0.123   4.693
 5749SOL    HW118146   2.103   0.183   4.743
 5749SOL    HW218147   1.946   0.143   4.721
 5750SOL     OW18148   5.981   5.160   4.439
 5750SOL    HW118149   6.001   5.074   4.392
 5750SOL    HW218150   6.039   5.168   4.520
 5751SOL     OW18151   2.254   2.620   4.584
 5751SOL    HW118152   2.308   2.559   4.642
 5751SOL    HW218153   2.196   2.566   4.523
 5752SOL     OW18154   6.709   0.286   6.785
 5752SOL    HW118155   6.696   0.321   6.878
 5752SOL    HW218156   6.626   0.239   6.755
 5753SOL     OW18157   3.017   3.568   5.820
 5753SOL    HW118158   3.042   3.662   5.843
 5753SOL    HW218159   3.099   3.519   5.790
 5754SOL     OW18160   5.816   4.576   1.393
 5754SOL    HW118161   5.727   4.619   1.376
 5754SOL    HW218162   5.879   4.643   1.431
 5755SOL     OW18163   2.856   3.403   5.649
 5755SOL    HW118164   2.890   3.401   5.555
 5755SOL    HW218165   2.918   3.458   5.705
 5756SOL     OW18166   6.399   6.106   3.324
 5756SOL    HW118167   6.424   6.030   3.385
 5756SOL    HW218168   6.451   6.187   3.351
 5757SOL     OW18169   6.526   6.704   2.646
 5757SOL    HW118170   6.521   6.647   2.728
 5757SOL    HW218171   6.578   6.656   2.575
 5758SOL     OW18172   3.376   1.244   4.038
 5758SOL    HW118173   3.403   1.292   4.121
 5758SOL    HW218174   3.376   1.307   3.960
 5759SOL     OW18175   4.458   1.742   6.515
 5759SOL    HW118176   4.450   1.646   6.487
 5759SOL    HW218177   4.419   1.801   6.445
 5760SOL     OW18178   1.335   5.300   1.817
 5760SOL    HW118179   1.347   5.305   1.916
 5760SOL    HW218180   1.423   5.319   1.772
 5761SOL     OW18181   5.495   0.009   6.110
 5761SOL    HW118182   5.482   0.077   6.182
 5761SOL    HW218183   5.549   0.050   6.036
 5762SOL     OW18184   4.743   6.937   0.232
 5762SOL    HW118185   4.712   6.875   0.305
 5762SOL    HW218186   4.843   6.942   0.234
 5763SOL     OW18187   0.203   0.150   0.028
 5763SOL    HW118188   0.147   0.068   0.018
 5763SOL    HW218189   0.289   0.126   0.073
 5764SOL     OW18190   5.650   4.625   6.372
 5764SOL    HW118191   5.622   4.531   6.392
 5764SOL    HW218192   5.638   4.681   6.454
 5765SOL     OW18193   6.686   4.111   6.118
 5765SOL    HW118194   6.715   4.203   6.093
 5765SOL    HW218195   6.587   4.110   6.133
 5766SOL     OW18196   2.407   1.748   0.579
 5766SOL    HW118197   2.436   1.832   0.626
 5766SOL    HW218198   2.448   1.669   0.625
 5767SOL     OW18199   2.602   0.016   0.293
 5767SOL    HW118200   2.615   0.088   0.224
 5767SOL    HW218201   2.606   6.953   0.248
 5768SOL     OW18202   0.063   6.798   3.308
 5768SOL    HW118203   0.038   6.765   3.399
 5768SOL    HW218204   0.069   6.721   3.245
 5769SOL     OW18205   2.905   0.179   3.865
 5769SOL    HW118206   2.817   0.215   3.897
 5769SOL    HW218207   2.945   0.242   3.799
 5770SOL     OW18208   0.241   6.699   0.850
 5770SOL    HW118209   0.158   6.697   0.795
 5770SOL    HW218210   0.280   6.607   0.855
 5771SOL     OW18211   1.095   6.069   2.201
 5771SOL    HW118212   1.083   6.107   2.110
 5771SOL    HW218213   1.168   6.000   2.200
 5772SOL     OW18214   5.640   2.681   0.585
 5772SOL    HW118215   5.634   2.724   0.495
 5772SOL    HW218216   5.734   2.651   0.602
 5773SOL     OW18217   5.256   0.862   4.070
 5773SOL    HW118218   5.233   0.840   3.976
 5773SOL    HW218219   5.269   0.776   4.121
 5774SOL     OW18220   2.599   5.088   4.125
 5774SOL    HW118221   2.564   5.164   4.180
 5774SOL    HW218222   2.692   5.109   4.094
 5775SOL     OW18223   1.475   6.953   1.396
 5775SOL    HW118224   1.443   6.932   1.489
 5775SOL    HW218225   1.574   6.962   1.397
 5776SOL     OW18226   6.827   0.954   6.092
 5776SOL    HW118227   6.823   1.052   6.108
 5776SOL    HW218228   6.737   0.920   6.066
 5777SOL     OW18229   6.053   0.568   4.339
 5777SOL    HW118230   6.091   0.617   4.417
 5777SOL    HW218231   5.986   0.501   4.371
 5778SOL     OW18232   1.869   6.938   1.143
 5778SOL    HW118233   1.862   6.849   1.098
 5778SOL    HW218234   1.825   7.008   1.086
 5779SOL     OW18235   3.922   1.119   1.154
 5779SOL    HW118236   3.978   1.173   1.091
 5779SOL    HW218237   3.945   1.142   1.248
 5780SOL     OW18238   6.012   5.408   2.693
 5780SOL    HW118239   5.951   5.383   2.769
 5780SOL    HW218240   6.019   5.332   2.629
 5781SOL     OW18241   1.624   4.455   5.000
 5781SOL    HW118242   1.628   4.355   4.990
 5781SOL    HW218243   1.533   4.483   5.030
 5782SOL     OW18244   1.473   1.020   1.121
 5782SOL    HW118245   1.556   1.058   1.080
 5782SOL    HW218246   1.498   0.955   1.193
 5783SOL     OW18247   1.737   1.071   1.044
 5783SOL    HW118248   1.729   1.108   0.951
 5783SOL    HW218249   1.811   1.118   1.092
 5784SOL     OW18250   0.486   6.666   0.147
 5784SOL    HW118251   0.464   6.576   0.109
 5784SOL    HW218252   0.561   6.706   0.095
 5785SOL     OW18253   1.863   2.211   1.324
 5785SOL    HW118254   1.918   2.294   1.313
 5785SOL    HW218255   1.923   2.133   1.340
 5786SOL     OW18256   1.330   4.062   0.663
 5786SOL    HW118257   1.389   4.014   0.728
 5786SOL    HW218258   1.358   4.157   0.655
 5787SOL     OW18259   4.896   2.324   4.545
 5787SOL    HW118260   4.797   2.328   4.533
 5787SOL    HW218261   4.919   2.256   4.614
 5788SOL     OW18262   2.802   0.171   1.553
 5788SOL    HW118263   2.794   0.095   1.617
 5788SOL    HW218264   2.896   0.207   1.555
 5789SOL     OW18265   3.551   2.578   6.383
 5789SOL    HW118266   3.572   2.549   6.290
 5789SOL    HW218267   3.518   2.673   6.382
 5790SOL     OW18268   6.664   6.022   5.288
 5790SOL    HW118269   6.625   6.106   5.250
 5790SOL    HW218270   6.598   5.979   5.350
 5791SOL     OW18271   3.406   1.617   2.679
 5791SOL    HW118272   3.373   1.633   2.587
 5791SOL    HW218273   3.506   1.606   2.678
 5792SOL     OW18274   4.864   3.747   3.401
 5792SOL    HW118275   4.856   3.650   3.380
 5792SOL    HW218276   4.913   3.793   3.327
 5793SOL     OW18277   6.244   1.223   6.067
 5793SOL    HW118278   6.271   1.304   6.119
 5793SOL    HW218279   6.322   1.160   6.059
 5794SOL     OW18280   3.779   7.023   6.856
 5794SOL    HW118281   3.846   0.053   6.903
 5794SOL    HW218282   3.718   0.055   6.802
 5795SOL     OW18283   0.651   6.420   1.278
 5795SOL    HW118284   0.564   6.468   1.292
 5795SOL    HW218285   0.726   6.477   1.310
 5796SOL     OW18286   4.823   0.537   6.890
 5796SOL    HW118287   4.796   0.474   6.962
 5796SOL    HW218288   4.778   0.512   6.805
 5797SOL     OW18289   5.708   1.083   0.210
 5797SOL    HW118290   5.621   1.068   0.163
 5797SOL    HW218291   5.720   1.014   0.281
 5798SOL     OW18292   0.780   3.959   4.447
 5798SOL    HW118293   0.682   3.949   4.465
 5798SOL    HW218294   0.831   3.950   4.533
 5799SOL     OW18295   0.452   0.140   2.729
 5799SOL    HW118296   0.422   0.138   2.825
 5799SOL    HW218297   0.501   0.055   2.708
 5800SOL     OW18298   0.801   0.407   1.624
 5800SOL    HW118299   0.873   0.344   1.651
 5800SOL    HW218300   0.821   0.445   1.533
 5801SOL     OW18301   2.339   2.619   4.029
 5801SOL    HW118302   2.347   2.708   4.075
 5801SOL    HW218303   2.303   2.633   3.936
 5802SOL     OW18304   5.987   3.723   2.258
 5802SOL    HW118305   5.898   3.749   2.295
 5802SOL    HW218306   6.032   3.659   2.320
 5803SOL     OW18307   0.927   5.058   3.907
 5803SOL    HW118308   0.955   5.135   3.963
 5803SOL    HW218309   0.827   5.057   3.901
 5804SOL     OW18310   6.537   6.169   3.887
 5804SOL    HW118311   6.618   6.182   3.944
 5804SOL    HW218312   6.530   6.073   3.860
 5805SOL     OW18313   1.617   2.988   1.069
 5805SOL    HW118314   1.630   3.077   1.027
 5805SOL    HW218315   1.520   2.975   1.091
 5806SOL     OW18316   6.976   4.349   4.688
 5806SOL    HW118317   6.901   4.283   4.674
 5806SOL    HW218318   0.034   4.299   4.709
 5807SOL     OW18319   1.440   6.030   1.085
 5807SOL    HW118320   1.408   5.940   1.115
 5807SOL    HW218321   1.539   6.028   1.075
 5808SOL     OW18322   6.276   0.143   4.845
 5808SOL    HW118323   6.306   0.064   4.898
 5808SOL    HW218324   6.353   0.205   4.832
 5809SOL     OW18325   0.181   2.245   5.846
 5809SOL    HW118326   0.233   2.160   5.858
 5809SOL    HW218327   0.103   2.246   5.908
 5810SOL     OW18328   4.153   0.455   4.777
 5810SOL    HW118329   4.078   0.486   4.836
 5810SOL    HW218330   4.220   0.529   4.768
 5811SOL     OW18331   2.603   2.102   5.457
 5811SOL    HW118332   2.529   2.163   5.487
 5811SOL    HW218333   2.645   2.140   5.374
 5812SOL     OW18334   5.614   3.621   6.285
 5812SOL    HW118335   5.624   3.663   6.194
 5812SOL    HW218336   5.546   3.547   6.280
 5813SOL     OW18337   3.030   6.178   1.456
 5813SOL    HW118338   3.020   6.221   1.547
 5813SOL    HW218339   3.113   6.123   1.455
 5814SOL     OW18340   6.959   1.929   1.843
 5814SOL    HW118341   6.979   1.833   1.861
 5814SOL    HW218342   6.938   1.976   1.929
 5815SOL     OW18343   5.584   1.900   4.491
 5815SOL    HW118344   5.520   1.935   4.423
 5815SOL    HW218345   5.645   1.973   4.520
 5816SOL     OW18346   6.733   5.000   2.111
 5816SOL    HW118347   6.757   4.986   2.207
 5816SOL    HW218348   6.665   4.932   2.083
 5817SOL     OW18349   6.136   4.436   5.262
 5817SOL    HW118350   6.224   4.477   5.243
 5817SOL    HW218351   6.136   4.398   5.355
 5818SOL     OW18352   0.922   5.802   5.412
 5818SOL    HW118353   0.913   5.709   5.377
 5818SOL    HW218354   0.853   5.861   5.370
 5819SOL     OW18355   3.057   5.185   6.677
 5819SOL    HW118356   3.122   5.119   6.640
 5819SOL    HW218357   3.052   5.265   6.617
 5820SOL     OW18358   4.585   4.907   2.103
 5820SOL    HW118359   4.667   4.858   2.134
 5820SOL    HW218360   4.590   5.003   2.134
 5821SOL     OW18361   6.564   0.852   1.719
 5821SOL    HW118362   6.509   0.859   1.802
 5821SOL    HW218363   6.653   0.811   1.741
 5822SOL     OW18364   1.004   2.469   2.481
 5822SOL    HW118365   1.080   2.465   2.415
 5822SOL    HW218366   1.038   2.443   2.572
 5823SOL     OW18367   2.392   6.346   4.764
 5823SOL    HW118368   2.326   6.383   4.829
 5823SOL    HW218369   2.407   6.412   4.690
 5824SOL     OW18370   0.858   6.882   2.620
 5824SOL    HW118371   0.762   6.894   2.646
 5824SOL    HW218372   0.917   6.909   2.696
 5825SOL     OW18373   0.416   5.748   4.978
 5825SOL    HW118374   0.504   5.773   4.938
 5825SOL    HW218375   0.421   5.754   5.078
 5826SOL     OW18376   6.938   6.915   5.593
 5826SOL    HW118377   6.966   6.998   5.545
 5826SOL    HW218378   6.935   6.838   5.529
 5827SOL     OW18379   0.914   3.714   4.989
 5827SOL    HW118380   0.868   3.651   5.052
 5827SOL    HW218381   0.874   3.704   4.897
 5828SOL     OW18382   5.012   1.096   3.720
 5828SOL    HW118383   5.002   1.191   3.691
 5828SOL    HW218384   4.997   1.036   3.642
 5829SOL     OW18385   1.367   0.743   5.040
 5829SOL    HW118386   1.277   0.783   5.026
 5829SOL    HW218387   1.377   0.716   5.136
 5830SOL     OW18388   4.363   5.649   5.340
 5830SOL    HW118389   4.310   5.609   5.414
 5830SOL    HW218390   4.348   5.748   5.339
 5831SOL     OW18391   1.407   1.846   5.380
 5831SOL    HW118392   1.359   1.819   5.296
 5831SOL    HW218393   1.399   1.945   5.392
 5832SOL     OW18394   3.650   4.478   1.349
 5832SOL    HW118395   3.699   4.562   1.372
 5832SOL    HW218396   3.597   4.492   1.266
 5833SOL     OW18397   3.751   3.215   5.491
 5833SOL    HW118398   3.762   3.144   5.561
 5833SOL    HW218399   3.657   3.214   5.457
 5834SOL     OW18400   6.616   3.267   6.614
 5834SOL    HW118401   6.642   3.175   6.645
 5834SOL    HW218402   6.687   3.333   6.641
 5835SOL     OW18403   6.424   1.631   2.558
 5835SOL    HW118404   6.424   1.728   2.584
 5835SOL    HW218405   6.341   1.611   2.505
 5836SOL     OW18406   3.110   6.769   2.212
 5836SOL    HW118407   3.100   6.706   2.289
 5836SOL    HW218408   3.159   6.724   2.138
 5837SOL     OW18409   4.193   3.778   0.264
 5837SOL    HW118410   4.143   3.835   0.329
 5837SOL    HW218411   4.281   3.820   0.243
 5838SOL     OW18412   2.819   1.393   1.229
 5838SOL    HW118413   2.835   1.313   1.172
 5838SOL    HW218414   2.779   1.364   1.316
 5839SOL     OW18415   0.643   2.745   1.189
 5839SOL    HW118416   0.649   2.817   1.120
 5839SOL    HW218417   0.735   2.716   1.214
 5840SOL     OW18418   0.037   3.771   1.509
 5840SOL    HW118419   0.016   3.686   1.557
 5840SOL    HW218420   0.038   3.754   1.411
 5841SOL     OW18421   5.159   0.606   1.813
 5841SOL    HW118422   5.122   0.590   1.905
 5841SOL    HW218423   5.110   0.551   1.746
 5842SOL     OW18424   3.958   2.011   0.973
 5842SOL    HW118425   3.885   1.966   1.025
 5842SOL    HW218426   3.923   2.038   0.883
 5843SOL     OW18427   2.122   3.535   1.133
 5843SOL    HW118428   2.113   3.581   1.222
 5843SOL    HW218429   2.082   3.592   1.062
 5844SOL     OW18430   0.929   6.415   5.019
 5844SOL    HW118431   0.884   6.391   5.105
 5844SOL    HW218432   0.862   6.454   4.956
 5845SOL     OW18433   0.309   0.010   1.608
 5845SOL    HW118434   0.286   6.940   1.614
 5845SOL    HW218435   0.304   0.040   1.513
 5846SOL     OW18436   5.977   3.506   5.530
 5846SOL    HW118437   5.984   3.425   5.589
 5846SOL    HW218438   5.885   3.510   5.491
 5847SOL     OW18439   2.782   2.626   1.726
 5847SOL    HW118440   2.707   2.574   1.768
 5847SOL    HW218441   2.869   2.597   1.765
 5848SOL     OW18442   2.012   5.835   4.039
 5848SOL    HW118443   2.067   5.912   4.006
 5848SOL    HW218444   2.065   5.783   4.106
 5849SOL     OW18445   2.028   6.484   5.339
 5849SOL    HW118446   1.991   6.544   5.410
 5849SOL    HW218447   1.953   6.447   5.284
 5850SOL     OW18448   0.902   3.099   1.789
 5850SOL    HW118449   0.911   3.087   1.690
 5850SOL    HW218450   0.983   3.063   1.835
 5851SOL     OW18451   5.633   3.699   3.796
 5851SOL    HW118452   5.564   3.738   3.858
 5851SOL    HW218453   5.708   3.764   3.785
 5852SOL     OW18454   4.457   6.052   2.761
 5852SOL    HW118455   4.525   6.062   2.833
 5852SOL    HW218456   4.493   6.089   2.676
 5853SOL     OW18457   4.428   5.254   5.261
 5853SOL    HW118458   4.394   5.338   5.219
 5853SOL    HW218459   4.444   5.270   5.358
 5854SOL     OW18460   3.781   4.525   5.443
 5854SOL    HW118461   3.818   4.616   5.426
 5854SOL    HW218462   3.820   4.489   5.528
 5855SOL     OW18463   1.760   2.629   4.090
 5855SOL    HW118464   1.675   2.675   4.063
 5855SOL    HW218465   1.769   2.631   4.189
 5856SOL     OW18466   1.096   6.947   2.307
 5856SOL    HW118467   1.079   0.003   2.253
 5856SOL    HW218468   1.024   6.880   2.290
 5857SOL     OW18469   6.712   3.103   5.225
 5857SOL    HW118470   6.789   3.168   5.226
 5857SOL    HW218471   6.741   3.016   5.265
 5858SOL     OW18472   2.393   2.157   2.354
 5858SOL    HW118473   2.486   2.159   2.392
 5858SOL    HW218474   2.340   2.086   2.400
 5859SOL     OW18475   6.046   6.327   1.437
 5859SOL    HW118476   6.006   6.330   1.345
 5859SOL    HW218477   5.990   6.268   1.496
 5860SOL     OW18478   0.891   4.703   3.324
 5860SOL    HW118479   0.937   4.789   3.299
 5860SOL    HW218480   0.961   4.635   3.349
 5861SOL     OW18481   5.451   0.754   4.761
 5861SOL    HW118482   5.540   0.782   4.795
 5861SOL    HW218483   5.460   0.667   4.711
 5862SOL     OW18484   6.074   5.720   1.982
 5862SOL    HW118485   6.003   5.768   1.930
 5862SOL    HW218486   6.129   5.787   2.032
 5863SOL     OW18487   3.137   1.263   4.604
 5863SOL    HW118488   3.236   1.253   4.591
 5863SOL    HW218489   3.103   1.190   4.663
 5864SOL     OW18490   3.844   3.633   2.647
 5864SOL    HW118491   3.861   3.704   2.577
 5864SOL    HW218492   3.928   3.616   2.698
 5865SOL     OW18493   5.579   0.481   5.547
 5865SOL    HW118494   5.558   0.421   5.469
 5865SOL    HW218495   5.564   0.577   5.520
 5866SOL     OW18496   2.966   3.156   0.465
 5866SOL    HW118497   3.017   3.225   0.516
 5866SOL    HW218498   2.940   3.082   0.526
 5867SOL     OW18499   2.431   2.271   2.034
 5867SOL    HW118500   2.478   2.229   2.112
 5867SOL    HW218501   2.400   2.200   1.971
 5868SOL     OW18502   1.166   2.101   5.759
 5868SOL    HW118503   1.127   2.081   5.849
 5868SOL    HW218504   1.250   2.153   5.771
 5869SOL     OW18505   1.731   4.481   3.489
 5869SOL    HW118506   1.787   4.409   3.532
 5869SOL    HW218507   1.774   4.509   3.404
 5870SOL     OW18508   4.216   5.568   5.560
 5870SOL    HW118509   4.181   5.624   5.635
 5870SOL    HW218510   4.151   5.570   5.484
 5871SOL     OW18511   4.122   3.701   2.468
 5871SOL    HW118512   4.087   3.794   2.480
 5871SOL    HW218513   4.196   3.702   2.400
 5872SOL     OW18514   4.253   6.232   1.272
 5872SOL    HW118515   4.236   6.155   1.334
 5872SOL    HW218516   4.338   6.277   1.298
 5873SOL     OW18517   3.006   6.037   2.464
 5873SOL    HW118518   2.928   6.010   2.407
 5873SOL    HW218519   3.025   6.134   2.450
 5874SOL     OW18520   2.151   4.209   5.145
 5874SOL    HW118521   2.076   4.147   5.170
 5874SOL    HW218522   2.229   4.156   5.113
 5875SOL     OW18523   3.442   2.194   0.326
 5875SOL    HW118524   3.406   2.288   0.327
 5875SOL    HW218525   3.436   2.157   0.233
 5876SOL     OW18526   3.860   3.333   1.981
 5876SOL    HW118527   3.878   3.314   1.884
 5876SOL    HW218528   3.763   3.353   1.993
 5877SOL     OW18529   6.015   6.310   0.209
 5877SOL    HW118530   5.950   6.384   0.229
 5877SOL    HW218531   6.049   6.321   0.115
 5878SOL     OW18532   1.211   6.031   3.936
 5878SOL    HW118533   1.286   6.071   3.882
 5878SOL    HW218534   1.166   5.960   3.883
 5879SOL     OW18535   0.697   3.570   0.532
 5879SOL    HW118536   0.646   3.617   0.604
 5879SOL    HW218537   0.771   3.630   0.499
 5880SOL     OW18538   2.956   4.602   0.786
 5880SOL    HW118539   2.995   4.518   0.747
 5880SOL    HW218540   2.895   4.645   0.719
 5881SOL     OW18541   0.292   4.927   2.940
 5881SOL    HW118542   0.347   4.852   2.902
 5881SOL    HW218543   0.273   4.908   3.037
 5882SOL     OW18544   6.460   6.156   1.283
 5882SOL    HW118545   6.524   6.123   1.352
 5882SOL    HW218546   6.438   6.252   1.302
 5883SOL     OW18547   1.240   2.000   6.788
 5883SOL    HW118548   1.164   1.937   6.800
 5883SOL    HW218549   1.233   2.074   6.855
 5884SOL     OW18550   2.713   1.218   3.936
 5884SOL    HW118551   2.667   1.259   4.015
 5884SOL    HW218552   2.657   1.233   3.854
 5885SOL     OW18553   6.966   0.260   2.369
 5885SOL    HW118554   0.001   0.181   2.370
 5885SOL    HW218555   6.898   0.250   2.442
 5886SOL     OW18556   0.509   2.041   5.124
 5886SOL    HW118557   0.608   2.051   5.115
 5886SOL    HW218558   0.473   1.994   5.043
 5887SOL     OW18559   3.534   1.017   3.504
 5887SOL    HW118560   3.446   0.975   3.528
 5887SOL    HW218561   3.520   1.114   3.484
 5888SOL     OW18562   2.731   0.572   2.703
 5888SOL    HW118563   2.697   0.604   2.615
 5888SOL    HW218564   2.743   0.649   2.764
 5889SOL     OW18565   1.544   6.339   1.549
 5889SOL    HW118566   1.457   6.331   1.598
 5889SOL    HW218567   1.597   6.255   1.560
 5890SOL     OW18568   1.067   6.978   5.398
 5890SOL    HW118569   1.134   0.014   5.437
 5890SOL    HW218570   1.055   6.899   5.459
 5891SOL     OW18571   3.327   2.901   5.968
 5891SOL    HW118572   3.303   2.922   5.873
 5891SOL    HW218573   3.310   2.804   5.986
 5892SOL     OW18574   0.674   5.715   1.563
 5892SOL    HW118575   0.637   5.771   1.637
 5892SOL    HW218576   0.750   5.660   1.599
 5893SOL     OW18577   1.396   4.099   3.864
 5893SOL    HW118578   1.451   4.154   3.802
 5893SOL    HW218579   1.442   4.013   3.883
 5894SOL     OW18580   0.668   5.726   3.550
 5894SOL    HW118581   0.650   5.765   3.460
 5894SOL    HW218582   0.610   5.771   3.618
 5895SOL     OW18583   4.819   3.136   4.303
 5895SOL    HW118584   4.835   3.094   4.392
 5895SOL    HW218585   4.812   3.235   4.314
 5896SOL     OW18586   4.156   1.752   0.722
 5896SOL    HW118587   4.101   1.710   0.794
 5896SOL    HW218588   4.218   1.819   0.763
 5897SOL     OW18589   3.669   0.387   1.801
 5897SOL    HW118590   3.741   0.328   1.765
 5897SOL    HW218591   3.584   0.335   1.808
 5898SOL     OW18592   2.032   6.809   3.134
 5898SOL    HW118593   2.102   6.835   3.199
 5898SOL    HW218594   1.941   6.823   3.174
 5899SOL     OW18595   4.913   6.613   5.680
 5899SOL    HW118596   4.830   6.666   5.663
 5899SOL    HW218597   4.956   6.644   5.766
 5900SOL     OW18598   4.693   5.341   3.445
 5900SOL    HW118599   4.688   5.430   3.399
 5900SOL    HW218600   4.653   5.347   3.536
 5901SOL     OW18601   2.689   0.424   0.297
 5901SOL    HW118602   2.646   0.395   0.212
 5901SOL    HW218603   2.782   0.388   0.302
 5902SOL     OW18604   6.967   2.229   0.132
 5902SOL    HW118605   6.983   2.163   0.058
 5902SOL    HW218606   0.008   2.214   0.204
 5903SOL     OW18607   4.401   4.256   0.242
 5903SOL    HW118608   4.321   4.285   0.189
 5903SOL    HW218609   4.437   4.171   0.204
 5904SOL     OW18610   1.192   3.390   2.004
 5904SOL    HW118611   1.185   3.485   2.034
 5904SOL    HW218612   1.144   3.379   1.916
 5905SOL     OW18613   6.409   6.454   3.093
 5905SOL    HW118614   6.336   6.522   3.093
 5905SOL    HW218615   6.382   6.376   3.150
 5906SOL     OW18616   4.573   1.499   4.346
 5906SOL    HW118617   4.534   1.467   4.432
 5906SOL    HW218618   4.565   1.599   4.342
 5907SOL     OW18619   1.977   5.933   2.132
 5907SOL    HW118620   1.969   6.003   2.203
 5907SOL    HW218621   2.003   5.975   2.045
 5908SOL     OW18622   0.797   2.229   6.409
 5908SOL    HW118623   0.745   2.273   6.336
 5908SOL    HW218624   0.782   2.131   6.406
 5909SOL     OW18625   6.826   5.312   0.846
 5909SOL    HW118626   6.885   5.386   0.812
 5909SOL    HW218627   6.763   5.284   0.774
 5910SOL     OW18628   0.662   2.765   3.285
 5910SOL    HW118629   0.613   2.851   3.275
 5910SOL    HW218630   0.733   2.774   3.355
 5911SOL     OW18631   6.441   5.869   6.501
 5911SOL    HW118632   6.396   5.839   6.585
 5911SOL    HW218633   6.534   5.899   6.522
 5912SOL     OW18634   6.391   0.653   5.505
 5912SOL    HW118635   6.436   0.633   5.592
 5912SOL    HW218636   6.438   0.729   5.460
 5913SOL     OW18637   4.612   2.951   6.591
 5913SOL    HW118638   4.698   2.946   6.540
 5913SOL    HW218639   4.615   3.030   6.653
 5914SOL     OW18640   1.165   6.129   6.839
 5914SOL    HW118641   1.148   6.208   6.899
 5914SOL    HW218642   1.261   6.128   6.811
 5915SOL     OW18643   4.511   6.293   1.095
 5915SOL    HW118644   4.491   6.324   1.002
 5915SOL    HW218645   4.472   6.202   1.108
 5916SOL     OW18646   0.150   6.130   2.575
 5916SOL    HW118647   0.103   6.163   2.657
 5916SOL    HW218648   0.236   6.086   2.600
 5917SOL     OW18649   3.036   4.033   4.733
 5917SOL    HW118650   2.963   4.075   4.787
 5917SOL    HW218651   3.119   4.090   4.740
 5918SOL     OW18652   2.284   5.125   5.827
 5918SOL    HW118653   2.192   5.092   5.805
 5918SOL    HW218654   2.315   5.187   5.756
 5919SOL     OW18655   3.018   3.516   2.574
 5919SOL    HW118656   3.117   3.511   2.587
 5919SOL    HW218657   2.998   3.544   2.480
 5920SOL     OW18658   5.122   0.748   6.213
 5920SOL    HW118659   5.033   0.794   6.219
 5920SOL    HW218660   5.110   0.650   6.232
 5921SOL     OW18661   4.115   5.205   6.573
 5921SOL    HW118662   4.196   5.262   6.580
 5921SOL    HW218663   4.105   5.150   6.656
 5922SOL     OW18664   6.276   3.950   4.319
 5922SOL    HW118665   6.343   4.015   4.355
 5922SOL    HW218666   6.228   3.906   4.395
 5923SOL     OW18667   0.100   1.108   2.443
 5923SOL    HW118668   0.096   1.148   2.351
 5923SOL    HW218669   0.062   1.016   2.440
 5924SOL     OW18670   6.024   7.020   2.687
 5924SOL    HW118671   5.945   7.002   2.629
 5924SOL    HW218672   6.002   6.995   2.782
 5925SOL     OW18673   3.639   6.601   1.948
 5925SOL    HW118674   3.669   6.506   1.956
 5925SOL    HW218675   3.577   6.623   2.024
 5926SOL     OW18676   4.388   4.553   2.205
 5926SOL    HW118677   4.320   4.626   2.216
 5926SOL    HW218678   4.433   4.563   2.116
 5927SOL     OW18679   1.128   4.500   1.890
 5927SOL    HW118680   1.049   4.489   1.950
 5927SOL    HW218681   1.210   4.514   1.944
 5928SOL     OW18682   3.933   6.815   1.360
 5928SOL    HW118683   3.839   6.833   1.387
 5928SOL    HW218684   3.995   6.860   1.425
 5929SOL     OW18685   5.788   0.492   5.734
 5929SOL    HW118686   5.711   0.472   5.673
 5929SOL    HW218687   5.864   0.530   5.682
 5930SOL     OW18688   0.558   3.028   2.881
 5930SOL    HW118689   0.638   3.088   2.880
 5930SOL    HW218690   0.488   3.064   2.820
 5931SOL     OW18691   6.346   6.459   2.641
 5931SOL    HW118692   6.265   6.430   2.693
 5931SOL    HW218693   6.328   6.549   2.600
 5932SOL     OW18694   3.741   0.187   0.474
 5932SOL    HW118695   3.703   0.248   0.404
 5932SOL    HW218696   3.669   0.128   0.509
 5933SOL     OW18697   6.976   4.953   4.205
 5933SOL    HW118698   6.887   4.995   4.190
 5933SOL    HW218699   6.967   4.876   4.268
 5934SOL     OW18700   3.926   2.956   5.270
 5934SOL    HW118701   3.931   2.973   5.172
 5934SOL    HW218702   3.987   2.880   5.294
 5935SOL     OW18703   0.856   5.219   6.108
 5935SOL    HW118704   0.937   5.160   6.118
 5935SOL    HW218705   0.776   5.163   6.090
 5936SOL     OW18706   2.992   3.495   1.665
 5936SOL    HW118707   2.989   3.511   1.566
 5936SOL    HW218708   3.070   3.545   1.704
 5937SOL     OW18709   6.157   3.004   1.814
 5937SOL    HW118710   6.200   3.012   1.724
 5937SOL    HW218711   6.185   3.081   1.872
 5938SOL     OW18712   6.067   5.679   4.047
 5938SOL    HW118713   6.032   5.731   3.969
 5938SOL    HW218714   6.148   5.725   4.084
 5939SOL     OW18715   2.541   5.860   4.032
 5939SOL    HW118716   2.560   5.863   3.934
 5939SOL    HW218717   2.626   5.846   4.082
 5940SOL     OW18718   3.980   5.092   3.602
 5940SOL    HW118719   4.074   5.086   3.636
 5940SOL    HW218720   3.981   5.130   3.509
 5941SOL     OW18721   5.755   3.269   2.543
 5941SOL    HW118722   5.798   3.189   2.585
 5941SOL    HW218723   5.684   3.240   2.479
 5942SOL     OW18724   5.578   3.881   6.755
 5942SOL    HW118725   5.580   3.840   6.846
 5942SOL    HW218726   5.656   3.943   6.745
 5943SOL     OW18727   3.487   3.514   6.315
 5943SOL    HW118728   3.420   3.574   6.270
 5943SOL    HW218729   3.542   3.468   6.246
 5944SOL     OW18730   0.462   2.371   0.279
 5944SOL    HW118731   0.493   2.382   0.373
 5944SOL    HW218732   0.539   2.342   0.221
 5945SOL     OW18733   6.900   5.319   5.223
 5945SOL    HW118734   6.958   5.341   5.145
 5945SOL    HW218735   6.921   5.227   5.256
 5946SOL     OW18736   3.394   4.283   0.067
 5946SOL    HW118737   3.298   4.297   0.044
 5946SOL    HW218738   3.435   4.371   0.093
 5947SOL     OW18739   3.363   3.465   3.129
 5947SOL    HW118740   3.342   3.368   3.136
 5947SOL    HW218741   3.454   3.482   3.166
 5948SOL     OW18742   4.163   4.786   2.558
 5948SOL    HW118743   4.237   4.748   2.503
 5948SOL    HW218744   4.083   4.802   2.500
 5949SOL     OW18745   5.471   4.994   1.384
 5949SOL    HW118746   5.429   4.983   1.474
 5949SOL    HW218747   5.559   5.040   1.393
 5950SOL     OW18748   5.511   2.095   4.876
 5950SOL    HW118749   5.506   2.195   4.886
 5950SOL    HW218750   5.424   2.061   4.840
 5951SOL     OW18751   0.828   5.482   5.027
 5951SOL    HW118752   0.852   5.480   4.930
 5951SOL    HW218753   0.852   5.571   5.065
 5952SOL     OW18754   4.653   5.788   3.508
 5952SOL    HW118755   4.639   5.843   3.589
 5952SOL    HW218756   4.705   5.840   3.440
 5953SOL     OW18757   0.006   4.297   5.068
 5953SOL    HW118758   6.955   4.234   5.068
 5953SOL    HW218759   7.016   4.371   5.133
 5954SOL     OW18760   6.502   5.184   4.815
 5954SOL    HW118761   6.498   5.196   4.914
 5954SOL    HW218762   6.574   5.118   4.792
 5955SOL     OW18763   4.757   5.341   1.977
 5955SOL    HW118764   4.717   5.273   2.038
 5955SOL    HW218765   4.700   5.424   1.977
 5956SOL     OW18766   5.435   2.376   3.911
 5956SOL    HW118767   5.533   2.363   3.929
 5956SOL    HW218768   5.388   2.289   3.926
 5957SOL     OW18769   3.200   1.749   4.575
 5957SOL    HW118770   3.117   1.777   4.624
 5957SOL    HW218771   3.186   1.659   4.534
 5958SOL     OW18772   3.895   0.322   3.084
 5958SOL    HW118773   3.963   0.345   3.014
 5958SOL    HW218774   3.895   0.223   3.098
 5959SOL     OW18775   4.567   2.716   5.626
 5959SOL    HW118776   4.588   2.702   5.529
 5959SOL    HW218777   4.490   2.780   5.634
 5960SOL     OW18778   3.457   6.199   4.242
 5960SOL    HW118779   3.556   6.185   4.239
 5960SOL    HW218780   3.436   6.292   4.211
 5961SOL     OW18781   4.574   1.473   2.574
 5961SOL    HW118782   4.605   1.442   2.663
 5961SOL    HW218783   4.504   1.543   2.586
 5962SOL     OW18784   5.325   5.962   5.840
 5962SOL    HW118785   5.291   5.869   5.825
 5962SOL    HW218786   5.250   6.021   5.870
 5963SOL     OW18787   3.113   3.901   6.668
 5963SOL    HW118788   3.141   3.892   6.573
 5963SOL    HW218789   3.194   3.917   6.725
 5964SOL     OW18790   1.675   6.320   4.793
 5964SOL    HW118791   1.641   6.413   4.785
 5964SOL    HW218792   1.600   6.259   4.819
 5965SOL     OW18793   2.216   1.238   0.294
 5965SOL    HW118794   2.192   1.325   0.251
 5965SOL    HW218795   2.188   1.163   0.234
 5966SOL     OW18796   1.623   6.441   6.378
 5966SOL    HW118797   1.559   6.490   6.437
 5966SOL    HW218798   1.590   6.442   6.284
 5967SOL     OW18799   2.495   0.367   5.952
 5967SOL    HW118800   2.594   0.373   5.965
 5967SOL    HW218801   2.464   0.445   5.897
 5968SOL     OW18802   5.401   2.118   6.858
 5968SOL    HW118803   5.314   2.099   6.812
 5968SOL    HW218804   5.427   2.213   6.844
 5969SOL     OW18805   6.248   0.714   0.004
 5969SOL    HW118806   6.345   0.699   7.016
 5969SOL    HW218807   6.235   0.774   0.084
 5970SOL     OW18808   6.735   5.006   1.784
 5970SOL    HW118809   6.797   5.063   1.730
 5970SOL    HW218810   6.756   5.016   1.881
 5971SOL     OW18811   0.169   0.416   1.036
 5971SOL    HW118812   0.181   0.323   1.069
 5971SOL    HW218813   0.088   0.421   0.977
 5972SOL     OW18814   4.732   5.934   6.438
 5972SOL    HW118815   4.811   5.881   6.406
 5972SOL    HW218816   4.757   6.031   6.442
 5973SOL     OW18817   1.519   2.515   3.052
 5973SOL    HW118818   1.437   2.494   3.107
 5973SOL    HW218819   1.601   2.497   3.107
 5974SOL     OW18820   5.153   6.613   0.173
 5974SOL    HW118821   5.167   6.552   0.252
 5974SOL    HW218822   5.201   6.699   0.189
 5975SOL     OW18823   4.264   6.674   0.611
 5975SOL    HW118824   4.188   6.612   0.634
 5975SOL    HW218825   4.238   6.731   0.533
 5976SOL     OW18826   3.795   2.588   5.606
 5976SOL    HW118827   3.734   2.602   5.528
 5976SOL    HW218828   3.792   2.668   5.665
 5977SOL     OW18829   0.865   5.781   0.185
 5977SOL    HW118830   0.825   5.689   0.189
 5977SOL    HW218831   0.859   5.816   0.092
 5978SOL     OW18832   3.335   5.854   1.621
 5978SOL    HW118833   3.236   5.862   1.610
 5978SOL    HW218834   3.375   5.945   1.634
 5979SOL     OW18835   6.452   0.321   2.009
 5979SOL    HW118836   6.442   0.379   2.090
 5979SOL    HW218837   6.498   0.236   2.035
 5980SOL     OW18838   4.205   3.768   1.519
 5980SOL    HW118839   4.288   3.819   1.541
 5980SOL    HW218840   4.160   3.810   1.440
 5981SOL     OW18841   5.128   1.568   0.399
 5981SOL    HW118842   5.188   1.548   0.477
 5981SOL    HW218843   5.056   1.498   0.393
 5982SOL     OW18844   6.310   2.061   2.397
 5982SOL    HW118845   6.339   2.045   2.491
 5982SOL    HW218846   6.291   1.974   2.352
 5983SOL     OW18847   1.393   1.331   4.384
 5983SOL    HW118848   1.480   1.339   4.434
 5983SOL    HW218849   1.411   1.294   4.293
 5984SOL     OW18850   5.214   6.685   3.365
 5984SOL    HW118851   5.265   6.691   3.450
 5984SOL    HW218852   5.146   6.612   3.372
 5985SOL     OW18853   6.689   2.966   3.418
 5985SOL    HW118854   6.740   2.989   3.336
 5985SOL    HW218855   6.632   3.044   3.445
 5986SOL     OW18856   3.270   3.959   5.346
 5986SOL    HW118857   3.339   4.019   5.387
 5986SOL    HW218858   3.269   3.971   5.247
 5987SOL     OW18859   5.040   0.316   4.129
 5987SOL    HW118860   5.128   0.347   4.094
 5987SOL    HW218861   4.970   0.328   4.059
 5988SOL     OW18862   4.636   0.327   6.156
 5988SOL    HW118863   4.577   0.290   6.085
 5988SOL    HW218864   4.714   0.266   6.169
 5989SOL     OW18865   2.039   5.533   6.292
 5989SOL    HW118866   2.111   5.480   6.336
 5989SOL    HW218867   2.012   5.489   6.206
 5990SOL     OW18868   3.504   3.375   0.493
 5990SOL    HW118869   3.561   3.444   0.448
 5990SOL    HW218870   3.408   3.394   0.475
 5991SOL     OW18871   4.215   6.144   6.946
 5991SOL    HW118872   4.309   6.119   6.966
 5991SOL    HW218873   4.189   6.109   6.856
 5992SOL     OW18874   3.724   0.086   2.128
 5992SOL    HW118875   3.752   0.087   2.224
 5992SOL    HW218876   3.696   7.020   2.103
 5993SOL     OW18877   4.185   4.101   6.122
 5993SOL    HW118878   4.142   4.063   6.040
 5993SOL    HW218879   4.166   4.041   6.200
 5994SOL     OW18880   6.693   2.304   0.208
 5994SOL    HW118881   6.789   2.292   0.183
 5994SOL    HW218882   6.658   2.218   0.245
 5995SOL     OW18883   4.948   3.203   2.042
 5995SOL    HW118884   4.923   3.299   2.035
 5995SOL    HW218885   4.871   3.146   2.012
 5996SOL     OW18886   0.947   5.925   1.218
 5996SOL    HW118887   1.008   6.000   1.191
 5996SOL    HW218888   0.980   5.884   1.302
 5997SOL     OW18889   1.221   5.745   2.466
 5997SOL    HW118890   1.219   5.665   2.407
 5997SOL    HW218891   1.240   5.827   2.410
 5998SOL     OW18892   6.611   1.647   2.109
 5998SOL    HW118893   6.706   1.650   2.141
 5998SOL    HW218894   6.610   1.641   2.009
 5999SOL     OW18895   2.830   3.158   1.526
 5999SOL    HW118896   2.735   3.154   1.559
 5999SOL    HW218897   2.888   3.105   1.587
 6000SOL     OW18898   1.229   6.407   0.280
 6000SOL    HW118899   1.285   6.440   0.356
 6000SOL    HW218900   1.184   6.485   0.235
 6001SOL     OW18901   6.987   5.282   6.813
 6001SOL    HW118902   0.024   5.210   6.787
 6001SOL    HW218903   6.901   5.270   6.763
 6002SOL     OW18904   6.048   6.854   6.181
 6002SOL    HW118905   6.133   6.891   6.218
 6002SOL    HW218906   6.069   6.776   6.122
 6003SOL     OW18907   5.787   1.924   5.251
 6003SOL    HW118908   5.779   2.023   5.239
 6003SOL    HW218909   5.704   1.880   5.218
 6004SOL     OW18910   6.445   3.228   3.698
 6004SOL    HW118911   6.540   3.211   3.670
 6004SOL    HW218912   6.417   3.158   3.764
 6005SOL     OW18913   6.036   4.931   4.669
 6005SOL    HW118914   6.084   4.863   4.724
 6005SOL    HW218915   6.037   4.904   4.573
 6006SOL     OW18916   2.292   0.428   5.061
 6006SOL    HW118917   2.295   0.504   4.997
 6006SOL    HW218918   2.210   0.435   5.118
 6007SOL     OW18919   6.587   3.380   6.155
 6007SOL    HW118920   6.632   3.392   6.067
 6007SOL    HW218921   6.657   3.374   6.227
 6008SOL     OW18922   2.693   4.994   5.933
 6008SOL    HW118923   2.687   5.080   5.881
 6008SOL    HW218924   2.600   4.962   5.954
 6009SOL     OW18925   3.799   0.026   3.881
 6009SOL    HW118926   3.763   0.042   3.789
 6009SOL    HW218927   3.723   0.005   3.942
 6010SOL     OW18928   0.698   4.366   3.650
 6010SOL    HW118929   0.768   4.428   3.687
 6010SOL    HW218930   0.637   4.338   3.724
 6011SOL     OW18931   5.519   3.357   3.254
 6011SOL    HW118932   5.524   3.325   3.159
 6011SOL    HW218933   5.512   3.456   3.255
 6012SOL     OW18934   6.066   0.408   0.752
 6012SOL    HW118935   6.129   0.461   0.695
 6012SOL    HW218936   6.098   0.410   0.847
 6013SOL     OW18937   4.840   1.006   3.015
 6013SOL    HW118938   4.753   0.965   3.041
 6013SOL    HW218939   4.824   1.082   2.952
 6014SOL     OW18940   3.842   4.048   3.535
 6014SOL    HW118941   3.894   4.119   3.582
 6014SOL    HW218942   3.794   3.992   3.603
 6015SOL     OW18943   6.050   4.007   4.609
 6015SOL    HW118944   6.067   3.952   4.691
 6015SOL    HW218945   6.084   4.100   4.624
 6016SOL     OW18946   6.554   1.286   6.045
 6016SOL    HW118947   6.497   1.204   6.049
 6016SOL    HW218948   6.505   1.362   6.087
 6017SOL     OW18949   6.093   4.888   4.082
 6017SOL    HW118950   6.186   4.851   4.074
 6017SOL    HW218951   6.091   4.980   4.044
 6018SOL     OW18952   3.331   1.410   6.015
 6018SOL    HW118953   3.354   1.507   6.004
 6018SOL    HW218954   3.375   1.375   6.098
 6019SOL     OW18955   0.825   3.226   5.230
 6019SOL    HW118956   0.841   3.177   5.316
 6019SOL    HW218957   0.759   3.299   5.245
 6020SOL     OW18958   0.701   5.239   6.978
 6020SOL    HW118959   0.735   5.317   6.926
 6020SOL    HW218960   0.770   5.211   0.019
 6021SOL     OW18961   4.582   0.569   3.075
 6021SOL    HW118962   4.617   0.631   3.146
 6021SOL    HW218963   4.552   0.622   2.996
 6022SOL     OW18964   0.010   1.921   3.459
 6022SOL    HW118965   6.964   1.866   3.499
 6022SOL    HW218966   0.092   1.915   3.516
 6023SOL     OW18967   5.088   1.019   1.427
 6023SOL    HW118968   5.033   1.005   1.510
 6023SOL    HW218969   5.159   0.949   1.422
 6024SOL     OW18970   0.910   4.899   1.361
 6024SOL    HW118971   0.964   4.928   1.440
 6024SOL    HW218972   0.887   4.802   1.371
 6025SOL     OW18973   3.146   2.111   3.403
 6025SOL    HW118974   3.220   2.149   3.346
 6025SOL    HW218975   3.181   2.032   3.454
 6026SOL     OW18976   0.174   5.957   4.924
 6026SOL    HW118977   0.235   5.905   4.865
 6026SOL    HW218978   0.104   5.896   4.962
 6027SOL     OW18979   0.105   3.495   6.404
 6027SOL    HW118980   0.179   3.561   6.390
 6027SOL    HW218981   0.063   3.473   6.317
 6028SOL     OW18982   5.600   4.445   1.163
 6028SOL    HW118983   5.603   4.545   1.153
 6028SOL    HW218984   5.571   4.404   1.077
 6029SOL     OW18985   2.752   6.720   3.959
 6029SOL    HW118986   2.757   6.731   3.859
 6029SOL    HW218987   2.806   6.792   4.003
 6030SOL     OW18988   4.589   4.842   4.033
 6030SOL    HW118989   4.566   4.838   4.130
 6030SOL    HW218990   4.606   4.750   3.999
 6031SOL     OW18991   2.755   5.782   4.209
 6031SOL    HW118992   2.739   5.713   4.279
 6031SOL    HW218993   2.819   5.747   4.141
 6032SOL     OW18994   2.219   5.222   2.735
 6032SOL    HW118995   2.282   5.281   2.786
 6032SOL    HW218996   2.161   5.172   2.799
 6033SOL     OW18997   2.101   3.064   2.917
 6033SOL    HW118998   2.083   2.966   2.910
 6033SOL    HW218999   2.158   3.093   2.840
 6034SOL     OW19000   1.116   1.137   5.763
 6034SOL    HW119001   1.210   1.108   5.781
 6034SOL    HW219002   1.074   1.074   5.697
 6035SOL     OW19003   1.695   1.053   2.115
 6035SOL    HW119004   1.670   1.036   2.210
 6035SOL    HW219005   1.686   0.968   2.063
 6036SOL     OW19006   5.441   4.941   2.282
 6036SOL    HW119007   5.345   4.937   2.254
 6036SOL    HW219008   5.457   4.877   2.357
 6037SOL     OW19009   3.850   0.208   0.730
 6037SOL    HW119010   3.921   0.278   0.738
 6037SOL    HW219011   3.807   0.214   0.640
 6038SOL     OW19012   1.693   2.570   6.124
 6038SOL    HW119013   1.730   2.654   6.085
 6038SOL    HW219014   1.752   2.539   6.199
 6039SOL     OW19015   3.790   3.402   3.112
 6039SOL    HW119016   3.804   3.319   3.058
 6039SOL    HW219017   3.731   3.465   3.062
 6040SOL     OW19018   1.447   1.575   0.891
 6040SOL    HW119019   1.473   1.662   0.932
 6040SOL    HW219020   1.383   1.591   0.816
 6041SOL     OW19021   2.733   1.984   4.922
 6041SOL    HW119022   2.682   1.953   4.842
 6041SOL    HW219023   2.798   2.055   4.895
 6042SOL     OW19024   3.944   6.845   2.873
 6042SOL    HW119025   3.934   6.778   2.800
 6042SOL    HW219026   4.023   6.822   2.930
 6043SOL     OW19027   0.495   0.280   4.923
 6043SOL    HW119028   0.504   0.370   4.880
 6043SOL    HW219029   0.584   0.236   4.926
 6044SOL     OW19030   2.458   2.699   1.863
 6044SOL    HW119031   2.522   2.622   1.865
 6044SOL    HW219032   2.429   2.717   1.769
 6045SOL     OW19033   5.569   3.672   3.536
 6045SOL    HW119034   5.563   3.575   3.513
 6045SOL    HW219035   5.606   3.682   3.628
 6046SOL     OW19036   2.999   2.701   1.276
 6046SOL    HW119037   3.081   2.645   1.260
 6046SOL    HW219038   2.952   2.717   1.189
 6047SOL     OW19039   5.332   2.284   1.464
 6047SOL    HW119040   5.318   2.334   1.550
 6047SOL    HW219041   5.404   2.328   1.411
 6048SOL     OW19042   4.847   4.955   4.910
 6048SOL    HW119043   4.823   4.984   5.003
 6048SOL    HW219044   4.828   4.858   4.900
 6049SOL     OW19045   4.491   4.637   6.709
 6049SOL    HW119046   4.451   4.703   6.773
 6049SOL    HW219047   4.428   4.622   6.633
 6050SOL     OW19048   1.895   5.565   6.764
 6050SOL    HW119049   1.889   5.500   6.840
 6050SOL    HW219050   1.904   5.515   6.678
 6051SOL     OW19051   2.098   0.239   3.076
 6051SOL    HW119052   2.191   0.273   3.092
 6051SOL    HW219053   2.103   0.145   3.043
 6052SOL     OW19054   5.121   1.501   1.529
 6052SOL    HW119055   5.144   1.588   1.485
 6052SOL    HW219056   5.110   1.515   1.627
 6053SOL     OW19057   4.320   0.760   6.130
 6053SOL    HW119058   4.315   0.662   6.111
 6053SOL    HW219059   4.306   0.776   6.228
 6054SOL     OW19060   2.366   3.322   0.156
 6054SOL    HW119061   2.419   3.379   0.092
 6054SOL    HW219062   2.269   3.347   0.150
 6055SOL     OW19063   4.983   6.124   5.002
 6055SOL    HW119064   5.044   6.046   4.991
 6055SOL    HW219065   5.034   6.201   5.041
 6056SOL     OW19066   4.770   3.340   5.430
 6056SOL    HW119067   4.849   3.388   5.467
 6056SOL    HW219068   4.756   3.368   5.335
 6057SOL     OW19069   6.857   0.911   2.253
 6057SOL    HW119070   6.864   1.011   2.252
 6057SOL    HW219071   6.880   0.875   2.162
 6058SOL     OW19072   5.142   3.828   0.535
 6058SOL    HW119073   5.164   3.748   0.590
 6058SOL    HW219074   5.178   3.910   0.580
 6059SOL     OW19075   4.692   4.944   5.843
 6059SOL    HW119076   4.641   4.994   5.913
 6059SOL    HW219077   4.630   4.882   5.794
 6060SOL     OW19078   2.236   3.252   6.259
 6060SOL    HW119079   2.141   3.253   6.227
 6060SOL    HW219080   2.283   3.334   6.227
 6061SOL     OW19081   5.178   3.946   6.943
 6061SOL    HW119082   5.224   4.034   6.961
 6061SOL    HW219083   5.243   3.871   6.956
 6062SOL     OW19084   2.569   1.125   5.986
 6062SOL    HW119085   2.646   1.063   6.001
 6062SOL    HW219086   2.576   1.203   6.049
 6063SOL     OW19087   4.471   2.638   6.072
 6063SOL    HW119088   4.396   2.631   6.006
 6063SOL    HW219089   4.445   2.699   6.147
 6064SOL     OW19090   1.574   0.636   1.022
 6064SOL    HW119091   1.640   0.712   1.026
 6064SOL    HW219092   1.605   0.569   0.955
 6065SOL     OW19093   0.985   6.234   2.948
 6065SOL    HW119094   0.942   6.220   2.858
 6065SOL    HW219095   1.080   6.203   2.944
 6066SOL     OW19096   5.402   0.992   5.899
 6066SOL    HW119097   5.465   0.959   5.970
 6066SOL    HW219098   5.340   1.060   5.937
 6067SOL     OW19099   4.915   0.439   5.148
 6067SOL    HW119100   4.881   0.491   5.069
 6067SOL    HW219101   4.914   0.497   5.229
 6068SOL     OW19102   4.859   3.072   4.799
 6068SOL    HW119103   4.923   3.113   4.735
 6068SOL    HW219104   4.808   2.999   4.753
 6069SOL     OW19105   5.900   3.490   5.166
 6069SOL    HW119106   5.926   3.426   5.093
 6069SOL    HW219107   5.982   3.537   5.200
 6070SOL     OW19108   2.769   2.761   1.384
 6070SOL    HW119109   2.757   2.833   1.452
 6070SOL    HW219110   2.867   2.742   1.372
 6071SOL     OW19111   0.513   6.102   4.675
 6071SOL    HW119112   0.613   6.107   4.680
 6071SOL    HW219113   0.484   6.007   4.675
 6072SOL     OW19114   0.370   0.698   1.676
 6072SOL    HW119115   0.283   0.660   1.709
 6072SOL    HW219116   0.445   0.640   1.705
 6073SOL     OW19117   4.932   3.397   0.796
 6073SOL    HW119118   4.876   3.324   0.836
 6073SOL    HW219119   5.028   3.382   0.818
 6074SOL     OW19120   1.593   6.004   2.363
 6074SOL    HW119121   1.582   5.938   2.288
 6074SOL    HW219122   1.684   6.044   2.359
 6075SOL     OW19123   4.629   6.759   5.736
 6075SOL    HW119124   4.531   6.740   5.737
 6075SOL    HW219125   4.649   6.832   5.802
 6076SOL     OW19126   2.812   4.737   2.925
 6076SOL    HW119127   2.765   4.819   2.960
 6076SOL    HW219128   2.895   4.764   2.877
 6077SOL     OW19129   6.422   5.298   1.416
 6077SOL    HW119130   6.421   5.293   1.316
 6077SOL    HW219131   6.369   5.377   1.446
 6078SOL     OW19132   4.946   4.895   0.155
 6078SOL    HW119133   4.900   4.814   0.119
 6078SOL    HW219134   5.032   4.909   0.106
 6079SOL     OW19135   4.907   3.697   5.612
 6079SOL    HW119136   4.829   3.744   5.571
 6079SOL    HW219137   4.944   3.752   5.687
 6080SOL     OW19138   0.336   5.853   0.730
 6080SOL    HW119139   0.274   5.928   0.755
 6080SOL    HW219140   0.426   5.870   0.770
 6081SOL     OW19141   0.111   2.484   5.626
 6081SOL    HW119142   0.135   2.494   5.530
 6081SOL    HW219143   0.190   2.452   5.677
 6082SOL     OW19144   3.240   6.926   2.672
 6082SOL    HW119145   3.173   6.952   2.602
 6082SOL    HW219146   3.326   6.974   2.655
 6083SOL     OW19147   6.232   6.126   0.206
 6083SOL    HW119148   6.287   6.121   0.289
 6083SOL    HW219149   6.149   6.178   0.224
 6084SOL     OW19150   0.837   6.863   2.351
 6084SOL    HW119151   0.836   6.882   2.449
 6084SOL    HW219152   0.749   6.889   2.311
 6085SOL     OW19153   0.309   6.869   6.968
 6085SOL    HW119154   0.214   6.902   6.972
 6085SOL    HW219155   0.330   6.820   0.026
 6086SOL     OW19156   2.740   1.935   5.773
 6086SOL    HW119157   2.780   1.953   5.863
 6086SOL    HW219158   2.788   1.988   5.703
 6087SOL     OW19159   3.484   6.096   1.630
 6087SOL    HW119160   3.470   6.122   1.725
 6087SOL    HW219161   3.544   6.162   1.585
 6088SOL     OW19162   5.433   0.181   4.333
 6088SOL    HW119163   5.512   0.148   4.384
 6088SOL    HW219164   5.354   0.187   4.393
 6089SOL     OW19165   5.848   2.354   2.500
 6089SOL    HW119166   5.900   2.303   2.432
 6089SOL    HW219167   5.898   2.437   2.526
 6090SOL     OW19168   2.161   5.178   4.459
 6090SOL    HW119169   2.250   5.134   4.469
 6090SOL    HW219170   2.124   5.199   4.550
 6091SOL     OW19171   2.452   1.551   6.728
 6091SOL    HW119172   2.539   1.517   6.691
 6091SOL    HW219173   2.377   1.515   6.673
 6092SOL     OW19174   4.260   0.884   2.913
 6092SOL    HW119175   4.212   0.875   3.000
 6092SOL    HW219176   4.228   0.966   2.865
 6093SOL     OW19177   2.241   2.783   2.246
 6093SOL    HW119178   2.315   2.731   2.202
 6093SOL    HW219179   2.159   2.777   2.190
 6094SOL     OW19180   1.484   5.865   3.468
 6094SOL    HW119181   1.476   5.874   3.369
 6094SOL    HW219182   1.480   5.956   3.509
 6095SOL     OW19183   4.621   5.015   6.791
 6095SOL    HW119184   4.636   5.022   6.692
 6095SOL    HW219185   4.663   5.094   6.836
 6096SOL     OW19186   6.430   0.138   2.668
 6096SOL    HW119187   6.352   0.199   2.656
 6096SOL    HW219188   6.427   0.065   2.599
 6097SOL     OW19189   1.890   5.542   2.364
 6097SOL    HW119190   1.954   5.467   2.383
 6097SOL    HW219191   1.866   5.541   2.267
 6098SOL     OW19192   0.120   1.625   5.740
 6098SOL    HW119193   0.036   1.580   5.711
 6098SOL    HW219194   0.128   1.713   5.693
 6099SOL     OW19195   5.373   5.795   5.391
 6099SOL    HW119196   5.288   5.848   5.398
 6099SOL    HW219197   5.451   5.855   5.406
 6100SOL     OW19198   5.432   6.042   1.355
 6100SOL    HW119199   5.510   6.006   1.407
 6100SOL    HW219200   5.348   6.033   1.409
 6101SOL     OW19201   0.171   2.994   3.009
 6101SOL    HW119202   0.114   2.933   2.954
 6101SOL    HW219203   0.230   3.048   2.948
 6102SOL     OW19204   3.737   5.685   3.101
 6102SOL    HW119205   3.715   5.618   3.171
 6102SOL    HW219206   3.806   5.748   3.136
 6103SOL     OW19207   5.534   1.583   1.624
 6103SOL    HW119208   5.511   1.554   1.531
 6103SOL    HW219209   5.523   1.505   1.687
 6104SOL     OW19210   5.772   6.922   5.075
 6104SOL    HW119211   5.831   6.956   5.148
 6104SOL    HW219212   5.692   6.877   5.115
 6105SOL     OW19213   2.296   5.680   6.473
 6105SOL    HW119214   2.220   5.727   6.518
 6105SOL    HW219215   2.264   5.593   6.435
 6106SOL     OW19216   1.809   4.862   6.031
 6106SOL    HW119217   1.885   4.805   6.061
 6106SOL    HW219218   1.732   4.851   6.094
 6107SOL     OW19219   4.576   5.574   5.040
 6107SOL    HW119220   4.616   5.486   5.014
 6107SOL    HW219221   4.631   5.616   5.112
 6108SOL     OW19222   2.106   2.470   2.961
 6108SOL    HW119223   2.156   2.557   2.965
 6108SOL    HW219224   2.007   2.489   2.962
 6109SOL     OW19225   5.724   1.562   5.184
 6109SOL    HW119226   5.822   1.544   5.175
 6109SOL    HW219227   5.673   1.490   5.139
 6110SOL     OW19228   2.870   3.950   1.076
 6110SOL    HW119229   2.904   3.964   1.169
 6110SOL    HW219230   2.772   3.934   1.078
 6111SOL     OW19231   1.463   2.977   2.133
 6111SOL    HW119232   1.497   3.060   2.088
 6111SOL    HW219233   1.540   2.926   2.171
 6112SOL     OW19234   3.418   0.309   2.491
 6112SOL    HW119235   3.417   0.266   2.582
 6112SOL    HW219236   3.511   0.339   2.470
 6113SOL     OW19237   2.567   2.100   5.885
 6113SOL    HW119238   2.645   2.049   5.849
 6113SOL    HW219239   2.487   2.040   5.891
 6114SOL     OW19240   4.992   4.389   2.447
 6114SOL    HW119241   5.057   4.407   2.373
 6114SOL    HW219242   5.043   4.369   2.531
 6115SOL     OW19243   6.359   0.245   4.382
 6115SOL    HW119244   6.452   0.248   4.346
 6115SOL    HW219245   6.302   0.310   4.332
 6116SOL     OW19246   3.829   1.783   6.232
 6116SOL    HW119247   3.800   1.873   6.266
 6116SOL    HW219248   3.780   1.763   6.147
 6117SOL     OW19249   2.302   1.927   3.376
 6117SOL    HW119250   2.358   1.990   3.429
 6117SOL    HW219251   2.360   1.873   3.315
 6118SOL     OW19252   5.488   1.123   1.030
 6118SOL    HW119253   5.461   1.203   0.976
 6118SOL    HW219254   5.420   1.107   1.102
 6119SOL     OW19255   0.893   3.704   0.426
 6119SOL    HW119256   0.972   3.648   0.403
 6119SOL    HW219257   0.913   3.800   0.407
 6120SOL     OW19258   2.512   6.893   5.617
 6120SOL    HW119259   2.430   6.893   5.675
 6120SOL    HW219260   2.553   6.803   5.617
 6121SOL     OW19261   1.198   3.627   5.238
 6121SOL    HW119262   1.252   3.613   5.321
 6121SOL    HW219263   1.139   3.548   5.223
 6122SOL     OW19264   3.942   5.356   0.226
 6122SOL    HW119265   4.008   5.347   0.151
 6122SOL    HW219266   3.925   5.453   0.244
 6123SOL     OW19267   5.168   6.553   6.307
 6123SOL    HW119268   5.148   6.497   6.388
 6123SOL    HW219269   5.083   6.590   6.270
 6124SOL     OW19270   1.269   0.066   5.512
 6124SOL    HW119271   1.349   0.014   5.543
 6124SOL    HW219272   1.293   0.163   5.508
 6125SOL     OW19273   1.793   4.215   0.272
 6125SOL    HW119274   1.761   4.291   0.216
 6125SOL    HW219275   1.796   4.131   0.217
 6126SOL     OW19276   0.062   1.239   4.427
 6126SOL    HW119277   0.113   1.251   4.513
 6126SOL    HW219278   6.992   1.228   4.447
 6127SOL     OW19279   3.150   6.588   0.949
 6127SOL    HW119280   3.095   6.626   0.874
 6127SOL    HW219281   3.182   6.662   1.007
 6128SOL     OW19282   5.991   5.239   0.414
 6128SOL    HW119283   5.979   5.173   0.489
 6128SOL    HW219284   6.034   5.322   0.449
 6129SOL     OW19285   0.423   2.820   2.582
 6129SOL    HW119286   0.509   2.846   2.627
 6129SOL    HW219287   0.346   2.843   2.640
 6130SOL     OW19288   4.857   2.515   2.424
 6130SOL    HW119289   4.769   2.485   2.388
 6130SOL    HW219290   4.881   2.458   2.503
 6131SOL     OW19291   0.583   1.719   3.679
 6131SOL    HW119292   0.614   1.655   3.608
 6131SOL    HW219293   0.659   1.737   3.742
 6132SOL     OW19294   4.213   1.637   6.749
 6132SOL    HW119295   4.273   1.623   6.827
 6132SOL    HW219296   4.121   1.604   6.771
 6133SOL     OW19297   2.087   3.669   3.393
 6133SOL    HW119298   2.092   3.742   3.324
 6133SOL    HW219299   1.993   3.637   3.400
 6134SOL     OW19300   4.454   6.042   6.878
 6134SOL    HW119301   4.509   6.124   6.890
 6134SOL    HW219302   4.446   6.020   6.781
 6135SOL     OW19303   0.422   6.161   1.153
 6135SOL    HW119304   0.425   6.193   1.059
 6135SOL    HW219305   0.513   6.130   1.181
 6136SOL     OW19306   1.501   2.877   1.798
 6136SOL    HW119307   1.500   2.901   1.700
 6136SOL    HW219308   1.582   2.917   1.841
 6137SOL     OW19309   6.734   4.006   2.250
 6137SOL    HW119310   6.787   3.972   2.172
 6137SOL    HW219311   6.796   4.049   2.315
 6138SOL     OW19312   3.986   0.036   3.105
 6138SOL    HW119313   4.030   0.089   3.178
 6138SOL    HW219314   3.940   6.984   3.144
 6139SOL     OW19315   0.878   0.258   5.727
 6139SOL    HW119316   0.903   0.323   5.799
 6139SOL    HW219317   0.875   0.305   5.639
 6140SOL     OW19318   1.190   0.249   2.028
 6140SOL    HW119319   1.216   0.295   1.943
 6140SOL    HW219320   1.238   0.291   2.105
 6141SOL     OW19321   0.448   0.039   6.004
 6141SOL    HW119322   0.412   0.128   6.032
 6141SOL    HW219323   0.382   6.994   6.025
 6142SOL     OW19324   0.141   6.035   5.975
 6142SOL    HW119325   0.053   6.011   6.016
 6142SOL    HW219326   0.137   6.130   5.942
 6143SOL     OW19327   6.749   3.718   1.161
 6143SOL    HW119328   6.739   3.639   1.221
 6143SOL    HW219329   6.663   3.769   1.159
 6144SOL     OW19330   5.406   4.957   4.192
 6144SOL    HW119331   5.340   4.945   4.267
 6144SOL    HW219332   5.483   4.895   4.204
 6145SOL     OW19333   5.404   5.229   4.124
 6145SOL    HW119334   5.490   5.275   4.100
 6145SOL    HW219335   5.420   5.131   4.130
 6146SOL     OW19336   2.984   5.392   3.987
 6146SOL    HW119337   2.985   5.479   4.038
 6146SOL    HW219338   3.035   5.403   3.902
 6147SOL     OW19339   2.496   2.380   5.120
 6147SOL    HW119340   2.480   2.425   5.033
 6147SOL    HW219341   2.408   2.355   5.161
 6148SOL     OW19342   4.243   6.736   4.998
 6148SOL    HW119343   4.165   6.685   5.032
 6148SOL    HW219344   4.233   6.833   5.022
 6149SOL     OW19345   2.340   6.695   1.529
 6149SOL    HW119346   2.270   6.633   1.493
 6149SOL    HW219347   2.415   6.703   1.464
 6150SOL     OW19348   5.989   4.526   0.418
 6150SOL    HW119349   6.083   4.542   0.447
 6150SOL    HW219350   5.988   4.491   0.324
 6151SOL     OW19351   6.463   4.796   6.217
 6151SOL    HW119352   6.481   4.713   6.163
 6151SOL    HW219353   6.380   4.783   6.271
 6152SOL     OW19354   0.785   5.968   4.531
 6152SOL    HW119355   0.777   5.904   4.455
 6152SOL    HW219356   0.867   5.947   4.585
 6153SOL     OW19357   5.467   4.407   1.406
 6153SOL    HW119358   5.369   4.425   1.413
 6153SOL    HW219359   5.500   4.435   1.316
 6154SOL     OW19360   6.047   2.668   2.228
 6154SOL    HW119361   6.067   2.573   2.254
 6154SOL    HW219362   5.948   2.679   2.218
 6155SOL     OW19363   2.049   1.335   3.197
 6155SOL    HW119364   2.121   1.341   3.266
 6155SOL    HW219365   2.052   1.244   3.154
 6156SOL     OW19366   4.800   4.626   1.901
 6156SOL    HW119367   4.753   4.686   1.965
 6156SOL    HW219368   4.878   4.583   1.947
 6157SOL     OW19369   6.509   2.207   3.299
 6157SOL    HW119370   6.556   2.291   3.274
 6157SOL    HW219371   6.571   2.148   3.351
 6158SOL     OW19372   3.750   2.135   0.071
 6158SOL    HW119373   3.655   2.114   0.047
 6158SOL    HW219374   3.803   2.051   0.074
 6159SOL     OW19375   4.346   1.929   0.881
 6159SOL    HW119376   4.312   2.014   0.841
 6159SOL    HW219377   4.445   1.936   0.895
 6160SOL     OW19378   5.631   0.232   6.688
 6160SOL    HW119379   5.632   0.169   6.611
 6160SOL    HW219380   5.572   0.311   6.667
 6161SOL     OW19381   5.771   1.986   6.602
 6161SOL    HW119382   5.724   1.990   6.690
 6161SOL    HW219383   5.858   1.939   6.612
 6162SOL     OW19384   6.294   0.021   3.873
 6162SOL    HW119385   6.330   0.114   3.861
 6162SOL    HW219386   6.314   6.993   3.792
 6163SOL     OW19387   5.727   6.104   1.190
 6163SOL    HW119388   5.795   6.136   1.256
 6163SOL    HW219389   5.659   6.176   1.175
 6164SOL     OW19390   3.286   3.954   4.014
 6164SOL    HW119391   3.289   3.973   4.112
 6164SOL    HW219392   3.203   3.902   3.993
 6165SOL     OW19393   3.941   1.411   6.611
 6165SOL    HW119394   3.898   1.490   6.568
 6165SOL    HW219395   4.015   1.377   6.553
 6166SOL     OW19396   5.337   1.681   6.686
 6166SOL    HW119397   5.398   1.683   6.766
 6166SOL    HW219398   5.335   1.771   6.643
 6167SOL     OW19399   0.844   4.548   2.971
 6167SOL    HW119400   0.754   4.576   3.005
 6167SOL    HW219401   0.913   4.615   2.999
 6168SOL     OW19402   1.742   3.338   3.231
 6168SOL    HW119403   1.647   3.309   3.220
 6168SOL    HW219404   1.801   3.279   3.175
 6169SOL     OW19405   1.361   1.912   0.763
 6169SOL    HW119406   1.299   1.865   0.826
 6169SOL    HW219407   1.336   1.891   0.669
 6170SOL     OW19408   2.653   3.965   5.645
 6170SOL    HW119409   2.569   3.911   5.638
 6170SOL    HW219410   2.717   3.936   5.574
 6171SOL     OW19411   1.640   3.618   1.034
 6171SOL    HW119412   1.647   3.712   1.000
 6171SOL    HW219413   1.698   3.558   0.978
 6172SOL     OW19414   1.655   1.320   3.783
 6172SOL    HW119415   1.654   1.386   3.858
 6172SOL    HW219416   1.680   1.367   3.698
 6173SOL     OW19417   6.572   5.410   2.592
 6173SOL    HW119418   6.474   5.395   2.595
 6173SOL    HW219419   6.592   5.507   2.603
 6174SOL     OW19420   5.911   5.599   3.415
 6174SOL    HW119421   5.921   5.570   3.320
 6174SOL    HW219422   5.852   5.533   3.463
 6175SOL     OW19423   4.702   0.776   3.221
 6175SOL    HW119424   4.658   0.839   3.158
 6175SOL    HW219425   4.673   0.796   3.314
 6176SOL     OW19426   6.275   2.909   6.844
 6176SOL    HW119427   6.303   2.909   6.748
 6176SOL    HW219428   6.191   2.856   6.855
 6177SOL     OW19429   4.858   1.430   1.555
 6177SOL    HW119430   4.836   1.355   1.617
 6177SOL    HW219431   4.953   1.420   1.523
 6178SOL     OW19432   4.812   4.907   3.083
 6178SOL    HW119433   4.813   4.884   3.180
 6178SOL    HW219434   4.718   4.903   3.049
 6179SOL     OW19435   6.342   4.810   4.505
 6179SOL    HW119436   6.277   4.770   4.569
 6179SOL    HW219437   6.325   4.773   4.413
 6180SOL     OW19438   3.855   5.633   0.235
 6180SOL    HW119439   3.777   5.610   0.293
 6180SOL    HW219440   3.828   5.704   0.170
 6181SOL     OW19441   4.330   6.584   0.876
 6181SOL    HW119442   4.317   6.599   0.778
 6181SOL    HW219443   4.251   6.621   0.926
 6182SOL     OW19444   5.694   3.270   6.251
 6182SOL    HW119445   5.598   3.290   6.233
 6182SOL    HW219446   5.748   3.354   6.245
 6183SOL     OW19447   1.632   0.664   3.024
 6183SOL    HW119448   1.726   0.653   3.058
 6183SOL    HW219449   1.632   0.724   2.945
 6184SOL     OW19450   1.505   6.947   6.416
 6184SOL    HW119451   1.446   6.987   6.486
 6184SOL    HW219452   1.480   6.983   6.327
 6185SOL     OW19453   0.044   3.802   6.491
 6185SOL    HW119454   0.129   3.763   6.526
 6185SOL    HW219455   7.026   3.856   6.562
 6186SOL     OW19456   6.257   6.754   5.488
 6186SOL    HW119457   6.275   6.779   5.393
 6186SOL    HW219458   6.213   6.831   5.535
 6187SOL     OW19459   4.227   5.101   3.697
 6187SOL    HW119460   4.264   5.166   3.631
 6187SOL    HW219461   4.301   5.067   3.756
 6188SOL     OW19462   2.229   0.024   0.670
 6188SOL    HW119463   2.312   0.021   0.725
 6188SOL    HW219464   2.252   7.026   0.575
 6189SOL     OW19465   4.760   3.970   4.229
 6189SOL    HW119466   4.804   3.891   4.187
 6189SOL    HW219467   4.771   4.050   4.170
 6190SOL     OW19468   6.646   3.949   5.797
 6190SOL    HW119469   6.728   3.983   5.842
 6190SOL    HW219470   6.578   3.922   5.865
 6191SOL     OW19471   3.944   2.517   6.862
 6191SOL    HW119472   4.022   2.576   6.881
 6191SOL    HW219473   3.935   2.503   6.763
 6192SOL     OW19474   3.031   2.964   6.405
 6192SOL    HW119475   3.076   3.023   6.472
 6192SOL    HW219476   3.089   2.884   6.388
 6193SOL     OW19477   5.384   1.012   2.486
 6193SOL    HW119478   5.419   0.948   2.418
 6193SOL    HW219479   5.459   1.046   2.543
 6194SOL     OW19480   1.337   6.995   0.877
 6194SOL    HW119481   1.404   0.039   0.853
 6194SOL    HW219482   1.245   0.007   0.871
 6195SOL     OW19483   4.018   6.550   5.258
 6195SOL    HW119484   4.045   6.520   5.167
 6195SOL    HW219485   4.077   6.626   5.287
 6196SOL     OW19486   5.990   1.964   1.383
 6196SOL    HW119487   5.892   1.954   1.398
 6196SOL    HW219488   6.028   1.877   1.350
 6197SOL     OW19489   4.648   4.800   0.571
 6197SOL    HW119490   4.565   4.852   0.591
 6197SOL    HW219491   4.706   4.797   0.652
 6198SOL     OW19492   3.343   5.844   2.324
 6198SOL    HW119493   3.346   5.766   2.387
 6198SOL    HW219494   3.431   5.852   2.277
 6199SOL     OW19495   1.076   0.774   0.730
 6199SOL    HW119496   1.161   0.726   0.752
 6199SOL    HW219497   1.024   0.789   0.814
 6200SOL     OW19498   1.684   1.500   5.261
 6200SOL    HW119499   1.694   1.454   5.349
 6200SOL    HW219500   1.733   1.588   5.263
 6201SOL     OW19501   1.025   3.952   4.915
 6201SOL    HW119502   0.993   3.864   4.952
 6201SOL    HW219503   1.117   3.941   4.879
 6202SOL     OW19504   4.319   1.676   2.290
 6202SOL    HW119505   4.274   1.736   2.224
 6202SOL    HW219506   4.268   1.591   2.299
 6203SOL     OW19507   6.662   6.751   3.312
 6203SOL    HW119508   6.741   6.707   3.270
 6203SOL    HW219509   6.689   6.792   3.399
 6204SOL     OW19510   1.531   5.401   4.548
 6204SOL    HW119511   1.609   5.462   4.532
 6204SOL    HW219512   1.551   5.312   4.506
 6205SOL     OW19513   6.396   6.365   0.119
 6205SOL    HW119514   6.355   6.413   0.197
 6205SOL    HW219515   6.494   6.356   0.133
 6206SOL     OW19516   6.978   0.533   2.509
 6206SOL    HW119517   6.931   0.446   2.520
 6206SOL    HW219518   6.911   0.606   2.494
 6207SOL     OW19519   1.643   5.135   4.364
 6207SOL    HW119520   1.734   5.128   4.325
 6207SOL    HW219521   1.631   5.066   4.435
 6208SOL     OW19522   5.814   1.751   6.256
 6208SOL    HW119523   5.902   1.793   6.235
 6208SOL    HW219524   5.744   1.822   6.262
 6209SOL     OW19525   4.719   5.551   0.154
 6209SOL    HW119526   4.762   5.584   0.070
 6209SOL    HW219527   4.775   5.479   0.194
 6210SOL     OW19528   5.361   3.836   3.439
 6210SOL    HW119529   5.379   3.887   3.355
 6210SOL    HW219530   5.445   3.831   3.493
 6211SOL     OW19531   3.095   6.157   5.863
 6211SOL    HW119532   3.154   6.224   5.818
 6211SOL    HW219533   3.003   6.162   5.823
 6212SOL     OW19534   1.933   4.778   3.010
 6212SOL    HW119535   1.903   4.684   3.000
 6212SOL    HW219536   1.944   4.799   3.107
 6213SOL     OW19537   5.462   0.023   6.550
 6213SOL    HW119538   5.464   6.989   6.630
 6213SOL    HW219539   5.370   0.026   6.512
 6214SOL     OW19540   4.538   4.869   4.317
 6214SOL    HW119541   4.600   4.791   4.321
 6214SOL    HW219542   4.547   4.924   4.400
 6215SOL     OW19543   4.556   1.496   1.378
 6215SOL    HW119544   4.553   1.461   1.285
 6215SOL    HW219545   4.633   1.559   1.388
 6216SOL     OW19546   6.205   1.846   2.040
 6216SOL    HW119547   6.174   1.773   1.978
 6216SOL    HW219548   6.248   1.918   1.987
 6217SOL     OW19549   0.632   2.916   2.081
 6217SOL    HW119550   0.567   2.906   2.006
 6217SOL    HW219551   0.583   2.920   2.168
 6218SOL     OW19552   3.828   5.252   5.705
 6218SOL    HW119553   3.854   5.176   5.645
 6218SOL    HW219554   3.871   5.239   5.795
 6219SOL     OW19555   0.550   2.250   4.304
 6219SOL    HW119556   0.553   2.348   4.282
 6219SOL    HW219557   0.634   2.206   4.273
 6220SOL     OW19558   1.221   2.736   4.990
 6220SOL    HW119559   1.260   2.647   5.011
 6220SOL    HW219560   1.253   2.803   5.057
 6221SOL     OW19561   5.821   5.856   0.176
 6221SOL    HW119562   5.761   5.907   0.114
 6221SOL    HW219563   5.874   5.919   0.232
 6222SOL     OW19564   0.745   6.406   0.998
 6222SOL    HW119565   0.731   6.361   1.086
 6222SOL    HW219566   0.734   6.340   0.924
 6223SOL     OW19567   0.416   4.925   4.090
 6223SOL    HW119568   0.481   4.868   4.140
 6223SOL    HW219569   0.325   4.885   4.096
 6224SOL     OW19570   2.251   1.731   5.989
 6224SOL    HW119571   2.338   1.682   5.987
 6224SOL    HW219572   2.176   1.665   5.982
 6225SOL     OW19573   3.549   3.994   0.341
 6225SOL    HW119574   3.526   4.091   0.337
 6225SOL    HW219575   3.473   3.943   0.381
 6226SOL     OW19576   5.955   1.525   5.024
 6226SOL    HW119577   5.983   1.537   4.929
 6226SOL    HW219578   5.966   1.429   5.050
 6227SOL     OW19579   3.813   5.817   5.683
 6227SOL    HW119580   3.785   5.724   5.708
 6227SOL    HW219581   3.784   5.837   5.590
 6228SOL     OW19582   0.887   2.372   3.430
 6228SOL    HW119583   0.895   2.295   3.495
 6228SOL    HW219584   0.950   2.444   3.458
 6229SOL     OW19585   0.074   2.306   2.892
 6229SOL    HW119586   0.105   2.388   2.941
 6229SOL    HW219587   0.112   2.225   2.936
 6230SOL     OW19588   1.461   1.106   3.753
 6230SOL    HW119589   1.379   1.110   3.811
 6230SOL    HW219590   1.517   1.187   3.770
 6231SOL     OW19591   5.908   5.035   1.133
 6231SOL    HW119592   5.850   5.104   1.091
 6231SOL    HW219593   5.854   4.953   1.152
 6232SOL     OW19594   6.604   0.949   0.497
 6232SOL    HW119595   6.602   1.046   0.474
 6232SOL    HW219596   6.695   0.925   0.531
 6233SOL     OW19597   6.259   0.552   0.630
 6233SOL    HW119598   6.284   0.611   0.706
 6233SOL    HW219599   6.226   0.608   0.554
 6234SOL     OW19600   6.062   1.358   5.878
 6234SOL    HW119601   6.063   1.414   5.796
 6234SOL    HW219602   6.151   1.312   5.888
 6235SOL     OW19603   1.321   0.214   1.648
 6235SOL    HW119604   1.384   0.290   1.666
 6235SOL    HW219605   1.366   0.128   1.673
 6236SOL     OW19606   0.724   3.842   0.596
 6236SOL    HW119607   0.713   3.940   0.614
 6236SOL    HW219608   0.779   3.801   0.669
 6237SOL     OW19609   3.679   6.630   0.032
 6237SOL    HW119610   3.680   6.548   7.003
 6237SOL    HW219611   3.772   6.650   0.064
 6238SOL     OW19612   4.258   5.051   2.845
 6238SOL    HW119613   4.260   5.020   2.940
 6238SOL    HW219614   4.316   4.992   2.789
 6239SOL     OW19615   2.731   6.960   2.299
 6239SOL    HW119616   2.636   6.950   2.268
 6239SOL    HW219617   2.731   6.987   2.396
 6240SOL     OW19618   2.736   3.342   6.085
 6240SOL    HW119619   2.642   3.314   6.064
 6240SOL    HW219620   2.747   3.352   6.183
 6241SOL     OW19621   3.920   0.282   2.068
 6241SOL    HW119622   3.873   0.195   2.081
 6241SOL    HW219623   3.853   0.357   2.075
 6242SOL     OW19624   5.422   1.368   3.361
 6242SOL    HW119625   5.361   1.389   3.437
 6242SOL    HW219626   5.512   1.407   3.377
 6243SOL     OW19627   6.022   7.006   3.901
 6243SOL    HW119628   6.120   7.002   3.885
 6243SOL    HW219629   6.002   0.045   3.974
 6244SOL     OW19630   0.752   2.459   2.538
 6244SOL    HW119631   0.844   2.487   2.508
 6244SOL    HW219632   0.743   2.477   2.636
 6245SOL     OW19633   1.848   3.721   0.368
 6245SOL    HW119634   1.749   3.721   0.381
 6245SOL    HW219635   1.874   3.645   0.308
 6246SOL     OW19636   2.011   2.169   5.678
 6246SOL    HW119637   1.912   2.180   5.669
 6246SOL    HW219638   2.038   2.077   5.647
 6247SOL     OW19639   1.404   6.194   4.535
 6247SOL    HW119640   1.392   6.194   4.634
 6247SOL    HW219641   1.437   6.104   4.505
 6248SOL     OW19642   3.378   3.285   0.218
 6248SOL    HW119643   3.381   3.221   0.294
 6248SOL    HW219644   3.291   3.275   0.170
 6249SOL     OW19645   0.461   4.078   0.853
 6249SOL    HW119646   0.364   4.052   0.849
 6249SOL    HW219647   0.512   4.009   0.903
 6250SOL     OW19648   6.709   6.076   0.113
 6250SOL    HW119649   6.665   5.991   0.084
 6250SOL    HW219650   6.778   6.103   0.045
 6251SOL     OW19651   4.101   5.383   0.015
 6251SOL    HW119652   4.125   5.462   0.071
 6251SOL    HW219653   4.167   5.373   6.968
 6252SOL     OW19654   1.277   6.595   5.330
 6252SOL    HW119655   1.252   6.691   5.316
 6252SOL    HW219656   1.195   6.543   5.353
 6253SOL     OW19657   2.017   3.794   2.848
 6253SOL    HW119658   2.041   3.699   2.828
 6253SOL    HW219659   1.948   3.796   2.920
 6254SOL     OW19660   5.142   1.908   0.700
 6254SOL    HW119661   5.128   2.004   0.727
 6254SOL    HW219662   5.064   1.877   0.645
 6255SOL     OW19663   2.857   6.976   0.909
 6255SOL    HW119664   2.834   6.885   0.875
 6255SOL    HW219665   2.773   7.024   0.935
 6256SOL     OW19666   3.479   5.169   2.323
 6256SOL    HW119667   3.417   5.248   2.315
 6256SOL    HW219668   3.428   5.085   2.306
 6257SOL     OW19669   4.880   2.444   0.029
 6257SOL    HW119670   4.921   2.353   0.028
 6257SOL    HW219671   4.800   2.444   0.089
 6258SOL     OW19672   4.040   0.125   3.876
 6258SOL    HW119673   4.060   0.176   3.960
 6258SOL    HW219674   3.950   0.082   3.884
 6259SOL     OW19675   2.645   2.492   0.747
 6259SOL    HW119676   2.710   2.487   0.671
 6259SOL    HW219677   2.596   2.579   0.743
 6260SOL     OW19678   3.067   5.541   0.790
 6260SOL    HW119679   3.005   5.602   0.740
 6260SOL    HW219680   3.085   5.459   0.734
 6261SOL     OW19681   4.196   0.659   6.665
 6261SOL    HW119682   4.159   0.604   6.740
 6261SOL    HW219683   4.175   0.615   6.578
 6262SOL     OW19684   1.868   6.082   0.493
 6262SOL    HW119685   1.806   6.013   0.530
 6262SOL    HW219686   1.959   6.042   0.479
 6263SOL     OW19687   6.432   0.407   4.999
 6263SOL    HW119688   6.342   0.407   4.955
 6263SOL    HW219689   6.423   0.380   5.095
 6264SOL     OW19690   1.438   6.653   2.519
 6264SOL    HW119691   1.379   6.732   2.504
 6264SOL    HW219692   1.509   6.676   2.585
 6265SOL     OW19693   3.350   4.212   0.375
 6265SOL    HW119694   3.391   4.290   0.423
 6265SOL    HW219695   3.277   4.245   0.315
 6266SOL     OW19696   3.774   0.992   4.584
 6266SOL    HW119697   3.757   0.944   4.669
 6266SOL    HW219698   3.687   1.006   4.536
 6267SOL     OW19699   2.461   0.717   6.775
 6267SOL    HW119700   2.432   0.718   6.871
 6267SOL    HW219701   2.532   0.648   6.762
 6268SOL     OW19702   3.085   6.939   3.638
 6268SOL    HW119703   3.156   7.000   3.671
 6268SOL    HW219704   3.030   6.908   3.716
 6269SOL     OW19705   6.931   6.180   1.575
 6269SOL    HW119706   6.940   6.094   1.626
 6269SOL    HW219707   6.996   6.247   1.612
 6270SOL     OW19708   1.511   0.381   5.164
 6270SOL    HW119709   1.568   0.437   5.104
 6270SOL    HW219710   1.570   0.327   5.225
 6271SOL     OW19711   6.236   2.064   6.582
 6271SOL    HW119712   6.284   1.980   6.606
 6271SOL    HW219713   6.302   2.139   6.574
 6272SOL     OW19714   0.272   2.250   6.958
 6272SOL    HW119715   0.249   2.326   6.898
 6272SOL    HW219716   0.259   2.278   0.027
 6273SOL     OW19717   1.617   6.790   2.666
 6273SOL    HW119718   1.553   6.863   2.688
 6273SOL    HW219719   1.709   6.828   2.657
 6274SOL     OW19720   2.839   5.813   6.136
 6274SOL    HW119721   2.885   5.765   6.211
 6274SOL    HW219722   2.908   5.860   6.080
 6275SOL     OW19723   1.863   6.647   5.465
 6275SOL    HW119724   1.768   6.630   5.440
 6275SOL    HW219725   1.871   6.650   5.565
 6276SOL     OW19726   2.318   4.232   2.845
 6276SOL    HW119727   2.354   4.308   2.791
 6276SOL    HW219728   2.262   4.174   2.786
 6277SOL     OW19729   5.365   3.495   1.739
 6277SOL    HW119730   5.402   3.470   1.829
 6277SOL    HW219731   5.322   3.416   1.697
 6278SOL     OW19732   5.012   6.492   4.228
 6278SOL    HW119733   5.032   6.444   4.314
 6278SOL    HW219734   4.992   6.588   4.248
 6279SOL     OW19735   4.271   0.271   6.949
 6279SOL    HW119736   4.301   0.218   6.869
 6279SOL    HW219737   4.325   0.355   6.955
 6280SOL     OW19738   1.345   2.108   5.410
 6280SOL    HW119739   1.331   2.128   5.506
 6280SOL    HW219740   1.264   2.134   5.357
 6281SOL     OW19741   1.164   5.172   3.476
 6281SOL    HW119742   1.186   5.268   3.493
 6281SOL    HW219743   1.249   5.119   3.472
 6282SOL     OW19744   1.218   6.352   4.744
 6282SOL    HW119745   1.211   6.350   4.844
 6282SOL    HW219746   1.246   6.443   4.714
 6283SOL     OW19747   6.905   3.251   6.024
 6283SOL    HW119748   6.849   3.184   5.975
 6283SOL    HW219749   6.935   3.322   5.961
 6284SOL     OW19750   1.845   5.465   4.805
 6284SOL    HW119751   1.770   5.403   4.825
 6284SOL    HW219752   1.846   5.540   4.872
 6285SOL     OW19753   0.032   3.420   4.740
 6285SOL    HW119754   0.032   3.444   4.837
 6285SOL    HW219755   0.126   3.415   4.706
 6286SOL     OW19756   6.138   1.992   3.397
 6286SOL    HW119757   6.162   1.935   3.319
 6286SOL    HW219758   6.056   2.045   3.376
 6287SOL     OW19759   3.491   4.975   3.918
 6287SOL    HW119760   3.442   4.967   4.004
 6287SOL    HW219761   3.438   4.930   3.845
 6288SOL     OW19762   4.786   4.551   2.329
 6288SOL    HW119763   4.719   4.484   2.295
 6288SOL    HW219764   4.855   4.504   2.383
 6289SOL     OW19765   1.807   4.643   1.584
 6289SOL    HW119766   1.784   4.609   1.493
 6289SOL    HW219767   1.906   4.657   1.590
 6290SOL     OW19768   6.919   4.581   4.847
 6290SOL    HW119769   6.957   4.497   4.807
 6290SOL    HW219770   6.836   4.606   4.796
 6291SOL     OW19771   3.918   3.043   4.697
 6291SOL    HW119772   3.934   3.135   4.660
 6291SOL    HW219773   3.900   2.979   4.622
 6292SOL     OW19774   1.456   2.703   4.332
 6292SOL    HW119775   1.540   2.678   4.380
 6292SOL    HW219776   1.478   2.758   4.252
 6293SOL     OW19777   3.587   0.915   0.084
 6293SOL    HW119778   3.665   0.856   0.106
 6293SOL    HW219779   3.529   0.869   0.016
 6294SOL     OW19780   3.806   4.956   4.911
 6294SOL    HW119781   3.787   5.005   4.826
 6294SOL    HW219782   3.721   4.918   4.947
 6295SOL     OW19783   5.781   4.779   5.902
 6295SOL    HW119784   5.780   4.721   5.983
 6295SOL    HW219785   5.803   4.873   5.928
 6296SOL     OW19786   0.370   0.272   6.092
 6296SOL    HW119787   0.368   0.329   6.009
 6296SOL    HW219788   0.330   0.323   6.168
 6297SOL     OW19789   4.782   6.573   4.508
 6297SOL    HW119790   4.766   6.506   4.435
 6297SOL    HW219791   4.729   6.656   4.489
 6298SOL     OW19792   1.221   2.799   6.515
 6298SOL    HW119793   1.314   2.837   6.518
 6298SOL    HW219794   1.192   2.776   6.607
 6299SOL     OW19795   5.292   1.952   6.599
 6299SOL    HW119796   5.331   2.045   6.600
 6299SOL    HW219797   5.244   1.938   6.512
 6300SOL     OW19798   6.413   0.333   0.594
 6300SOL    HW119799   6.378   0.259   0.651
 6300SOL    HW219800   6.350   0.411   0.597
 6301SOL     OW19801   4.076   0.589   0.274
 6301SOL    HW119802   4.090   0.492   0.294
 6301SOL    HW219803   4.161   0.639   0.287
 6302SOL     OW19804   1.996   0.363   3.525
 6302SOL    HW119805   1.910   0.401   3.490
 6302SOL    HW219806   2.069   0.429   3.508
 6303SOL     OW19807   1.385   1.567   4.239
 6303SOL    HW119808   1.392   1.490   4.302
 6303SOL    HW219809   1.382   1.653   4.291
 6304SOL     OW19810   2.547   1.199   1.538
 6304SOL    HW119811   2.548   1.186   1.637
 6304SOL    HW219812   2.641   1.210   1.506
 6305SOL     OW19813   5.898   6.984   1.704
 6305SOL    HW119814   5.829   6.919   1.672
 6305SOL    HW219815   5.904   0.034   1.640
 6306SOL     OW19816   0.304   3.958   4.347
 6306SOL    HW119817   0.286   3.921   4.256
 6306SOL    HW219818   0.277   4.054   4.350
 6307SOL     OW19819   4.045   4.161   5.536
 6307SOL    HW119820   4.084   4.176   5.445
 6307SOL    HW219821   4.096   4.088   5.582
 6308SOL     OW19822   1.790   2.591   4.363
 6308SOL    HW119823   1.862   2.571   4.429
 6308SOL    HW219824   1.738   2.508   4.343
 6309SOL     OW19825   5.335   5.140   5.474
 6309SOL    HW119826   5.364   5.094   5.559
 6309SOL    HW219827   5.414   5.181   5.430
 6310SOL     OW19828   1.704   6.116   3.254
 6310SOL    HW119829   1.760   6.149   3.177
 6310SOL    HW219830   1.762   6.065   3.317
 6311SOL     OW19831   4.472   0.812   5.908
 6311SOL    HW119832   4.569   0.834   5.921
 6311SOL    HW219833   4.426   0.808   5.997
 6312SOL     OW19834   6.132   5.563   5.566
 6312SOL    HW119835   6.198   5.524   5.631
 6312SOL    HW219836   6.168   5.554   5.473
 6313SOL     OW19837   1.403   6.542   4.398
 6313SOL    HW119838   1.486   6.595   4.377
 6313SOL    HW219839   1.428   6.461   4.451
 6314SOL     OW19840   3.672   6.307   1.642
 6314SOL    HW119841   3.736   6.287   1.717
 6314SOL    HW219842   3.720   6.305   1.555
 6315SOL     OW19843   2.146   2.633   5.551
 6315SOL    HW119844   2.236   2.678   5.552
 6315SOL    HW219845   2.120   2.612   5.457
 6316SOL     OW19846   4.697   1.320   6.802
 6316SOL    HW119847   4.655   1.410   6.785
 6316SOL    HW219848   4.761   1.327   6.879
 6317SOL     OW19849   4.578   5.821   2.759
 6317SOL    HW119850   4.666   5.845   2.717
 6317SOL    HW219851   4.514   5.896   2.746
 6318SOL     OW19852   3.878   1.443   4.851
 6318SOL    HW119853   3.856   1.529   4.805
 6318SOL    HW219854   3.875   1.368   4.784
 6319SOL     OW19855   6.660   1.586   4.442
 6319SOL    HW119856   6.611   1.651   4.501
 6319SOL    HW219857   6.661   1.496   4.485
 6320SOL     OW19858   5.672   5.817   5.059
 6320SOL    HW119859   5.622   5.901   5.080
 6320SOL    HW219860   5.621   5.738   5.094
 6321SOL     OW19861   3.211   3.735   0.650
 6321SOL    HW119862   3.146   3.684   0.707
 6321SOL    HW219863   3.300   3.689   0.651
 6322SOL     OW19864   1.479   2.023   0.090
 6322SOL    HW119865   1.536   2.050   0.167
 6322SOL    HW219866   1.434   2.103   0.050
 6323SOL     OW19867   3.414   2.606   1.558
 6323SOL    HW119868   3.364   2.660   1.625
 6323SOL    HW219869   3.469   2.537   1.605
 6324SOL     OW19870   5.002   6.865   6.291
 6324SOL    HW119871   4.963   6.793   6.234
 6324SOL    HW219872   5.007   6.950   6.239
 6325SOL     OW19873   2.442   1.651   2.526
 6325SOL    HW119874   2.396   1.590   2.462
 6325SOL    HW219875   2.426   1.620   2.620
 6326SOL     OW19876   4.670   4.998   1.810
 6326SOL    HW119877   4.674   4.988   1.910
 6326SOL    HW219878   4.615   4.923   1.772
 6327SOL     OW19879   6.775   0.351   4.765
 6327SOL    HW119880   6.766   0.450   4.773
 6327SOL    HW219881   6.871   0.325   4.765
 6328SOL     OW19882   2.844   2.826   0.734
 6328SOL    HW119883   2.762   2.867   0.693
 6328SOL    HW219884   2.895   2.776   0.663
 6329SOL     OW19885   2.292   2.639   3.765
 6329SOL    HW119886   2.260   2.695   3.689
 6329SOL    HW219887   2.230   2.562   3.779
 6330SOL     OW19888   4.566   0.893   1.203
 6330SOL    HW119889   4.547   0.857   1.294
 6330SOL    HW219890   4.631   0.833   1.156
 6331SOL     OW19891   6.423   2.231   6.548
 6331SOL    HW119892   6.475   2.208   6.466
 6331SOL    HW219893   6.459   2.315   6.588
 6332SOL     OW19894   6.208   3.300   1.262
 6332SOL    HW119895   6.186   3.277   1.356
 6332SOL    HW219896   6.153   3.244   1.200
 6333SOL     OW19897   4.791   5.621   5.229
 6333SOL    HW119898   4.828   5.530   5.208
 6333SOL    HW219899   4.747   5.619   5.318
 6334SOL     OW19900   3.257   0.545   1.843
 6334SOL    HW119901   3.204   0.472   1.885
 6334SOL    HW219902   3.215   0.570   1.755
 6335SOL     OW19903   4.300   1.223   0.508
 6335SOL    HW119904   4.316   1.154   0.578
 6335SOL    HW219905   4.385   1.272   0.489
 6336SOL     OW19906   0.914   2.308   5.768
 6336SOL    HW119907   0.821   2.279   5.744
 6336SOL    HW219908   0.936   2.392   5.718
 6337SOL     OW19909   5.193   4.112   6.370
 6337SOL    HW119910   5.222   4.018   6.351
 6337SOL    HW219911   5.200   4.130   6.468
 6338SOL     OW19912   3.852   1.841   4.161
 6338SOL    HW119913   3.881   1.745   4.159
 6338SOL    HW219914   3.761   1.847   4.203
 6339SOL     OW19915   1.482   3.975   2.862
 6339SOL    HW119916   1.412   3.978   2.933
 6339SOL    HW219917   1.451   3.916   2.787
 6340SOL     OW19918   1.557   5.070   2.947
 6340SOL    HW119919   1.496   5.142   2.914
 6340SOL    HW219920   1.512   4.981   2.935
 6341SOL     OW19921   0.949   4.293   4.640
 6341SOL    HW119922   1.046   4.289   4.662
 6341SOL    HW219923   0.912   4.201   4.637
 6342SOL     OW19924   2.102   1.436   1.879
 6342SOL    HW119925   2.071   1.528   1.902
 6342SOL    HW219926   2.085   1.418   1.782
 6343SOL     OW19927   4.523   2.028   6.377
 6343SOL    HW119928   4.573   1.990   6.455
 6343SOL    HW219929   4.455   1.962   6.346
 6344SOL     OW19930   5.862   3.151   5.481
 6344SOL    HW119931   5.828   3.240   5.452
 6344SOL    HW219932   5.787   3.085   5.483
 6345SOL     OW19933   5.239   2.828   2.319
 6345SOL    HW119934   5.287   2.772   2.388
 6345SOL    HW219935   5.163   2.775   2.282
 6346SOL     OW19936   6.964   4.672   3.456
 6346SOL    HW119937   6.930   4.592   3.407
 6346SOL    HW219938   0.037   4.666   3.465
 6347SOL     OW19939   2.340   0.479   0.825
 6347SOL    HW119940   2.369   0.391   0.862
 6347SOL    HW219941   2.240   0.487   0.833
 6348SOL     OW19942   0.919   4.216   5.621
 6348SOL    HW119943   0.927   4.156   5.541
 6348SOL    HW219944   0.888   4.162   5.699
 6349SOL     OW19945   2.688   0.389   1.479
 6349SOL    HW119946   2.686   0.439   1.565
 6349SOL    HW219947   2.719   0.295   1.496
 6350SOL     OW19948   2.211   4.989   4.146
 6350SOL    HW119949   2.135   4.939   4.105
 6350SOL    HW219950   2.218   5.079   4.103
 6351SOL     OW19951   6.355   3.578   3.419
 6351SOL    HW119952   6.326   3.483   3.429
 6351SOL    HW219953   6.351   3.624   3.508
 6352SOL     OW19954   3.777   5.814   4.793
 6352SOL    HW119955   3.685   5.785   4.820
 6352SOL    HW219956   3.775   5.850   4.700
 6353SOL     OW19957   0.356   0.444   5.903
 6353SOL    HW119958   0.259   0.459   5.881
 6353SOL    HW219959   0.413   0.503   5.846
 6354SOL     OW19960   1.865   5.870   3.374
 6354SOL    HW119961   1.793   5.827   3.429
 6354SOL    HW219962   1.945   5.811   3.372
 6355SOL     OW19963   0.869   5.140   6.428
 6355SOL    HW119964   0.871   5.055   6.481
 6355SOL    HW219965   0.776   5.175   6.423
 6356SOL     OW19966   4.007   5.500   2.005
 6356SOL    HW119967   4.106   5.513   2.012
 6356SOL    HW219968   3.987   5.406   1.977
 6357SOL     OW19969   5.304   3.424   2.192
 6357SOL    HW119970   5.394   3.401   2.155
 6357SOL    HW219971   5.243   3.346   2.182
 6358SOL     OW19972   0.636   1.654   6.456
 6358SOL    HW119973   0.561   1.672   6.520
 6358SOL    HW219974   0.669   1.741   6.420
 6359SOL     OW19975   5.917   6.750   6.404
 6359SOL    HW119976   5.843   6.759   6.470
 6359SOL    HW219977   5.931   6.837   6.357
 6360SOL     OW19978   1.134   3.986   3.820
 6360SOL    HW119979   1.066   4.032   3.763
 6360SOL    HW219980   1.210   4.049   3.838
 6361SOL     OW19981   6.222   6.881   1.091
 6361SOL    HW119982   6.200   6.835   1.005
 6361SOL    HW219983   6.255   6.814   1.157
 6362SOL     OW19984   0.635   6.409   0.503
 6362SOL    HW119985   0.557   6.381   0.448
 6362SOL    HW219986   0.718   6.403   0.448
 6363SOL     OW19987   2.418   4.623   3.582
 6363SOL    HW119988   2.423   4.598   3.678
 6363SOL    HW219989   2.432   4.541   3.525
 6364SOL     OW19990   3.166   1.124   5.853
 6364SOL    HW119991   3.258   1.160   5.840
 6364SOL    HW219992   3.164   1.027   5.830
 6365SOL     OW19993   5.423   0.146   4.061
 6365SOL    HW119994   5.522   0.154   4.048
 6365SOL    HW219995   5.402   0.155   4.158
 6366SOL     OW19996   1.197   6.064   5.608
 6366SOL    HW119997   1.122   6.091   5.546
 6366SOL    HW219998   1.159   6.021   5.689
 6367SOL     OW19999   3.933   0.770   4.826
 6367SOL    HW120000   4.015   0.791   4.774
 6367SOL    HW220001   3.935   0.819   4.913
 6368SOL     OW20002   3.482   4.873   3.532
 6368SOL    HW120003   3.568   4.890   3.580
 6368SOL    HW220004   3.488   4.910   3.439
 6369SOL     OW20005   1.809   5.075   3.693
 6369SOL    HW120006   1.787   5.117   3.605
 6369SOL    HW220007   1.908   5.080   3.709
 6370SOL     OW20008   0.408   2.901   3.082
 6370SOL    HW120009   0.322   2.928   3.038
 6370SOL    HW220010   0.484   2.947   3.037
 6371SOL     OW20011   5.222   4.289   4.010
 6371SOL    HW120012   5.213   4.216   4.077
 6371SOL    HW220013   5.177   4.372   4.044
 6372SOL     OW20014   2.328   0.167   2.056
 6372SOL    HW120015   2.261   0.233   2.089
 6372SOL    HW220016   2.317   0.154   1.957
 6373SOL     OW20017   4.980   4.329   3.215
 6373SOL    HW120018   4.927   4.315   3.131
 6373SOL    HW220019   5.071   4.289   3.203
 6374SOL     OW20020   3.018   3.917   4.199
 6374SOL    HW120021   2.975   3.839   4.246
 6374SOL    HW220022   3.037   3.989   4.266
 6375SOL     OW20023   6.390   1.821   3.777
 6375SOL    HW120024   6.433   1.808   3.687
 6375SOL    HW220025   6.392   1.918   3.801
 6376SOL     OW20026   5.982   2.818   4.599
 6376SOL    HW120027   5.900   2.795   4.547
 6376SOL    HW220028   6.010   2.739   4.654
 6377SOL     OW20029   6.220   1.373   5.472
 6377SOL    HW120030   6.304   1.356   5.524
 6377SOL    HW220031   6.225   1.326   5.384
 6378SOL     OW20032   4.594   5.322   3.706
 6378SOL    HW120033   4.673   5.354   3.759
 6378SOL    HW220034   4.578   5.226   3.726
 6379SOL     OW20035   1.866   3.745   4.124
 6379SOL    HW120036   1.829   3.654   4.106
 6379SOL    HW220037   1.844   3.806   4.048
 6380SOL     OW20038   0.274   1.939   6.050
 6380SOL    HW120039   0.249   2.021   6.102
 6380SOL    HW220040   0.286   1.862   6.112
 6381SOL     OW20041   3.484   3.467   1.727
 6381SOL    HW120042   3.503   3.428   1.637
 6381SOL    HW220043   3.476   3.394   1.795
 6382SOL     OW20044   1.228   1.412   1.022
 6382SOL    HW120045   1.227   1.359   1.107
 6382SOL    HW220046   1.313   1.463   1.016
 6383SOL     OW20047   1.305   1.666   3.234
 6383SOL    HW120048   1.375   1.679   3.305
 6383SOL    HW220049   1.331   1.590   3.175
 6384SOL     OW20050   5.711   3.863   1.460
 6384SOL    HW120051   5.670   3.779   1.494
 6384SOL    HW220052   5.701   3.935   1.528
 6385SOL     OW20053   0.201   4.528   3.448
 6385SOL    HW120054   0.271   4.561   3.510
 6385SOL    HW220055   0.242   4.501   3.361
 6386SOL     OW20056   2.430   4.367   6.063
 6386SOL    HW120057   2.395   4.315   5.985
 6386SOL    HW220058   2.499   4.432   6.031
 6387SOL     OW20059   0.716   1.625   6.770
 6387SOL    HW120060   0.787   1.646   6.702
 6387SOL    HW220061   0.688   1.530   6.760
 6388SOL     OW20062   4.246   4.737   1.123
 6388SOL    HW120063   4.167   4.691   1.163
 6388SOL    HW220064   4.295   4.673   1.064
 6389SOL     OW20065   0.802   6.062   2.758
 6389SOL    HW120066   0.863   6.003   2.812
 6389SOL    HW220067   0.857   6.118   2.696
 6390SOL     OW20068   0.544   2.092   5.406
 6390SOL    HW120069   0.531   2.059   5.313
 6390SOL    HW220070   0.560   2.015   5.467
 6391SOL     OW20071   2.396   0.057   6.198
 6391SOL    HW120072   2.396   0.096   6.106
 6391SOL    HW220073   2.453   7.001   6.199
 6392SOL     OW20074   2.541   6.707   3.002
 6392SOL    HW120075   2.627   6.699   2.952
 6392SOL    HW220076   2.559   6.741   3.095
 6393SOL     OW20077   6.899   6.967   1.971
 6393SOL    HW120078   6.859   0.030   1.950
 6393SOL    HW220079   6.830   6.896   1.956
 6394SOL     OW20080   1.971   4.737   0.797
 6394SOL    HW120081   2.030   4.809   0.835
 6394SOL    HW220082   1.927   4.688   0.872
 6395SOL     OW20083   6.649   2.409   1.153
 6395SOL    HW120084   6.580   2.481   1.159
 6395SOL    HW220085   6.604   2.322   1.129
 6396SOL     OW20086   5.148   3.222   6.100
 6396SOL    HW120087   5.092   3.141   6.116
 6396SOL    HW220088   5.113   3.298   6.155
 6397SOL     OW20089   5.386   2.380   6.780
 6397SOL    HW120090   5.438   2.343   6.703
 6397SOL    HW220091   5.298   2.414   6.749
 6398SOL     OW20092   3.432   0.260   0.705
 6398SOL    HW120093   3.431   0.228   0.611
 6398SOL    HW220094   3.351   0.225   0.753
 6399SOL     OW20095   1.130   5.820   6.241
 6399SOL    HW120096   1.192   5.778   6.307
 6399SOL    HW220097   1.116   5.915   6.266
 6400SOL     OW20098   2.142   6.187   2.038
 6400SOL    HW120099   2.054   6.184   1.990
 6400SOL    HW220100   2.208   6.237   1.982
 6401SOL     OW20101   0.209   4.956   3.626
 6401SOL    HW120102   0.221   4.974   3.724
 6401SOL    HW220103   0.291   4.911   3.591
 6402SOL     OW20104   3.958   1.645   2.304
 6402SOL    HW120105   3.945   1.735   2.262
 6402SOL    HW220106   4.013   1.588   2.244
 6403SOL     OW20107   6.668   6.855   6.185
 6403SOL    HW120108   6.713   6.770   6.161
 6403SOL    HW220109   6.725   6.907   6.248
 6404SOL     OW20110   4.589   1.608   2.309
 6404SOL    HW120111   4.490   1.619   2.313
 6404SOL    HW220112   4.623   1.571   2.395
 6405SOL     OW20113   3.048   0.376   3.704
 6405SOL    HW120114   3.146   0.362   3.719
 6405SOL    HW220115   3.015   0.447   3.766
 6406SOL     OW20116   1.101   2.320   3.102
 6406SOL    HW120117   1.072   2.224   3.094
 6406SOL    HW220118   1.022   2.380   3.089
 6407SOL     OW20119   2.509   6.143   4.077
 6407SOL    HW120120   2.547   6.142   4.169
 6407SOL    HW220121   2.474   6.052   4.053
 6408SOL     OW20122   5.930   1.957   0.697
 6408SOL    HW120123   5.843   1.916   0.669
 6408SOL    HW220124   5.952   1.927   0.790
 6409SOL     OW20125   6.896   4.442   3.307
 6409SOL    HW120126   6.941   4.426   3.220
 6409SOL    HW220127   6.813   4.387   3.313
 6410SOL     OW20128   1.867   1.272   0.459
 6410SOL    HW120129   1.793   1.207   0.474
 6410SOL    HW220130   1.879   1.287   0.361
 6411SOL     OW20131   0.691   2.498   3.280
 6411SOL    HW120132   0.770   2.470   3.335
 6411SOL    HW220133   0.679   2.597   3.287
 6412SOL     OW20134   0.363   2.283   5.205
 6412SOL    HW120135   0.425   2.206   5.192
 6412SOL    HW220136   0.340   2.323   5.116
 6413SOL     OW20137   4.283   4.685   3.847
 6413SOL    HW120138   4.330   4.657   3.931
 6413SOL    HW220139   4.328   4.644   3.768
 6414SOL     OW20140   5.569   0.860   0.597
 6414SOL    HW120141   5.625   0.876   0.516
 6414SOL    HW220142   5.625   0.822   0.670
 6415SOL     OW20143   1.858   3.031   3.309
 6415SOL    HW120144   1.841   3.071   3.220
 6415SOL    HW220145   1.814   3.086   3.380
 6416SOL     OW20146   1.365   1.610   6.818
 6416SOL    HW120147   1.276   1.572   6.791
 6416SOL    HW220148   1.356   1.709   6.829
 6417SOL     OW20149   6.443   5.178   2.289
 6417SOL    HW120150   6.405   5.126   2.213
 6417SOL    HW220151   6.468   5.116   2.363
 6418SOL     OW20152   5.159   4.663   1.684
 6418SOL    HW120153   5.124   4.755   1.701
 6418SOL    HW220154   5.094   4.596   1.718
 6419SOL     OW20155   2.517   4.743   2.673
 6419SOL    HW120156   2.523   4.831   2.722
 6419SOL    HW220157   2.604   4.725   2.628
 6420SOL     OW20158   3.291   4.205   5.647
 6420SOL    HW120159   3.274   4.302   5.629
 6420SOL    HW220160   3.357   4.171   5.579
 6421SOL     OW20161   5.274   0.944   2.919
 6421SOL    HW120162   5.366   0.944   2.879
 6421SOL    HW220163   5.279   0.911   3.013
 6422SOL     OW20164   0.601   0.943   3.608
 6422SOL    HW120165   0.538   1.007   3.565
 6422SOL    HW220166   0.558   0.854   3.617
 6423SOL     OW20167   4.747   5.009   2.556
 6423SOL    HW120168   4.830   5.011   2.500
 6423SOL    HW220169   4.700   5.097   2.548
 6424SOL     OW20170   0.035   6.290   5.922
 6424SOL    HW120171   0.036   6.389   5.907
 6424SOL    HW220172   7.026   6.244   5.841
 6425SOL     OW20173   6.435   5.884   2.857
 6425SOL    HW120174   6.336   5.887   2.848
 6425SOL    HW220175   6.466   5.960   2.914
 6426SOL     OW20176   1.089   4.701   3.000
 6426SOL    HW120177   1.156   4.643   2.953
 6426SOL    HW220178   1.119   4.717   3.094
 6427SOL     OW20179   3.084   2.782   5.843
 6427SOL    HW120180   3.004   2.723   5.858
 6427SOL    HW220181   3.055   2.867   5.798
 6428SOL     OW20182   6.314   3.185   6.809
 6428SOL    HW120183   6.320   3.086   6.825
 6428SOL    HW220184   6.392   3.215   6.755
 6429SOL     OW20185   1.820   2.111   5.955
 6429SOL    HW120186   1.876   2.152   5.884
 6429SOL    HW220187   1.825   2.167   6.038
 6430SOL     OW20188   5.701   1.189   2.324
 6430SOL    HW120189   5.621   1.154   2.276
 6430SOL    HW220190   5.739   1.267   2.273
 6431SOL     OW20191   5.211   6.449   4.026
 6431SOL    HW120192   5.143   6.473   4.094
 6431SOL    HW220193   5.166   6.413   3.944
 6432SOL     OW20194   3.642   4.001   6.416
 6432SOL    HW120195   3.677   4.017   6.508
 6432SOL    HW220196   3.656   4.083   6.360
 6433SOL     OW20197   2.856   4.080   0.115
 6433SOL    HW120198   2.800   4.114   0.040
 6433SOL    HW220199   2.798   4.049   0.190
 6434SOL     OW20200   1.617   3.921   0.041
 6434SOL    HW120201   1.599   4.007   0.088
 6434SOL    HW220202   1.708   3.887   0.066
 6435SOL     OW20203   4.307   6.409   0.048
 6435SOL    HW120204   4.405   6.390   0.053
 6435SOL    HW220205   4.257   6.324   0.035
 6436SOL     OW20206   2.032   3.373   3.553
 6436SOL    HW120207   2.069   3.303   3.493
 6436SOL    HW220208   1.968   3.431   3.502
 6437SOL     OW20209   2.495   1.217   0.664
 6437SOL    HW120210   2.556   1.156   0.613
 6437SOL    HW220211   2.400   1.196   0.642
 6438SOL     OW20212   0.376   3.875   6.330
 6438SOL    HW120213   0.388   3.885   6.429
 6438SOL    HW220214   0.368   3.966   6.288
 6439SOL     OW20215   5.370   1.020   1.955
 6439SOL    HW120216   5.367   0.921   1.941
 6439SOL    HW220217   5.279   1.058   1.943
 6440SOL     OW20218   2.379   1.720   6.938
 6440SOL    HW120219   2.388   1.664   6.855
 6440SOL    HW220220   2.377   1.661   7.018
 6441SOL     OW20221   0.958   6.229   2.008
 6441SOL    HW120222   0.917   6.139   1.991
 6441SOL    HW220223   0.923   6.294   1.941
 6442SOL     OW20224   2.343   0.336   4.586
 6442SOL    HW120225   2.319   0.341   4.683
 6442SOL    HW220226   2.431   0.291   4.575
 6443SOL     OW20227   3.961   2.373   5.563
 6443SOL    HW120228   3.887   2.440   5.568
 6443SOL    HW220229   3.925   2.287   5.526
 6444SOL     OW20230   6.566   2.350   3.836
 6444SOL    HW120231   6.586   2.317   3.928
 6444SOL    HW220232   6.477   2.396   3.836
 6445SOL     OW20233   4.573   3.151   5.588
 6445SOL    HW120234   4.640   3.216   5.552
 6445SOL    HW220235   4.504   3.132   5.518
 6446SOL     OW20236   1.814   1.082   5.933
 6446SOL    HW120237   1.742   1.013   5.928
 6446SOL    HW220238   1.858   1.078   6.023
 6447SOL     OW20239   0.237   4.663   2.577
 6447SOL    HW120240   0.320   4.643   2.630
 6447SOL    HW220241   0.256   4.654   2.480
 6448SOL     OW20242   5.093   5.531   2.325
 6448SOL    HW120243   5.133   5.621   2.308
 6448SOL    HW220244   5.084   5.517   2.423
 6449SOL     OW20245   2.636   4.682   0.506
 6449SOL    HW120246   2.618   4.648   0.598
 6449SOL    HW220247   2.733   4.672   0.485
 6450SOL     OW20248   0.349   3.597   1.381
 6450SOL    HW120249   0.351   3.696   1.396
 6450SOL    HW220250   0.345   3.550   1.470
 6451SOL     OW20251   1.983   0.088   4.988
 6451SOL    HW120252   2.001   0.009   4.930
 6451SOL    HW220253   2.058   0.154   4.978
 6452SOL     OW20254   3.390   6.670   4.632
 6452SOL    HW120255   3.295   6.676   4.602
 6452SOL    HW220256   3.396   6.614   4.715
 6453SOL     OW20257   2.539   6.466   1.017
 6453SOL    HW120258   2.625   6.442   1.062
 6453SOL    HW220259   2.527   6.565   1.019
 6454SOL     OW20260   2.477   2.243   3.793
 6454SOL    HW120261   2.535   2.174   3.748
 6454SOL    HW220262   2.407   2.274   3.729
 6455SOL     OW20263   0.282   2.183   4.038
 6455SOL    HW120264   0.293   2.245   4.116
 6455SOL    HW220265   0.185   2.166   4.022
 6456SOL     OW20266   1.733   0.449   3.357
 6456SOL    HW120267   1.687   0.484   3.439
 6456SOL    HW220268   1.693   0.361   3.332
 6457SOL     OW20269   4.866   1.952   0.993
 6457SOL    HW120270   4.854   1.999   0.906
 6457SOL    HW220271   4.781   1.957   1.046
 6458SOL     OW20272   0.540   6.996   3.647
 6458SOL    HW120273   0.617   6.943   3.682
 6458SOL    HW220274   0.507   0.032   3.717
 6459SOL     OW20275   6.254   4.898   0.136
 6459SOL    HW120276   6.172   4.892   0.078
 6459SOL    HW220277   6.289   4.992   0.134
 6460SOL     OW20278   4.961   5.788   5.586
 6460SOL    HW120279   4.978   5.778   5.684
 6460SOL    HW220280   4.886   5.853   5.571
 6461SOL     OW20281   2.545   4.817   5.649
 6461SOL    HW120282   2.536   4.913   5.624
 6461SOL    HW220283   2.474   4.763   5.603
 6462SOL     OW20284   2.416   2.526   4.894
 6462SOL    HW120285   2.496   2.573   4.858
 6462SOL    HW220286   2.389   2.452   4.832
 6463SOL     OW20287   6.795   3.702   6.935
 6463SOL    HW120288   6.712   3.721   6.882
 6463SOL    HW220289   6.818   3.780   6.992
 6464SOL     OW20290   1.631   4.766   4.065
 6464SOL    HW120291   1.652   4.669   4.066
 6464SOL    HW220292   1.535   4.780   4.091
 6465SOL     OW20293   6.638   2.450   3.171
 6465SOL    HW120294   6.657   2.544   3.143
 6465SOL    HW220295   6.696   2.387   3.118
 6466SOL     OW20296   1.421   1.438   6.404
 6466SOL    HW120297   1.513   1.410   6.375
 6466SOL    HW220298   1.411   1.537   6.393
 6467SOL     OW20299   3.385   0.583   6.678
 6467SOL    HW120300   3.480   0.605   6.700
 6467SOL    HW220301   3.348   0.519   6.745
 6468SOL     OW20302   3.982   6.549   0.954
 6468SOL    HW120303   4.037   6.467   0.972
 6468SOL    HW220304   3.930   6.573   1.035
 6469SOL     OW20305   4.813   0.562   4.905
 6469SOL    HW120306   4.857   0.526   4.823
 6469SOL    HW220307   4.730   0.611   4.880
 6470SOL     OW20308   6.438   4.407   0.205
 6470SOL    HW120309   6.517   4.403   0.267
 6470SOL    HW220310   6.446   4.334   0.136
 6471SOL     OW20311   6.295   6.245   5.406
 6471SOL    HW120312   6.319   6.280   5.497
 6471SOL    HW220313   6.378   6.237   5.351
 6472SOL     OW20314   0.890   5.018   1.105
 6472SOL    HW120315   0.853   5.103   1.142
 6472SOL    HW220316   0.917   4.958   1.181
 6473SOL     OW20317   2.889   1.259   4.191
 6473SOL    HW120318   2.941   1.251   4.106
 6473SOL    HW220319   2.793   1.239   4.173
 6474SOL     OW20320   2.296   3.807   5.947
 6474SOL    HW120321   2.379   3.755   5.928
 6474SOL    HW220322   2.281   3.873   5.875
 6475SOL     OW20323   6.408   5.287   4.241
 6475SOL    HW120324   6.371   5.298   4.149
 6475SOL    HW220325   6.344   5.234   4.297
 6476SOL     OW20326   4.562   3.125   0.986
 6476SOL    HW120327   4.492   3.137   0.916
 6476SOL    HW220328   4.541   3.044   1.041
 6477SOL     OW20329   6.189   4.853   1.243
 6477SOL    HW120330   6.209   4.941   1.201
 6477SOL    HW220331   6.111   4.811   1.196
 6478SOL     OW20332   3.737   6.764   1.740
 6478SOL    HW120333   3.692   6.705   1.807
 6478SOL    HW220334   3.808   6.712   1.693
 6479SOL     OW20335   3.774   5.545   3.931
 6479SOL    HW120336   3.762   5.624   3.872
 6479SOL    HW220337   3.872   5.530   3.948
 6480SOL     OW20338   3.256   2.359   5.625
 6480SOL    HW120339   3.189   2.379   5.697
 6480SOL    HW220340   3.245   2.265   5.593
 6481SOL     OW20341   3.643   2.132   1.710
 6481SOL    HW120342   3.660   2.198   1.783
 6481SOL    HW220343   3.634   2.181   1.623
 6482SOL     OW20344   6.922   0.507   5.602
 6482SOL    HW120345   6.849   0.561   5.561
 6482SOL    HW220346   6.998   0.499   5.537
 6483SOL     OW20347   1.125   6.137   1.203
 6483SOL    HW120348   1.198   6.097   1.147
 6483SOL    HW220349   1.163   6.166   1.291
 6484SOL     OW20350   3.448   0.213   1.835
 6484SOL    HW120351   3.472   0.120   1.862
 6484SOL    HW220352   3.390   0.254   1.906
 6485SOL     OW20353   1.884   4.535   3.206
 6485SOL    HW120354   1.890   4.621   3.256
 6485SOL    HW220355   1.941   4.466   3.250
 6486SOL     OW20356   1.989   4.350   4.237
 6486SOL    HW120357   2.058   4.331   4.308
 6486SOL    HW220358   1.970   4.266   4.187
 6487SOL     OW20359   6.911   6.528   5.186
 6487SOL    HW120360   6.844   6.540   5.113
 6487SOL    HW220361   6.968   6.448   5.166
 6488SOL     OW20362   3.702   5.855   5.427
 6488SOL    HW120363   3.680   5.935   5.370
 6488SOL    HW220364   3.635   5.783   5.411
 6489SOL     OW20365   2.375   2.731   6.481
 6489SOL    HW120366   2.285   2.762   6.513
 6489SOL    HW220367   2.434   2.715   6.560
 6490SOL     OW20368   3.904   1.582   6.412
 6490SOL    HW120369   4.002   1.566   6.406
 6490SOL    HW220370   3.874   1.638   6.335
 6491SOL     OW20371   4.079   1.264   0.243
 6491SOL    HW120372   3.983   1.237   0.250
 6491SOL    HW220373   4.105   1.316   0.325
 6492SOL     OW20374   5.753   5.228   0.280
 6492SOL    HW120375   5.678   5.211   0.344
 6492SOL    HW220376   5.839   5.232   0.330
 6493SOL     OW20377   1.413   5.512   4.841
 6493SOL    HW120378   1.315   5.494   4.837
 6493SOL    HW220379   1.452   5.503   4.749
 6494SOL     OW20380   0.310   1.433   3.466
 6494SOL    HW120381   0.273   1.433   3.559
 6494SOL    HW220382   0.264   1.504   3.412
 6495SOL     OW20383   4.855   6.264   4.215
 6495SOL    HW120384   4.924   6.332   4.238
 6495SOL    HW220385   4.900   6.178   4.190
 6496SOL     OW20386   6.749   0.210   2.538
 6496SOL    HW120387   6.730   0.172   2.447
 6496SOL    HW220388   6.691   0.290   2.553
 6497SOL     OW20389   2.580   2.444   1.039
 6497SOL    HW120390   2.553   2.539   1.021
 6497SOL    HW220391   2.533   2.383   0.976
 6498SOL     OW20392   2.154   3.700   4.134
 6498SOL    HW120393   2.200   3.789   4.130
 6498SOL    HW220394   2.055   3.713   4.144
 6499SOL     OW20395   5.318   2.277   5.060
 6499SOL    HW120396   5.382   2.213   5.102
 6499SOL    HW220397   5.235   2.228   5.033
 6500SOL     OW20398   0.175   4.232   3.694
 6500SOL    HW120399   0.214   4.163   3.754
 6500SOL    HW220400   0.231   4.242   3.612
 6501SOL     OW20401   6.213   2.712   6.323
 6501SOL    HW120402   6.212   2.612   6.330
 6501SOL    HW220403   6.120   2.746   6.308
 6502SOL     OW20404   6.455   3.163   1.606
 6502SOL    HW120405   6.554   3.150   1.601
 6502SOL    HW220406   6.409   3.076   1.587
 6503SOL     OW20407   4.559   1.468   3.803
 6503SOL    HW120408   4.550   1.464   3.703
 6503SOL    HW220409   4.611   1.389   3.835
 6504SOL     OW20410   4.878   6.113   6.173
 6504SOL    HW120411   4.833   6.189   6.220
 6504SOL    HW220412   4.822   6.031   6.181
 6505SOL     OW20413   5.344   5.484   1.526
 6505SOL    HW120414   5.277   5.413   1.548
 6505SOL    HW220415   5.329   5.563   1.585
 6506SOL     OW20416   6.258   3.263   1.859
 6506SOL    HW120417   6.256   3.331   1.785
 6506SOL    HW220418   6.349   3.221   1.862
 6507SOL     OW20419   2.180   5.124   6.083
 6507SOL    HW120420   2.084   5.105   6.063
 6507SOL    HW220421   2.231   5.131   5.998
 6508SOL     OW20422   2.100   0.674   3.225
 6508SOL    HW120423   2.113   0.649   3.320
 6508SOL    HW220424   2.042   0.607   3.180
 6509SOL     OW20425   3.247   1.906   4.999
 6509SOL    HW120426   3.259   1.993   4.953
 6509SOL    HW220427   3.215   1.921   5.093
 6510SOL     OW20428   0.126   4.228   6.728
 6510SOL    HW120429   0.107   4.325   6.738
 6510SOL    HW220430   0.041   4.179   6.706
 6511SOL     OW20431   4.590   1.116   4.723
 6511SOL    HW120432   4.612   1.018   4.722
 6511SOL    HW220433   4.672   1.168   4.750
 6512SOL     OW20434   5.146   6.766   1.907
 6512SOL    HW120435   5.214   6.838   1.891
 6512SOL    HW220436   5.148   6.701   1.831
 6513SOL     OW20437   3.093   4.877   2.787
 6513SOL    HW120438   3.170   4.918   2.834
 6513SOL    HW220439   3.114   4.869   2.689
 6514SOL     OW20440   5.381   1.178   3.930
 6514SOL    HW120441   5.398   1.103   3.993
 6514SOL    HW220442   5.393   1.145   3.836
 6515SOL     OW20443   0.496   5.179   4.149
 6515SOL    HW120444   0.491   5.245   4.074
 6515SOL    HW220445   0.484   5.087   4.112
 6516SOL     OW20446   0.409   3.173   1.764
 6516SOL    HW120447   0.359   3.095   1.803
 6516SOL    HW220448   0.395   3.176   1.666
 6517SOL     OW20449   6.635   1.199   0.374
 6517SOL    HW120450   6.595   1.268   0.315
 6517SOL    HW220451   6.720   1.235   0.414
 6518SOL     OW20452   0.073   6.981   6.677
 6518SOL    HW120453   7.013   7.000   6.723
 6518SOL    HW220454   0.065   7.005   6.581
 6519SOL     OW20455   2.682   1.886   3.548
 6519SOL    HW120456   2.723   1.796   3.529
 6519SOL    HW220457   2.750   1.958   3.531
 6520SOL     OW20458   5.685   5.249   1.932
 6520SOL    HW120459   5.768   5.195   1.942
 6520SOL    HW220460   5.606   5.196   1.961
 6521SOL     OW20461   1.806   2.864   4.437
 6521SOL    HW120462   1.781   2.796   4.368
 6521SOL    HW220463   1.903   2.857   4.457
 6522SOL     OW20464   3.585   4.486   0.200
 6522SOL    HW120465   3.674   4.530   0.213
 6522SOL    HW220466   3.559   4.439   0.284
 6523SOL     OW20467   3.650   0.659   6.793
 6523SOL    HW120468   3.644   0.561   6.810
 6523SOL    HW220469   3.743   0.691   6.810
 6524SOL     OW20470   2.889   3.560   2.245
 6524SOL    HW120471   2.877   3.473   2.197
 6524SOL    HW220472   2.903   3.633   2.178
 6525SOL     OW20473   1.278   3.962   3.391
 6525SOL    HW120474   1.197   4.004   3.431
 6525SOL    HW220475   1.253   3.873   3.351
 6526SOL     OW20476   2.084   0.136   6.650
 6526SOL    HW120477   2.079   0.235   6.647
 6526SOL    HW220478   2.172   0.107   6.687
 6527SOL     OW20479   0.757   2.543   5.135
 6527SOL    HW120480   0.750   2.559   5.037
 6527SOL    HW220481   0.728   2.450   5.157
 6528SOL     OW20482   0.204   1.135   4.229
 6528SOL    HW120483   0.154   1.163   4.311
 6528SOL    HW220484   0.142   1.130   4.151
 6529SOL     OW20485   0.719   1.428   2.317
 6529SOL    HW120486   0.732   1.349   2.256
 6529SOL    HW220487   0.635   1.476   2.292
 6530SOL     OW20488   6.998   3.488   1.604
 6530SOL    HW120489   7.017   3.435   1.521
 6530SOL    HW220490   6.931   3.440   1.660
 6531SOL     OW20491   5.661   3.946   4.900
 6531SOL    HW120492   5.567   3.967   4.926
 6531SOL    HW220493   5.693   3.867   4.953
 6532SOL     OW20494   6.303   0.350   6.819
 6532SOL    HW120495   6.371   0.389   6.756
 6532SOL    HW220496   6.233   0.418   6.839
 6533SOL     OW20497   4.706   6.128   0.893
 6533SOL    HW120498   4.618   6.083   0.885
 6533SOL    HW220499   4.700   6.198   0.965
 6534SOL     OW20500   3.351   4.312   0.946
 6534SOL    HW120501   3.404   4.255   1.009
 6534SOL    HW220502   3.342   4.266   0.858
 6535SOL     OW20503   6.414   3.860   3.932
 6535SOL    HW120504   6.335   3.905   3.973
 6535SOL    HW220505   6.460   3.804   4.000
 6536SOL     OW20506   0.641   2.260   5.809
 6536SOL    HW120507   0.556   2.213   5.785
 6536SOL    HW220508   0.622   2.332   5.875
 6537SOL     OW20509   6.245   5.532   6.831
 6537SOL    HW120510   6.211   5.505   6.741
 6537SOL    HW220511   6.177   5.592   6.875
 6538SOL     OW20512   3.256   4.021   6.855
 6538SOL    HW120513   3.164   4.060   6.862
 6538SOL    HW220514   3.293   4.007   6.947
 6539SOL     OW20515   3.659   0.247   6.442
 6539SOL    HW120516   3.595   0.304   6.493
 6539SOL    HW220517   3.729   0.305   6.401
 6540SOL     OW20518   5.212   1.634   4.854
 6540SOL    HW120519   5.210   1.565   4.781
 6540SOL    HW220520   5.213   1.725   4.813
 6541SOL     OW20521   3.901   1.279   5.038
 6541SOL    HW120522   3.911   1.350   4.968
 6541SOL    HW220523   3.881   1.322   5.126
 6542SOL     OW20524   6.617   4.350   4.329
 6542SOL    HW120525   6.619   4.278   4.398
 6542SOL    HW220526   6.577   4.433   4.369
 6543SOL     OW20527   5.951   3.470   6.183
 6543SOL    HW120528   5.923   3.469   6.280
 6543SOL    HW220529   6.048   3.448   6.177
 6544SOL     OW20530   0.565   6.284   3.080
 6544SOL    HW120531   0.548   6.201   3.132
 6544SOL    HW220532   0.562   6.363   3.142
 6545SOL     OW20533   5.219   2.075   6.232
 6545SOL    HW120534   5.225   2.148   6.300
 6545SOL    HW220535   5.226   2.114   6.140
 6546SOL     OW20536   3.483   4.525   6.546
 6546SOL    HW120537   3.581   4.510   6.533
 6546SOL    HW220538   3.461   4.620   6.523
 6547SOL     OW20539   4.869   1.274   5.807
 6547SOL    HW120540   4.817   1.274   5.892
 6547SOL    HW220541   4.943   1.341   5.813
 6548SOL     OW20542   0.924   3.527   6.942
 6548SOL    HW120543   0.999   3.559   6.886
 6548SOL    HW220544   0.915   3.427   6.932
 6549SOL     OW20545   4.561   1.329   1.163
 6549SOL    HW120546   4.556   1.392   1.086
 6549SOL    HW220547   4.626   1.256   1.142
 6550SOL     OW20548   0.751   6.912   3.781
 6550SOL    HW120549   0.823   6.921   3.850
 6550SOL    HW220550   0.758   6.823   3.736
 6551SOL     OW20551   1.746   4.518   2.381
 6551SOL    HW120552   1.749   4.597   2.319
 6551SOL    HW220553   1.816   4.528   2.451
 6552SOL     OW20554   2.293   0.226   5.605
 6552SOL    HW120555   2.237   0.273   5.673
 6552SOL    HW220556   2.234   0.179   5.540
 6553SOL     OW20557   0.708   1.429   3.019
 6553SOL    HW120558   0.689   1.361   3.090
 6553SOL    HW220559   0.661   1.402   2.935
 6554SOL     OW20560   5.836   1.139   5.557
 6554SOL    HW120561   5.816   1.129   5.654
 6554SOL    HW220562   5.798   1.226   5.523
 6555SOL     OW20563   0.176   1.936   2.384
 6555SOL    HW120564   0.207   2.031   2.378
 6555SOL    HW220565   0.236   1.878   2.328
 6556SOL     OW20566   4.547   4.665   5.304
 6556SOL    HW120567   4.639   4.675   5.267
 6556SOL    HW220568   4.510   4.754   5.329
 6557SOL     OW20569   3.317   5.700   1.199
 6557SOL    HW120570   3.321   5.676   1.296
 6557SOL    HW220571   3.227   5.734   1.176
 6558SOL     OW20572   6.579   4.870   0.363
 6558SOL    HW120573   6.528   4.795   0.321
 6558SOL    HW220574   6.525   4.909   0.438
 6559SOL     OW20575   6.954   4.311   6.493
 6559SOL    HW120576   0.020   4.344   6.472
 6559SOL    HW220577   6.902   4.384   6.538
 6560SOL     OW20578   4.460   4.280   1.010
 6560SOL    HW120579   4.496   4.235   0.927
 6560SOL    HW220580   4.481   4.224   1.090
 6561SOL     OW20581   3.799   4.024   2.340
 6561SOL    HW120582   3.781   3.981   2.251
 6561SOL    HW220583   3.810   4.122   2.329
 6562SOL     OW20584   5.337   4.489   6.946
 6562SOL    HW120585   5.394   4.435   6.885
 6562SOL    HW220586   5.373   4.483   0.013
 6563SOL     OW20587   6.803   6.077   0.376
 6563SOL    HW120588   6.748   6.074   0.292
 6563SOL    HW220589   6.882   6.136   0.361
 6564SOL     OW20590   6.834   4.014   2.681
 6564SOL    HW120591   6.933   4.004   2.683
 6564SOL    HW220592   6.805   4.047   2.591
 6565SOL     OW20593   6.569   2.302   4.105
 6565SOL    HW120594   6.616   2.235   4.162
 6565SOL    HW220595   6.561   2.389   4.155
 6566SOL     OW20596   3.038   6.342   2.429
 6566SOL    HW120597   2.961   6.373   2.373
 6566SOL    HW220598   3.111   6.309   2.370
 6567SOL     OW20599   4.023   2.414   0.924
 6567SOL    HW120600   4.044   2.491   0.984
 6567SOL    HW220601   3.989   2.448   0.836
 6568SOL     OW20602   5.008   6.897   3.327
 6568SOL    HW120603   5.099   6.858   3.314
 6568SOL    HW220604   4.938   6.829   3.305
 6569SOL     OW20605   2.631   3.804   6.680
 6569SOL    HW120606   2.634   3.719   6.733
 6569SOL    HW220607   2.550   3.804   6.622
 6570SOL     OW20608   4.292   6.622   2.563
 6570SOL    HW120609   4.213   6.672   2.527
 6570SOL    HW220610   4.288   6.621   2.663
 6571SOL     OW20611   2.595   5.731   2.724
 6571SOL    HW120612   2.644   5.687   2.799
 6571SOL    HW220613   2.537   5.663   2.679
 6572SOL     OW20614   0.129   5.892   5.681
 6572SOL    HW120615   0.042   5.909   5.727
 6572SOL    HW220616   0.141   5.958   5.607
 6573SOL     OW20617   2.589   1.606   1.963
 6573SOL    HW120618   2.505   1.563   1.931
 6573SOL    HW220619   2.646   1.632   1.885
 6574SOL     OW20620   2.935   6.285   2.692
 6574SOL    HW120621   2.988   6.299   2.608
 6574SOL    HW220622   2.851   6.235   2.670
 6575SOL     OW20623   1.237   1.016   1.999
 6575SOL    HW120624   1.242   0.929   1.949
 6575SOL    HW220625   1.258   1.000   2.095
 6576SOL     OW20626   1.882   6.138   6.379
 6576SOL    HW120627   1.915   6.061   6.325
 6576SOL    HW220628   1.935   6.220   6.356
 6577SOL     OW20629   0.917   2.146   3.578
 6577SOL    HW120630   0.970   2.130   3.662
 6577SOL    HW220631   0.978   2.140   3.499
 6578SOL     OW20632   1.008   4.276   2.846
 6578SOL    HW120633   0.948   4.315   2.777
 6578SOL    HW220634   0.989   4.318   2.935
 6579SOL     OW20635   6.975   3.567   5.003
 6579SOL    HW120636   6.946   3.472   5.017
 6579SOL    HW220637   6.895   3.623   4.980
 6580SOL     OW20638   6.610   1.391   1.188
 6580SOL    HW120639   6.644   1.362   1.099
 6580SOL    HW220640   6.586   1.489   1.185
 6581SOL     OW20641   2.754   1.486   6.647
 6581SOL    HW120642   2.786   1.555   6.713
 6581SOL    HW220643   2.798   1.503   6.559
 6582SOL     OW20644   1.628   1.229   1.548
 6582SOL    HW120645   1.577   1.149   1.579
 6582SOL    HW220646   1.716   1.199   1.510
 6583SOL     OW20647   4.537   0.384   4.954
 6583SOL    HW120648   4.621   0.352   4.998
 6583SOL    HW220649   4.543   0.482   4.939
 6584SOL     OW20650   4.969   1.918   6.607
 6584SOL    HW120651   5.012   1.936   6.518
 6584SOL    HW220652   4.881   1.966   6.612
 6585SOL     OW20653   6.881   0.058   6.893
 6585SOL    HW120654   6.837   0.135   6.847
 6585SOL    HW220655   6.863   0.064   6.991
 6586SOL     OW20656   6.178   1.832   5.820
 6586SOL    HW120657   6.231   1.870   5.745
 6586SOL    HW220658   6.225   1.751   5.856
 6587SOL     OW20659   2.493   6.388   5.348
 6587SOL    HW120660   2.500   6.471   5.404
 6587SOL    HW220661   2.404   6.386   5.302
 6588SOL     OW20662   1.617   3.525   1.946
 6588SOL    HW120663   1.524   3.557   1.925
 6588SOL    HW220664   1.644   3.455   1.880
 6589SOL     OW20665   4.688   0.329   0.510
 6589SOL    HW120666   4.696   0.235   0.543
 6589SOL    HW220667   4.779   0.370   0.502
 6590SOL     OW20668   0.912   1.415   5.755
 6590SOL    HW120669   0.819   1.405   5.790
 6590SOL    HW220670   0.976   1.372   5.818
 6591SOL     OW20671   5.283   6.104   2.509
 6591SOL    HW120672   5.277   6.017   2.558
 6591SOL    HW220673   5.268   6.089   2.412
 6592SOL     OW20674   5.898   6.254   3.965
 6592SOL    HW120675   5.995   6.277   3.968
 6592SOL    HW220676   5.850   6.303   4.038
 6593SOL     OW20677   2.795   1.560   3.954
 6593SOL    HW120678   2.823   1.554   3.858
 6593SOL    HW220679   2.700   1.528   3.962
 6594SOL     OW20680   3.814   1.341   0.032
 6594SOL    HW120681   3.798   1.257   0.083
 6594SOL    HW220682   3.738   1.355   6.995
 6595SOL     OW20683   0.705   2.370   1.088
 6595SOL    HW120684   0.718   2.441   1.157
 6595SOL    HW220685   0.790   2.319   1.075
 6596SOL     OW20686   3.315   6.920   4.337
 6596SOL    HW120687   3.252   6.987   4.376
 6596SOL    HW220688   3.405   6.963   4.325
 6597SOL     OW20689   2.165   6.308   3.108
 6597SOL    HW120690   2.234   6.270   3.047
 6597SOL    HW220691   2.197   6.395   3.145
 6598SOL     OW20692   0.509   0.345   4.443
 6598SOL    HW120693   0.541   0.384   4.356
 6598SOL    HW220694   0.584   0.345   4.509
 6599SOL     OW20695   4.320   5.904   5.473
 6599SOL    HW120696   4.324   5.983   5.411
 6599SOL    HW220697   4.246   5.917   5.539
 6600SOL     OW20698   4.980   5.344   6.039
 6600SOL    HW120699   4.998   5.322   5.943
 6600SOL    HW220700   4.995   5.262   6.095
 6601SOL     OW20701   1.037   1.590   5.545
 6601SOL    HW120702   0.996   1.539   5.621
 6601SOL    HW220703   0.989   1.677   5.534
 6602SOL     OW20704   0.301   1.861   1.829
 6602SOL    HW120705   0.397   1.856   1.857
 6602SOL    HW220706   0.247   1.797   1.885
 6603SOL     OW20707   0.395   2.534   3.883
 6603SOL    HW120708   0.362   2.459   3.826
 6603SOL    HW220709   0.417   2.612   3.825
 6604SOL     OW20710   2.361   6.322   0.692
 6604SOL    HW120711   2.324   6.264   0.765
 6604SOL    HW220712   2.336   6.417   0.710
 6605SOL     OW20713   5.550   4.365   1.667
 6605SOL    HW120714   5.475   4.348   1.730
 6605SOL    HW220715   5.514   4.389   1.577
 6606SOL     OW20716   6.662   6.815   2.357
 6606SOL    HW120717   6.672   6.914   2.358
 6606SOL    HW220718   6.748   6.772   2.385
 6607SOL     OW20719   1.862   2.429   2.132
 6607SOL    HW120720   1.876   2.345   2.185
 6607SOL    HW220721   1.774   2.425   2.086
 6608SOL     OW20722   5.253   6.093   2.250
 6608SOL    HW120723   5.219   6.176   2.206
 6608SOL    HW220724   5.318   6.047   2.188
 6609SOL     OW20725   4.832   0.782   6.232
 6609SOL    HW120726   4.768   0.709   6.258
 6609SOL    HW220727   4.815   0.809   6.138
 6610SOL     OW20728   2.679   1.233   6.615
 6610SOL    HW120729   2.764   1.188   6.643
 6610SOL    HW220730   2.692   1.332   6.615
 6611SOL     OW20731   6.015   3.174   4.210
 6611SOL    HW120732   6.056   3.265   4.200
 6611SOL    HW220733   5.990   3.159   4.306
 6612SOL     OW20734   6.760   2.127   6.886
 6612SOL    HW120735   6.681   2.071   6.912
 6612SOL    HW220736   6.743   2.222   6.911
 6613SOL     OW20737   6.228   6.174   5.085
 6613SOL    HW120738   6.262   6.265   5.111
 6613SOL    HW220739   6.140   6.184   5.038
 6614SOL     OW20740   5.255   6.130   0.195
 6614SOL    HW120741   5.265   6.221   0.154
 6614SOL    HW220742   5.344   6.101   0.232
 6615SOL     OW20743   0.565   4.549   3.046
 6615SOL    HW120744   0.531   4.533   3.139
 6615SOL    HW220745   0.546   4.469   2.989
 6616SOL     OW20746   4.199   1.017   6.028
 6616SOL    HW120747   4.100   1.021   6.037
 6616SOL    HW220748   4.234   0.935   6.073
 6617SOL     OW20749   3.502   5.405   2.704
 6617SOL    HW120750   3.506   5.500   2.735
 6617SOL    HW220751   3.436   5.355   2.760
 6618SOL     OW20752   1.611   3.667   3.097
 6618SOL    HW120753   1.549   3.686   3.021
 6618SOL    HW220754   1.564   3.612   3.166
 6619SOL     OW20755   6.406   0.532   4.676
 6619SOL    HW120756   6.312   0.511   4.649
 6619SOL    HW220757   6.468   0.464   4.637
 6620SOL     OW20758   2.118   2.607   5.282
 6620SOL    HW120759   2.029   2.649   5.266
 6620SOL    HW220760   2.176   2.620   5.201
 6621SOL     OW20761   2.329   3.631   6.513
 6621SOL    HW120762   2.313   3.701   6.582
 6621SOL    HW220763   2.353   3.545   6.557
 6622SOL     OW20764   5.500   6.496   1.764
 6622SOL    HW120765   5.599   6.493   1.748
 6622SOL    HW220766   5.480   6.567   1.831
 6623SOL     OW20767   2.373   3.385   6.679
 6623SOL    HW120768   2.346   3.318   6.610
 6623SOL    HW220769   2.441   3.345   6.740
 6624SOL     OW20770   1.893   7.002   4.274
 6624SOL    HW120771   1.913   6.907   4.249
 6624SOL    HW220772   1.822   7.003   4.345
 6625SOL     OW20773   5.562   1.918   5.914
 6625SOL    HW120774   5.522   1.887   6.001
 6625SOL    HW220775   5.620   1.845   5.876
 6626SOL     OW20776   4.302   5.042   5.475
 6626SOL    HW120777   4.311   4.943   5.462
 6626SOL    HW220778   4.258   5.083   5.395
 6627SOL     OW20779   2.538   0.797   6.026
 6627SOL    HW120780   2.521   0.724   5.960
 6627SOL    HW220781   2.487   0.879   6.001
 6628SOL     OW20782   4.542   4.472   4.488
 6628SOL    HW120783   4.571   4.542   4.423
 6628SOL    HW220784   4.459   4.502   4.534
 6629SOL     OW20785   4.067   5.884   0.079
 6629SOL    HW120786   4.131   5.825   0.029
 6629SOL    HW220787   4.043   5.962   0.022
 6630SOL     OW20788   3.727   1.311   1.720
 6630SOL    HW120789   3.820   1.278   1.737
 6630SOL    HW220790   3.710   1.394   1.773
 6631SOL     OW20791   3.155   6.960   2.410
 6631SOL    HW120792   3.169   0.030   2.386
 6631SOL    HW220793   3.122   6.911   2.329
 6632SOL     OW20794   0.469   6.022   1.489
 6632SOL    HW120795   0.487   5.953   1.418
 6632SOL    HW220796   0.460   5.976   1.577
 6633SOL     OW20797   0.593   3.642   6.092
 6633SOL    HW120798   0.641   3.555   6.106
 6633SOL    HW220799   0.509   3.626   6.042
 6634SOL     OW20800   6.207   2.777   4.406
 6634SOL    HW120801   6.142   2.825   4.465
 6634SOL    HW220802   6.256   2.708   4.459
 6635SOL     OW20803   4.279   4.927   3.099
 6635SOL    HW120804   4.276   4.931   3.199
 6635SOL    HW220805   4.207   4.866   3.066
 6636SOL     OW20806   4.512   1.512   5.795
 6636SOL    HW120807   4.581   1.491   5.725
 6636SOL    HW220808   4.427   1.539   5.750
 6637SOL     OW20809   1.471   0.132   6.182
 6637SOL    HW120810   1.457   0.087   6.094
 6637SOL    HW220811   1.563   0.173   6.185
 6638SOL     OW20812   3.306   4.009   4.291
 6638SOL    HW120813   3.327   3.984   4.386
 6638SOL    HW220814   3.382   4.062   4.254
 6639SOL     OW20815   5.858   5.442   6.514
 6639SOL    HW120816   5.785   5.510   6.521
 6639SOL    HW220817   5.843   5.384   6.434
 6640SOL     OW20818   0.943   1.525   4.980
 6640SOL    HW120819   0.846   1.523   4.956
 6640SOL    HW220820   0.954   1.569   5.069
 6641SOL     OW20821   2.442   2.412   0.160
 6641SOL    HW120822   2.534   2.440   0.184
 6641SOL    HW220823   2.386   2.492   0.140
 6642SOL     OW20824   2.811   5.329   6.718
 6642SOL    HW120825   2.807   5.384   6.801
 6642SOL    HW220826   2.898   5.279   6.716
 6643SOL     OW20827   6.961   5.863   6.479
 6643SOL    HW120828   0.026   5.892   6.509
 6643SOL    HW220829   6.952   5.764   6.490
 6644SOL     OW20830   2.772   4.759   2.130
 6644SOL    HW120831   2.784   4.697   2.053
 6644SOL    HW220832   2.854   4.759   2.186
 6645SOL     OW20833   0.003   4.974   0.593
 6645SOL    HW120834   0.060   5.004   0.516
 6645SOL    HW220835   6.947   4.929   0.558
 6646SOL     OW20836   3.556   6.856   4.718
 6646SOL    HW120837   3.614   6.874   4.638
 6646SOL    HW220838   3.483   6.793   4.692
 6647SOL     OW20839   4.384   1.060   2.467
 6647SOL    HW120840   4.288   1.038   2.450
 6647SOL    HW220841   4.434   0.976   2.484
 6648SOL     OW20842   3.420   5.842   3.065
 6648SOL    HW120843   3.505   5.859   3.015
 6648SOL    HW220844   3.342   5.863   3.006
 6649SOL     OW20845   5.517   0.994   7.004
 6649SOL    HW120846   5.558   0.943   6.928
 6649SOL    HW220847   5.485   1.082   6.970
 6650SOL     OW20848   3.093   1.691   4.867
 6650SOL    HW120849   3.160   1.745   4.919
 6650SOL    HW220850   3.132   1.601   4.846
 6651SOL     OW20851   2.079   1.770   6.549
 6651SOL    HW120852   2.065   1.672   6.562
 6651SOL    HW220853   2.176   1.788   6.533
 6652SOL     OW20854   6.872   4.328   0.591
 6652SOL    HW120855   6.830   4.412   0.626
 6652SOL    HW220856   6.839   4.310   0.498
 6653SOL     OW20857   3.636   2.880   2.100
 6653SOL    HW120858   3.573   2.811   2.064
 6653SOL    HW220859   3.728   2.840   2.109
 6654SOL     OW20860   1.700   3.241   1.522
 6654SOL    HW120861   1.756   3.196   1.592
 6654SOL    HW220862   1.752   3.249   1.437
 6655SOL     OW20863   2.586   6.932   1.903
 6655SOL    HW120864   2.677   6.967   1.879
 6655SOL    HW220865   2.518   6.972   1.842
 6656SOL     OW20866   6.117   1.654   1.874
 6656SOL    HW120867   6.204   1.642   1.826
 6656SOL    HW220868   6.088   1.567   1.912
 6657SOL     OW20869   5.684   6.250   6.679
 6657SOL    HW120870   5.610   6.244   6.612
 6657SOL    HW220871   5.764   6.291   6.636
 6658SOL     OW20872   6.219   1.193   4.946
 6658SOL    HW120873   6.225   1.123   4.875
 6658SOL    HW220874   6.127   1.196   4.983
 6659SOL     OW20875   1.985   1.899   0.669
 6659SOL    HW120876   2.042   1.963   0.720
 6659SOL    HW220877   2.043   1.830   0.626
 6660SOL     OW20878   0.567   5.869   0.572
 6660SOL    HW120879   0.632   5.799   0.599
 6660SOL    HW220880   0.476   5.830   0.565
 6661SOL     OW20881   1.165   6.228   4.413
 6661SOL    HW120882   1.161   6.189   4.321
 6661SOL    HW220883   1.261   6.236   4.441
 6662SOL     OW20884   1.337   1.113   0.209
 6662SOL    HW120885   1.385   1.025   0.219
 6662SOL    HW220886   1.319   1.151   0.299
 6663SOL     OW20887   6.863   5.351   3.593
 6663SOL    HW120888   6.790   5.341   3.660
 6663SOL    HW220889   6.834   5.416   3.522
 6664SOL     OW20890   1.950   6.842   0.389
 6664SOL    HW120891   2.033   6.859   0.442
 6664SOL    HW220892   1.965   6.768   0.324
 6665SOL     OW20893   1.333   0.098   3.411
 6665SOL    HW120894   1.366   0.107   3.505
 6665SOL    HW220895   1.353   0.006   3.378
 6666SOL     OW20896   5.415   6.762   6.169
 6666SOL    HW120897   5.498   6.711   6.146
 6666SOL    HW220898   5.427   6.858   6.145
 6667SOL     OW20899   6.806   5.526   6.298
 6667SOL    HW120900   6.867   5.580   6.240
 6667SOL    HW220901   6.777   5.581   6.376
 6668SOL     OW20902   6.438   5.721   1.953
 6668SOL    HW120903   6.463   5.818   1.957
 6668SOL    HW220904   6.402   5.691   2.041
 6669SOL     OW20905   1.825   2.927   3.853
 6669SOL    HW120906   1.874   2.844   3.877
 6669SOL    HW220907   1.815   2.985   3.935
 6670SOL     OW20908   3.843   1.840   5.709
 6670SOL    HW120909   3.826   1.803   5.618
 6670SOL    HW220910   3.903   1.919   5.703
 6671SOL     OW20911   5.828   5.367   1.310
 6671SOL    HW120912   5.831   5.328   1.218
 6671SOL    HW220913   5.784   5.457   1.307
 6672SOL     OW20914   0.393   2.194   5.608
 6672SOL    HW120915   0.447   2.175   5.526
 6672SOL    HW220916   0.374   2.109   5.657
 6673SOL     OW20917   4.875   6.007   3.736
 6673SOL    HW120918   4.918   6.028   3.824
 6673SOL    HW220919   4.784   5.969   3.752
 6674SOL     OW20920   1.172   4.750   5.888
 6674SOL    HW120921   1.217   4.769   5.801
 6674SOL    HW220922   1.076   4.778   5.883
 6675SOL     OW20923   4.260   4.085   1.671
 6675SOL    HW120924   4.330   4.121   1.732
 6675SOL    HW220925   4.180   4.057   1.724
 6676SOL     OW20926   0.000   4.639   5.269
 6676SOL    HW120927   7.018   4.666   5.173
 6676SOL    HW220928   0.097   4.623   5.290
 6677SOL     OW20929   0.438   1.907   6.460
 6677SOL    HW120930   0.477   1.963   6.533
 6677SOL    HW220931   0.479   1.932   6.372
 6678SOL     OW20932   2.233   3.034   6.980
 6678SOL    HW120933   2.318   3.084   6.996
 6678SOL    HW220934   2.245   2.972   6.903
 6679SOL     OW20935   3.052   1.946   3.622
 6679SOL    HW120936   3.086   2.032   3.659
 6679SOL    HW220937   2.967   1.920   3.669
 6680SOL     OW20938   4.592   0.137   6.378
 6680SOL    HW120939   4.501   0.100   6.397
 6680SOL    HW220940   4.585   0.211   6.310
 6681SOL     OW20941   4.478   5.457   0.804
 6681SOL    HW120942   4.424   5.384   0.763
 6681SOL    HW220943   4.423   5.503   0.875
 6682SOL     OW20944   1.608   4.204   2.718
 6682SOL    HW120945   1.699   4.217   2.756
 6682SOL    HW220946   1.561   4.131   2.768
 6683SOL     OW20947   5.385   3.359   5.457
 6683SOL    HW120948   5.298   3.328   5.419
 6683SOL    HW220949   5.367   3.418   5.536
 6684SOL     OW20950   2.707   5.947   0.945
 6684SOL    HW120951   2.730   6.039   0.914
 6684SOL    HW220952   2.706   5.884   0.867
 6685SOL     OW20953   5.943   2.818   6.278
 6685SOL    HW120954   5.920   2.914   6.261
 6685SOL    HW220955   5.955   2.771   6.190
 6686SOL     OW20956   5.018   6.241   4.457
 6686SOL    HW120957   4.951   6.180   4.497
 6686SOL    HW220958   5.076   6.280   4.529
 6687SOL     OW20959   0.409   2.796   0.817
 6687SOL    HW120960   0.380   2.707   0.852
 6687SOL    HW220961   0.473   2.838   0.881
 6688SOL     OW20962   6.769   4.216   1.922
 6688SOL    HW120963   6.807   4.127   1.947
 6688SOL    HW220964   6.839   4.287   1.930
 6689SOL     OW20965   4.392   3.427   0.224
 6689SOL    HW120966   4.345   3.423   0.135
 6689SOL    HW220967   4.446   3.511   0.229
 6690SOL     OW20968   2.535   1.329   1.104
 6690SOL    HW120969   2.590   1.269   1.046
 6690SOL    HW220970   2.485   1.274   1.170
 6691SOL     OW20971   3.006   6.612   1.506
 6691SOL    HW120972   3.054   6.563   1.579
 6691SOL    HW220973   2.936   6.552   1.466
 6692SOL     OW20974   3.789   4.193   5.620
 6692SOL    HW120975   3.808   4.167   5.715
 6692SOL    HW220976   3.872   4.183   5.565
 6693SOL     OW20977   4.367   3.641   6.073
 6693SOL    HW120978   4.374   3.545   6.102
 6693SOL    HW220979   4.364   3.700   6.154
 6694SOL     OW20980   5.226   5.284   0.479
 6694SOL    HW120981   5.162   5.271   0.556
 6694SOL    HW220982   5.202   5.221   0.405
 6695SOL     OW20983   2.831   2.228   6.510
 6695SOL    HW120984   2.782   2.254   6.593
 6695SOL    HW220985   2.899   2.158   6.532
 6696SOL     OW20986   1.076   3.029   0.060
 6696SOL    HW120987   1.077   3.037   6.987
 6696SOL    HW220988   1.095   3.118   0.101
 6697SOL     OW20989   5.102   2.730   2.930
 6697SOL    HW120990   5.161   2.789   2.985
 6697SOL    HW220991   5.069   2.780   2.850
 6698SOL     OW20992   2.886   2.677   0.941
 6698SOL    HW120993   2.812   2.611   0.945
 6698SOL    HW220994   2.877   2.732   0.858
 6699SOL     OW20995   3.191   5.274   6.295
 6699SOL    HW120996   3.198   5.371   6.273
 6699SOL    HW220997   3.096   5.245   6.289
 6700SOL     OW20998   6.861   6.224   0.825
 6700SOL    HW120999   6.846   6.303   0.884
 6700SOL    HW221000   6.872   6.142   0.882
 6701SOL     OW21001   5.726   2.894   0.971
 6701SOL    HW121002   5.671   2.966   0.929
 6701SOL    HW221003   5.823   2.912   0.957
 6702SOL     OW21004   3.112   2.818   1.579
 6702SOL    HW121005   3.137   2.743   1.640
 6702SOL    HW221006   3.114   2.786   1.484
 6703SOL     OW21007   6.040   1.741   0.007
 6703SOL    HW121008   5.953   1.769   0.047
 6703SOL    HW221009   6.114   1.790   0.054
 6704SOL     OW21010   4.468   2.193   2.680
 6704SOL    HW121011   4.419   2.146   2.607
 6704SOL    HW221012   4.514   2.125   2.739
 6705SOL     OW21013   6.673   2.609   1.522
 6705SOL    HW121014   6.728   2.645   1.598
 6705SOL    HW221015   6.683   2.669   1.443
 6706SOL     OW21016   0.434   4.320   1.679
 6706SOL    HW121017   0.453   4.224   1.662
 6706SOL    HW221018   0.432   4.337   1.778
 6707SOL     OW21019   6.949   6.236   3.809
 6707SOL    HW121020   6.919   6.288   3.889
 6707SOL    HW221021   6.961   6.140   3.833
 6708SOL     OW21022   0.773   5.117   2.558
 6708SOL    HW121023   0.716   5.191   2.594
 6708SOL    HW221024   0.757   5.034   2.610
 6709SOL     OW21025   3.262   6.666   1.957
 6709SOL    HW121026   3.238   6.712   1.871
 6709SOL    HW221027   3.224   6.573   1.955
 6710SOL     OW21028   2.848   0.721   5.724
 6710SOL    HW121029   2.815   0.799   5.671
 6710SOL    HW221030   2.841   0.741   5.821
 6711SOL     OW21031   5.315   4.820   6.826
 6711SOL    HW121032   5.249   4.825   6.901
 6711SOL    HW221033   5.298   4.738   6.772
 6712SOL     OW21034   4.826   5.156   0.488
 6712SOL    HW121035   4.774   5.209   0.555
 6712SOL    HW221036   4.890   5.096   0.535
 6713SOL     OW21037   2.421   2.041   1.874
 6713SOL    HW121038   2.347   1.974   1.874
 6713SOL    HW221039   2.445   2.064   1.780
 6714SOL     OW21040   5.606   0.537   6.401
 6714SOL    HW121041   5.588   0.631   6.428
 6714SOL    HW221042   5.705   0.520   6.401
 6715SOL     OW21043   0.689   0.018   6.471
 6715SOL    HW121044   0.695   0.039   6.374
 6715SOL    HW221045   0.647   6.955   6.483
 6716SOL     OW21046   0.236   5.530   2.107
 6716SOL    HW121047   0.177   5.502   2.184
 6716SOL    HW221048   0.282   5.450   2.070
 6717SOL     OW21049   4.523   3.193   0.658
 6717SOL    HW121050   4.447   3.163   0.600
 6717SOL    HW221051   4.497   3.278   0.704
 6718SOL     OW21052   4.560   6.657   6.025
 6718SOL    HW121053   4.612   6.586   6.073
 6718SOL    HW221054   4.462   6.639   6.033
 6719SOL     OW21055   0.786   0.005   5.727
 6719SOL    HW121056   0.745   7.002   5.813
 6719SOL    HW221057   0.783   0.105   5.722
 6720SOL     OW21058   0.740   5.511   2.917
 6720SOL    HW121059   0.727   5.610   2.906
 6720SOL    HW221060   0.813   5.495   2.984
 6721SOL     OW21061   6.328   6.944   5.253
 6721SOL    HW121062   6.243   6.938   5.202
 6721SOL    HW221063   6.400   6.981   5.194
 6722SOL     OW21064   6.102   3.411   1.628
 6722SOL    HW121065   6.101   3.510   1.613
 6722SOL    HW221066   6.056   3.389   1.714
 6723SOL     OW21067   2.223   6.699   2.555
 6723SOL    HW121068   2.281   6.662   2.626
 6723SOL    HW221069   2.279   6.737   2.481
 6724SOL     OW21070   1.331   3.344   5.979
 6724SOL    HW121071   1.273   3.284   5.923
 6724SOL    HW221072   1.341   3.305   6.070
 6725SOL     OW21073   0.875   4.525   1.149
 6725SOL    HW121074   0.910   4.548   1.240
 6725SOL    HW221075   0.872   4.608   1.093
 6726SOL     OW21076   0.911   2.238   4.827
 6726SOL    HW121077   0.959   2.273   4.907
 6726SOL    HW221078   0.882   2.315   4.769
 6727SOL     OW21079   6.430   3.530   5.801
 6727SOL    HW121080   6.527   3.507   5.811
 6727SOL    HW221081   6.398   3.576   5.884
 6728SOL     OW21082   5.175   1.592   4.294
 6728SOL    HW121083   5.209   1.682   4.269
 6728SOL    HW221084   5.248   1.525   4.285
 6729SOL     OW21085   0.385   1.060   2.188
 6729SOL    HW121086   0.413   1.036   2.281
 6729SOL    HW221087   0.375   1.160   2.182
 6730SOL     OW21088   2.425   6.459   6.377
 6730SOL    HW121089   2.433   6.544   6.428
 6730SOL    HW221090   2.433   6.381   6.439
 6731SOL     OW21091   1.220   4.758   1.123
 6731SOL    HW121092   1.155   4.737   1.050
 6731SOL    HW221093   1.219   4.685   1.191
 6732SOL     OW21094   4.358   5.326   6.570
 6732SOL    HW121095   4.362   5.425   6.559
 6732SOL    HW221096   4.451   5.289   6.564
 6733SOL     OW21097   3.656   5.593   0.438
 6733SOL    HW121098   3.716   5.664   0.473
 6733SOL    HW221099   3.662   5.512   0.496
 6734SOL     OW21100   6.670   2.753   5.110
 6734SOL    HW121101   6.682   2.824   5.180
 6734SOL    HW221102   6.668   2.796   5.020
 6735SOL     OW21103   0.089   5.374   5.043
 6735SOL    HW121104   0.028   5.314   4.991
 6735SOL    HW221105   0.149   5.422   4.979
 6736SOL     OW21106   2.170   2.929   0.375
 6736SOL    HW121107   2.224   3.012   0.361
 6736SOL    HW221108   2.107   2.916   0.298
 6737SOL     OW21109   2.216   2.684   1.030
 6737SOL    HW121110   2.157   2.763   1.019
 6737SOL    HW221111   2.275   2.674   0.950
 6738SOL     OW21112   2.075   3.708   2.263
 6738SOL    HW121113   2.060   3.796   2.218
 6738SOL    HW221114   2.140   3.720   2.338
 6739SOL     OW21115   3.646   5.076   6.218
 6739SOL    HW121116   3.691   5.127   6.145
 6739SOL    HW221117   3.547   5.076   6.202
 6740SOL     OW21118   1.652   1.444   4.474
 6740SOL    HW121119   1.736   1.427   4.525
 6740SOL    HW221120   1.585   1.488   4.534
 6741SOL     OW21121   4.752   0.944   6.021
 6741SOL    HW121122   4.841   0.988   6.022
 6741SOL    HW221123   4.680   1.014   6.022
 6742SOL     OW21124   0.014   5.428   2.894
 6742SOL    HW121125   0.094   5.369   2.881
 6742SOL    HW221126   0.023   5.509   2.837
 6743SOL     OW21127   4.045   4.516   0.337
 6743SOL    HW121128   4.068   4.558   0.425
 6743SOL    HW221129   3.974   4.571   0.292
 6744SOL     OW21130   5.217   5.493   5.447
 6744SOL    HW121131   5.144   5.435   5.483
 6744SOL    HW221132   5.190   5.589   5.455
 6745SOL     OW21133   0.786   6.421   2.268
 6745SOL    HW121134   0.847   6.493   2.234
 6745SOL    HW221135   0.837   6.336   2.280
 6746SOL     OW21136   0.914   0.823   3.263
 6746SOL    HW121137   1.004   0.851   3.228
 6746SOL    HW221138   0.843   0.881   3.224
 6747SOL     OW21139   5.373   0.010   4.867
 6747SOL    HW121140   5.388   6.938   4.876
 6747SOL    HW221141   5.356   0.049   4.958
 6748SOL     OW21142   1.189   0.696   2.880
 6748SOL    HW121143   1.149   0.758   2.812
 6748SOL    HW221144   1.263   0.743   2.929
 6749SOL     OW21145   2.791   5.710   0.139
 6749SOL    HW121146   2.791   5.639   0.210
 6749SOL    HW221147   2.865   5.693   0.074
 6750SOL     OW21148   4.079   1.076   5.041
 6750SOL    HW121149   4.049   1.015   5.114
 6750SOL    HW221150   4.008   1.144   5.023
 6751SOL     OW21151   4.031   1.616   4.168
 6751SOL    HW121152   4.113   1.632   4.222
 6751SOL    HW221153   4.056   1.588   4.076
 6752SOL     OW21154   6.321   3.402   2.249
 6752SOL    HW121155   6.348   3.465   2.322
 6752SOL    HW221156   6.399   3.345   2.224
 6753SOL     OW21157   4.760   1.040   6.649
 6753SOL    HW121158   4.812   0.980   6.709
 6753SOL    HW221159   4.811   1.054   6.564
 6754SOL     OW21160   6.409   1.988   6.131
 6754SOL    HW121161   6.460   1.910   6.096
 6754SOL    HW221162   6.318   1.989   6.090
 6755SOL     OW21163   4.624   1.887   3.648
 6755SOL    HW121164   4.657   1.976   3.680
 6755SOL    HW221165   4.642   1.879   3.550
 6756SOL     OW21166   4.709   4.391   4.704
 6756SOL    HW121167   4.677   4.439   4.786
 6756SOL    HW221168   4.652   4.416   4.626
 6757SOL     OW21169   4.935   6.231   0.746
 6757SOL    HW121170   4.876   6.311   0.751
 6757SOL    HW221171   4.880   6.148   0.745
 6758SOL     OW21172   6.336   3.735   1.376
 6758SOL    HW121173   6.346   3.729   1.476
 6758SOL    HW221174   6.243   3.708   1.350
 6759SOL     OW21175   1.304   3.630   4.431
 6759SOL    HW121176   1.317   3.638   4.530
 6759SOL    HW221177   1.217   3.584   4.413
 6760SOL     OW21178   6.664   5.142   4.500
 6760SOL    HW121179   6.594   5.213   4.506
 6760SOL    HW221180   6.660   5.085   4.582
 6761SOL     OW21181   5.957   2.488   6.261
 6761SOL    HW121182   5.880   2.475   6.323
 6761SOL    HW221183   6.042   2.476   6.311
 6762SOL     OW21184   6.807   5.527   3.374
 6762SOL    HW121185   6.875   5.576   3.320
 6762SOL    HW221186   6.756   5.465   3.315
 6763SOL     OW21187   6.551   5.911   3.836
 6763SOL    HW121188   6.589   5.911   3.928
 6763SOL    HW221189   6.573   5.825   3.790
 6764SOL     OW21190   2.828   5.011   6.785
 6764SOL    HW121191   2.914   5.056   6.763
 6764SOL    HW221192   2.803   4.949   6.711
 6765SOL     OW21193   5.057   5.360   3.211
 6765SOL    HW121194   5.108   5.446   3.215
 6765SOL    HW221195   5.015   5.342   3.300
 6766SOL     OW21196   3.482   6.818   6.877
 6766SOL    HW121197   3.504   6.726   6.845
 6766SOL    HW221198   3.555   6.852   6.935
 6767SOL     OW21199   0.428   2.272   1.119
 6767SOL    HW121200   0.406   2.230   1.031
 6767SOL    HW221201   0.525   2.298   1.121
 6768SOL     OW21202   0.904   0.121   3.700
 6768SOL    HW121203   0.974   0.171   3.751
 6768SOL    HW221204   0.834   0.088   3.763
 6769SOL     OW21205   2.774   1.271   5.242
 6769SOL    HW121206   2.822   1.345   5.195
 6769SOL    HW221207   2.840   1.205   5.278
 6770SOL     OW21208   6.775   2.132   3.441
 6770SOL    HW121209   6.767   2.032   3.432
 6770SOL    HW221210   6.779   2.156   3.538
 6771SOL     OW21211   4.003   2.201   3.561
 6771SOL    HW121212   4.083   2.247   3.599
 6771SOL    HW221213   4.032   2.137   3.490
 6772SOL     OW21214   5.476   1.434   2.181
 6772SOL    HW121215   5.474   1.336   2.165
 6772SOL    HW221216   5.568   1.469   2.166
 6773SOL     OW21217   0.454   6.845   1.293
 6773SOL    HW121218   0.430   6.766   1.238
 6773SOL    HW221219   0.444   6.928   1.238
 6774SOL     OW21220   1.938   2.040   5.143
 6774SOL    HW121221   2.035   2.047   5.119
 6774SOL    HW221222   1.928   2.048   5.242
 6775SOL     OW21223   0.568   2.209   3.391
 6775SOL    HW121224   0.546   2.298   3.431
 6775SOL    HW221225   0.503   2.141   3.424
 6776SOL     OW21226   4.155   3.705   2.183
 6776SOL    HW121227   4.109   3.788   2.153
 6776SOL    HW221228   4.233   3.686   2.123
 6777SOL     OW21229   4.502   5.276   1.053
 6777SOL    HW121230   4.480   5.179   1.045
 6777SOL    HW221231   4.575   5.299   0.988
 6778SOL     OW21232   5.675   2.936   2.285
 6778SOL    HW121233   5.691   2.910   2.190
 6778SOL    HW221234   5.760   2.931   2.336
 6779SOL     OW21235   5.349   4.459   6.314
 6779SOL    HW121236   5.300   4.372   6.318
 6779SOL    HW221237   5.405   4.470   6.396
 6780SOL     OW21238   1.903   3.528   2.589
 6780SOL    HW121239   1.944   3.533   2.679
 6780SOL    HW221240   1.817   3.477   2.594
 6781SOL     OW21241   6.623   1.298   3.367
 6781SOL    HW121242   6.723   1.304   3.361
 6781SOL    HW221243   6.589   1.234   3.298
 6782SOL     OW21244   1.209   0.866   3.625
 6782SOL    HW121245   1.221   0.959   3.589
 6782SOL    HW221246   1.215   0.800   3.550
 6783SOL     OW21247   0.846   4.029   4.713
 6783SOL    HW121248   0.752   4.063   4.723
 6783SOL    HW221249   0.883   4.007   4.804
 6784SOL     OW21250   2.704   4.215   1.656
 6784SOL    HW121251   2.701   4.313   1.675
 6784SOL    HW221252   2.799   4.184   1.656
 6785SOL     OW21253   5.736   4.764   5.615
 6785SOL    HW121254   5.775   4.851   5.586
 6785SOL    HW221255   5.756   4.748   5.712
 6786SOL     OW21256   6.673   2.819   0.212
 6786SOL    HW121257   6.668   2.726   0.247
 6786SOL    HW221258   6.646   2.819   0.115
 6787SOL     OW21259   3.158   2.304   1.325
 6787SOL    HW121260   3.125   2.234   1.388
 6787SOL    HW221261   3.083   2.332   1.264
 6788SOL     OW21262   0.222   3.766   2.488
 6788SOL    HW121263   0.142   3.756   2.429
 6788SOL    HW221264   0.249   3.863   2.491
 6789SOL     OW21265   0.104   4.792   4.630
 6789SOL    HW121266   0.058   4.709   4.597
 6789SOL    HW221267   0.126   4.851   4.552
 6790SOL     OW21268   0.203   4.711   6.222
 6790SOL    HW121269   0.238   4.669   6.305
 6790SOL    HW221270   0.280   4.734   6.161
 6791SOL     OW21271   4.828   2.045   3.202
 6791SOL    HW121272   4.923   2.043   3.234
 6791SOL    HW221273   4.771   1.989   3.262
 6792SOL     OW21274   4.084   6.836   5.641
 6792SOL    HW121275   4.122   6.891   5.715
 6792SOL    HW221276   4.000   6.878   5.608
 6793SOL     OW21277   3.205   2.011   0.049
 6793SOL    HW121278   3.250   1.971   0.129
 6793SOL    HW221279   3.143   1.943   0.009
 6794SOL     OW21280   4.893   0.913   5.743
 6794SOL    HW121281   4.799   0.945   5.730
 6794SOL    HW221282   4.893   0.833   5.802
 6795SOL     OW21283   1.068   0.092   0.857
 6795SOL    HW121284   1.000   0.045   0.800
 6795SOL    HW221285   1.029   0.179   0.889
 6796SOL     OW21286   5.465   1.164   2.155
 6796SOL    HW121287   5.376   1.153   2.197
 6796SOL    HW221288   5.475   1.099   2.080
 6797SOL     OW21289   6.371   2.552   1.251
 6797SOL    HW121290   6.313   2.623   1.210
 6797SOL    HW221291   6.319   2.503   1.321
 6798SOL     OW21292   5.251   6.786   1.474
 6798SOL    HW121293   5.289   6.849   1.407
 6798SOL    HW221294   5.152   6.798   1.478
 6799SOL     OW21295   5.538   0.615   2.739
 6799SOL    HW121296   5.530   0.703   2.785
 6799SOL    HW221297   5.447   0.577   2.723
 6800SOL     OW21298   2.044   1.989   1.380
 6800SOL    HW121299   2.060   2.013   1.475
 6800SOL    HW221300   2.091   1.903   1.359
 6801SOL     OW21301   1.444   6.267   4.285
 6801SOL    HW121302   1.533   6.292   4.248
 6801SOL    HW221303   1.442   6.287   4.383
 6802SOL     OW21304   3.531   6.270   1.072
 6802SOL    HW121305   3.513   6.221   0.987
 6802SOL    HW221306   3.509   6.367   1.060
 6803SOL     OW21307   5.077   4.616   6.912
 6803SOL    HW121308   5.164   4.571   6.931
 6803SOL    HW221309   5.060   4.617   6.813
 6804SOL     OW21310   2.859   5.228   2.737
 6804SOL    HW121311   2.764   5.234   2.767
 6804SOL    HW221312   2.877   5.135   2.704
 6805SOL     OW21313   0.581   4.852   6.563
 6805SOL    HW121314   0.595   4.916   6.487
 6805SOL    HW221315   0.525   4.896   6.634
 6806SOL     OW21316   6.742   1.277   4.321
 6806SOL    HW121317   6.755   1.178   4.325
 6806SOL    HW221318   6.660   1.302   4.373
 6807SOL     OW21319   3.488   3.092   3.607
 6807SOL    HW121320   3.512   3.045   3.693
 6807SOL    HW221321   3.571   3.107   3.554
 6808SOL     OW21322   5.365   1.236   5.132
 6808SOL    HW121323   5.265   1.234   5.131
 6808SOL    HW221324   5.397   1.259   5.224
 6809SOL     OW21325   6.772   4.123   1.113
 6809SOL    HW121326   6.854   4.082   1.152
 6809SOL    HW221327   6.784   4.133   1.014
 6810SOL     OW21328   3.535   1.167   3.246
 6810SOL    HW121329   3.572   1.242   3.191
 6810SOL    HW221330   3.488   1.205   3.325
 6811SOL     OW21331   6.505   2.735   2.450
 6811SOL    HW121332   6.442   2.678   2.397
 6811SOL    HW221333   6.455   2.810   2.492
 6812SOL     OW21334   3.394   3.580   4.479
 6812SOL    HW121335   3.334   3.527   4.540
 6812SOL    HW221336   3.343   3.609   4.398
 6813SOL     OW21337   5.175   3.688   2.113
 6813SOL    HW121338   5.168   3.755   2.187
 6813SOL    HW221339   5.242   3.618   2.138
 6814SOL     OW21340   4.392   1.421   6.538
 6814SOL    HW121341   4.362   1.392   6.629
 6814SOL    HW221342   4.479   1.376   6.516
 6815SOL     OW21343   1.548   5.391   6.792
 6815SOL    HW121344   1.611   5.356   6.721
 6815SOL    HW221345   1.479   5.449   6.749
 6816SOL     OW21346   6.768   1.947   4.426
 6816SOL    HW121347   6.854   1.925   4.379
 6816SOL    HW221348   6.742   1.870   4.485
 6817SOL     OW21349   2.779   2.386   3.978
 6817SOL    HW121350   2.716   2.319   4.017
 6817SOL    HW221351   2.727   2.464   3.944
 6818SOL     OW21352   2.196   6.047   6.012
 6818SOL    HW121353   2.287   6.011   6.030
 6818SOL    HW221354   2.129   6.000   6.069
 6819SOL     OW21355   4.907   5.998   2.876
 6819SOL    HW121356   4.974   5.924   2.882
 6819SOL    HW221357   4.851   5.986   2.793
 6820SOL     OW21358   1.700   6.094   1.573
 6820SOL    HW121359   1.692   6.017   1.636
 6820SOL    HW221360   1.796   6.107   1.548
 6821SOL     OW21361   4.638   2.450   5.631
 6821SOL    HW121362   4.622   2.548   5.639
 6821SOL    HW221363   4.734   2.431   5.651
 6822SOL     OW21364   6.904   2.606   6.491
 6822SOL    HW121365   6.844   2.684   6.510
 6822SOL    HW221366   6.998   2.639   6.483
 6823SOL     OW21367   5.308   3.838   6.403
 6823SOL    HW121368   5.280   3.756   6.453
 6823SOL    HW221369   5.341   3.906   6.468
 6824SOL     OW21370   1.332   1.792   0.134
 6824SOL    HW121371   1.369   1.767   0.224
 6824SOL    HW221372   1.376   1.876   0.102
 6825SOL     OW21373   6.393   6.267   0.631
 6825SOL    HW121374   6.469   6.205   0.609
 6825SOL    HW221375   6.308   6.214   0.635
 6826SOL     OW21376   0.364   3.082   3.294
 6826SOL    HW121377   0.304   3.089   3.374
 6826SOL    HW221378   0.316   3.037   3.219
 6827SOL     OW21379   4.902   4.925   5.429
 6827SOL    HW121380   4.958   5.005   5.412
 6827SOL    HW221381   4.960   4.843   5.432
 6828SOL     OW21382   3.370   1.569   2.958
 6828SOL    HW121383   3.374   1.570   2.858
 6828SOL    HW221384   3.460   1.593   2.995
 6829SOL     OW21385   5.081   0.181   5.477
 6829SOL    HW121386   5.074   0.084   5.500
 6829SOL    HW221387   5.154   0.223   5.530
 6830SOL     OW21388   6.155   1.682   3.345
 6830SOL    HW121389   6.145   1.658   3.442
 6830SOL    HW221390   6.169   1.599   3.292
 6831SOL     OW21391   1.142   1.445   5.926
 6831SOL    HW121392   1.230   1.422   5.884
 6831SOL    HW221393   1.103   1.363   5.968
 6832SOL     OW21394   2.544   3.070   6.939
 6832SOL    HW121395   2.496   3.046   6.855
 6832SOL    HW221396   2.609   2.997   6.964
 6833SOL     OW21397   3.577   5.684   6.101
 6833SOL    HW121398   3.593   5.616   6.030
 6833SOL    HW221399   3.608   5.773   6.070
 6834SOL     OW21400   5.116   0.060   0.705
 6834SOL    HW121401   5.144   0.133   0.642
 6834SOL    HW221402   5.034   0.088   0.755
 6835SOL     OW21403   3.647   1.663   5.151
 6835SOL    HW121404   3.630   1.609   5.069
 6835SOL    HW221405   3.619   1.758   5.136
 6836SOL     OW21406   1.896   4.518   6.660
 6836SOL    HW121407   1.819   4.566   6.702
 6836SOL    HW221408   1.923   4.564   6.576
 6837SOL     OW21409   1.493   1.327   2.777
 6837SOL    HW121410   1.399   1.324   2.742
 6837SOL    HW221411   1.514   1.420   2.808
 6838SOL     OW21412   3.070   4.265   5.326
 6838SOL    HW121413   3.168   4.282   5.323
 6838SOL    HW221414   3.022   4.336   5.274
 6839SOL     OW21415   5.407   1.948   3.601
 6839SOL    HW121416   5.465   1.868   3.619
 6839SOL    HW221417   5.365   1.939   3.510
 6840SOL     OW21418   2.344   6.642   5.096
 6840SOL    HW121419   2.307   6.570   5.156
 6840SOL    HW221420   2.276   6.715   5.087
 6841SOL     OW21421   4.179   5.261   1.641
 6841SOL    HW121422   4.197   5.295   1.733
 6841SOL    HW221423   4.255   5.203   1.611
 6842SOL     OW21424   1.165   2.454   6.843
 6842SOL    HW121425   1.125   2.540   6.811
 6842SOL    HW221426   1.100   2.379   6.824
 6843SOL     OW21427   4.948   1.059   1.634
 6843SOL    HW121428   4.862   1.028   1.593
 6843SOL    HW221429   4.929   1.112   1.716
 6844SOL     OW21430   5.283   5.807   4.199
 6844SOL    HW121431   5.189   5.815   4.232
 6844SOL    HW221432   5.340   5.875   4.246
 6845SOL     OW21433   4.844   4.126   2.039
 6845SOL    HW121434   4.858   4.116   2.137
 6845SOL    HW221435   4.752   4.162   2.022
 6846SOL     OW21436   3.984   3.159   0.882
 6846SOL    HW121437   4.070   3.110   0.873
 6846SOL    HW221438   3.937   3.161   0.794
 6847SOL     OW21439   5.157   3.917   2.241
 6847SOL    HW121440   5.128   3.969   2.321
 6847SOL    HW221441   5.255   3.934   2.224
 6848SOL     OW21442   1.302   4.910   3.807
 6848SOL    HW121443   1.340   4.935   3.896
 6848SOL    HW221444   1.252   4.988   3.769
 6849SOL     OW21445   3.351   5.831   4.474
 6849SOL    HW121446   3.397   5.867   4.392
 6849SOL    HW221447   3.411   5.843   4.553
 6850SOL     OW21448   5.761   2.688   2.724
 6850SOL    HW121449   5.750   2.701   2.823
 6850SOL    HW221450   5.856   2.702   2.698
 6851SOL     OW21451   1.621   4.958   4.844
 6851SOL    HW121452   1.594   5.024   4.914
 6851SOL    HW221453   1.691   4.897   4.881
 6852SOL     OW21454   1.272   4.421   1.026
 6852SOL    HW121455   1.293   4.465   1.113
 6852SOL    HW221456   1.173   4.404   1.021
 6853SOL     OW21457   6.604   4.560   6.965
 6853SOL    HW121458   6.566   4.517   0.020
 6853SOL    HW221459   6.653   4.643   6.990
 6854SOL     OW21460   5.859   0.662   5.961
 6854SOL    HW121461   5.832   0.748   6.005
 6854SOL    HW221462   5.778   0.604   5.950
 6855SOL     OW21463   3.105   6.377   3.222
 6855SOL    HW121464   3.150   6.425   3.298
 6855SOL    HW221465   3.099   6.280   3.244
 6856SOL     OW21466   5.340   4.796   5.306
 6856SOL    HW121467   5.377   4.752   5.387
 6856SOL    HW221468   5.415   4.831   5.250
 6857SOL     OW21469   3.350   0.991   6.377
 6857SOL    HW121470   3.296   0.929   6.434
 6857SOL    HW221471   3.429   1.024   6.428
 6858SOL     OW21472   4.114   3.308   4.788
 6858SOL    HW121473   4.033   3.302   4.847
 6858SOL    HW221474   4.148   3.217   4.768
 6859SOL     OW21475   1.637   6.411   1.307
 6859SOL    HW121476   1.605   6.500   1.275
 6859SOL    HW221477   1.601   6.394   1.399
 6860SOL     OW21478   5.894   5.083   1.958
 6860SOL    HW121479   5.918   4.987   1.940
 6860SOL    HW221480   5.968   5.142   1.926
 6861SOL     OW21481   5.836   4.190   1.178
 6861SOL    HW121482   5.790   4.104   1.156
 6861SOL    HW221483   5.767   4.259   1.203
 6862SOL     OW21484   2.585   4.670   4.632
 6862SOL    HW121485   2.553   4.601   4.567
 6862SOL    HW221486   2.566   4.640   4.725
 6863SOL     OW21487   5.768   1.234   5.195
 6863SOL    HW121488   5.756   1.289   5.278
 6863SOL    HW221489   5.678   1.217   5.154
 6864SOL     OW21490   3.496   5.902   4.279
 6864SOL    HW121491   3.543   5.863   4.200
 6864SOL    HW221492   3.503   6.002   4.276
 6865SOL     OW21493   6.559   4.893   3.437
 6865SOL    HW121494   6.544   4.794   3.445
 6865SOL    HW221495   6.620   4.924   3.509
 6866SOL     OW21496   6.190   4.713   2.126
 6866SOL    HW121497   6.103   4.665   2.113
 6866SOL    HW221498   6.198   4.786   2.058
 6867SOL     OW21499   1.162   5.028   1.064
 6867SOL    HW121500   1.189   4.946   1.114
 6867SOL    HW221501   1.068   5.018   1.031
 6868SOL     OW21502   1.761   5.443   5.440
 6868SOL    HW121503   1.776   5.511   5.512
 6868SOL    HW221504   1.842   5.439   5.381
 6869SOL     OW21505   5.624   2.631   5.435
 6869SOL    HW121506   5.705   2.576   5.414
 6869SOL    HW221507   5.620   2.710   5.373
 6870SOL     OW21508   6.333   3.939   2.933
 6870SOL    HW121509   6.376   3.850   2.946
 6870SOL    HW221510   6.328   3.961   2.836
 6871SOL     OW21511   6.315   5.030   2.057
 6871SOL    HW121512   6.387   4.961   2.062
 6871SOL    HW221513   6.280   5.035   1.963
 6872SOL     OW21514   2.378   3.566   0.947
 6872SOL    HW121515   2.285   3.595   0.923
 6872SOL    HW221516   2.395   3.588   1.043
 6873SOL     OW21517   5.954   3.270   5.720
 6873SOL    HW121518   6.030   3.243   5.779
 6873SOL    HW221519   5.928   3.192   5.663
 6874SOL     OW21520   1.018   3.656   3.521
 6874SOL    HW121521   1.101   3.682   3.572
 6874SOL    HW221522   0.940   3.707   3.557
 6875SOL     OW21523   1.778   2.228   3.758
 6875SOL    HW121524   1.830   2.245   3.841
 6875SOL    HW221525   1.837   2.183   3.690
 6876SOL     OW21526   3.661   5.280   6.716
 6876SOL    HW121527   3.679   5.328   6.802
 6876SOL    HW221528   3.564   5.257   6.711
 6877SOL     OW21529   2.667   4.186   6.980
 6877SOL    HW121530   2.680   4.251   6.906
 6877SOL    HW221531   2.647   4.096   6.943
 6878SOL     OW21532   2.423   1.889   5.450
 6878SOL    HW121533   2.488   1.960   5.477
 6878SOL    HW221534   2.351   1.881   5.519
 6879SOL     OW21535   1.079   2.333   0.343
 6879SOL    HW121536   1.010   2.354   0.411
 6879SOL    HW221537   1.110   2.418   0.300
 6880SOL     OW21538   2.116   3.460   5.098
 6880SOL    HW121539   2.113   3.542   5.040
 6880SOL    HW221540   2.112   3.379   5.041
 6881SOL     OW21541   6.660   4.337   2.198
 6881SOL    HW121542   6.686   4.273   2.125
 6881SOL    HW221543   6.641   4.286   2.282
 6882SOL     OW21544   1.964   0.310   6.029
 6882SOL    HW121545   1.873   0.270   6.029
 6882SOL    HW221546   2.023   0.262   6.094
 6883SOL     OW21547   3.704   1.012   1.012
 6883SOL    HW121548   3.772   1.031   1.083
 6883SOL    HW221549   3.750   0.998   0.925
 6884SOL     OW21550   2.254   3.949   4.115
 6884SOL    HW121551   2.250   4.035   4.063
 6884SOL    HW221552   2.232   3.968   4.211
 6885SOL     OW21553   2.853   5.157   4.045
 6885SOL    HW121554   2.886   5.248   4.022
 6885SOL    HW221555   2.908   5.120   4.120
 6886SOL     OW21556   6.727   0.935   2.677
 6886SOL    HW121557   6.787   1.009   2.710
 6886SOL    HW221558   6.701   0.877   2.754
 6887SOL     OW21559   5.496   0.039   5.268
 6887SOL    HW121560   5.456   0.037   5.359
 6887SOL    HW221561   5.521   6.973   5.239
 6888SOL     OW21562   5.876   6.418   6.534
 6888SOL    HW121563   5.934   6.478   6.590
 6888SOL    HW221564   5.916   6.412   6.442
 6889SOL     OW21565   0.784   2.974   5.790
 6889SOL    HW121566   0.791   2.876   5.808
 6889SOL    HW221567   0.812   3.025   5.872
 6890SOL     OW21568   2.472   6.121   0.551
 6890SOL    HW121569   2.420   6.196   0.592
 6890SOL    HW221570   2.559   6.110   0.598
 6891SOL     OW21571   1.902   3.922   4.807
 6891SOL    HW121572   1.926   3.870   4.889
 6891SOL    HW221573   1.820   3.883   4.766
 6892SOL     OW21574   3.676   0.427   4.075
 6892SOL    HW121575   3.775   0.426   4.094
 6892SOL    HW221576   3.647   0.336   4.048
 6893SOL     OW21577   5.844   6.560   1.438
 6893SOL    HW121578   5.922   6.620   1.418
 6893SOL    HW221579   5.759   6.612   1.432
 6894SOL     OW21580   6.219   5.895   0.068
 6894SOL    HW121581   6.233   5.988   0.102
 6894SOL    HW221582   6.188   5.899   6.999
 6895SOL     OW21583   2.917   5.460   0.118
 6895SOL    HW121584   2.964   5.425   0.037
 6895SOL    HW221585   2.837   5.403   0.137
 6896SOL     OW21586   3.379   6.832   3.929
 6896SOL    HW121587   3.328   6.761   3.978
 6896SOL    HW221588   3.315   6.901   3.894
 6897SOL     OW21589   2.869   3.772   0.015
 6897SOL    HW121590   2.812   3.854   0.025
 6897SOL    HW221591   2.858   3.714   0.096
 6898SOL     OW21592   3.441   1.958   1.658
 6898SOL    HW121593   3.520   2.017   1.676
 6898SOL    HW221594   3.403   1.979   1.568
 6899SOL     OW21595   4.784   6.847   6.928
 6899SOL    HW121596   4.863   6.788   6.946
 6899SOL    HW221597   4.714   6.830   6.997
 6900SOL     OW21598   6.318   0.397   6.398
 6900SOL    HW121599   6.309   0.437   6.307
 6900SOL    HW221600   6.235   0.346   6.420
 6901SOL     OW21601   0.627   0.078   6.208
 6901SOL    HW121602   0.578   0.073   6.121
 6901SOL    HW221603   0.706   0.138   6.198
 6902SOL     OW21604   0.355   6.280   0.903
 6902SOL    HW121605   0.406   6.286   0.817
 6902SOL    HW221606   0.279   6.215   0.891
 6903SOL     OW21607   3.306   4.065   6.487
 6903SOL    HW121608   3.381   4.123   6.454
 6903SOL    HW221609   3.265   4.017   6.409
 6904SOL     OW21610   0.165   1.484   3.708
 6904SOL    HW121611   0.153   1.452   3.802
 6904SOL    HW221612   0.093   1.549   3.685
 6905SOL     OW21613   6.715   6.644   6.577
 6905SOL    HW121614   6.623   6.684   6.573
 6905SOL    HW221615   6.709   6.545   6.564
 6906SOL     OW21616   4.203   1.120   3.822
 6906SOL    HW121617   4.260   1.076   3.752
 6906SOL    HW221618   4.219   1.076   3.910
 6907SOL     OW21619   4.501   1.714   1.172
 6907SOL    HW121620   4.573   1.653   1.139
 6907SOL    HW221621   4.416   1.694   1.123
 6908SOL     OW21622   1.220   0.091   5.178
 6908SOL    HW121623   1.164   0.030   5.234
 6908SOL    HW221624   1.211   0.185   5.212
 6909SOL     OW21625   5.239   4.988   1.271
 6909SOL    HW121626   5.229   5.076   1.225
 6909SOL    HW221627   5.333   4.977   1.302
 6910SOL     OW21628   6.309   2.525   2.600
 6910SOL    HW121629   6.400   2.558   2.577
 6910SOL    HW221630   6.240   2.589   2.566
 6911SOL     OW21631   3.647   0.435   3.168
 6911SOL    HW121632   3.725   0.399   3.117
 6911SOL    HW221633   3.644   0.534   3.160
 6912SOL     OW21634   4.743   5.247   1.730
 6912SOL    HW121635   4.762   5.295   1.815
 6912SOL    HW221636   4.722   5.151   1.749
 6913SOL     OW21637   4.941   4.459   5.370
 6913SOL    HW121638   4.984   4.417   5.450
 6913SOL    HW221639   4.947   4.558   5.377
 6914SOL     OW21640   6.185   5.139   6.791
 6914SOL    HW121641   6.254   5.125   6.721
 6914SOL    HW221642   6.152   5.233   6.787
 6915SOL     OW21643   0.059   4.676   1.841
 6915SOL    HW121644   0.063   4.739   1.919
 6915SOL    HW221645   0.018   4.722   1.763
 6916SOL     OW21646   6.211   4.008   6.917
 6916SOL    HW121647   6.242   3.941   6.985
 6916SOL    HW221648   6.291   4.054   6.877
 6917SOL     OW21649   3.791   5.154   0.311
 6917SOL    HW121650   3.851   5.229   0.284
 6917SOL    HW221651   3.715   5.146   0.246
 6918SOL     OW21652   0.676   4.392   4.318
 6918SOL    HW121653   0.645   4.371   4.410
 6918SOL    HW221654   0.772   4.421   4.321
 6919SOL     OW21655   1.096   5.844   2.704
 6919SOL    HW121656   1.124   5.814   2.613
 6919SOL    HW221657   1.160   5.913   2.738
 6920SOL     OW21658   4.483   5.235   5.523
 6920SOL    HW121659   4.405   5.172   5.520
 6920SOL    HW221660   4.471   5.300   5.598
 6921SOL     OW21661   5.090   5.829   2.983
 6921SOL    HW121662   5.108   5.878   3.069
 6921SOL    HW221663   5.051   5.740   3.003
 6922SOL     OW21664   1.756   5.741   6.965
 6922SOL    HW121665   1.771   5.658   7.019
 6922SOL    HW221666   1.800   5.732   6.876
 6923SOL     OW21667   5.830   6.707   3.384
 6923SOL    HW121668   5.736   6.674   3.395
 6923SOL    HW221669   5.892   6.629   3.382
 6924SOL     OW21670   0.719   4.059   6.757
 6924SOL    HW121671   0.715   4.097   6.849
 6924SOL    HW221672   0.700   3.961   6.760
 6925SOL     OW21673   3.761   6.089   3.972
 6925SOL    HW121674   3.830   6.017   3.963
 6925SOL    HW221675   3.751   6.115   4.068
 6926SOL     OW21676   3.509   3.005   2.633
 6926SOL    HW121677   3.588   2.953   2.601
 6926SOL    HW221678   3.466   3.052   2.556
 6927SOL     OW21679   5.949   3.452   6.465
 6927SOL    HW121680   5.892   3.380   6.505
 6927SOL    HW221681   5.958   3.527   6.530
 6928SOL     OW21682   5.820   6.743   0.896
 6928SOL    HW121683   5.760   6.801   0.840
 6928SOL    HW221684   5.904   6.724   0.846
 6929SOL     OW21685   5.086   5.531   0.835
 6929SOL    HW121686   4.992   5.562   0.824
 6929SOL    HW221687   5.148   5.609   0.833
 6930SOL     OW21688   0.474   6.954   1.822
 6930SOL    HW121689   0.495   7.000   1.908
 6930SOL    HW221690   0.431   7.019   1.759
 6931SOL     OW21691   0.740   0.682   1.930
 6931SOL    HW121692   0.757   0.762   1.873
 6931SOL    HW221693   0.809   0.677   2.003
 6932SOL     OW21694   3.838   1.265   0.409
 6932SOL    HW121695   3.907   1.327   0.446
 6932SOL    HW221696   3.760   1.261   0.471
 6933SOL     OW21697   3.351   6.546   5.102
 6933SOL    HW121698   3.445   6.563   5.130
 6933SOL    HW221699   3.324   6.612   5.031
 6934SOL     OW21700   4.819   4.237   5.911
 6934SOL    HW121701   4.781   4.329   5.904
 6934SOL    HW221702   4.745   4.172   5.931
 6935SOL     OW21703   4.250   6.658   3.258
 6935SOL    HW121704   4.181   6.642   3.328
 6935SOL    HW221705   4.340   6.635   3.295
 6936SOL     OW21706   6.346   2.312   2.396
 6936SOL    HW121707   6.437   2.327   2.435
 6936SOL    HW221708   6.330   2.214   2.385
 6937SOL     OW21709   6.610   6.491   6.907
 6937SOL    HW121710   6.632   6.441   6.991
 6937SOL    HW221711   6.519   6.466   6.875
 6938SOL     OW21712   5.083   3.939   5.279
 6938SOL    HW121713   5.148   3.939   5.355
 6938SOL    HW221714   5.017   3.865   5.291
 6939SOL     OW21715   6.858   5.264   2.476
 6939SOL    HW121716   6.900   5.298   2.560
 6939SOL    HW221717   6.797   5.335   2.439
 6940SOL     OW21718   5.184   1.262   0.598
 6940SOL    HW121719   5.116   1.313   0.547
 6940SOL    HW221720   5.251   1.223   0.535
 6941SOL     OW21721   3.991   3.132   2.996
 6941SOL    HW121722   3.935   3.052   2.973
 6941SOL    HW221723   3.998   3.139   3.096
 6942SOL     OW21724   6.428   3.079   0.886
 6942SOL    HW121725   6.396   2.991   0.921
 6942SOL    HW221726   6.386   3.097   0.797
 6943SOL     OW21727   4.964   6.318   6.985
 6943SOL    HW121728   5.056   6.345   7.016
 6943SOL    HW221729   4.935   6.237   0.009
 6944SOL     OW21730   1.316   4.497   5.580
 6944SOL    HW121731   1.341   4.483   5.484
 6944SOL    HW221732   1.398   4.494   5.637
 6945SOL     OW21733   5.918   2.583   6.695
 6945SOL    HW121734   6.004   2.539   6.670
 6945SOL    HW221735   5.929   2.631   6.782
 6946SOL     OW21736   6.034   5.786   2.397
 6946SOL    HW121737   6.008   5.849   2.324
 6946SOL    HW221738   6.030   5.833   2.485
 6947SOL     OW21739   3.585   0.090   5.086
 6947SOL    HW121740   3.540   0.180   5.082
 6947SOL    HW221741   3.684   0.102   5.074
 6948SOL     OW21742   6.036   0.422   0.311
 6948SOL    HW121743   5.977   0.491   0.352
 6948SOL    HW221744   6.009   0.405   0.217
 6949SOL     OW21745   5.326   6.643   4.190
 6949SOL    HW121746   5.311   6.734   4.151
 6949SOL    HW221747   5.312   6.574   4.119
 6950SOL     OW21748   2.360   7.021   2.930
 6950SOL    HW121749   2.397   0.082   2.961
 6950SOL    HW221750   2.428   6.949   2.944
 6951SOL     OW21751   5.868   5.946   5.882
 6951SOL    HW121752   5.792   5.952   5.817
 6951SOL    HW221753   5.864   6.024   5.945
 6952SOL     OW21754   7.023   5.812   3.689
 6952SOL    HW121755   7.021   5.854   3.599
 6952SOL    HW221756   0.077   5.753   3.697
 6953SOL     OW21757   4.986   6.812   6.544
 6953SOL    HW121758   4.981   6.837   6.447
 6953SOL    HW221759   5.071   6.848   6.583
 6954SOL     OW21760   0.930   3.569   4.146
 6954SOL    HW121761   0.966   3.559   4.053
 6954SOL    HW221762   0.910   3.666   4.163
 6955SOL     OW21763   6.660   0.090   2.313
 6955SOL    HW121764   6.568   0.063   2.285
 6955SOL    HW221765   6.702   0.144   2.240
 6956SOL     OW21766   4.259   6.102   2.931
 6956SOL    HW121767   4.321   6.064   2.863
 6956SOL    HW221768   4.304   6.175   2.981
 6957SOL     OW21769   6.323   4.979   1.756
 6957SOL    HW121770   6.295   4.939   1.669
 6957SOL    HW221771   6.373   5.064   1.739
 6958SOL     OW21772   3.093   3.909   5.538
 6958SOL    HW121773   3.149   3.932   5.458
 6958SOL    HW221774   3.031   3.984   5.557
 6959SOL     OW21775   2.410   1.016   4.666
 6959SOL    HW121776   2.435   0.949   4.736
 6959SOL    HW221777   2.353   1.087   4.708
 6960SOL     OW21778   0.452   5.248   0.401
 6960SOL    HW121779   0.546   5.221   0.421
 6960SOL    HW221780   0.445   5.348   0.400
 6961SOL     OW21781   0.166   2.807   4.331
 6961SOL    HW121782   0.249   2.804   4.275
 6961SOL    HW221783   0.101   2.740   4.297
 6962SOL     OW21784   5.133   5.227   2.407
 6962SOL    HW121785   5.073   5.157   2.369
 6962SOL    HW221786   5.088   5.272   2.484
 6963SOL     OW21787   0.312   5.747   0.339
 6963SOL    HW121788   0.240   5.677   0.346
 6963SOL    HW221789   0.277   5.833   0.376
 6964SOL     OW21790   4.914   4.974   4.236
 6964SOL    HW121791   4.926   4.924   4.322
 6964SOL    HW221792   4.956   4.923   4.161
 6965SOL     OW21793   0.858   3.859   5.849
 6965SOL    HW121794   0.858   3.872   5.948
 6965SOL    HW221795   0.871   3.762   5.828
 6966SOL     OW21796   5.983   2.415   2.777
 6966SOL    HW121797   6.004   2.386   2.870
 6966SOL    HW221798   5.999   2.513   2.767
 6967SOL     OW21799   1.456   1.364   5.611
 6967SOL    HW121800   1.459   1.410   5.700
 6967SOL    HW221801   1.414   1.424   5.543
 6968SOL     OW21802   3.718   6.454   2.691
 6968SOL    HW121803   3.700   6.373   2.746
 6968SOL    HW221804   3.631   6.491   2.658
 6969SOL     OW21805   3.532   2.269   1.472
 6969SOL    HW121806   3.592   2.287   1.394
 6969SOL    HW221807   3.465   2.199   1.448
 6970SOL     OW21808   4.508   3.674   0.249
 6970SOL    HW121809   4.547   3.686   0.158
 6970SOL    HW221810   4.541   3.748   0.308
 6971SOL     OW21811   6.498   4.027   2.141
 6971SOL    HW121812   6.582   4.029   2.195
 6971SOL    HW221813   6.516   3.984   2.053
 6972SOL     OW21814   5.862   5.172   3.834
 6972SOL    HW121815   5.806   5.125   3.902
 6972SOL    HW221816   5.809   5.184   3.750
 6973SOL     OW21817   1.006   3.828   5.319
 6973SOL    HW121818   1.073   3.756   5.301
 6973SOL    HW221819   0.917   3.800   5.282
 6974SOL     OW21820   3.181   3.052   3.025
 6974SOL    HW121821   3.243   3.015   3.093
 6974SOL    HW221822   3.227   3.056   2.936
 6975SOL     OW21823   2.927   6.807   6.072
 6975SOL    HW121824   2.938   6.731   6.137
 6975SOL    HW221825   2.830   6.819   6.052
 6976SOL     OW21826   4.049   4.495   5.814
 6976SOL    HW121827   4.080   4.471   5.906
 6976SOL    HW221828   3.949   4.488   5.810
 6977SOL     OW21829   5.281   2.386   1.704
 6977SOL    HW121830   5.286   2.481   1.735
 6977SOL    HW221831   5.185   2.361   1.692
 6978SOL     OW21832   6.313   1.878   1.258
 6978SOL    HW121833   6.293   1.932   1.340
 6978SOL    HW221834   6.288   1.782   1.275
 6979SOL     OW21835   1.026   5.376   0.801
 6979SOL    HW121836   0.934   5.368   0.838
 6979SOL    HW221837   1.043   5.471   0.773
 6980SOL     OW21838   2.105   0.462   3.852
 6980SOL    HW121839   2.173   0.409   3.801
 6980SOL    HW221840   2.016   0.416   3.846
 6981SOL     OW21841   2.117   2.812   6.569
 6981SOL    HW121842   2.096   2.805   6.472
 6981SOL    HW221843   2.049   2.761   6.622
 6982SOL     OW21844   1.325   1.438   3.836
 6982SOL    HW121845   1.383   1.519   3.845
 6982SOL    HW221846   1.244   1.448   3.893
 6983SOL     OW21847   5.855   2.486   3.169
 6983SOL    HW121848   5.941   2.536   3.178
 6983SOL    HW221849   5.828   2.451   3.259
 6984SOL     OW21850   1.959   2.417   4.780
 6984SOL    HW121851   1.969   2.509   4.742
 6984SOL    HW221852   1.991   2.350   4.714
 6985SOL     OW21853   3.797   5.203   2.199
 6985SOL    HW121854   3.878   5.170   2.150
 6985SOL    HW221855   3.820   5.283   2.254
 6986SOL     OW21856   1.627   6.163   6.232
 6986SOL    HW121857   1.631   6.248   6.180
 6986SOL    HW221858   1.714   6.148   6.278
 6987SOL     OW21859   1.029   1.893   6.199
 6987SOL    HW121860   1.096   1.892   6.273
 6987SOL    HW221861   1.032   1.806   6.150
 6988SOL     OW21862   6.063   0.881   5.199
 6988SOL    HW121863   6.066   0.980   5.184
 6988SOL    HW221864   5.991   0.859   5.264
 6989SOL     OW21865   0.602   3.209   3.858
 6989SOL    HW121866   0.672   3.244   3.920
 6989SOL    HW221867   0.626   3.117   3.829
 6990SOL     OW21868   5.655   1.893   0.327
 6990SOL    HW121869   5.630   1.827   0.255
 6990SOL    HW221870   5.578   1.955   0.342
 6991SOL     OW21871   2.387   4.281   3.728
 6991SOL    HW121872   2.444   4.359   3.752
 6991SOL    HW221873   2.385   4.217   3.805
 6992SOL     OW21874   6.302   6.075   4.762
 6992SOL    HW121875   6.300   5.981   4.794
 6992SOL    HW221876   6.330   6.077   4.666
 6993SOL     OW21877   6.613   0.462   2.533
 6993SOL    HW121878   6.678   0.538   2.529
 6993SOL    HW221879   6.526   0.494   2.571
 6994SOL     OW21880   0.716   2.863   5.077
 6994SOL    HW121881   0.687   2.869   5.173
 6994SOL    HW221882   0.815   2.870   5.072
 6995SOL     OW21883   5.914   5.318   5.286
 6995SOL    HW121884   5.952   5.406   5.255
 6995SOL    HW221885   5.897   5.322   5.384
 6996SOL     OW21886   2.050   0.781   4.931
 6996SOL    HW121887   2.071   0.869   4.975
 6996SOL    HW221888   1.969   0.741   4.973
 6997SOL     OW21889   5.549   6.050   5.113
 6997SOL    HW121890   5.464   6.051   5.167
 6997SOL    HW221891   5.591   6.141   5.115
 6998SOL     OW21892   2.060   2.007   1.681
 6998SOL    HW121893   2.091   1.918   1.714
 6998SOL    HW221894   2.078   2.077   1.750
 6999SOL     OW21895   2.283   2.079   6.716
 6999SOL    HW121896   2.357   2.056   6.653
 6999SOL    HW221897   2.245   2.168   6.693
 7000SOL     OW21898   6.966   5.842   2.565
 7000SOL    HW121899   6.961   5.794   2.478
 7000SOL    HW221900   7.013   5.929   2.553
 7001SOL     OW21901   2.748   3.146   5.547
 7001SOL    HW121902   2.766   3.240   5.576
 7001SOL    HW221903   2.669   3.145   5.485
 7002SOL     OW21904   2.120   4.926   2.855
 7002SOL    HW121905   2.170   4.869   2.791
 7002SOL    HW221906   2.066   4.869   2.917
 7003SOL     OW21907   3.777   6.301   0.293
 7003SOL    HW121908   3.705   6.358   0.252
 7003SOL    HW221909   3.754   6.281   0.388
 7004SOL     OW21910   2.008   4.958   1.785
 7004SOL    HW121911   1.965   4.980   1.698
 7004SOL    HW221912   2.080   4.891   1.770
 7005SOL     OW21913   0.609   6.058   6.022
 7005SOL    HW121914   0.694   6.105   5.998
 7005SOL    HW221915   0.630   5.976   6.074
 7006SOL     OW21916   5.605   4.912   4.510
 7006SOL    HW121917   5.611   4.831   4.569
 7006SOL    HW221918   5.589   4.993   4.565
 7007SOL     OW21919   5.240   6.709   3.072
 7007SOL    HW121920   5.278   6.793   3.032
 7007SOL    HW221921   5.253   6.711   3.171
 7008SOL     OW21922   1.867   5.356   4.213
 7008SOL    HW121923   1.845   5.260   4.229
 7008SOL    HW221924   1.944   5.383   4.269
 7009SOL     OW21925   5.747   5.532   2.450
 7009SOL    HW121926   5.791   5.561   2.534
 7009SOL    HW221927   5.767   5.435   2.433
 7010SOL     OW21928   4.516   3.814   5.862
 7010SOL    HW121929   4.462   3.759   5.926
 7010SOL    HW221930   4.462   3.831   5.780
 7011SOL     OW21931   2.060   0.655   6.612
 7011SOL    HW121932   2.037   0.735   6.668
 7011SOL    HW221933   2.134   0.679   6.549
 7012SOL     OW21934   2.143   0.953   2.239
 7012SOL    HW121935   2.141   1.041   2.190
 7012SOL    HW221936   2.231   0.943   2.286
 7013SOL     OW21937   0.395   6.603   1.163
 7013SOL    HW121938   0.308   6.558   1.144
 7013SOL    HW221939   0.460   6.585   1.089
 7014SOL     OW21940   4.875   2.950   1.061
 7014SOL    HW121941   4.869   2.875   0.995
 7014SOL    HW221942   4.853   2.916   1.152
 7015SOL     OW21943   5.944   4.856   2.231
 7015SOL    HW121944   5.944   4.804   2.145
 7015SOL    HW221945   6.028   4.908   2.238
 7016SOL     OW21946   3.740   4.941   2.238
 7016SOL    HW121947   3.746   5.031   2.195
 7016SOL    HW221948   3.735   4.870   2.168
 7017SOL     OW21949   2.033   0.062   2.197
 7017SOL    HW121950   2.076   0.152   2.200
 7017SOL    HW221951   2.096   7.024   2.154
 7018SOL     OW21952   6.575   4.163   5.048
 7018SOL    HW121953   6.590   4.260   5.064
 7018SOL    HW221954   6.529   4.123   5.128
 7019SOL     OW21955   3.148   4.581   6.741
 7019SOL    HW121956   3.199   4.501   6.772
 7019SOL    HW221957   3.052   4.572   6.766
 7020SOL     OW21958   6.300   6.852   6.364
 7020SOL    HW121959   6.284   6.765   6.318
 7020SOL    HW221960   6.374   6.901   6.317
 7021SOL     OW21961   1.983   1.268   5.197
 7021SOL    HW121962   1.942   1.307   5.114
 7021SOL    HW221963   2.021   1.342   5.252
 7022SOL     OW21964   4.399   5.025   1.022
 7022SOL    HW121965   4.472   4.978   1.070
 7022SOL    HW221966   4.315   5.021   1.076
 7023SOL     OW21967   0.498   2.000   3.584
 7023SOL    HW121968   0.566   1.929   3.602
 7023SOL    HW221969   0.517   2.080   3.640
 7024SOL     OW21970   1.640   5.013   5.814
 7024SOL    HW121971   1.572   5.041   5.881
 7024SOL    HW221972   1.704   4.949   5.856
 7025SOL     OW21973   2.866   1.238   0.234
 7025SOL    HW121974   2.770   1.249   0.258
 7025SOL    HW221975   2.884   1.144   0.206
 7026SOL     OW21976   2.791   1.605   2.165
 7026SOL    HW121977   2.839   1.693   2.164
 7026SOL    HW221978   2.713   1.609   2.103
 7027SOL     OW21979   2.761   4.713   2.558
 7027SOL    HW121980   2.828   4.766   2.506
 7027SOL    HW221981   2.717   4.647   2.497
 7028SOL     OW21982   6.208   0.000   4.380
 7028SOL    HW121983   6.249   0.091   4.388
 7028SOL    HW221984   6.247   6.980   4.301
 7029SOL     OW21985   4.298   6.891   6.631
 7029SOL    HW121986   4.352   6.963   6.676
 7029SOL    HW221987   4.260   6.830   6.701
 7030SOL     OW21988   6.446   2.205   5.512
 7030SOL    HW121989   6.388   2.236   5.437
 7030SOL    HW221990   6.469   2.282   5.571
 7031SOL     OW21991   2.321   5.826   4.423
 7031SOL    HW121992   2.418   5.806   4.434
 7031SOL    HW221993   2.309   5.902   4.359
 7032SOL     OW21994   3.240   6.620   4.026
 7032SOL    HW121995   3.293   6.539   4.052
 7032SOL    HW221996   3.142   6.597   4.024
 7033SOL     OW21997   6.984   1.768   3.748
 7033SOL    HW121998   0.033   1.831   3.732
 7033SOL    HW221999   6.899   1.821   3.761
 7034SOL     OW22000   6.256   0.858   2.699
 7034SOL    HW122001   6.223   0.937   2.751
 7034SOL    HW222002   6.213   0.775   2.734
 7035SOL     OW22003   1.450   6.820   2.214
 7035SOL    HW122004   1.534   6.875   2.206
 7035SOL    HW222005   1.378   6.876   2.256
 7036SOL     OW22006   6.990   0.480   1.702
 7036SOL    HW122007   0.046   0.521   1.740
 7036SOL    HW222008   6.910   0.528   1.737
 7037SOL     OW22009   1.293   0.593   6.076
 7037SOL    HW122010   1.268   0.497   6.089
 7037SOL    HW222011   1.261   0.647   6.154
 7038SOL     OW22012   1.768   3.640   3.824
 7038SOL    HW122013   1.820   3.720   3.854
 7038SOL    HW222014   1.722   3.598   3.903
 7039SOL     OW22015   3.050   5.766   1.150
 7039SOL    HW122016   2.981   5.800   1.214
 7039SOL    HW222017   3.017   5.681   1.108
 7040SOL     OW22018   5.547   1.685   5.363
 7040SOL    HW122019   5.479   1.737   5.311
 7040SOL    HW222020   5.614   1.646   5.300
 7041SOL     OW22021   0.528   1.912   2.970
 7041SOL    HW122022   0.583   1.833   2.996
 7041SOL    HW222023   0.456   1.883   2.907
 7042SOL     OW22024   5.814   5.267   6.715
 7042SOL    HW122025   5.850   5.297   6.803
 7042SOL    HW222026   5.845   5.330   6.643
 7043SOL     OW22027   2.206   2.717   3.519
 7043SOL    HW122028   2.270   2.661   3.468
 7043SOL    HW222029   2.132   2.747   3.458
 7044SOL     OW22030   4.899   4.688   2.814
 7044SOL    HW122031   4.809   4.717   2.846
 7044SOL    HW222032   4.956   4.665   2.893
 7045SOL     OW22033   5.290   5.504   2.131
 7045SOL    HW122034   5.205   5.528   2.177
 7045SOL    HW222035   5.332   5.426   2.178
 7046SOL     OW22036   3.766   2.053   3.594
 7046SOL    HW122037   3.819   2.135   3.613
 7046SOL    HW222038   3.678   2.079   3.554
 7047SOL     OW22039   0.735   2.469   2.809
 7047SOL    HW122040   0.810   2.405   2.824
 7047SOL    HW222041   0.681   2.478   2.893
 7048SOL     OW22042   6.987   5.326   1.843
 7048SOL    HW122043   6.960   5.352   1.935
 7048SOL    HW222044   6.907   5.330   1.782
 7049SOL     OW22045   2.299   1.399   0.992
 7049SOL    HW122046   2.235   1.331   1.028
 7049SOL    HW222047   2.393   1.370   1.013
 7050SOL     OW22048   4.014   3.847   2.878
 7050SOL    HW122049   3.976   3.913   2.813
 7050SOL    HW222050   4.067   3.778   2.828
 7051SOL     OW22051   0.109   1.085   0.851
 7051SOL    HW122052   0.121   1.058   0.755
 7051SOL    HW222053   0.190   1.060   0.904
 7052SOL     OW22054   6.234   2.793   4.110
 7052SOL    HW122055   6.237   2.779   4.209
 7052SOL    HW222056   6.261   2.709   4.064
 7053SOL     OW22057   0.893   3.195   4.923
 7053SOL    HW122058   0.873   3.176   5.019
 7053SOL    HW222059   0.948   3.278   4.916
 7054SOL     OW22060   1.034   5.876   1.474
 7054SOL    HW122061   1.130   5.882   1.446
 7054SOL    HW222062   1.000   5.967   1.497
 7055SOL     OW22063   3.749   6.414   5.517
 7055SOL    HW122064   3.707   6.448   5.601
 7055SOL    HW222065   3.836   6.368   5.540
 7056SOL     OW22066   5.947   5.912   2.665
 7056SOL    HW122067   5.904   5.943   2.750
 7056SOL    HW222068   5.994   5.989   2.622
 7057SOL     OW22069   1.400   5.278   3.728
 7057SOL    HW122070   1.303   5.257   3.743
 7057SOL    HW222071   1.456   5.219   3.786
 7058SOL     OW22072   6.103   5.647   6.419
 7058SOL    HW122073   6.135   5.587   6.493
 7058SOL    HW222074   6.106   5.597   6.333
 7059SOL     OW22075   0.087   0.601   3.137
 7059SOL    HW122076   0.060   0.692   3.169
 7059SOL    HW222077   0.090   0.538   3.214
 7060SOL     OW22078   3.652   7.016   1.804
 7060SOL    HW122079   3.701   6.940   1.762
 7060SOL    HW222080   3.711   0.070   1.806
 7061SOL     OW22081   0.110   2.763   3.672
 7061SOL    HW122082   0.175   2.725   3.606
 7061SOL    HW222083   0.153   2.839   3.721
 7062SOL     OW22084   5.713   1.180   6.059
 7062SOL    HW122085   5.722   1.217   6.151
 7062SOL    HW222086   5.633   1.221   6.015
 7063SOL     OW22087   0.450   0.038   0.936
 7063SOL    HW122088   0.450   0.126   0.984
 7063SOL    HW222089   0.356   0.013   0.912
 7064SOL     OW22090   4.163   2.238   1.872
 7064SOL    HW122091   4.073   2.265   1.837
 7064SOL    HW222092   4.217   2.198   1.798
 7065SOL     OW22093   4.183   3.349   6.940
 7065SOL    HW122094   4.125   3.429   6.924
 7065SOL    HW222095   4.137   3.286   7.003
 7066SOL     OW22096   4.250   0.215   0.831
 7066SOL    HW122097   4.213   0.308   0.832
 7066SOL    HW222098   4.344   0.217   0.795
 7067SOL     OW22099   1.785   1.779   5.376
 7067SOL    HW122100   1.717   1.742   5.439
 7067SOL    HW222101   1.802   1.876   5.398
 7068SOL     OW22102   0.738   4.277   4.006
 7068SOL    HW122103   0.794   4.227   4.073
 7068SOL    HW222104   0.789   4.356   3.972
 7069SOL     OW22105   5.933   2.564   4.024
 7069SOL    HW122106   5.837   2.572   4.001
 7069SOL    HW222107   5.945   2.577   4.123
 7070SOL     OW22108   0.050   6.517   4.720
 7070SOL    HW122109   0.113   6.511   4.797
 7070SOL    HW222110   0.083   6.586   4.655
 7071SOL     OW22111   1.295   6.381   5.984
 7071SOL    HW122112   1.204   6.403   6.018
 7071SOL    HW222113   1.311   6.428   5.897
 7072SOL     OW22114   0.452   6.199   5.835
 7072SOL    HW122115   0.464   6.297   5.819
 7072SOL    HW222116   0.504   6.173   5.917
 7073SOL     OW22117   5.539   6.826   4.500
 7073SOL    HW122118   5.478   6.889   4.548
 7073SOL    HW222119   5.560   6.862   4.410
 7074SOL     OW22120   4.159   2.651   1.419
 7074SOL    HW122121   4.071   2.699   1.419
 7074SOL    HW222122   4.145   2.554   1.400
 7075SOL     OW22123   0.911   5.759   5.690
 7075SOL    HW122124   0.938   5.790   5.599
 7075SOL    HW222125   0.893   5.661   5.689
 7076SOL     OW22126   4.436   2.039   6.892
 7076SOL    HW122127   4.354   2.028   6.837
 7076SOL    HW222128   4.418   2.005   6.985
 7077SOL     OW22129   2.178   4.385   4.769
 7077SOL    HW122130   2.236   4.434   4.835
 7077SOL    HW222131   2.146   4.300   4.810
 7078SOL     OW22132   6.019   0.640   1.205
 7078SOL    HW122133   5.960   0.699   1.150
 7078SOL    HW222134   6.034   0.554   1.157
 7079SOL     OW22135   6.267   6.567   5.255
 7079SOL    HW122136   6.178   6.576   5.211
 7079SOL    HW222137   6.254   6.531   5.347
 7080SOL     OW22138   3.541   2.053   4.429
 7080SOL    HW122139   3.515   2.111   4.352
 7080SOL    HW222140   3.472   2.060   4.501
 7081SOL     OW22141   3.034   0.931   6.678
 7081SOL    HW122142   2.940   0.945   6.648
 7081SOL    HW222143   3.073   1.017   6.710
 7082SOL     OW22144   6.365   4.888   6.796
 7082SOL    HW122145   6.306   4.807   6.806
 7082SOL    HW222146   6.338   4.939   6.714
 7083SOL     OW22147   3.183   0.956   0.038
 7083SOL    HW122148   3.253   0.955   6.995
 7083SOL    HW222149   3.172   1.049   0.074
 7084SOL     OW22150   0.256   6.703   5.807
 7084SOL    HW122151   0.216   6.770   5.745
 7084SOL    HW222152   0.278   6.746   5.894
 7085SOL     OW22153   1.907   1.607   2.218
 7085SOL    HW122154   1.871   1.515   2.202
 7085SOL    HW222155   1.941   1.613   2.312
 7086SOL     OW22156   4.654   0.695   5.727
 7086SOL    HW122157   4.686   0.766   5.663
 7086SOL    HW222158   4.554   0.695   5.728
 7087SOL     OW22159   5.923   4.707   3.965
 7087SOL    HW122160   5.835   4.679   4.004
 7087SOL    HW222161   5.965   4.775   4.024
 7088SOL     OW22162   5.496   2.402   3.033
 7088SOL    HW122163   5.438   2.456   2.971
 7088SOL    HW222164   5.469   2.420   3.127
 7089SOL     OW22165   3.866   2.132   5.473
 7089SOL    HW122166   3.862   2.053   5.411
 7089SOL    HW222167   3.783   2.187   5.463
 7090SOL     OW22168   2.355   1.581   6.283
 7090SOL    HW122169   2.285   1.511   6.268
 7090SOL    HW222170   2.337   1.629   6.369
 7091SOL     OW22171   0.164   1.871   0.313
 7091SOL    HW122172   0.186   1.783   0.353
 7091SOL    HW222173   0.218   1.884   0.229
 7092SOL     OW22174   4.407   2.826   6.257
 7092SOL    HW122175   4.415   2.924   6.278
 7092SOL    HW222176   4.312   2.797   6.270
 7093SOL     OW22177   2.876   3.609   3.235
 7093SOL    HW122178   2.781   3.637   3.217
 7093SOL    HW222179   2.919   3.580   3.150
 7094SOL     OW22180   0.855   5.272   5.834
 7094SOL    HW122181   0.875   5.263   5.932
 7094SOL    HW222182   0.757   5.277   5.820
 7095SOL     OW22183   3.816   3.389   6.518
 7095SOL    HW122184   3.787   3.326   6.590
 7095SOL    HW222185   3.916   3.384   6.508
 7096SOL     OW22186   6.304   0.359   3.783
 7096SOL    HW122187   6.343   0.450   3.768
 7096SOL    HW222188   6.212   0.355   3.745
 7097SOL     OW22189   6.088   1.147   1.370
 7097SOL    HW122190   6.004   1.130   1.421
 7097SOL    HW222191   6.077   1.115   1.275
 7098SOL     OW22192   0.657   0.826   4.156
 7098SOL    HW122193   0.661   0.750   4.092
 7098SOL    HW222194   0.578   0.884   4.135
 7099SOL     OW22195   2.990   0.747   5.209
 7099SOL    HW122196   2.933   0.665   5.219
 7099SOL    HW222197   3.084   0.720   5.190
 7100SOL     OW22198   5.526   3.381   1.068
 7100SOL    HW122199   5.622   3.393   1.042
 7100SOL    HW222200   5.488   3.304   1.016
 7101SOL     OW22201   1.745   0.199   4.730
 7101SOL    HW122202   1.764   0.173   4.636
 7101SOL    HW222203   1.705   0.121   4.779
 7102SOL     OW22204   4.672   0.961   0.794
 7102SOL    HW122205   4.696   0.935   0.701
 7102SOL    HW222206   4.632   0.883   0.841
 7103SOL     OW22207   4.402   5.333   1.318
 7103SOL    HW122208   4.315   5.382   1.312
 7103SOL    HW222209   4.442   5.324   1.226
 7104SOL     OW22210   1.165   3.601   4.924
 7104SOL    HW122211   1.078   3.644   4.951
 7104SOL    HW222212   1.216   3.576   5.006
 7105SOL     OW22213   3.003   2.656   5.568
 7105SOL    HW122214   2.997   2.618   5.476
 7105SOL    HW222215   3.084   2.715   5.575
 7106SOL     OW22216   3.005   3.821   2.709
 7106SOL    HW122217   3.029   3.735   2.663
 7106SOL    HW222218   2.991   3.803   2.806
 7107SOL     OW22219   3.107   1.278   0.783
 7107SOL    HW122220   3.122   1.374   0.760
 7107SOL    HW222221   3.098   1.268   0.882
 7108SOL     OW22222   3.967   6.479   2.786
 7108SOL    HW122223   4.038   6.409   2.771
 7108SOL    HW222224   3.892   6.465   2.722
 7109SOL     OW22225   3.806   0.038   6.357
 7109SOL    HW122226   3.840   7.022   6.441
 7109SOL    HW222227   3.741   0.110   6.380
 7110SOL     OW22228   3.555   6.263   3.895
 7110SOL    HW122229   3.530   6.347   3.942
 7110SOL    HW222230   3.652   6.245   3.909
 7111SOL     OW22231   2.490   2.276   4.733
 7111SOL    HW122232   2.524   2.198   4.680
 7111SOL    HW222233   2.440   2.243   4.813
 7112SOL     OW22234   2.406   5.636   4.125
 7112SOL    HW122235   2.416   5.537   4.120
 7112SOL    HW222236   2.476   5.680   4.069
 7113SOL     OW22237   3.293   3.725   4.982
 7113SOL    HW122238   3.202   3.744   4.946
 7113SOL    HW222239   3.346   3.672   4.916
 7114SOL     OW22240   3.827   6.628   1.156
 7114SOL    HW122241   3.879   6.679   1.225
 7114SOL    HW222242   3.742   6.677   1.135
 7115SOL     OW22243   5.161   3.196   2.234
 7115SOL    HW122244   5.079   3.179   2.178
 7115SOL    HW222245   5.227   3.122   2.219
 7116SOL     OW22246   5.405   4.235   3.485
 7116SOL    HW122247   5.468   4.163   3.514
 7116SOL    HW222248   5.426   4.261   3.391
 7117SOL     OW22249   6.641   6.356   4.570
 7117SOL    HW122250   6.657   6.300   4.488
 7117SOL    HW222251   6.592   6.302   4.638
 7118SOL     OW22252   2.784   4.055   0.664
 7118SOL    HW122253   2.702   4.054   0.721
 7118SOL    HW222254   2.850   3.988   0.699
 7119SOL     OW22255   5.025   1.567   3.346
 7119SOL    HW122256   4.998   1.471   3.349
 7119SOL    HW222257   5.010   1.603   3.254
 7120SOL     OW22258   4.166   2.106   2.098
 7120SOL    HW122259   4.152   2.139   2.005
 7120SOL    HW222260   4.105   2.154   2.160
 7121SOL     OW22261   2.488   6.991   2.158
 7121SOL    HW122262   2.416   0.032   2.148
 7121SOL    HW222263   2.532   6.975   2.070
 7122SOL     OW22264   0.115   0.597   5.881
 7122SOL    HW122265   0.089   0.635   5.793
 7122SOL    HW222266   0.189   0.651   5.921
 7123SOL     OW22267   2.180   4.740   2.110
 7123SOL    HW122268   2.277   4.723   2.094
 7123SOL    HW222269   2.169   4.798   2.191
 7124SOL     OW22270   0.216   2.641   0.510
 7124SOL    HW122271   0.301   2.688   0.488
 7124SOL    HW222272   0.174   2.607   0.426
 7125SOL     OW22273   6.362   6.650   0.797
 7125SOL    HW122274   6.461   6.665   0.802
 7125SOL    HW222275   6.329   6.616   0.885
 7126SOL     OW22276   3.457   4.457   0.477
 7126SOL    HW122277   3.552   4.452   0.508
 7126SOL    HW222278   3.397   4.479   0.554
 7127SOL     OW22279   2.379   6.125   4.513
 7127SOL    HW122280   2.438   6.156   4.587
 7127SOL    HW222281   2.290   6.099   4.550
 7128SOL     OW22282   2.697   5.503   0.376
 7128SOL    HW122283   2.605   5.540   0.395
 7128SOL    HW222284   2.689   5.425   0.313
 7129SOL     OW22285   2.928   0.618   0.640
 7129SOL    HW122286   3.013   0.568   0.622
 7129SOL    HW222287   2.940   0.677   0.720
 7130SOL     OW22288   3.466   4.532   5.604
 7130SOL    HW122289   3.367   4.544   5.619
 7130SOL    HW222290   3.504   4.477   5.678
 7131SOL     OW22291   2.553   1.483   0.306
 7131SOL    HW122292   2.487   1.498   0.233
 7131SOL    HW222293   2.592   1.572   0.334
 7132SOL     OW22294   3.293   3.544   0.040
 7132SOL    HW122295   3.391   3.523   0.039
 7132SOL    HW222296   3.270   3.600   6.987
 7133SOL     OW22297   4.926   5.982   4.199
 7133SOL    HW122298   4.926   5.882   4.197
 7133SOL    HW222299   4.966   6.017   4.114
 7134SOL     OW22300   5.883   5.826   1.794
 7134SOL    HW122301   5.830   5.771   1.729
 7134SOL    HW222302   5.827   5.843   1.876
 7135SOL     OW22303   1.427   2.312   2.866
 7135SOL    HW122304   1.510   2.306   2.809
 7135SOL    HW222305   1.447   2.364   2.948
 7136SOL     OW22306   1.724   2.404   0.978
 7136SOL    HW122307   1.703   2.398   0.880
 7136SOL    HW222308   1.784   2.329   1.004
 7137SOL     OW22309   4.447   0.491   6.952
 7137SOL    HW122310   4.525   0.511   7.012
 7137SOL    HW222311   4.398   0.576   6.932
 7138SOL     OW22312   1.553   2.808   0.552
 7138SOL    HW122313   1.523   2.745   0.480
 7138SOL    HW222314   1.639   2.775   0.591
 7139SOL     OW22315   5.110   4.371   2.683
 7139SOL    HW122316   5.151   4.290   2.724
 7139SOL    HW222317   5.015   4.378   2.712
 7140SOL     OW22318   5.805   4.055   4.430
 7140SOL    HW122319   5.812   3.960   4.399
 7140SOL    HW222320   5.894   4.088   4.459
 7141SOL     OW22321   3.020   5.816   1.686
 7141SOL    HW122322   3.017   5.756   1.606
 7141SOL    HW222323   2.927   5.829   1.720
 7142SOL     OW22324   4.614   0.204   3.854
 7142SOL    HW122325   4.517   0.197   3.830
 7142SOL    HW222326   4.659   0.116   3.839
 7143SOL     OW22327   1.436   3.024   5.944
 7143SOL    HW122328   1.506   3.075   5.996
 7143SOL    HW222329   1.476   2.991   5.859
 7144SOL     OW22330   1.833   1.723   3.728
 7144SOL    HW122331   1.826   1.787   3.804
 7144SOL    HW222332   1.893   1.762   3.657
 7145SOL     OW22333   4.570   6.857   6.410
 7145SOL    HW122334   4.575   6.935   6.473
 7145SOL    HW222335   4.620   6.780   6.449
 7146SOL     OW22336   2.257   0.696   0.291
 7146SOL    HW122337   2.279   0.655   0.202
 7146SOL    HW222338   2.173   0.654   0.327
 7147SOL     OW22339   6.678   6.373   3.150
 7147SOL    HW122340   6.611   6.402   3.218
 7147SOL    HW222341   6.642   6.390   3.058
 7148SOL     OW22342   0.309   6.885   0.572
 7148SOL    HW122343   0.353   6.837   0.497
 7148SOL    HW222344   0.272   6.819   0.637
 7149SOL     OW22345   6.579   6.540   2.913
 7149SOL    HW122346   6.526   6.519   2.996
 7149SOL    HW222347   6.646   6.611   2.933
 7150SOL     OW22348   4.223   1.824   2.094
 7150SOL    HW122349   4.294   1.791   2.032
 7150SOL    HW222350   4.205   1.921   2.076
 7151SOL     OW22351   1.642   6.181   0.772
 7151SOL    HW122352   1.651   6.084   0.750
 7151SOL    HW222353   1.629   6.191   0.871
 7152SOL     OW22354   0.712   1.635   4.821
 7152SOL    HW122355   0.739   1.731   4.818
 7152SOL    HW222356   0.744   1.588   4.739
 7153SOL     OW22357   2.898   5.515   2.773
 7153SOL    HW122358   2.900   5.424   2.731
 7153SOL    HW222359   2.821   5.521   2.836
 7154SOL     OW22360   3.854   0.334   4.496
 7154SOL    HW122361   3.899   0.246   4.484
 7154SOL    HW222362   3.792   0.330   4.575
 7155SOL     OW22363   2.335   4.686   1.355
 7155SOL    HW122364   2.286   4.744   1.290
 7155SOL    HW222365   2.425   4.724   1.374
 7156SOL     OW22366   0.219   4.216   4.372
 7156SOL    HW122367   0.125   4.182   4.383
 7156SOL    HW222368   0.254   4.247   4.460
 7157SOL     OW22369   6.010   4.776   0.798
 7157SOL    HW122370   5.990   4.759   0.895
 7157SOL    HW222371   6.083   4.714   0.768
 7158SOL     OW22372   1.102   0.340   2.638
 7158SOL    HW122373   1.041   0.404   2.685
 7158SOL    HW222374   1.068   0.247   2.651
 7159SOL     OW22375   0.484   3.847   2.732
 7159SOL    HW122376   0.467   3.897   2.647
 7159SOL    HW222377   0.577   3.811   2.731
 7160SOL     OW22378   5.567   1.076   3.130
 7160SOL    HW122379   5.548   1.051   3.224
 7160SOL    HW222380   5.510   1.153   3.103
 7161SOL     OW22381   3.029   3.776   4.884
 7161SOL    HW122382   3.030   3.876   4.872
 7161SOL    HW222383   3.063   3.733   4.800
 7162SOL     OW22384   2.166   5.841   5.761
 7162SOL    HW122385   2.112   5.899   5.700
 7162SOL    HW222386   2.118   5.832   5.849
 7163SOL     OW22387   2.765   6.435   2.849
 7163SOL    HW122388   2.830   6.398   2.783
 7163SOL    HW222389   2.758   6.534   2.837
 7164SOL     OW22390   1.850   1.154   3.836
 7164SOL    HW122391   1.829   1.098   3.916
 7164SOL    HW222392   1.773   1.214   3.815
 7165SOL     OW22393   6.913   1.433   1.391
 7165SOL    HW122394   6.837   1.383   1.431
 7165SOL    HW222395   6.985   1.444   1.459
 7166SOL     OW22396   5.535   3.088   6.854
 7166SOL    HW122397   5.465   3.038   6.804
 7166SOL    HW222398   5.625   3.064   6.817
 7167SOL     OW22399   5.088   3.764   4.742
 7167SOL    HW122400   5.111   3.793   4.835
 7167SOL    HW222401   5.069   3.665   4.742
 7168SOL     OW22402   1.579   2.934   3.626
 7168SOL    HW122403   1.589   3.032   3.610
 7168SOL    HW222404   1.658   2.886   3.589
 7169SOL     OW22405   0.261   3.556   4.990
 7169SOL    HW122406   0.310   3.640   4.967
 7169SOL    HW222407   0.164   3.577   5.006
 7170SOL     OW22408   4.698   6.367   3.514
 7170SOL    HW122409   4.626   6.379   3.581
 7170SOL    HW222410   4.679   6.287   3.458
 7171SOL     OW22411   5.954   4.315   6.571
 7171SOL    HW122412   5.940   4.406   6.608
 7171SOL    HW222413   5.866   4.271   6.555
 7172SOL     OW22414   1.567   0.859   5.269
 7172SOL    HW122415   1.506   0.788   5.304
 7172SOL    HW222416   1.540   0.948   5.307
 7173SOL     OW22417   0.221   4.916   5.532
 7173SOL    HW122418   0.153   4.985   5.556
 7173SOL    HW222419   0.182   4.825   5.543
 7174SOL     OW22420   0.721   4.504   0.137
 7174SOL    HW122421   0.673   4.446   0.071
 7174SOL    HW222422   0.683   4.596   0.135
 7175SOL     OW22423   5.393   3.399   6.682
 7175SOL    HW122424   5.482   3.430   6.716
 7175SOL    HW222425   5.406   3.328   6.613
 7176SOL     OW22426   0.928   6.357   3.378
 7176SOL    HW122427   1.021   6.342   3.346
 7176SOL    HW222428   0.875   6.273   3.368
 7177SOL     OW22429   2.180   6.675   4.322
 7177SOL    HW122430   2.182   6.675   4.422
 7177SOL    HW222431   2.114   6.743   4.290
 7178SOL     OW22432   2.302   3.294   5.593
 7178SOL    HW122433   2.322   3.357   5.518
 7178SOL    HW222434   2.383   3.241   5.615
 7179SOL     OW22435   1.548   3.929   4.664
 7179SOL    HW122436   1.549   3.983   4.580
 7179SOL    HW222437   1.588   3.839   4.645
 7180SOL     OW22438   1.498   4.269   6.412
 7180SOL    HW122439   1.572   4.220   6.457
 7180SOL    HW222440   1.520   4.367   6.409
 7181SOL     OW22441   2.055   5.830   0.346
 7181SOL    HW122442   2.043   5.905   0.281
 7181SOL    HW222443   2.111   5.861   0.423
 7182SOL     OW22444   1.902   2.943   5.240
 7182SOL    HW122445   1.990   2.982   5.266
 7182SOL    HW222446   1.916   2.875   5.167
 7183SOL     OW22447   1.378   5.925   0.537
 7183SOL    HW122448   1.378   5.895   0.632
 7183SOL    HW222449   1.450   5.992   0.522
 7184SOL     OW22450   0.665   0.043   3.075
 7184SOL    HW122451   0.735   0.059   3.005
 7184SOL    HW222452   0.691   0.093   3.158
 7185SOL     OW22453   5.504   0.766   5.407
 7185SOL    HW122454   5.480   0.758   5.310
 7185SOL    HW222455   5.582   0.828   5.417
 7186SOL     OW22456   6.602   6.994   6.926
 7186SOL    HW122457   6.691   0.014   6.925
 7186SOL    HW222458   6.614   6.900   6.894
 7187SOL     OW22459   3.065   4.270   0.284
 7187SOL    HW122460   3.061   4.370   0.287
 7187SOL    HW222461   2.973   4.233   0.296
 7188SOL     OW22462   6.308   7.014   0.324
 7188SOL    HW122463   6.321   0.065   0.263
 7188SOL    HW222464   6.345   6.931   0.282
 7189SOL     OW22465   6.733   0.893   6.555
 7189SOL    HW122466   6.638   0.909   6.529
 7189SOL    HW222467   6.761   0.802   6.524
 7190SOL     OW22468   6.985   4.034   2.970
 7190SOL    HW122469   0.014   3.950   2.969
 7190SOL    HW222470   6.888   4.009   2.967
 7191SOL     OW22471   0.584   4.053   3.339
 7191SOL    HW122472   0.605   4.025   3.433
 7191SOL    HW222473   0.532   4.138   3.341
 7192SOL     OW22474   3.087   4.777   5.888
 7192SOL    HW122475   3.171   4.787   5.835
 7192SOL    HW222476   3.037   4.697   5.856
 7193SOL     OW22477   2.133   2.306   2.524
 7193SOL    HW122478   2.205   2.340   2.463
 7193SOL    HW222479   2.172   2.279   2.611
 7194SOL     OW22480   2.973   1.798   0.979
 7194SOL    HW122481   3.048   1.865   0.984
 7194SOL    HW222482   2.988   1.725   1.045
 7195SOL     OW22483   0.188   5.228   6.389
 7195SOL    HW122484   0.126   5.202   6.315
 7195SOL    HW222485   0.254   5.295   6.355
 7196SOL     OW22486   3.233   4.246   1.664
 7196SOL    HW122487   3.292   4.180   1.711
 7196SOL    HW222488   3.288   4.303   1.603
 7197SOL     OW22489   6.780   2.102   6.098
 7197SOL    HW122490   6.769   2.112   6.196
 7197SOL    HW222491   6.868   2.141   6.070
 7198SOL     OW22492   0.685   0.990   6.462
 7198SOL    HW122493   0.716   0.967   6.370
 7198SOL    HW222494   0.628   1.072   6.459
 7199SOL     OW22495   2.254   0.587   2.328
 7199SOL    HW122496   2.301   0.649   2.265
 7199SOL    HW222497   2.312   0.570   2.408
 7200SOL     OW22498   2.578   2.090   6.829
 7200SOL    HW122499   2.480   2.110   6.840
 7200SOL    HW222500   2.619   2.158   6.768
 7201SOL     OW22501   1.452   5.503   4.311
 7201SOL    HW122502   1.480   5.502   4.407
 7201SOL    HW222503   1.532   5.514   4.253
 7202SOL     OW22504   4.401   0.511   6.041
 7202SOL    HW122505   4.352   0.459   5.971
 7202SOL    HW222506   4.498   0.486   6.040
 7203SOL     OW22507   0.206   2.336   1.298
 7203SOL    HW122508   0.244   2.321   1.390
 7203SOL    HW222509   0.278   2.324   1.230
 7204SOL     OW22510   6.772   0.093   5.294
 7204SOL    HW122511   6.710   0.171   5.303
 7204SOL    HW222512   6.719   0.008   5.287
 7205SOL     OW22513   1.345   5.782   2.933
 7205SOL    HW122514   1.349   5.867   2.986
 7205SOL    HW222515   1.317   5.707   2.993
 7206SOL     OW22516   1.690   0.290   1.059
 7206SOL    HW122517   1.742   0.315   1.141
 7206SOL    HW222518   1.703   0.192   1.041
 7207SOL     OW22519   4.085   7.005   2.013
 7207SOL    HW122520   4.183   7.012   1.995
 7207SOL    HW222521   4.069   7.013   2.112
 7208SOL     OW22522   4.306   6.433   3.912
 7208SOL    HW122523   4.387   6.385   3.878
 7208SOL    HW222524   4.225   6.403   3.860
 7209SOL     OW22525   3.189   3.220   1.972
 7209SOL    HW122526   3.285   3.195   1.988
 7209SOL    HW222527   3.141   3.222   2.060
 7210SOL     OW22528   4.550   6.856   4.064
 7210SOL    HW122529   4.457   6.875   4.094
 7210SOL    HW222530   4.597   6.942   4.043
 7211SOL     OW22531   2.378   5.423   3.844
 7211SOL    HW122532   2.474   5.408   3.822
 7211SOL    HW222533   2.327   5.439   3.760
 7212SOL     OW22534   0.888   6.447   3.994
 7212SOL    HW122535   0.934   6.391   3.925
 7212SOL    HW222536   0.932   6.536   3.999
 7213SOL     OW22537   6.100   0.229   6.461
 7213SOL    HW122538   6.158   0.164   6.510
 7213SOL    HW222539   6.019   0.248   6.516
 7214SOL     OW22540   1.227   5.948   5.076
 7214SOL    HW122541   1.303   5.959   5.012
 7214SOL    HW222542   1.182   6.036   5.090
 7215SOL     OW22543   0.532   2.890   4.491
 7215SOL    HW122544   0.578   2.967   4.535
 7215SOL    HW222545   0.567   2.804   4.529
 7216SOL     OW22546   2.429   6.403   0.124
 7216SOL    HW122547   2.358   6.354   0.174
 7216SOL    HW222548   2.517   6.392   0.171
 7217SOL     OW22549   2.130   4.197   2.481
 7217SOL    HW122550   2.199   4.235   2.418
 7217SOL    HW222551   2.073   4.132   2.431
 7218SOL     OW22552   4.960   2.348   5.270
 7218SOL    HW122553   4.878   2.405   5.266
 7218SOL    HW222554   5.037   2.397   5.227
 7219SOL     OW22555   4.648   6.216   4.395
 7219SOL    HW122556   4.709   6.244   4.321
 7219SOL    HW222557   4.578   6.286   4.409
 7220SOL     OW22558   0.484   5.523   4.170
 7220SOL    HW122559   0.517   5.573   4.250
 7220SOL    HW222560   0.561   5.478   4.125
 7221SOL     OW22561   5.087   4.891   4.765
 7221SOL    HW122562   5.168   4.945   4.789
 7221SOL    HW222563   5.010   4.921   4.821
 7222SOL     OW22564   6.188   0.176   1.939
 7222SOL    HW122565   6.272   0.215   1.976
 7222SOL    HW222566   6.109   0.218   1.984
 7223SOL     OW22567   3.077   2.123   1.547
 7223SOL    HW122568   3.089   2.193   1.617
 7223SOL    HW222569   2.981   2.116   1.523
 7224SOL     OW22570   5.633   2.452   4.176
 7224SOL    HW122571   5.656   2.378   4.113
 7224SOL    HW222572   5.538   2.480   4.160
 7225SOL     OW22573   1.420   5.626   5.872
 7225SOL    HW122574   1.367   5.702   5.909
 7225SOL    HW222575   1.435   5.557   5.943
 7226SOL     OW22576   0.764   0.971   0.549
 7226SOL    HW122577   0.705   0.940   0.475
 7226SOL    HW222578   0.763   0.904   0.623
 7227SOL     OW22579   0.771   2.097   0.727
 7227SOL    HW122580   0.765   2.084   0.826
 7227SOL    HW222581   0.733   2.017   0.680
 7228SOL     OW22582   0.175   1.126   1.872
 7228SOL    HW122583   0.152   1.055   1.805
 7228SOL    HW222584   0.226   1.199   1.827
 7229SOL     OW22585   0.568   0.518   4.762
 7229SOL    HW122586   0.616   0.600   4.793
 7229SOL    HW222587   0.472   0.540   4.744
 7230SOL     OW22588   5.204   5.600   4.514
 7230SOL    HW122589   5.297   5.626   4.489
 7230SOL    HW222590   5.195   5.603   4.614
 7231SOL     OW22591   4.846   6.515   0.143
 7231SOL    HW122592   4.888   6.555   0.061
 7231SOL    HW222593   4.914   6.509   0.215
 7232SOL     OW22594   4.537   5.233   3.160
 7232SOL    HW122595   4.607   5.251   3.230
 7232SOL    HW222596   4.544   5.138   3.130
 7233SOL     OW22597   0.051   2.577   4.254
 7233SOL    HW122598   0.008   2.535   4.175
 7233SOL    HW222599   0.029   2.525   4.337
 7234SOL     OW22600   5.703   2.698   2.975
 7234SOL    HW122601   5.766   2.627   3.007
 7234SOL    HW222602   5.660   2.742   3.053
 7235SOL     OW22603   6.694   4.268   3.348
 7235SOL    HW122604   6.665   4.189   3.401
 7235SOL    HW222605   6.664   4.258   3.253
 7236SOL     OW22606   3.151   1.771   3.143
 7236SOL    HW122607   3.116   1.731   3.058
 7236SOL    HW222608   3.103   1.856   3.162
 7237SOL     OW22609   6.567   6.775   5.481
 7237SOL    HW122610   6.604   6.836   5.411
 7237SOL    HW222611   6.483   6.814   5.517
 7238SOL     OW22612   2.247   2.097   1.203
 7238SOL    HW122613   2.244   2.059   1.110
 7238SOL    HW222614   2.166   2.066   1.254
 7239SOL     OW22615   2.852   1.100   3.559
 7239SOL    HW122616   2.932   1.099   3.498
 7239SOL    HW222617   2.849   1.187   3.608
 7240SOL     OW22618   2.703   3.822   6.303
 7240SOL    HW122619   2.761   3.842   6.382
 7240SOL    HW222620   2.745   3.861   6.221
 7241SOL     OW22621   3.240   0.423   6.879
 7241SOL    HW122622   3.230   0.411   6.977
 7241SOL    HW222623   3.150   0.432   6.837
 7242SOL     OW22624   6.607   5.837   0.061
 7242SOL    HW122625   6.645   5.810   7.000
 7242SOL    HW222626   6.524   5.784   0.079
 7243SOL     OW22627   0.505   4.337   6.283
 7243SOL    HW122628   0.447   4.286   6.219
 7243SOL    HW222629   0.601   4.312   6.268
 7244SOL     OW22630   5.128   0.860   1.106
 7244SOL    HW122631   5.185   0.778   1.100
 7244SOL    HW222632   5.074   0.869   1.022
 7245SOL     OW22633   0.795   2.012   5.075
 7245SOL    HW122634   0.813   2.088   5.137
 7245SOL    HW222635   0.839   1.929   5.110
 7246SOL     OW22636   5.947   6.869   4.695
 7246SOL    HW122637   5.924   6.772   4.706
 7246SOL    HW222638   5.908   6.904   4.611
 7247SOL     OW22639   3.253   6.518   3.438
 7247SOL    HW122640   3.330   6.578   3.417
 7247SOL    HW222641   3.168   6.570   3.430
 7248SOL     OW22642   3.670   1.333   2.966
 7248SOL    HW122643   3.621   1.283   2.895
 7248SOL    HW222644   3.633   1.425   2.974
 7249SOL     OW22645   5.959   5.171   1.583
 7249SOL    HW122646   5.998   5.148   1.494
 7249SOL    HW222647   5.909   5.092   1.619
 7250SOL     OW22648   3.820   5.366   6.010
 7250SOL    HW122649   3.741   5.306   6.007
 7250SOL    HW222650   3.904   5.312   6.001
 7251SOL     OW22651   6.853   6.680   5.434
 7251SOL    HW122652   6.847   6.645   5.340
 7251SOL    HW222653   6.760   6.695   5.469
 7252SOL     OW22654   3.286   3.300   3.707
 7252SOL    HW122655   3.188   3.283   3.695
 7252SOL    HW222656   3.331   3.216   3.735
 7253SOL     OW22657   1.892   6.828   0.725
 7253SOL    HW122658   1.908   6.730   0.722
 7253SOL    HW222659   1.811   6.851   0.671
 7254SOL     OW22660   4.877   5.334   5.170
 7254SOL    HW122661   4.975   5.346   5.189
 7254SOL    HW222662   4.850   5.241   5.193
 7255SOL     OW22663   3.416   3.734   1.152
 7255SOL    HW122664   3.465   3.802   1.097
 7255SOL    HW222665   3.480   3.685   1.210
 7256SOL     OW22666   5.231   4.926   4.389
 7256SOL    HW122667   5.135   4.920   4.415
 7256SOL    HW222668   5.268   5.015   4.416
 7257SOL     OW22669   5.170   2.943   3.730
 7257SOL    HW122670   5.120   2.918   3.812
 7257SOL    HW222671   5.180   2.864   3.670
 7258SOL     OW22672   4.076   1.330   3.576
 7258SOL    HW122673   4.077   1.427   3.603
 7258SOL    HW222674   4.026   1.277   3.645
 7259SOL     OW22675   3.817   3.808   1.636
 7259SOL    HW122676   3.804   3.817   1.537
 7259SOL    HW222677   3.732   3.775   1.677
 7260SOL     OW22678   3.062   2.234   3.061
 7260SOL    HW122679   3.161   2.249   3.056
 7260SOL    HW222680   3.044   2.145   3.102
 7261SOL     OW22681   2.608   2.990   0.970
 7261SOL    HW122682   2.579   2.937   1.050
 7261SOL    HW222683   2.676   3.058   0.998
 7262SOL     OW22684   5.382   2.044   4.326
 7262SOL    HW122685   5.428   2.047   4.238
 7262SOL    HW222686   5.334   2.131   4.341
 7263SOL     OW22687   0.345   5.994   2.352
 7263SOL    HW122688   0.291   5.938   2.289
 7263SOL    HW222689   0.339   5.955   2.444
 7264SOL     OW22690   6.514   1.319   6.927
 7264SOL    HW122691   6.568   1.337   7.009
 7264SOL    HW222692   6.574   1.326   6.847
 7265SOL     OW22693   5.490   4.996   5.652
 7265SOL    HW122694   5.441   4.920   5.694
 7265SOL    HW222695   5.581   4.966   5.624
 7266SOL     OW22696   4.019   0.500   0.988
 7266SOL    HW122697   3.996   0.470   1.081
 7266SOL    HW222698   3.947   0.561   0.954
 7267SOL     OW22699   6.936   5.065   5.313
 7267SOL    HW122700   6.999   5.014   5.253
 7267SOL    HW222701   6.975   5.071   5.405
 7268SOL     OW22702   4.439   4.891   3.540
 7268SOL    HW122703   4.356   4.882   3.485
 7268SOL    HW222704   4.415   4.895   3.637
 7269SOL     OW22705   6.824   6.072   1.330
 7269SOL    HW122706   6.885   6.085   1.408
 7269SOL    HW222707   6.858   5.997   1.273
 7270SOL     OW22708   1.242   2.338   3.735
 7270SOL    HW122709   1.288   2.392   3.805
 7270SOL    HW222710   1.225   2.246   3.770
 7271SOL     OW22711   0.468   4.821   3.582
 7271SOL    HW122712   0.502   4.770   3.502
 7271SOL    HW222713   0.516   4.790   3.664
 7272SOL     OW22714   6.045   4.292   2.205
 7272SOL    HW122715   6.003   4.219   2.258
 7272SOL    HW222716   6.137   4.264   2.176
 7273SOL     OW22717   5.688   4.456   1.903
 7273SOL    HW122718   5.786   4.437   1.896
 7273SOL    HW222719   5.642   4.427   1.819
 7274SOL     OW22720   0.347   6.806   6.050
 7274SOL    HW122721   0.318   6.820   6.145
 7274SOL    HW222722   0.416   6.734   6.047
 7275SOL     OW22723   6.830   0.667   1.404
 7275SOL    HW122724   6.887   0.732   1.354
 7275SOL    HW222725   6.740   0.708   1.422
 7276SOL     OW22726   3.453   1.410   3.832
 7276SOL    HW122727   3.518   1.352   3.783
 7276SOL    HW222728   3.491   1.502   3.842
 7277SOL     OW22729   5.716   0.833   5.095
 7277SOL    HW122730   5.669   0.834   5.007
 7277SOL    HW222731   5.654   0.865   5.166
 7278SOL     OW22732   3.622   2.145   3.225
 7278SOL    HW122733   3.697   2.203   3.194
 7278SOL    HW222734   3.643   2.049   3.204
 7279SOL     OW22735   4.269   3.867   6.653
 7279SOL    HW122736   4.291   3.770   6.640
 7279SOL    HW222737   4.194   3.893   6.593
 7280SOL     OW22738   6.041   2.391   5.114
 7280SOL    HW122739   6.044   2.361   5.019
 7280SOL    HW222740   5.950   2.376   5.151
 7281SOL     OW22741   2.946   7.001   0.628
 7281SOL    HW122742   2.962   0.008   0.721
 7281SOL    HW222743   2.867   0.022   0.588
 7282SOL     OW22744   6.619   5.978   1.063
 7282SOL    HW122745   6.691   6.014   1.004
 7282SOL    HW222746   6.623   6.023   1.152
 7283SOL     OW22747   2.485   6.554   2.163
 7283SOL    HW122748   2.575   6.571   2.202
 7283SOL    HW222749   2.443   6.477   2.211
 7284SOL     OW22750   6.636   2.525   4.263
 7284SOL    HW122751   6.694   2.488   4.336
 7284SOL    HW222752   6.677   2.608   4.226
 7285SOL     OW22753   5.337   3.777   1.717
 7285SOL    HW122754   5.256   3.812   1.764
 7285SOL    HW222755   5.356   3.684   1.749
 7286SOL     OW22756   0.950   1.166   0.737
 7286SOL    HW122757   1.006   1.248   0.730
 7286SOL    HW222758   0.927   1.134   0.645
 7287SOL     OW22759   6.510   3.056   4.321
 7287SOL    HW122760   6.434   3.111   4.356
 7287SOL    HW222761   6.483   3.015   4.234
 7288SOL     OW22762   1.745   2.938   2.173
 7288SOL    HW122763   1.758   2.952   2.075
 7288SOL    HW222764   1.785   2.850   2.199
 7289SOL     OW22765   5.799   3.367   2.093
 7289SOL    HW122766   5.860   3.320   2.157
 7289SOL    HW222767   5.808   3.466   2.104
 7290SOL     OW22768   3.086   1.011   5.043
 7290SOL    HW122769   2.997   0.979   5.076
 7290SOL    HW222770   3.130   1.065   5.115
 7291SOL     OW22771   3.861   7.008   0.318
 7291SOL    HW122772   3.916   6.963   0.388
 7291SOL    HW222773   3.816   0.061   0.357
 7292SOL     OW22774   1.826   6.961   3.226
 7292SOL    HW122775   1.738   6.913   3.230
 7292SOL    HW222776   1.824   0.000   3.151
 7293SOL     OW22777   1.672   1.370   6.323
 7293SOL    HW122778   1.709   1.277   6.311
 7293SOL    HW222779   1.741   1.437   6.294
 7294SOL     OW22780   3.223   4.588   1.359
 7294SOL    HW122781   3.218   4.635   1.271
 7294SOL    HW222782   3.209   4.490   1.344
 7295SOL     OW22783   6.509   4.081   1.195
 7295SOL    HW122784   6.605   4.077   1.169
 7295SOL    HW222785   6.478   4.176   1.193
 7296SOL     OW22786   3.836   4.840   2.863
 7296SOL    HW122787   3.879   4.918   2.816
 7296SOL    HW222788   3.741   4.862   2.883
 7297SOL     OW22789   2.903   6.702   2.511
 7297SOL    HW122790   2.819   6.652   2.531
 7297SOL    HW222791   2.887   6.800   2.522
 7298SOL     OW22792   5.387   5.363   0.022
 7298SOL    HW122793   5.437   5.326   6.970
 7298SOL    HW222794   5.446   5.361   0.102
 7299SOL     OW22795   0.859   1.433   0.992
 7299SOL    HW122796   0.828   1.506   0.930
 7299SOL    HW222797   0.849   1.345   0.947
 7300SOL     OW22798   1.385   5.001   2.090
 7300SOL    HW122799   1.366   4.947   2.172
 7300SOL    HW222800   1.474   5.046   2.100
 7301SOL     OW22801   6.764   0.636   5.427
 7301SOL    HW122802   6.778   0.734   5.415
 7301SOL    HW222803   6.705   0.601   5.354
 7302SOL     OW22804   6.621   1.780   4.902
 7302SOL    HW122805   6.662   1.703   4.851
 7302SOL    HW222806   6.553   1.745   4.966
 7303SOL     OW22807   3.437   1.029   6.765
 7303SOL    HW122808   3.493   1.049   6.684
 7303SOL    HW222809   3.466   1.088   6.840
 7304SOL     OW22810   2.026   5.231   1.844
 7304SOL    HW122811   2.098   5.270   1.787
 7304SOL    HW222812   2.028   5.131   1.835
 7305SOL     OW22813   5.284   2.733   1.375
 7305SOL    HW122814   5.349   2.671   1.420
 7305SOL    HW222815   5.315   2.827   1.385
 7306SOL     OW22816   3.917   1.515   1.866
 7306SOL    HW122817   3.820   1.532   1.887
 7306SOL    HW222818   3.951   1.588   1.806
 7307SOL     OW22819   3.823   6.709   2.656
 7307SOL    HW122820   3.786   6.617   2.669
 7307SOL    HW222821   3.753   6.768   2.615
 7308SOL     OW22822   6.958   1.599   3.284
 7308SOL    HW122823   6.932   1.618   3.189
 7308SOL    HW222824   6.882   1.623   3.344
 7309SOL     OW22825   2.144   6.335   2.529
 7309SOL    HW122826   2.045   6.347   2.527
 7309SOL    HW222827   2.180   6.364   2.618
 7310SOL     OW22828   1.288   3.419   6.357
 7310SOL    HW122829   1.345   3.463   6.287
 7310SOL    HW222830   1.328   3.331   6.382
 7311SOL     OW22831   1.037   0.350   0.469
 7311SOL    HW122832   1.114   0.389   0.518
 7311SOL    HW222833   1.050   0.251   0.458
 7312SOL     OW22834   0.621   1.199   5.251
 7312SOL    HW122835   0.614   1.298   5.240
 7312SOL    HW222836   0.616   1.156   5.161
 7313SOL     OW22837   2.829   1.345   0.691
 7313SOL    HW122838   2.920   1.374   0.664
 7313SOL    HW222839   2.802   1.265   0.638
 7314SOL     OW22840   0.301   3.293   6.659
 7314SOL    HW122841   0.298   3.204   6.705
 7314SOL    HW222842   0.211   3.312   6.619
 7315SOL     OW22843   6.199   5.567   2.853
 7315SOL    HW122844   6.266   5.540   2.923
 7315SOL    HW222845   6.158   5.485   2.814
 7316SOL     OW22846   3.422   2.110   6.120
 7316SOL    HW122847   3.338   2.110   6.066
 7316SOL    HW222848   3.417   2.180   6.190
 7317SOL     OW22849   3.683   1.392   2.183
 7317SOL    HW122850   3.747   1.427   2.114
 7317SOL    HW222851   3.593   1.433   2.167
 7318SOL     OW22852   3.682   6.837   2.170
 7318SOL    HW122853   3.618   6.761   2.182
 7318SOL    HW222854   3.762   6.806   2.118
 7319SOL     OW22855   6.451   3.076   6.420
 7319SOL    HW122856   6.426   3.023   6.339
 7319SOL    HW222857   6.387   3.152   6.431
 7320SOL     OW22858   0.227   3.969   0.895
 7320SOL    HW122859   0.147   3.997   0.843
 7320SOL    HW222860   0.239   3.870   0.886
 7321SOL     OW22861   1.572   6.392   6.101
 7321SOL    HW122862   1.639   6.392   6.027
 7321SOL    HW222863   1.480   6.397   6.064
 7322SOL     OW22864   0.698   2.740   3.009
 7322SOL    HW122865   0.696   2.773   3.103
 7322SOL    HW222866   0.660   2.810   2.948
 7323SOL     OW22867   2.996   1.571   1.161
 7323SOL    HW122868   2.928   1.498   1.170
 7323SOL    HW222869   2.977   1.643   1.228
 7324SOL     OW22870   6.445   4.408   2.388
 7324SOL    HW122871   6.433   4.403   2.289
 7324SOL    HW222872   6.530   4.456   2.409
 7325SOL     OW22873   2.758   0.366   5.986
 7325SOL    HW122874   2.762   0.266   5.992
 7325SOL    HW222875   2.846   0.404   6.015
 7326SOL     OW22876   4.452   0.678   6.415
 7326SOL    HW122877   4.471   0.773   6.441
 7326SOL    HW222878   4.354   0.661   6.424
 7327SOL     OW22879   5.898   4.077   3.833
 7327SOL    HW122880   5.862   3.998   3.783
 7327SOL    HW222881   5.975   4.116   3.783
 7328SOL     OW22882   4.091   5.900   5.665
 7328SOL    HW122883   3.992   5.888   5.654
 7328SOL    HW222884   4.131   5.816   5.702
 7329SOL     OW22885   1.275   2.543   0.073
 7329SOL    HW122886   1.218   2.513   7.023
 7329SOL    HW222887   1.228   2.616   0.123
 7330SOL     OW22888   3.187   3.180   1.058
 7330SOL    HW122889   3.201   3.089   1.098
 7330SOL    HW222890   3.270   3.209   1.012
 7331SOL     OW22891   4.803   0.152   1.863
 7331SOL    HW122892   4.794   0.112   1.953
 7331SOL    HW222893   4.829   0.081   1.797
 7332SOL     OW22894   3.844   4.420   7.015
 7332SOL    HW122895   3.836   4.361   0.069
 7332SOL    HW222896   3.839   4.516   0.017
 7333SOL     OW22897   5.932   3.271   3.173
 7333SOL    HW122898   5.854   3.241   3.227
 7333SOL    HW222899   5.988   3.192   3.148
 7334SOL     OW22900   3.058   5.975   6.089
 7334SOL    HW122901   3.061   6.048   6.021
 7334SOL    HW222902   3.031   6.013   6.178
 7335SOL     OW22903   0.460   3.404   2.874
 7335SOL    HW122904   0.415   3.490   2.849
 7335SOL    HW222905   0.445   3.386   2.972
 7336SOL     OW22906   2.397   6.384   1.538
 7336SOL    HW122907   2.460   6.331   1.480
 7336SOL    HW222908   2.449   6.427   1.612
 7337SOL     OW22909   3.097   3.048   1.376
 7337SOL    HW122910   3.057   2.960   1.400
 7337SOL    HW222911   3.127   3.096   1.459
 7338SOL     OW22912   6.184   2.267   1.649
 7338SOL    HW122913   6.093   2.307   1.656
 7338SOL    HW222914   6.247   2.333   1.607
 7339SOL     OW22915   0.428   6.482   5.827
 7339SOL    HW122916   0.360   6.547   5.795
 7339SOL    HW222917   0.483   6.523   5.900
 7340SOL     OW22918   3.992   1.498   6.855
 7340SOL    HW122919   3.975   1.477   6.758
 7340SOL    HW222920   3.923   1.451   6.910
 7341SOL     OW22921   1.600   5.306   4.880
 7341SOL    HW122922   1.592   5.240   4.954
 7341SOL    HW222923   1.521   5.367   4.880
 7342SOL     OW22924   6.791   6.991   0.522
 7342SOL    HW122925   6.785   0.012   0.434
 7342SOL    HW222926   6.816   6.896   0.506
 7343SOL     OW22927   5.693   3.925   1.863
 7343SOL    HW122928   5.742   3.839   1.849
 7343SOL    HW222929   5.693   3.978   1.778
 7344SOL     OW22930   1.872   0.005   6.560
 7344SOL    HW122931   1.792   0.063   6.572
 7344SOL    HW222932   1.954   0.055   6.584
 7345SOL     OW22933   4.203   5.312   6.138
 7345SOL    HW122934   4.259   5.242   6.182
 7345SOL    HW222935   4.107   5.300   6.166
 7346SOL     OW22936   4.231   3.999   1.108
 7346SOL    HW122937   4.287   4.043   1.178
 7346SOL    HW222938   4.190   4.069   1.050
 7347SOL     OW22939   6.893   2.665   1.873
 7347SOL    HW122940   6.877   2.717   1.957
 7347SOL    HW222941   6.845   2.577   1.878
 7348SOL     OW22942   1.710   4.099   3.425
 7348SOL    HW122943   1.687   4.030   3.357
 7348SOL    HW222944   1.774   4.165   3.385
 7349SOL     OW22945   3.785   1.742   1.488
 7349SOL    HW122946   3.859   1.743   1.555
 7349SOL    HW222947   3.706   1.694   1.527
 7350SOL     OW22948   0.279   2.940   3.845
 7350SOL    HW122949   0.287   3.024   3.791
 7350SOL    HW222950   0.370   2.909   3.873
 7351SOL     OW22951   3.991   4.600   6.669
 7351SOL    HW122952   3.930   4.642   6.737
 7351SOL    HW222953   4.010   4.505   6.696
 7352SOL     OW22954   1.668   2.131   3.523
 7352SOL    HW122955   1.621   2.200   3.467
 7352SOL    HW222956   1.705   2.175   3.605
 7353SOL     OW22957   0.762   1.478   5.457
 7353SOL    HW122958   0.775   1.379   5.462
 7353SOL    HW222959   0.851   1.523   5.450
 7354SOL     OW22960   0.436   0.571   6.351
 7354SOL    HW122961   0.342   0.594   6.325
 7354SOL    HW222962   0.439   0.477   6.385
 7355SOL     OW22963   1.533   6.173   0.517
 7355SOL    HW122964   1.573   6.206   0.431
 7355SOL    HW222965   1.578   6.218   0.594
 7356SOL     OW22966   5.260   2.606   6.530
 7356SOL    HW122967   5.222   2.582   6.619
 7356SOL    HW222968   5.202   2.569   6.458
 7357SOL     OW22969   4.742   0.975   1.501
 7357SOL    HW122970   4.683   1.056   1.493
 7357SOL    HW222971   4.685   0.893   1.497
 7358SOL     OW22972   2.549   1.961   2.674
 7358SOL    HW122973   2.521   1.870   2.644
 7358SOL    HW222974   2.619   1.996   2.611
 7359SOL     OW22975   3.422   2.425   0.967
 7359SOL    HW122976   3.517   2.422   0.936
 7359SOL    HW222977   3.381   2.512   0.940
 7360SOL     OW22978   2.514   1.981   5.072
 7360SOL    HW122979   2.546   2.040   5.147
 7360SOL    HW222980   2.591   1.958   5.013
 7361SOL     OW22981   4.673   6.396   2.197
 7361SOL    HW122982   4.695   6.415   2.101
 7361SOL    HW222983   4.697   6.301   2.218
 7362SOL     OW22984   0.489   6.533   4.676
 7362SOL    HW122985   0.437   6.458   4.718
 7362SOL    HW222986   0.426   6.599   4.635
 7363SOL     OW22987   4.877   2.027   0.412
 7363SOL    HW122988   4.880   2.073   0.500
 7363SOL    HW222989   4.788   2.042   0.369
 7364SOL     OW22990   4.180   6.859   1.563
 7364SOL    HW122991   4.240   6.785   1.535
 7364SOL    HW222992   4.222   6.947   1.541
 7365SOL     OW22993   1.856   6.111   2.372
 7365SOL    HW122994   1.851   6.197   2.321
 7365SOL    HW222995   1.885   6.130   2.466
 7366SOL     OW22996   1.128   5.478   0.051
 7366SOL    HW122997   1.071   5.427   0.115
 7366SOL    HW222998   1.169   5.556   0.097
 7367SOL     OW22999   4.520   3.882   1.274
 7367SOL    HW123000   4.520   3.884   1.373
 7367SOL    HW223001   4.512   3.787   1.242
 7368SOL     OW23002   3.211   3.035   3.879
 7368SOL    HW123003   3.165   3.124   3.884
 7368SOL    HW223004   3.208   3.002   3.785
 7369SOL     OW23005   4.796   3.514   0.610
 7369SOL    HW123006   4.784   3.454   0.531
 7369SOL    HW223007   4.852   3.468   0.679
 7370SOL     OW23008   2.222   0.433   6.348
 7370SOL    HW123009   2.299   0.401   6.294
 7370SOL    HW223010   2.166   0.495   6.292
 7371SOL     OW23011   3.093   5.707   4.479
 7371SOL    HW123012   3.191   5.714   4.494
 7371SOL    HW223013   3.059   5.622   4.520
 7372SOL     OW23014   3.218   0.523   5.472
 7372SOL    HW123015   3.218   0.623   5.474
 7372SOL    HW223016   3.186   0.488   5.560
 7373SOL     OW23017   4.677   1.759   3.893
 7373SOL    HW123018   4.626   1.674   3.905
 7373SOL    HW223019   4.645   1.806   3.811
 7374SOL     OW23020   2.651   2.493   5.388
 7374SOL    HW123021   2.611   2.485   5.297
 7374SOL    HW223022   2.713   2.572   5.391
 7375SOL     OW23023   1.552   2.271   3.969
 7375SOL    HW123024   1.608   2.239   3.892
 7375SOL    HW223025   1.510   2.359   3.945
 7376SOL     OW23026   3.346   2.465   0.267
 7376SOL    HW123027   3.403   2.519   0.329
 7376SOL    HW223028   3.376   2.482   0.173
 7377SOL     OW23029   4.564   5.903   1.977
 7377SOL    HW123030   4.521   5.906   1.887
 7377SOL    HW223031   4.628   5.979   1.986
 7378SOL     OW23032   0.047   2.156   4.294
 7378SOL    HW123033   0.045   2.142   4.393
 7378SOL    HW223034   0.133   2.201   4.269
 7379SOL     OW23035   4.000   1.860   3.002
 7379SOL    HW123036   4.059   1.844   2.922
 7379SOL    HW223037   4.046   1.923   3.065
 7380SOL     OW23038   0.063   3.001   5.487
 7380SOL    HW123039   0.111   3.060   5.422
 7380SOL    HW223040   0.124   2.979   5.564
 7381SOL     OW23041   4.803   3.016   2.363
 7381SOL    HW123042   4.894   3.005   2.404
 7381SOL    HW223043   4.795   3.108   2.325
 7382SOL     OW23044   7.015   5.778   5.002
 7382SOL    HW123045   6.994   5.742   5.093
 7382SOL    HW223046   6.991   5.710   4.933
 7383SOL     OW23047   6.910   6.840   2.757
 7383SOL    HW123048   6.858   6.879   2.681
 7383SOL    HW223049   6.999   6.885   2.764
 7384SOL     OW23050   5.018   0.899   2.201
 7384SOL    HW123051   4.941   0.937   2.253
 7384SOL    HW223052   5.001   0.909   2.103
 7385SOL     OW23053   3.677   6.541   2.272
 7385SOL    HW123054   3.593   6.553   2.325
 7385SOL    HW223055   3.705   6.445   2.274
 7386SOL     OW23056   0.357   2.856   5.445
 7386SOL    HW123057   0.361   2.803   5.529
 7386SOL    HW223058   0.292   2.815   5.382
 7387SOL     OW23059   4.484   6.643   4.885
 7387SOL    HW123060   4.463   6.578   4.812
 7387SOL    HW223061   4.399   6.672   4.929
 7388SOL     OW23062   6.997   5.973   3.898
 7388SOL    HW123063   7.016   5.916   3.818
 7388SOL    HW223064   6.945   5.920   3.965
 7389SOL     OW23065   0.969   4.662   6.654
 7389SOL    HW123066   1.066   4.642   6.666
 7389SOL    HW223067   0.917   4.577   6.651
 7390SOL     OW23068   1.634   1.848   6.749
 7390SOL    HW123069   1.703   1.910   6.713
 7390SOL    HW223070   1.548   1.861   6.699
 7391SOL     OW23071   4.568   4.295   5.274
 7391SOL    HW123072   4.588   4.233   5.198
 7391SOL    HW223073   4.622   4.269   5.353
 7392SOL     OW23074   2.780   6.496   6.528
 7392SOL    HW123075   2.785   6.404   6.491
 7392SOL    HW223076   2.844   6.505   6.604
 7393SOL     OW23077   5.927   5.657   1.483
 7393SOL    HW123078   5.995   5.711   1.533
 7393SOL    HW223079   5.871   5.718   1.427
 7394SOL     OW23080   3.086   2.467   6.069
 7394SOL    HW123081   3.066   2.383   6.120
 7394SOL    HW223082   3.004   2.523   6.062
 7395SOL     OW23083   1.187   0.961   0.063
 7395SOL    HW123084   1.150   0.891   0.125
 7395SOL    HW223085   1.230   1.033   0.117
 7396SOL     OW23086   1.217   0.851   6.849
 7396SOL    HW123087   1.250   0.759   6.868
 7396SOL    HW223088   1.205   0.902   6.934
 7397SOL     OW23089   5.745   5.078   4.336
 7397SOL    HW123090   5.820   5.120   4.387
 7397SOL    HW223091   5.700   5.010   4.394
 7398SOL     OW23092   3.309   4.914   4.112
 7398SOL    HW123093   3.240   4.887   4.179
 7398SOL    HW223094   3.289   4.871   4.024
 7399SOL     OW23095   0.412   3.516   5.397
 7399SOL    HW123096   0.370   3.486   5.311
 7399SOL    HW223097   0.383   3.456   5.471
 7400SOL     OW23098   3.367   4.003   0.112
 7400SOL    HW123099   3.392   4.099   0.124
 7400SOL    HW223100   3.398   3.951   0.191
 7401SOL     OW23101   0.703   1.542   3.454
 7401SOL    HW123102   0.737   1.453   3.424
 7401SOL    HW223103   0.625   1.568   3.397
 7402SOL     OW23104   2.121   6.078   4.560
 7402SOL    HW123105   2.060   6.123   4.625
 7402SOL    HW223106   2.091   5.983   4.546
 7403SOL     OW23107   1.809   3.105   3.039
 7403SOL    HW123108   1.891   3.126   2.986
 7403SOL    HW223109   1.730   3.151   2.998
 7404SOL     OW23110   2.164   5.993   1.708
 7404SOL    HW123111   2.114   5.967   1.791
 7404SOL    HW223112   2.184   6.091   1.711
 7405SOL     OW23113   1.235   5.041   4.543
 7405SOL    HW123114   1.269   5.134   4.526
 7405SOL    HW223115   1.174   5.042   4.622
 7406SOL     OW23116   1.657   3.849   2.264
 7406SOL    HW123117   1.594   3.863   2.340
 7406SOL    HW223118   1.744   3.813   2.299
 7407SOL     OW23119   0.393   6.290   4.836
 7407SOL    HW123120   0.423   6.227   4.765
 7407SOL    HW223121   0.452   6.281   4.916
 7408SOL     OW23122   0.743   4.332   5.245
 7408SOL    HW123123   0.744   4.254   5.183
 7408SOL    HW223124   0.836   4.367   5.257
 7409SOL     OW23125   0.226   0.852   4.342
 7409SOL    HW123126   0.164   0.780   4.310
 7409SOL    HW223127   0.236   0.921   4.270
 7410SOL     OW23128   6.666   5.024   0.772
 7410SOL    HW123129   6.604   5.008   0.848
 7410SOL    HW223130   6.747   4.966   0.781
 7411SOL     OW23131   3.043   6.658   4.381
 7411SOL    HW123132   3.055   6.678   4.478
 7411SOL    HW223133   3.060   6.560   4.365
 7412SOL     OW23134   4.088   1.358   1.132
 7412SOL    HW123135   4.090   1.456   1.151
 7412SOL    HW223136   4.138   1.309   1.203
 7413SOL     OW23137   0.046   4.593   3.990
 7413SOL    HW123138   6.973   4.598   3.986
 7413SOL    HW223139   0.076   4.501   3.965
 7414SOL     OW23140   0.208   0.234   3.162
 7414SOL    HW123141   0.275   0.214   3.090
 7414SOL    HW223142   0.116   0.209   3.130
 7415SOL     OW23143   0.782   3.817   3.068
 7415SOL    HW123144   0.714   3.812   3.141
 7415SOL    HW223145   0.762   3.748   2.999
 7416SOL     OW23146   3.332   0.463   4.108
 7416SOL    HW123147   3.262   0.533   4.094
 7416SOL    HW223148   3.290   0.373   4.107
 7417SOL     OW23149   1.367   7.009   6.655
 7417SOL    HW123150   1.314   0.021   6.580
 7417SOL    HW223151   1.305   6.979   6.728
 7418SOL     OW23152   4.192   4.999   1.204
 7418SOL    HW123153   4.176   4.994   1.303
 7418SOL    HW223154   4.192   4.906   1.166
 7419SOL     OW23155   6.591   2.562   4.865
 7419SOL    HW123156   6.517   2.605   4.916
 7419SOL    HW223157   6.678   2.604   4.891
 7420SOL     OW23158   6.455   6.236   2.503
 7420SOL    HW123159   6.439   6.148   2.548
 7420SOL    HW223160   6.424   6.310   2.563
 7421SOL     OW23161   3.275   3.036   2.211
 7421SOL    HW123162   3.193   3.093   2.202
 7421SOL    HW223163   3.286   2.981   2.128
 7422SOL     OW23164   0.292   3.501   2.574
 7422SOL    HW123165   0.214   3.439   2.562
 7422SOL    HW223166   0.267   3.592   2.541
 7423SOL     OW23167   6.817   3.616   6.555
 7423SOL    HW123168   6.884   3.559   6.601
 7423SOL    HW223169   6.864   3.690   6.506
 7424SOL     OW23170   6.346   1.310   4.180
 7424SOL    HW123171   6.352   1.409   4.170
 7424SOL    HW223172   6.272   1.275   4.123
 7425SOL     OW23173   4.596   4.938   6.495
 7425SOL    HW123174   4.604   5.036   6.518
 7425SOL    HW223175   4.516   4.925   6.437
 7426SOL     OW23176   1.087   1.688   0.057
 7426SOL    HW123177   1.026   1.714   0.132
 7426SOL    HW223178   1.176   1.731   0.071
 7427SOL     OW23179   2.634   5.877   4.815
 7427SOL    HW123180   2.565   5.881   4.887
 7427SOL    HW223181   2.711   5.821   4.847
 7428SOL     OW23182   3.301   1.396   5.219
 7428SOL    HW123183   3.394   1.375   5.250
 7428SOL    HW223184   3.291   1.495   5.209
 7429SOL     OW23185   5.771   0.547   3.691
 7429SOL    HW123186   5.806   0.605   3.765
 7429SOL    HW223187   5.844   0.530   3.626
 7430SOL     OW23188   6.949   4.652   6.178
 7430SOL    HW123189   0.022   4.660   6.187
 7430SOL    HW223190   6.921   4.679   6.086
 7431SOL     OW23191   0.346   3.901   2.056
 7431SOL    HW123192   0.341   3.856   1.967
 7431SOL    HW223193   0.348   3.832   2.128
 7432SOL     OW23194   0.291   6.937   3.246
 7432SOL    HW123195   0.364   6.929   3.314
 7432SOL    HW223196   0.209   6.891   3.280
 7433SOL     OW23197   6.857   5.537   0.623
 7433SOL    HW123198   6.878   5.469   0.553
 7433SOL    HW223199   6.932   5.542   0.689
 7434SOL     OW23200   4.123   1.276   6.383
 7434SOL    HW123201   4.106   1.264   6.285
 7434SOL    HW223202   4.206   1.330   6.396
 7435SOL     OW23203   3.602   6.301   6.614
 7435SOL    HW123204   3.585   6.354   6.697
 7435SOL    HW223205   3.523   6.243   6.595
 7436SOL     OW23206   5.843   3.245   6.602
 7436SOL    HW123207   5.843   3.281   6.696
 7436SOL    HW223208   5.794   3.158   6.599
 7437SOL     OW23209   6.878   6.103   6.561
 7437SOL    HW123210   6.921   6.184   6.521
 7437SOL    HW223211   6.905   6.022   6.509
 7438SOL     OW23212   0.723   5.171   0.426
 7438SOL    HW123213   0.714   5.124   0.513
 7438SOL    HW223214   0.793   5.242   0.434
 7439SOL     OW23215   1.928   6.227   4.709
 7439SOL    HW123216   1.995   6.294   4.676
 7439SOL    HW223217   1.844   6.275   4.736
 7440SOL     OW23218   0.603   2.998   4.798
 7440SOL    HW123219   0.697   3.006   4.764
 7440SOL    HW223220   0.604   2.972   4.894
 7441SOL     OW23221   5.575   6.412   4.507
 7441SOL    HW123222   5.577   6.450   4.415
 7441SOL    HW223223   5.480   6.399   4.535
 7442SOL     OW23224   1.287   1.072   6.053
 7442SOL    HW123225   1.234   1.006   6.107
 7442SOL    HW223226   1.278   1.163   6.092
 7443SOL     OW23227   0.460   1.343   1.329
 7443SOL    HW123228   0.369   1.300   1.337
 7443SOL    HW223229   0.522   1.280   1.284
 7444SOL     OW23230   6.963   3.289   5.036
 7444SOL    HW123231   6.879   3.277   4.984
 7444SOL    HW223232   0.014   3.255   4.982
 7445SOL     OW23233   4.054   1.091   1.421
 7445SOL    HW123234   4.041   1.003   1.466
 7445SOL    HW223235   4.152   1.104   1.404
 7446SOL     OW23236   5.624   4.113   0.135
 7446SOL    HW123237   5.595   4.192   0.190
 7446SOL    HW223238   5.602   4.029   0.183
 7447SOL     OW23239   1.974   3.264   6.207
 7447SOL    HW123240   1.986   3.221   6.296
 7447SOL    HW223241   1.964   3.363   6.218
 7448SOL     OW23242   5.135   6.617   5.508
 7448SOL    HW123243   5.188   6.533   5.524
 7448SOL    HW223244   5.052   6.615   5.564
 7449SOL     OW23245   5.304   2.993   2.087
 7449SOL    HW123246   5.224   2.986   2.028
 7449SOL    HW223247   5.290   2.935   2.168
 7450SOL     OW23248   4.840   2.078   4.690
 7450SOL    HW123249   4.838   2.018   4.609
 7450SOL    HW223250   4.751   2.076   4.735
 7451SOL     OW23251   2.007   7.007   3.417
 7451SOL    HW123252   1.950   7.002   3.335
 7451SOL    HW223253   2.079   6.938   3.412
 7452SOL     OW23254   0.806   6.821   4.621
 7452SOL    HW123255   0.768   6.792   4.709
 7452SOL    HW223256   0.780   6.755   4.551
 7453SOL     OW23257   5.336   5.675   5.808
 7453SOL    HW123258   5.308   5.592   5.759
 7453SOL    HW223259   5.431   5.696   5.786
 7454SOL     OW23260   1.040   2.775   2.138
 7454SOL    HW123261   1.106   2.779   2.063
 7454SOL    HW223262   1.087   2.794   2.225
 7455SOL     OW23263   6.991   1.291   1.970
 7455SOL    HW123264   0.059   1.268   1.946
 7455SOL    HW223265   6.929   1.226   1.928
 7456SOL     OW23266   0.769   1.886   4.619
 7456SOL    HW123267   0.795   1.794   4.589
 7456SOL    HW223268   0.761   1.946   4.539
 7457SOL     OW23269   3.972   0.789   6.211
 7457SOL    HW123270   4.062   0.799   6.254
 7457SOL    HW223271   3.984   0.753   6.118
 7458SOL     OW23272   1.355   0.412   6.429
 7458SOL    HW123273   1.449   0.393   6.402
 7458SOL    HW223274   1.295   0.396   6.350
 7459SOL     OW23275   4.750   0.052   0.518
 7459SOL    HW123276   4.660   0.018   0.491
 7459SOL    HW223277   4.794   7.012   0.579
 7460SOL     OW23278   1.802   4.092   0.803
 7460SOL    HW123279   1.714   4.076   0.848
 7460SOL    HW223280   1.792   4.165   0.736
 7461SOL     OW23281   5.269   1.243   5.974
 7461SOL    HW123282   5.195   1.302   5.940
 7461SOL    HW223283   5.357   1.278   5.942
 7462SOL     OW23284   2.116   3.059   2.312
 7462SOL    HW123285   2.114   3.122   2.235
 7462SOL    HW223286   2.162   2.974   2.285
 7463SOL     OW23287   3.410   4.186   1.401
 7463SOL    HW123288   3.387   4.090   1.418
 7463SOL    HW223289   3.510   4.197   1.400
 7464SOL     OW23290   3.462   6.755   6.437
 7464SOL    HW123291   3.436   6.832   6.496
 7464SOL    HW223292   3.521   6.788   6.363
 7465SOL     OW23293   1.881   0.517   0.630
 7465SOL    HW123294   1.846   0.599   0.676
 7465SOL    HW223295   1.831   0.501   0.546
 7466SOL     OW23296   0.748   0.047   7.023
 7466SOL    HW123297   0.736   0.067   6.925
 7466SOL    HW223298   0.720   0.126   0.050
 7467SOL     OW23299   6.742   1.572   0.813
 7467SOL    HW123300   6.651   1.534   0.829
 7467SOL    HW223301   6.801   1.501   0.774
 7468SOL     OW23302   5.479   2.717   2.470
 7468SOL    HW123303   5.496   2.693   2.566
 7468SOL    HW223304   5.565   2.746   2.428
 7469SOL     OW23305   0.758   0.210   0.693
 7469SOL    HW123306   0.695   0.136   0.715
 7469SOL    HW223307   0.821   0.224   0.769
 7470SOL     OW23308   0.071   3.161   3.659
 7470SOL    HW123309   0.062   3.208   3.571
 7470SOL    HW223310   0.006   3.086   3.663
 7471SOL     OW23311   5.937   6.742   4.981
 7471SOL    HW123312   5.924   6.699   4.892
 7471SOL    HW223313   5.851   6.783   5.011
 7472SOL     OW23314   5.794   6.729   4.319
 7472SOL    HW123315   5.873   6.672   4.296
 7472SOL    HW223316   5.826   6.811   4.367
 7473SOL     OW23317   0.700   4.157   3.075
 7473SOL    HW123318   0.670   4.118   3.162
 7473SOL    HW223319   0.781   4.213   3.090
 7474SOL     OW23320   2.103   1.075   5.000
 7474SOL    HW123321   2.074   1.099   5.092
 7474SOL    HW223322   2.023   1.057   4.943
 7475SOL     OW23323   3.737   1.697   2.453
 7475SOL    HW123324   3.817   1.670   2.399
 7475SOL    HW223325   3.688   1.770   2.406
 7476SOL     OW23326   3.201   6.119   4.203
 7476SOL    HW123327   3.295   6.145   4.225
 7476SOL    HW223328   3.182   6.145   4.108
 7477SOL     OW23329   5.895   1.665   4.179
 7477SOL    HW123330   5.807   1.628   4.151
 7477SOL    HW223331   5.928   1.617   4.260
 7478SOL     OW23332   3.961   4.666   6.381
 7478SOL    HW123333   3.964   4.690   6.478
 7478SOL    HW223334   3.880   4.707   6.338
 7479SOL     OW23335   4.252   2.575   0.717
 7479SOL    HW123336   4.153   2.563   0.703
 7479SOL    HW223337   4.293   2.610   0.632
 7480SOL     OW23338   6.102   4.600   1.800
 7480SOL    HW123339   6.113   4.502   1.814
 7480SOL    HW223340   6.188   4.646   1.820
 7481SOL     OW23341   6.082   5.459   1.694
 7481SOL    HW123342   6.104   5.536   1.755
 7481SOL    HW223343   6.079   5.374   1.747
 7482SOL     OW23344   4.900   1.719   2.581
 7482SOL    HW123345   4.958   1.801   2.579
 7482SOL    HW223346   4.956   1.638   2.565
 7483SOL     OW23347   4.485   2.232   5.117
 7483SOL    HW123348   4.536   2.204   5.198
 7483SOL    HW223349   4.549   2.261   5.046
 7484SOL     OW23350   0.061   0.202   2.818
 7484SOL    HW123351   6.993   0.176   2.796
 7484SOL    HW223352   0.087   0.281   2.763
 7485SOL     OW23353   3.182   5.974   5.122
 7485SOL    HW123354   3.243   6.044   5.084
 7485SOL    HW223355   3.233   5.889   5.136
 7486SOL     OW23356   2.512   0.483   6.461
 7486SOL    HW123357   2.532   0.408   6.524
 7486SOL    HW223358   2.493   0.445   6.370
 7487SOL     OW23359   2.179   6.150   2.314
 7487SOL    HW123360   2.124   6.209   2.373
 7487SOL    HW223361   2.153   6.164   2.219
 7488SOL     OW23362   2.134   6.829   5.090
 7488SOL    HW123363   2.088   6.819   5.002
 7488SOL    HW223364   2.065   6.828   5.163
 7489SOL     OW23365   5.746   2.317   4.984
 7489SOL    HW123366   5.661   2.346   4.940
 7489SOL    HW223367   5.731   2.307   5.082
 7490SOL     OW23368   0.896   1.473   1.360
 7490SOL    HW123369   0.843   1.493   1.278
 7490SOL    HW223370   0.852   1.515   1.439
 7491SOL     OW23371   6.791   4.098   6.887
 7491SOL    HW123372   6.878   4.064   6.851
 7491SOL    HW223373   6.737   4.137   6.813
 7492SOL     OW23374   3.046   1.385   4.827
 7492SOL    HW123375   2.950   1.358   4.821
 7492SOL    HW223376   3.092   1.362   4.741
 7493SOL     OW23377   6.794   4.502   6.683
 7493SOL    HW123378   6.800   4.548   6.595
 7493SOL    HW223379   6.781   4.570   6.756
 7494SOL     OW23380   6.158   1.195   2.111
 7494SOL    HW123381   6.245   1.165   2.151
 7494SOL    HW223382   6.121   1.121   2.054
 7495SOL     OW23383   2.593   1.114   0.903
 7495SOL    HW123384   2.606   1.020   0.874
 7495SOL    HW223385   2.537   1.162   0.836
 7496SOL     OW23386   0.691   3.310   6.383
 7496SOL    HW123387   0.745   3.240   6.431
 7496SOL    HW223388   0.695   3.396   6.435
 7497SOL     OW23389   2.579   5.079   1.061
 7497SOL    HW123390   2.607   4.987   1.088
 7497SOL    HW223391   2.498   5.073   1.003
 7498SOL     OW23392   1.965   1.061   4.650
 7498SOL    HW123393   1.898   1.073   4.577
 7498SOL    HW223394   1.918   1.049   4.737
 7499SOL     OW23395   5.902   1.331   3.192
 7499SOL    HW123396   5.850   1.287   3.265
 7499SOL    HW223397   5.860   1.310   3.104
 7500SOL     OW23398   3.844   6.049   3.692
 7500SOL    HW123399   3.923   6.031   3.749
 7500SOL    HW223400   3.789   6.122   3.732
 7501SOL     OW23401   6.561   4.171   4.121
 7501SOL    HW123402   6.506   4.192   4.040
 7501SOL    HW223403   6.568   4.253   4.179
 7502SOL     OW23404   1.083   0.763   5.325
 7502SOL    HW123405   1.060   0.837   5.261
 7502SOL    HW223406   0.999   0.731   5.369
 7503SOL     OW23407   1.820   1.383   0.205
 7503SOL    HW123408   1.890   1.330   0.157
 7503SOL    HW223409   1.863   1.464   0.246
 7504SOL     OW23410   2.777   0.604   3.732
 7504SOL    HW123411   2.750   0.508   3.736
 7504SOL    HW223412   2.776   0.635   3.637
 7505SOL     OW23413   2.091   0.800   5.574
 7505SOL    HW123414   2.045   0.783   5.487
 7505SOL    HW223415   2.046   0.875   5.621
 7506SOL     OW23416   4.273   6.995   3.371
 7506SOL    HW123417   4.200   0.037   3.375
 7506SOL    HW223418   4.331   7.013   3.291
 7507SOL     OW23419   0.400   0.581   0.923
 7507SOL    HW123420   0.330   0.514   0.945
 7507SOL    HW223421   0.441   0.616   1.008
 7508SOL     OW23422   6.253   6.930   1.863
 7508SOL    HW123423   6.247   7.018   1.909
 7508SOL    HW223424   6.300   6.941   1.776
 7509SOL     OW23425   5.680   4.007   1.036
 7509SOL    HW123426   5.661   3.909   1.025
 7509SOL    HW223427   5.596   4.059   1.025
 7510SOL     OW23428   2.669   4.325   5.293
 7510SOL    HW123429   2.748   4.382   5.268
 7510SOL    HW223430   2.702   4.235   5.322
 7511SOL     OW23431   1.437   0.100   3.673
 7511SOL    HW123432   1.535   0.113   3.686
 7511SOL    HW223433   1.396   0.066   3.758
 7512SOL     OW23434   3.703   4.275   1.037
 7512SOL    HW123435   3.769   4.349   1.046
 7512SOL    HW223436   3.668   4.272   0.944
 7513SOL     OW23437   1.910   1.724   1.583
 7513SOL    HW123438   1.852   1.686   1.655
 7513SOL    HW223439   1.863   1.801   1.539
 7514SOL     OW23440   2.726   5.385   2.317
 7514SOL    HW123441   2.718   5.346   2.225
 7514SOL    HW223442   2.658   5.457   2.329
 7515SOL     OW23443   1.371   6.149   2.479
 7515SOL    HW123444   1.400   6.242   2.504
 7515SOL    HW223445   1.440   6.109   2.418
 7516SOL     OW23446   6.971   6.158   4.349
 7516SOL    HW123447   7.019   6.178   4.434
 7516SOL    HW223448   7.000   6.223   4.278
 7517SOL     OW23449   6.911   3.275   1.265
 7517SOL    HW123450   6.915   3.369   1.232
 7517SOL    HW223451   6.989   3.223   1.230
 7518SOL     OW23452   3.933   5.428   3.671
 7518SOL    HW123453   3.881   5.509   3.697
 7518SOL    HW223454   3.871   5.360   3.631
 7519SOL     OW23455   0.248   6.494   3.601
 7519SOL    HW123456   0.224   6.550   3.522
 7519SOL    HW223457   0.202   6.405   3.595
 7520SOL     OW23458   3.469   7.006   2.005
 7520SOL    HW123459   3.450   6.938   2.076
 7520SOL    HW223460   3.548   6.977   1.951
 7521SOL     OW23461   4.613   4.815   6.154
 7521SOL    HW123462   4.615   4.732   6.098
 7521SOL    HW223463   4.530   4.815   6.211
 7522SOL     OW23464   2.530   0.249   6.596
 7522SOL    HW123465   2.604   0.189   6.566
 7522SOL    HW223466   2.498   0.219   6.686
 7523SOL     OW23467   5.351   0.424   5.911
 7523SOL    HW123468   5.338   0.520   5.933
 7523SOL    HW223469   5.272   0.371   5.942
 7524SOL     OW23470   1.443   1.991   6.627
 7524SOL    HW123471   1.385   1.984   6.708
 7524SOL    HW223472   1.470   2.087   6.614
 7525SOL     OW23473   2.926   0.130   0.306
 7525SOL    HW123474   2.980   0.099   0.227
 7525SOL    HW223475   2.909   0.052   0.367
 7526SOL     OW23476   3.718   2.919   2.481
 7526SOL    HW123477   3.667   2.945   2.399
 7526SOL    HW223478   3.812   2.953   2.475
 7527SOL     OW23479   3.999   5.439   3.163
 7527SOL    HW123480   3.928   5.384   3.207
 7527SOL    HW223481   4.061   5.476   3.232
 7528SOL     OW23482   3.745   2.184   6.737
 7528SOL    HW123483   3.683   2.163   6.663
 7528SOL    HW223484   3.707   2.258   6.793
 7529SOL     OW23485   5.849   0.751   4.411
 7529SOL    HW123486   5.894   0.701   4.337
 7529SOL    HW223487   5.786   0.690   4.459
 7530SOL     OW23488   6.262   4.300   2.562
 7530SOL    HW123489   6.325   4.373   2.536
 7530SOL    HW223490   6.254   4.235   2.487
 7531SOL     OW23491   4.637   2.571   4.082
 7531SOL    HW123492   4.686   2.623   4.153
 7531SOL    HW223493   4.570   2.511   4.126
 7532SOL     OW23494   5.751   5.372   1.613
 7532SOL    HW123495   5.748   5.288   1.667
 7532SOL    HW223496   5.678   5.370   1.544
 7533SOL     OW23497   2.656   0.727   3.039
 7533SOL    HW123498   2.695   0.723   3.131
 7533SOL    HW223499   2.652   0.822   3.008
 7534SOL     OW23500   3.480   6.703   5.607
 7534SOL    HW123501   3.537   6.706   5.689
 7534SOL    HW223502   3.386   6.682   5.633
 7535SOL     OW23503   2.801   0.987   5.666
 7535SOL    HW123504   2.847   1.062   5.714
 7535SOL    HW223505   2.752   1.024   5.587
 7536SOL     OW23506   5.573   5.154   4.943
 7536SOL    HW123507   5.543   5.059   4.934
 7536SOL    HW223508   5.648   5.171   4.880
 7537SOL     OW23509   2.798   5.594   4.411
 7537SOL    HW123510   2.880   5.635   4.450
 7537SOL    HW223511   2.753   5.537   4.480
 7538SOL     OW23512   3.450   2.933   1.706
 7538SOL    HW123513   3.450   2.987   1.621
 7538SOL    HW223514   3.356   2.903   1.727
 7539SOL     OW23515   2.143   2.434   4.130
 7539SOL    HW123516   2.068   2.442   4.065
 7539SOL    HW223517   2.226   2.474   4.090
 7540SOL     OW23518   2.533   0.643   5.543
 7540SOL    HW123519   2.591   0.685   5.473
 7540SOL    HW223520   2.584   0.569   5.588
 7541SOL     OW23521   6.988   3.681   4.614
 7541SOL    HW123522   7.004   3.603   4.674
 7541SOL    HW223523   6.941   3.651   4.531
 7542SOL     OW23524   0.927   5.872   6.963
 7542SOL    HW123525   1.007   5.925   6.990
 7542SOL    HW223526   0.892   5.905   6.875
 7543SOL     OW23527   4.217   2.186   0.950
 7543SOL    HW123528   4.156   2.109   0.970
 7543SOL    HW223529   4.165   2.271   0.953
 7544SOL     OW23530   0.284   2.405   3.676
 7544SOL    HW123531   0.199   2.452   3.700
 7544SOL    HW223532   0.299   2.412   3.577
 7545SOL     OW23533   5.713   6.352   2.919
 7545SOL    HW123534   5.631   6.371   2.865
 7545SOL    HW223535   5.754   6.265   2.889
 7546SOL     OW23536   4.103   0.893   1.774
 7546SOL    HW123537   4.151   0.891   1.861
 7546SOL    HW223538   4.060   0.982   1.761
 7547SOL     OW23539   4.494   0.349   0.771
 7547SOL    HW123540   4.570   0.286   0.790
 7547SOL    HW223541   4.528   0.426   0.717
 7548SOL     OW23542   3.002   2.134   0.236
 7548SOL    HW123543   3.014   2.066   0.163
 7548SOL    HW223544   3.053   2.217   0.213
 7549SOL     OW23545   5.465   1.507   1.368
 7549SOL    HW123546   5.509   1.574   1.308
 7549SOL    HW223547   5.375   1.484   1.331
 7550SOL     OW23548   2.169   4.709   1.803
 7550SOL    HW123549   2.111   4.635   1.771
 7550SOL    HW223550   2.161   4.718   1.902
 7551SOL     OW23551   4.662   3.949   6.940
 7551SOL    HW123552   4.648   3.863   6.989
 7551SOL    HW223553   4.681   3.929   6.844
 7552SOL     OW23554   1.886   5.640   3.917
 7552SOL    HW123555   1.941   5.709   3.964
 7552SOL    HW223556   1.897   5.552   3.963
 7553SOL     OW23557   4.280   5.124   5.784
 7553SOL    HW123558   4.285   5.085   5.692
 7553SOL    HW223559   4.343   5.075   5.844
 7554SOL     OW23560   5.072   0.458   0.745
 7554SOL    HW123561   5.129   0.535   0.715
 7554SOL    HW223562   5.053   0.466   0.843
 7555SOL     OW23563   1.941   5.102   4.951
 7555SOL    HW123564   1.951   5.164   4.873
 7555SOL    HW223565   2.005   5.128   5.023
 7556SOL     OW23566   0.404   2.444   5.719
 7556SOL    HW123567   0.503   2.456   5.724
 7556SOL    HW223568   0.383   2.364   5.663
 7557SOL     OW23569   5.168   2.923   6.200
 7557SOL    HW123570   5.171   2.968   6.290
 7557SOL    HW223571   5.115   2.839   6.207
 7558SOL     OW23572   2.234   2.444   3.350
 7558SOL    HW123573   2.135   2.448   3.368
 7558SOL    HW223574   2.255   2.496   3.267
 7559SOL     OW23575   6.080   5.737   0.261
 7559SOL    HW123576   5.996   5.780   0.227
 7559SOL    HW223577   6.159   5.788   0.229
 7560SOL     OW23578   5.198   5.930   0.399
 7560SOL    HW123579   5.182   5.995   0.473
 7560SOL    HW223580   5.214   5.981   0.314
 7561SOL     OW23581   0.854   3.065   0.396
 7561SOL    HW123582   0.759   3.068   0.364
 7561SOL    HW223583   0.891   3.157   0.402
 7562SOL     OW23584   5.711   6.428   4.746
 7562SOL    HW123585   5.689   6.403   4.652
 7562SOL    HW223586   5.718   6.346   4.802
 7563SOL     OW23587   2.713   6.355   0.773
 7563SOL    HW123588   2.772   6.317   0.844
 7563SOL    HW223589   2.617   6.350   0.802
 7564SOL     OW23590   5.627   1.405   2.580
 7564SOL    HW123591   5.539   1.359   2.574
 7564SOL    HW223592   5.637   1.468   2.503
 7565SOL     OW23593   5.188   4.716   0.145
 7565SOL    HW123594   5.133   4.691   0.065
 7565SOL    HW223595   5.255   4.644   0.162
 7566SOL     OW23596   0.470   5.541   3.261
 7566SOL    HW123597   0.378   5.528   3.224
 7566SOL    HW223598   0.527   5.462   3.238
 7567SOL     OW23599   1.849   2.558   5.007
 7567SOL    HW123600   1.892   2.648   4.998
 7567SOL    HW223601   1.864   2.506   4.923
 7568SOL     OW23602   5.650   6.238   3.173
 7568SOL    HW123603   5.688   6.258   3.082
 7568SOL    HW223604   5.553   6.217   3.164
 7569SOL     OW23605   4.171   5.060   6.812
 7569SOL    HW123606   4.098   5.063   6.881
 7569SOL    HW223607   4.240   4.992   6.840
 7570SOL     OW23608   5.553   4.555   5.206
 7570SOL    HW123609   5.620   4.494   5.247
 7570SOL    HW223610   5.461   4.517   5.219
 7571SOL     OW23611   5.168   4.906   2.246
 7571SOL    HW123612   5.174   4.867   2.338
 7571SOL    HW223613   5.083   4.958   2.236
 7572SOL     OW23614   5.042   0.802   3.241
 7572SOL    HW123615   5.003   0.716   3.274
 7572SOL    HW223616   4.979   0.846   3.177
 7573SOL     OW23617   6.096   6.398   4.597
 7573SOL    HW123618   6.044   6.326   4.644
 7573SOL    HW223619   6.183   6.412   4.645
 7574SOL     OW23620   6.645   1.102   4.564
 7574SOL    HW123621   6.686   1.025   4.515
 7574SOL    HW223622   6.665   1.093   4.662
 7575SOL     OW23623   4.166   6.983   5.857
 7575SOL    HW123624   4.107   6.954   5.932
 7575SOL    HW223625   4.261   6.964   5.880
 7576SOL     OW23626   6.397   5.759   6.790
 7576SOL    HW123627   6.331   5.685   6.797
 7576SOL    HW223628   6.487   5.726   6.821
 7577SOL     OW23629   6.936   6.830   5.865
 7577SOL    HW123630   6.862   6.772   5.898
 7577SOL    HW223631   6.913   6.866   5.774
 7578SOL     OW23632   2.641   6.128   3.108
 7578SOL    HW123633   2.547   6.105   3.084
 7578SOL    HW223634   2.647   6.150   3.205
 7579SOL     OW23635   5.169   2.331   2.102
 7579SOL    HW123636   5.116   2.303   2.022
 7579SOL    HW223637   5.263   2.350   2.074
 7580SOL     OW23638   1.094   3.898   4.081
 7580SOL    HW123639   1.138   3.930   3.997
 7580SOL    HW223640   1.156   3.913   4.158
 7581SOL     OW23641   5.425   6.944   1.343
 7581SOL    HW123642   5.428   6.996   1.258
 7581SOL    HW223643   5.507   6.887   1.351
 7582SOL     OW23644   3.288   1.358   0.477
 7582SOL    HW123645   3.319   1.452   0.485
 7582SOL    HW223646   3.190   1.356   0.461
 7583SOL     OW23647   6.093   2.763   1.627
 7583SOL    HW123648   6.007   2.761   1.576
 7583SOL    HW223649   6.074   2.782   1.724
 7584SOL     OW23650   2.910   6.640   0.457
 7584SOL    HW123651   2.818   6.611   0.432
 7584SOL    HW223652   2.944   6.582   0.530
 7585SOL     OW23653   1.737   3.367   6.422
 7585SOL    HW123654   1.689   3.367   6.335
 7585SOL    HW223655   1.819   3.424   6.415
 7586SOL     OW23656   3.997   0.636   3.698
 7586SOL    HW123657   4.015   0.556   3.755
 7586SOL    HW223658   3.898   0.644   3.682
 7587SOL     OW23659   3.120   1.180   6.710
 7587SOL    HW123660   3.152   1.271   6.683
 7587SOL    HW223661   3.187   1.138   6.772
 7588SOL     OW23662   1.438   3.141   2.452
 7588SOL    HW123663   1.477   3.190   2.374
 7588SOL    HW223664   1.415   3.048   2.425
 7589SOL     OW23665   6.676   6.937   1.000
 7589SOL    HW123666   6.643   6.862   1.057
 7589SOL    HW223667   6.648   6.923   0.906
 7590SOL     OW23668   3.070   2.114   6.562
 7590SOL    HW123669   3.101   2.194   6.613
 7590SOL    HW223670   3.145   2.081   6.504
 7591SOL     OW23671   6.998   4.479   0.797
 7591SOL    HW123672   6.931   4.462   0.869
 7591SOL    HW223673   0.026   4.559   0.819
 7592SOL     OW23674   6.809   4.386   6.073
 7592SOL    HW123675   6.899   4.430   6.075
 7592SOL    HW223676   6.778   4.378   5.978
 7593SOL     OW23677   5.629   2.635   0.895
 7593SOL    HW123678   5.650   2.707   0.962
 7593SOL    HW223679   5.573   2.674   0.821
 7594SOL     OW23680   6.787   4.744   2.288
 7594SOL    HW123681   6.818   4.663   2.338
 7594SOL    HW223682   6.760   4.815   2.353
 7595SOL     OW23683   6.810   2.414   5.890
 7595SOL    HW123684   6.817   2.468   5.975
 7595SOL    HW223685   6.717   2.379   5.881
 7596SOL     OW23686   4.078   5.667   3.008
 7596SOL    HW123687   4.048   5.659   2.913
 7596SOL    HW223688   4.076   5.577   3.052
 7597SOL     OW23689   2.755   5.982   2.315
 7597SOL    HW123690   2.688   5.971   2.389
 7597SOL    HW223691   2.713   6.035   2.241
 7598SOL     OW23692   6.941   1.389   2.862
 7598SOL    HW123693   0.005   1.429   2.846
 7598SOL    HW223694   6.883   1.454   2.911
 7599SOL     OW23695   5.760   1.580   3.086
 7599SOL    HW123696   5.741   1.564   3.183
 7599SOL    HW223697   5.858   1.593   3.073
 7600SOL     OW23698   1.787   1.319   2.193
 7600SOL    HW123699   1.718   1.382   2.230
 7600SOL    HW223700   1.746   1.229   2.177
 7601SOL     OW23701   1.865   5.865   2.719
 7601SOL    HW123702   1.913   5.800   2.661
 7601SOL    HW223703   1.766   5.853   2.708
 7602SOL     OW23704   1.323   4.155   6.570
 7602SOL    HW123705   1.376   4.206   6.503
 7602SOL    HW223706   1.248   4.106   6.524
 7603SOL     OW23707   1.456   5.061   6.213
 7603SOL    HW123708   1.435   5.109   6.128
 7603SOL    HW223709   1.522   5.115   6.266
 7604SOL     OW23710   1.753   3.980   4.261
 7604SOL    HW123711   1.830   3.992   4.325
 7604SOL    HW223712   1.758   3.890   4.219
 7605SOL     OW23713   0.498   6.764   0.405
 7605SOL    HW123714   0.497   6.734   0.310
 7605SOL    HW223715   0.562   6.707   0.457
 7606SOL     OW23716   6.716   3.045   3.770
 7606SOL    HW123717   6.681   2.956   3.801
 7606SOL    HW223718   6.772   3.031   3.688
 7607SOL     OW23719   4.570   5.638   0.589
 7607SOL    HW123720   4.552   5.561   0.650
 7607SOL    HW223721   4.510   5.632   0.509
 7608SOL     OW23722   3.152   4.026   3.183
 7608SOL    HW123723   3.121   4.117   3.210
 7608SOL    HW223724   3.236   4.033   3.130
 7609SOL     OW23725   0.365   4.018   3.865
 7609SOL    HW123726   0.409   4.108   3.870
 7609SOL    HW223727   0.300   4.009   3.940
 7610SOL     OW23728   6.018   0.047   6.808
 7610SOL    HW123729   6.057   0.042   6.900
 7610SOL    HW223730   6.091   0.059   6.741
 7611SOL     OW23731   0.656   1.692   0.233
 7611SOL    HW123732   0.588   1.755   0.270
 7611SOL    HW223733   0.635   1.672   0.137
 7612SOL     OW23734   5.066   3.242   4.616
 7612SOL    HW123735   5.033   3.324   4.568
 7612SOL    HW223736   5.113   3.269   4.700
 7613SOL     OW23737   5.823   3.270   1.273
 7613SOL    HW123738   5.891   3.241   1.341
 7613SOL    HW223739   5.785   3.359   1.300
 7614SOL     OW23740   5.285   3.699   1.153
 7614SOL    HW123741   5.303   3.663   1.245
 7614SOL    HW223742   5.211   3.646   1.110
 7615SOL     OW23743   4.775   3.891   6.298
 7615SOL    HW123744   4.873   3.896   6.277
 7615SOL    HW223745   4.741   3.800   6.274
 7616SOL     OW23746   7.006   4.574   4.531
 7616SOL    HW123747   6.972   4.495   4.580
 7616SOL    HW223748   6.970   4.574   4.438
 7617SOL     OW23749   3.146   5.361   2.995
 7617SOL    HW123750   3.061   5.313   2.972
 7617SOL    HW223751   3.131   5.459   2.986
 7618SOL     OW23752   0.476   2.132   6.616
 7618SOL    HW123753   0.523   2.217   6.637
 7618SOL    HW223754   0.498   2.063   6.685
 7619SOL     OW23755   5.546   3.525   5.288
 7619SOL    HW123756   5.478   3.475   5.342
 7619SOL    HW223757   5.499   3.592   5.230
 7620SOL     OW23758   3.573   5.495   6.944
 7620SOL    HW123759   3.655   5.533   6.901
 7620SOL    HW223760   3.568   5.525   0.013
 7621SOL     OW23761   0.498   1.839   0.391
 7621SOL    HW123762   0.446   1.903   0.334
 7621SOL    HW223763   0.441   1.810   0.468
 7622SOL     OW23764   5.186   5.776   1.837
 7622SOL    HW123765   5.112   5.803   1.776
 7622SOL    HW223766   5.272   5.775   1.786
 7623SOL     OW23767   4.818   4.812   6.768
 7623SOL    HW123768   4.786   4.735   6.713
 7623SOL    HW223769   4.739   4.866   6.797
 7624SOL     OW23770   6.874   2.685   4.904
 7624SOL    HW123771   6.968   2.677   4.935
 7624SOL    HW223772   6.872   2.731   4.815
 7625SOL     OW23773   4.636   0.593   1.115
 7625SOL    HW123774   4.687   0.628   1.037
 7625SOL    HW223775   4.573   0.521   1.084
 7626SOL     OW23776   6.500   6.536   4.176
 7626SOL    HW123777   6.525   6.439   4.177
 7626SOL    HW223778   6.494   6.568   4.082
 7627SOL     OW23779   5.243   3.119   6.487
 7627SOL    HW123780   5.161   3.061   6.478
 7627SOL    HW223781   5.299   3.083   6.562
 7628SOL     OW23782   3.649   0.427   2.430
 7628SOL    HW123783   3.747   0.407   2.418
 7628SOL    HW223784   3.637   0.523   2.454
 7629SOL     OW23785   6.978   0.154   3.083
 7629SOL    HW123786   6.897   0.212   3.081
 7629SOL    HW223787   7.020   0.152   2.992
 7630SOL     OW23788   6.416   6.913   1.522
 7630SOL    HW123789   6.323   6.944   1.541
 7630SOL    HW223790   6.472   6.922   1.605
 7631SOL     OW23791   0.499   0.975   5.707
 7631SOL    HW123792   0.431   1.047   5.694
 7631SOL    HW223793   0.454   0.886   5.699
 7632SOL     OW23794   3.507   2.729   1.899
 7632SOL    HW123795   3.505   2.808   1.838
 7632SOL    HW223796   3.557   2.654   1.855
 7633SOL     OW23797   4.627   2.266   0.797
 7633SOL    HW123798   4.564   2.269   0.874
 7633SOL    HW223799   4.639   2.358   0.760
 7634SOL     OW23800   0.776   1.796   2.496
 7634SOL    HW123801   0.775   1.740   2.414
 7634SOL    HW223802   0.683   1.807   2.531
 7635SOL     OW23803   2.816   5.947   5.455
 7635SOL    HW123804   2.844   6.011   5.383
 7635SOL    HW223805   2.719   5.959   5.474
 7636SOL     OW23806   1.551   2.328   3.386
 7636SOL    HW123807   1.451   2.332   3.386
 7636SOL    HW223808   1.588   2.409   3.431
 7637SOL     OW23809   2.639   6.398   3.099
 7637SOL    HW123810   2.673   6.437   3.013
 7637SOL    HW223811   2.629   6.299   3.089
 7638SOL     OW23812   3.995   6.047   1.625
 7638SOL    HW123813   3.919   5.983   1.610
 7638SOL    HW223814   4.050   6.053   1.542
 7639SOL     OW23815   1.566   2.068   0.762
 7639SOL    HW123816   1.488   2.005   0.767
 7639SOL    HW223817   1.648   2.022   0.795
 7640SOL     OW23818   3.353   1.866   0.267
 7640SOL    HW123819   3.367   1.776   0.227
 7640SOL    HW223820   3.271   1.866   0.324
 7641SOL     OW23821   0.795   4.093   1.609
 7641SOL    HW123822   0.696   4.078   1.604
 7641SOL    HW223823   0.822   4.159   1.539
 7642SOL     OW23824   2.783   1.046   2.033
 7642SOL    HW123825   2.752   1.139   2.010
 7642SOL    HW223826   2.831   1.007   1.954
 7643SOL     OW23827   4.798   2.741   4.272
 7643SOL    HW123828   4.729   2.799   4.315
 7643SOL    HW223829   4.875   2.798   4.244
 7644SOL     OW23830   5.805   2.351   2.082
 7644SOL    HW123831   5.784   2.437   2.128
 7644SOL    HW223832   5.771   2.275   2.137
 7645SOL     OW23833   4.215   4.003   5.671
 7645SOL    HW123834   4.263   3.916   5.660
 7645SOL    HW223835   4.282   4.078   5.670
 7646SOL     OW23836   2.195   2.664   2.491
 7646SOL    HW123837   2.229   2.715   2.412
 7646SOL    HW223838   2.181   2.568   2.466
 7647SOL     OW23839   6.775   3.645   2.158
 7647SOL    HW123840   6.684   3.678   2.186
 7647SOL    HW223841   6.768   3.599   2.070
 7648SOL     OW23842   3.501   1.675   3.734
 7648SOL    HW123843   3.463   1.732   3.807
 7648SOL    HW223844   3.601   1.681   3.735
 7649SOL     OW23845   0.940   1.191   2.789
 7649SOL    HW123846   0.949   1.283   2.828
 7649SOL    HW223847   0.963   1.123   2.858
 7650SOL     OW23848   5.079   2.692   1.548
 7650SOL    HW123849   5.044   2.786   1.558
 7650SOL    HW223850   5.151   2.691   1.479
 7651SOL     OW23851   2.239   6.819   5.405
 7651SOL    HW123852   2.322   6.854   5.362
 7651SOL    HW223853   2.170   6.801   5.334
 7652SOL     OW23854   6.786   4.160   4.621
 7652SOL    HW123855   6.739   4.075   4.594
 7652SOL    HW223856   6.722   4.218   4.672
 7653SOL     OW23857   3.044   1.404   0.354
 7653SOL    HW123858   2.973   1.366   0.295
 7653SOL    HW223859   3.031   1.503   0.361
 7654SOL     OW23860   5.338   3.398   4.187
 7654SOL    HW123861   5.339   3.377   4.089
 7654SOL    HW223862   5.250   3.372   4.226
 7655SOL     OW23863   3.428   0.500   3.376
 7655SOL    HW123864   3.446   0.589   3.336
 7655SOL    HW223865   3.503   0.437   3.353
 7656SOL     OW23866   1.913   4.635   6.416
 7656SOL    HW123867   1.824   4.680   6.414
 7656SOL    HW223868   1.985   4.703   6.403
 7657SOL     OW23869   2.436   2.472   3.548
 7657SOL    HW123870   2.373   2.447   3.474
 7657SOL    HW223871   2.384   2.514   3.622
 7658SOL     OW23872   3.551   0.085   5.928
 7658SOL    HW123873   3.561   7.021   5.970
 7658SOL    HW223874   3.575   0.155   5.995
 7659SOL     OW23875   6.033   5.629   6.981
 7659SOL    HW123876   5.945   5.620   6.934
 7659SOL    HW223877   6.023   5.695   0.029
 7660SOL     OW23878   0.100   6.465   4.114
 7660SOL    HW123879   0.102   6.365   4.111
 7660SOL    HW223880   0.151   6.502   4.036
 7661SOL     OW23881   5.494   2.365   4.872
 7661SOL    HW123882   5.432   2.406   4.806
 7661SOL    HW223883   5.449   2.359   4.961
 7662SOL     OW23884   0.799   2.238   2.271
 7662SOL    HW123885   0.753   2.288   2.197
 7662SOL    HW223886   0.820   2.301   2.346
 7663SOL     OW23887   0.730   6.690   5.739
 7663SOL    HW123888   0.809   6.657   5.790
 7663SOL    HW223889   0.684   6.763   5.790
 7664SOL     OW23890   3.799   0.118   2.752
 7664SOL    HW123891   3.787   0.039   2.812
 7664SOL    HW223892   3.888   0.112   2.706
 7665SOL     OW23893   4.855   7.014   5.293
 7665SOL    HW123894   4.808   6.966   5.367
 7665SOL    HW223895   4.929   6.956   5.258
 7666SOL     OW23896   0.937   6.458   1.850
 7666SOL    HW123897   0.846   6.497   1.859
 7666SOL    HW223898   1.005   6.530   1.856
 7667SOL     OW23899   4.206   6.272   2.243
 7667SOL    HW123900   4.113   6.290   2.277
 7667SOL    HW223901   4.270   6.337   2.284
 7668SOL     OW23902   3.484   4.139   1.119
 7668SOL    HW123903   3.436   4.159   1.204
 7668SOL    HW223904   3.568   4.194   1.115
 7669SOL     OW23905   5.811   1.559   6.057
 7669SOL    HW123906   5.818   1.621   5.978
 7669SOL    HW223907   5.825   1.611   6.141
 7670SOL     OW23908   0.584   4.602   6.693
 7670SOL    HW123909   0.570   4.521   6.636
 7670SOL    HW223910   0.595   4.682   6.634
 7671SOL     OW23911   3.944   0.470   4.125
 7671SOL    HW123912   4.020   0.407   4.142
 7671SOL    HW223913   3.973   0.564   4.142
 7672SOL     OW23914   6.202   6.608   3.166
 7672SOL    HW123915   6.202   6.707   3.153
 7672SOL    HW223916   6.199   6.587   3.264
 7673SOL     OW23917   1.924   5.303   6.898
 7673SOL    HW123918   1.836   5.279   6.939
 7673SOL    HW223919   1.997   5.255   6.946
 7674SOL     OW23920   5.955   2.284   3.853
 7674SOL    HW123921   5.995   2.310   3.765
 7674SOL    HW223922   6.018   2.309   3.927
 7675SOL     OW23923   5.103   6.935   2.709
 7675SOL    HW123924   5.092   6.849   2.659
 7675SOL    HW223925   5.191   6.936   2.755
 7676SOL     OW23926   1.790   1.782   0.473
 7676SOL    HW123927   1.826   1.862   0.523
 7676SOL    HW223928   1.824   1.784   0.379
 7677SOL     OW23929   0.118   4.010   2.096
 7677SOL    HW123930   0.201   3.955   2.099
 7677SOL    HW223931   0.142   4.105   2.077
 7678SOL     OW23932   2.350   1.635   4.574
 7678SOL    HW123933   2.440   1.594   4.558
 7678SOL    HW223934   2.343   1.665   4.669
 7679SOL     OW23935   2.684   6.016   6.326
 7679SOL    HW123936   2.724   5.925   6.320
 7679SOL    HW223937   2.586   6.008   6.345
 7680SOL     OW23938   1.556   1.768   0.309
 7680SOL    HW123939   1.542   1.681   0.263
 7680SOL    HW223940   1.628   1.758   0.378
 7681SOL     OW23941   2.938   6.823   0.266
 7681SOL    HW123942   3.033   6.845   0.246
 7681SOL    HW223943   2.933   6.763   0.346
 7682SOL     OW23944   3.088   0.362   1.931
 7682SOL    HW123945   3.019   0.358   1.858
 7682SOL    HW223946   3.065   0.296   2.002
 7683SOL     OW23947   6.464   2.122   3.761
 7683SOL    HW123948   6.418   2.135   3.673
 7683SOL    HW223949   6.508   2.208   3.789
 7684SOL     OW23950   4.167   2.199   1.327
 7684SOL    HW123951   4.151   2.100   1.334
 7684SOL    HW223952   4.131   2.244   1.408
 7685SOL     OW23953   3.338   3.656   6.768
 7685SOL    HW123954   3.360   3.677   6.673
 7685SOL    HW223955   3.239   3.651   6.778
 7686SOL     OW23956   5.821   6.804   2.824
 7686SOL    HW123957   5.833   6.720   2.876
 7686SOL    HW223958   5.804   6.880   2.887
 7687SOL     OW23959   5.929   5.332   4.981
 7687SOL    HW123960   6.015   5.357   5.024
 7687SOL    HW223961   5.868   5.411   4.981
 7688SOL     OW23962   0.284   6.586   5.467
 7688SOL    HW123963   0.202   6.643   5.459
 7688SOL    HW223964   0.362   6.642   5.494
 7689SOL     OW23965   4.892   6.406   2.856
 7689SOL    HW123966   4.927   6.450   2.773
 7689SOL    HW223967   4.960   6.341   2.890
 7690SOL     OW23968   6.506   5.002   1.312
 7690SOL    HW123969   6.486   5.091   1.351
 7690SOL    HW223970   6.577   4.957   1.366
 7691SOL     OW23971   5.175   3.078   4.156
 7691SOL    HW123972   5.245   3.098   4.224
 7691SOL    HW223973   5.218   3.045   4.072
 7692SOL     OW23974   1.147   6.391   2.110
 7692SOL    HW123975   1.074   6.333   2.074
 7692SOL    HW223976   1.108   6.463   2.167
 7693SOL     OW23977   3.370   0.093   1.473
 7693SOL    HW123978   3.391   0.010   1.525
 7693SOL    HW223979   3.426   0.168   1.508
 7694SOL     OW23980   0.320   4.394   4.138
 7694SOL    HW123981   0.231   4.412   4.181
 7694SOL    HW223982   0.373   4.332   4.196
 7695SOL     OW23983   4.230   6.408   0.419
 7695SOL    HW123984   4.166   6.336   0.445
 7695SOL    HW223985   4.196   6.456   0.339
 7696SOL     OW23986   6.893   1.378   4.660
 7696SOL    HW123987   6.928   1.295   4.703
 7696SOL    HW223988   6.799   1.362   4.629
 7697SOL     OW23989   3.003   6.936   1.596
 7697SOL    HW123990   3.050   7.018   1.561
 7697SOL    HW223991   2.935   6.906   1.529
 7698SOL     OW23992   6.611   1.939   4.127
 7698SOL    HW123993   6.518   1.964   4.100
 7698SOL    HW223994   6.617   1.937   4.227
 7699SOL     OW23995   3.525   6.061   0.605
 7699SOL    HW123996   3.495   5.990   0.541
 7699SOL    HW223997   3.592   6.022   0.669
 7700SOL     OW23998   4.687   6.446   4.724
 7700SOL    HW123999   4.721   6.354   4.744
 7700SOL    HW224000   4.746   6.488   4.655
 7701SOL     OW24001   7.014   1.547   6.828
 7701SOL    HW124002   0.023   1.529   6.736
 7701SOL    HW224003   7.026   1.464   6.884
 7702SOL     OW24004   2.845   6.489   6.137
 7702SOL    HW124005   2.824   6.501   6.040
 7702SOL    HW224006   2.778   6.538   6.192
 7703SOL     OW24007   6.327   0.819   5.169
 7703SOL    HW124008   6.228   0.813   5.154
 7703SOL    HW224009   6.345   0.840   5.266
 7704SOL     OW24010   5.471   4.658   5.521
 7704SOL    HW124011   5.440   4.575   5.566
 7704SOL    HW224012   5.568   4.673   5.541
 7705SOL     OW24013   3.772   4.842   5.684
 7705SOL    HW124014   3.733   4.880   5.600
 7705SOL    HW224015   3.859   4.797   5.663
 7706SOL     OW24016   4.529   2.540   4.856
 7706SOL    HW124017   4.449   2.555   4.799
 7706SOL    HW224018   4.578   2.627   4.868
 7707SOL     OW24019   0.975   5.386   6.344
 7707SOL    HW124020   0.931   5.300   6.370
 7707SOL    HW224021   0.916   5.437   6.281
 7708SOL     OW24022   5.834   6.791   5.727
 7708SOL    HW124023   5.772   6.759   5.799
 7708SOL    HW224024   5.782   6.810   5.644
 7709SOL     OW24025   6.002   4.460   1.176
 7709SOL    HW124026   5.989   4.409   1.091
 7709SOL    HW224027   5.913   4.488   1.212
 7710SOL     OW24028   3.904   0.706   0.867
 7710SOL    HW124029   3.837   0.777   0.846
 7710SOL    HW224030   3.966   0.739   0.939
 7711SOL     OW24031   5.908   6.357   5.007
 7711SOL    HW124032   5.957   6.309   4.934
 7711SOL    HW224033   5.969   6.423   5.051
 7712SOL     OW24034   5.350   5.272   2.267
 7712SOL    HW124035   5.426   5.241   2.324
 7712SOL    HW224036   5.264   5.259   2.316
 7713SOL     OW24037   1.355   5.209   0.564
 7713SOL    HW124038   1.284   5.267   0.524
 7713SOL    HW224039   1.430   5.199   0.499
 7714SOL     OW24040   6.479   4.481   5.530
 7714SOL    HW124041   6.414   4.543   5.573
 7714SOL    HW224042   6.500   4.406   5.592
 7715SOL     OW24043   4.747   1.947   0.061
 7715SOL    HW124044   4.660   1.955   0.110
 7715SOL    HW224045   4.768   2.033   0.015
 7716SOL     OW24046   6.475   4.235   3.887
 7716SOL    HW124047   6.450   4.314   3.831
 7716SOL    HW224048   6.559   4.194   3.852
 7717SOL     OW24049   1.705   1.227   4.769
 7717SOL    HW124050   1.626   1.183   4.726
 7717SOL    HW224051   1.768   1.258   4.697
 7718SOL     OW24052   2.011   1.881   3.102
 7718SOL    HW124053   2.073   1.803   3.092
 7718SOL    HW224054   2.022   1.922   3.193
 7719SOL     OW24055   6.815   3.547   4.430
 7719SOL    HW124056   6.835   3.455   4.462
 7719SOL    HW224057   6.717   3.557   4.416
 7720SOL     OW24058   0.425   0.036   0.165
 7720SOL    HW124059   0.423   0.080   0.255
 7720SOL    HW224060   0.482   0.090   0.103
 7721SOL     OW24061   0.499   4.840   2.531
 7721SOL    HW124062   0.479   4.884   2.618
 7721SOL    HW224063   0.553   4.757   2.547
 7722SOL     OW24064   0.075   5.943   2.941
 7722SOL    HW124065   7.024   5.931   3.003
 7722SOL    HW224066   0.048   6.002   2.865
 7723SOL     OW24067   6.571   3.819   6.799
 7723SOL    HW124068   6.596   3.877   6.721
 7723SOL    HW224069   6.473   3.799   6.795
 7724SOL     OW24070   2.409   4.442   1.840
 7724SOL    HW124071   2.458   4.482   1.918
 7724SOL    HW224072   2.467   4.447   1.759
 7725SOL     OW24073   5.431   3.196   3.616
 7725SOL    HW124074   5.371   3.182   3.537
 7725SOL    HW224075   5.388   3.260   3.680
 7726SOL     OW24076   1.439   6.151   4.824
 7726SOL    HW124077   1.424   6.054   4.806
 7726SOL    HW224078   1.370   6.184   4.888
 7727SOL     OW24079   0.341   0.869   2.860
 7727SOL    HW124080   0.435   0.879   2.894
 7727SOL    HW224081   0.295   0.958   2.862
 7728SOL     OW24082   0.920   5.243   3.372
 7728SOL    HW124083   0.848   5.174   3.387
 7728SOL    HW224084   1.000   5.220   3.427
 7729SOL     OW24085   5.757   3.148   0.715
 7729SOL    HW124086   5.742   3.089   0.636
 7729SOL    HW224087   5.701   3.230   0.707
 7730SOL     OW24088   5.919   6.105   1.574
 7730SOL    HW124089   5.826   6.080   1.548
 7730SOL    HW224090   5.950   6.046   1.648
 7731SOL     OW24091   6.016   0.726   0.807
 7731SOL    HW124092   6.087   0.792   0.780
 7731SOL    HW224093   6.051   0.667   0.879
 7732SOL     OW24094   4.485   6.534   0.467
 7732SOL    HW124095   4.395   6.497   0.442
 7732SOL    HW224096   4.475   6.596   0.545
 7733SOL     OW24097   4.479   0.042   2.580
 7733SOL    HW124098   4.568   0.088   2.571
 7733SOL    HW224099   4.458   7.019   2.496
 7734SOL     OW24100   2.308   5.299   3.387
 7734SOL    HW124101   2.331   5.219   3.443
 7734SOL    HW224102   2.286   5.269   3.294
 7735SOL     OW24103   4.571   6.211   5.941
 7735SOL    HW124104   4.623   6.259   5.870
 7735SOL    HW224105   4.499   6.271   5.975
 7736SOL     OW24106   3.907   4.038   6.952
 7736SOL    HW124107   3.880   4.009   6.861
 7736SOL    HW224108   3.832   4.020   7.016
 7737SOL     OW24109   4.086   0.823   2.453
 7737SOL    HW124110   4.019   0.751   2.472
 7737SOL    HW224111   4.043   0.912   2.461
 7738SOL     OW24112   2.347   5.642   6.909
 7738SOL    HW124113   2.255   5.640   6.947
 7738SOL    HW224114   2.362   5.731   6.866
 7739SOL     OW24115   1.111   2.283   1.897
 7739SOL    HW124116   1.050   2.205   1.882
 7739SOL    HW224117   1.079   2.335   1.977
 7740SOL     OW24118   1.951   0.928   3.322
 7740SOL    HW124119   1.859   0.889   3.327
 7740SOL    HW224120   2.013   0.860   3.283
 7741SOL     OW24121   0.875   5.539   4.765
 7741SOL    HW124122   0.855   5.443   4.750
 7741SOL    HW224123   0.971   5.551   4.787
 7742SOL     OW24124   5.662   2.593   3.454
 7742SOL    HW124125   5.753   2.632   3.444
 7742SOL    HW224126   5.642   2.580   3.552
 7743SOL     OW24127   4.829   1.721   0.185
 7743SOL    HW124128   4.875   1.748   0.269
 7743SOL    HW224129   4.803   1.803   0.133
 7744SOL     OW24130   1.070   6.039   3.532
 7744SOL    HW124131   0.992   6.058   3.591
 7744SOL    HW224132   1.037   6.008   3.443
 7745SOL     OW24133   2.980   1.149   5.401
 7745SOL    HW124134   3.060   1.110   5.355
 7745SOL    HW224135   3.010   1.196   5.484
 7746SOL     OW24136   2.674   6.288   0.214
 7746SOL    HW124137   2.713   6.213   0.268
 7746SOL    HW224138   2.662   6.258   0.120
 7747SOL     OW24139   4.782   5.733   1.850
 7747SOL    HW124140   4.775   5.663   1.780
 7747SOL    HW224141   4.873   5.730   1.892
 7748SOL     OW24142   3.535   2.975   5.586
 7748SOL    HW124143   3.633   2.958   5.586
 7748SOL    HW224144   3.499   2.965   5.679
 7749SOL     OW24145   2.736   2.753   5.389
 7749SOL    HW124146   2.758   2.734   5.485
 7749SOL    HW224147   2.796   2.826   5.356
 7750SOL     OW24148   6.708   6.339   1.545
 7750SOL    HW124149   6.784   6.274   1.542
 7750SOL    HW224150   6.622   6.288   1.549
 7751SOL     OW24151   1.294   2.045   2.504
 7751SOL    HW124152   1.237   2.008   2.577
 7751SOL    HW224153   1.342   2.125   2.537
 7752SOL     OW24154   5.039   6.936   5.593
 7752SOL    HW124155   5.096   6.854   5.600
 7752SOL    HW224156   4.993   6.953   5.680
 7753SOL     OW24157   2.582   1.211   4.477
 7753SOL    HW124158   2.645   1.158   4.534
 7753SOL    HW224159   2.489   1.181   4.494
 7754SOL     OW24160   3.756   6.357   1.212
 7754SOL    HW124161   3.775   6.454   1.199
 7754SOL    HW224162   3.694   6.325   1.141
 7755SOL     OW24163   1.361   2.229   6.003
 7755SOL    HW124164   1.358   2.309   6.063
 7755SOL    HW224165   1.419   2.159   6.045
 7756SOL     OW24166   3.177   6.782   1.708
 7756SOL    HW124167   3.099   6.832   1.671
 7756SOL    HW224168   3.172   6.686   1.679
 7757SOL     OW24169   6.297   4.849   1.493
 7757SOL    HW124170   6.390   4.816   1.478
 7757SOL    HW224171   6.255   4.871   1.405
 7758SOL     OW24172   1.756   6.973   5.976
 7758SOL    HW124173   1.721   6.907   6.044
 7758SOL    HW224174   1.853   6.955   5.960
 7759SOL     OW24175   2.492   1.449   5.392
 7759SOL    HW124176   2.416   1.506   5.361
 7759SOL    HW224177   2.457   1.359   5.419
 7760SOL     OW24178   5.114   2.408   2.355
 7760SOL    HW124179   5.022   2.447   2.348
 7760SOL    HW224180   5.132   2.353   2.273
 7761SOL     OW24181   6.825   6.290   4.876
 7761SOL    HW124182   6.884   6.220   4.836
 7761SOL    HW224183   6.730   6.271   4.854
 7762SOL     OW24184   2.582   0.241   3.625
 7762SOL    HW124185   2.586   0.293   3.540
 7762SOL    HW224186   2.646   0.165   3.621
 7763SOL     OW24187   2.785   6.955   0.047
 7763SOL    HW124188   2.716   6.893   0.011
 7763SOL    HW224189   2.836   6.909   0.121
 7764SOL     OW24190   3.521   3.896   5.999
 7764SOL    HW124191   3.590   3.871   5.932
 7764SOL    HW224192   3.447   3.947   5.954
 7765SOL     OW24193   6.104   2.931   5.160
 7765SOL    HW124194   6.122   2.944   5.062
 7765SOL    HW224195   6.182   2.961   5.213
 7766SOL     OW24196   6.997   3.834   1.218
 7766SOL    HW124197   6.903   3.800   1.205
 7766SOL    HW224198   0.035   3.761   1.196
 7767SOL     OW24199   4.555   6.670   2.510
 7767SOL    HW124200   4.457   6.649   2.501
 7767SOL    HW224201   4.590   6.631   2.595
 7768SOL     OW24202   4.634   5.085   3.932
 7768SOL    HW124203   4.733   5.100   3.929
 7768SOL    HW224204   4.615   4.998   3.977
 7769SOL     OW24205   4.376   1.536   5.320
 7769SOL    HW124206   4.329   1.598   5.256
 7769SOL    HW224207   4.390   1.448   5.275
 7770SOL     OW24208   0.126   3.377   4.317
 7770SOL    HW124209   0.206   3.330   4.354
 7770SOL    HW224210   0.053   3.379   4.385
 7771SOL     OW24211   2.893   1.504   5.716
 7771SOL    HW124212   2.842   1.504   5.802
 7771SOL    HW224213   2.833   1.476   5.641
 7772SOL     OW24214   5.518   6.526   0.742
 7772SOL    HW124215   5.468   6.463   0.682
 7772SOL    HW224216   5.613   6.535   0.710
 7773SOL     OW24217   1.959   5.724   5.965
 7773SOL    HW124218   1.875   5.713   5.910
 7773SOL    HW224219   2.017   5.643   5.953
 7774SOL     OW24220   4.920   2.606   4.738
 7774SOL    HW124221   4.842   2.592   4.677
 7774SOL    HW224222   4.910   2.546   4.818
 7775SOL     OW24223   4.168   6.607   0.153
 7775SOL    HW124224   4.199   6.534   0.093
 7775SOL    HW224225   4.239   6.677   0.159
 7776SOL     OW24226   0.842   6.208   6.650
 7776SOL    HW124227   0.847   6.109   6.658
 7776SOL    HW224228   0.869   6.249   6.737
 7777SOL     OW24229   6.175   5.529   4.787
 7777SOL    HW124230   6.241   5.562   4.719
 7777SOL    HW224231   6.084   5.526   4.746
 7778SOL     OW24232   5.699   4.093   2.087
 7778SOL    HW124233   5.696   4.026   2.013
 7778SOL    HW224234   5.729   4.182   2.051
 7779SOL     OW24235   2.762   1.184   2.696
 7779SOL    HW124236   2.744   1.094   2.655
 7779SOL    HW224237   2.736   1.255   2.631
 7780SOL     OW24238   1.137   5.135   5.483
 7780SOL    HW124239   1.073   5.114   5.557
 7780SOL    HW224240   1.186   5.052   5.457
 7781SOL     OW24241   0.763   3.593   1.371
 7781SOL    HW124242   0.855   3.619   1.341
 7781SOL    HW224243   0.710   3.676   1.389
 7782SOL     OW24244   5.128   5.386   3.793
 7782SOL    HW124245   5.113   5.485   3.792
 7782SOL    HW224246   5.167   5.359   3.881
 7783SOL     OW24247   0.455   0.377   5.539
 7783SOL    HW124248   0.504   0.290   5.527
 7783SOL    HW224249   0.371   0.361   5.590
 7784SOL     OW24250   3.172   2.596   1.749
 7784SOL    HW124251   3.102   2.570   1.815
 7784SOL    HW224252   3.242   2.524   1.745
 7785SOL     OW24253   2.046   6.488   3.892
 7785SOL    HW124254   2.066   6.458   3.985
 7785SOL    HW224255   2.125   6.470   3.833
 7786SOL     OW24256   4.488   0.719   6.750
 7786SOL    HW124257   4.423   0.724   6.674
 7786SOL    HW224258   4.553   0.645   6.733
 7787SOL     OW24259   1.841   3.047   0.369
 7787SOL    HW124260   1.914   3.025   0.305
 7787SOL    HW224261   1.764   2.985   0.354
 7788SOL     OW24262   0.849   5.426   2.060
 7788SOL    HW124263   0.875   5.520   2.081
 7788SOL    HW224264   0.896   5.364   2.123
 7789SOL     OW24265   3.355   6.923   6.603
 7789SOL    HW124266   3.262   6.961   6.596
 7789SOL    HW224267   3.362   6.867   6.685
 7790SOL     OW24268   5.688   4.893   2.650
 7790SOL    HW124269   5.604   4.863   2.604
 7790SOL    HW224270   5.753   4.817   2.652
 7791SOL     OW24271   2.089   5.339   2.341
 7791SOL    HW124272   2.048   5.269   2.282
 7791SOL    HW224273   2.151   5.294   2.406
 7792SOL     OW24274   1.316   6.651   3.686
 7792SOL    HW124275   1.256   6.589   3.734
 7792SOL    HW224276   1.322   6.624   3.590
 7793SOL     OW24277   4.728   1.206   0.400
 7793SOL    HW124278   4.679   1.177   0.318
 7793SOL    HW224279   4.776   1.127   0.439
 7794SOL     OW24280   0.167   4.272   2.019
 7794SOL    HW124281   0.085   4.320   2.048
 7794SOL    HW224282   0.238   4.339   1.996
 7795SOL     OW24283   3.262   5.476   5.150
 7795SOL    HW124284   3.319   5.401   5.116
 7795SOL    HW224285   3.173   5.474   5.104
 7796SOL     OW24286   3.438   2.420   5.985
 7796SOL    HW124287   3.442   2.324   5.960
 7796SOL    HW224288   3.464   2.476   5.906
 7797SOL     OW24289   0.893   5.535   1.337
 7797SOL    HW124290   0.912   5.442   1.369
 7797SOL    HW224291   0.917   5.600   1.408
 7798SOL     OW24292   1.639   1.521   2.548
 7798SOL    HW124293   1.726   1.531   2.596
 7798SOL    HW224294   1.563   1.541   2.611
 7799SOL     OW24295   2.079   5.816   2.933
 7799SOL    HW124296   2.005   5.749   2.945
 7799SOL    HW224297   2.078   5.851   2.840
 7800SOL     OW24298   0.411   6.140   3.263
 7800SOL    HW124299   0.319   6.163   3.230
 7800SOL    HW224300   0.404   6.073   3.336
 7801SOL     OW24301   1.786   1.357   3.010
 7801SOL    HW124302   1.749   1.438   2.964
 7801SOL    HW224303   1.874   1.333   2.970
 7802SOL     OW24304   7.013   3.392   0.062
 7802SOL    HW124305   0.009   3.445   0.144
 7802SOL    HW224306   6.918   3.408   0.037
 7803SOL     OW24307   4.745   1.681   6.949
 7803SOL    HW124308   4.764   1.648   0.014
 7803SOL    HW224309   4.812   1.751   6.923
 7804SOL     OW24310   4.096   2.131   5.202
 7804SOL    HW124311   4.128   2.160   5.112
 7804SOL    HW224312   4.087   2.210   5.261
 7805SOL     OW24313   4.899   3.705   2.497
 7805SOL    HW124314   4.987   3.751   2.486
 7805SOL    HW224315   4.914   3.609   2.519
 7806SOL     OW24316   6.250   1.229   6.496
 7806SOL    HW124317   6.177   1.290   6.463
 7806SOL    HW224318   6.339   1.269   6.473
 7807SOL     OW24319   0.738   4.075   5.141
 7807SOL    HW124320   0.747   3.994   5.200
 7807SOL    HW224321   0.663   4.062   5.077
 7808SOL     OW24322   5.238   3.575   3.031
 7808SOL    HW124323   5.205   3.619   2.948
 7808SOL    HW224324   5.338   3.574   3.030
 7809SOL     OW24325   5.320   5.181   4.407
 7809SOL    HW124326   5.368   5.213   4.325
 7809SOL    HW224327   5.255   5.250   4.437
 7810SOL     OW24328   2.991   6.488   5.418
 7810SOL    HW124329   2.921   6.418   5.433
 7810SOL    HW224330   3.078   6.444   5.397
 7811SOL     OW24331   1.189   5.593   2.253
 7811SOL    HW124332   1.161   5.497   2.252
 7811SOL    HW224333   1.251   5.610   2.176
 7812SOL     OW24334   2.242   2.811   5.123
 7812SOL    HW124335   2.300   2.753   5.180
 7812SOL    HW224336   2.298   2.884   5.084
 7813SOL     OW24337   4.413   2.477   1.149
 7813SOL    HW124338   4.409   2.525   1.062
 7813SOL    HW224339   4.442   2.383   1.134
 7814SOL     OW24340   0.124   3.815   2.879
 7814SOL    HW124341   0.038   3.765   2.872
 7814SOL    HW224342   0.200   3.752   2.862
 7815SOL     OW24343   5.716   2.106   4.686
 7815SOL    HW124344   5.753   2.015   4.701
 7815SOL    HW224345   5.661   2.133   4.765
 7816SOL     OW24346   0.330   2.418   6.040
 7816SOL    HW124347   0.428   2.404   6.059
 7816SOL    HW224348   0.304   2.365   5.960
 7817SOL     OW24349   4.240   3.958   5.326
 7817SOL    HW124350   4.270   3.867   5.300
 7817SOL    HW224351   4.291   3.989   5.406
 7818SOL     OW24352   4.579   0.958   3.071
 7818SOL    HW124353   4.555   1.003   2.985
 7818SOL    HW224354   4.517   0.990   3.143
 7819SOL     OW24355   0.125   3.602   3.928
 7819SOL    HW124356   0.096   3.510   3.902
 7819SOL    HW224357   0.216   3.621   3.891
 7820SOL     OW24358   1.943   0.978   5.733
 7820SOL    HW124359   1.896   1.024   5.809
 7820SOL    HW224360   1.914   1.020   5.647
 7821SOL     OW24361   5.623   5.655   0.814
 7821SOL    HW124362   5.640   5.622   0.721
 7821SOL    HW224363   5.641   5.754   0.817
 7822SOL     OW24364   1.517   1.594   6.128
 7822SOL    HW124365   1.495   1.547   6.043
 7822SOL    HW224366   1.593   1.548   6.173
 7823SOL     OW24367   2.098   3.936   6.264
 7823SOL    HW124368   2.111   3.995   6.184
 7823SOL    HW224369   2.175   3.872   6.270
 7824SOL     OW24370   5.995   0.565   4.764
 7824SOL    HW124371   5.954   0.624   4.833
 7824SOL    HW224372   6.069   0.613   4.718
 7825SOL     OW24373   1.802   3.259   1.276
 7825SOL    HW124374   1.895   3.272   1.242
 7825SOL    HW224375   1.747   3.339   1.253
 7826SOL     OW24376   4.974   1.732   6.252
 7826SOL    HW124377   5.052   1.790   6.274
 7826SOL    HW224378   4.931   1.700   6.336
 7827SOL     OW24379   3.117   4.765   1.169
 7827SOL    HW124380   3.021   4.757   1.144
 7827SOL    HW224381   3.164   4.821   1.102
 7828SOL     OW24382   7.007   5.332   0.517
 7828SOL    HW124383   0.056   5.370   0.465
 7828SOL    HW224384   7.021   5.233   0.529
 7829SOL     OW24385   2.038   2.976   0.877
 7829SOL    HW124386   2.132   3.003   0.857
 7829SOL    HW224387   1.986   2.969   0.792
 7830SOL     OW24388   5.446   3.931   6.151
 7830SOL    HW124389   5.428   3.906   6.246
 7830SOL    HW224390   5.509   3.864   6.111
 7831SOL     OW24391   1.396   5.339   0.233
 7831SOL    HW124392   1.355   5.395   0.305
 7831SOL    HW224393   1.344   5.351   0.149
 7832SOL     OW24394   3.528   1.362   4.238
 7832SOL    HW124395   3.552   1.434   4.303
 7832SOL    HW224396   3.610   1.310   4.215
 7833SOL     OW24397   0.244   0.528   0.304
 7833SOL    HW124398   0.306   0.545   0.228
 7833SOL    HW224399   0.296   0.504   0.385
 7834SOL     OW24400   0.869   1.653   2.707
 7834SOL    HW124401   0.847   1.714   2.631
 7834SOL    HW224402   0.934   1.698   2.769
 7835SOL     OW24403   2.220   2.343   5.188
 7835SOL    HW124404   2.240   2.350   5.286
 7835SOL    HW224405   2.125   2.368   5.172
 7836SOL     OW24406   3.464   1.823   6.535
 7836SOL    HW124407   3.448   1.887   6.610
 7836SOL    HW224408   3.494   1.874   6.454
 7837SOL     OW24409   6.798   6.350   1.246
 7837SOL    HW124410   6.786   6.259   1.285
 7837SOL    HW224411   6.813   6.416   1.320
 7838SOL     OW24412   4.533   6.481   6.298
 7838SOL    HW124413   4.455   6.504   6.356
 7838SOL    HW224414   4.615   6.473   6.354
 7839SOL     OW24415   6.368   4.576   5.299
 7839SOL    HW124416   6.375   4.675   5.316
 7839SOL    HW224417   6.419   4.527   5.370
 7840SOL     OW24418   5.179   3.604   3.636
 7840SOL    HW124419   5.158   3.701   3.631
 7840SOL    HW224420   5.224   3.575   3.551
 7841SOL     OW24421   5.705   1.468   6.732
 7841SOL    HW124422   5.721   1.548   6.791
 7841SOL    HW224423   5.784   1.407   6.737
 7842SOL     OW24424   1.566   0.967   3.289
 7842SOL    HW124425   1.610   1.008   3.369
 7842SOL    HW224426   1.627   0.976   3.210
 7843SOL     OW24427   5.673   4.733   1.847
 7843SOL    HW124428   5.668   4.636   1.868
 7843SOL    HW224429   5.604   4.782   1.902
 7844SOL     OW24430   4.657   0.339   3.515
 7844SOL    HW124431   4.735   0.378   3.563
 7844SOL    HW224432   4.671   0.240   3.503
 7845SOL     OW24433   0.718   1.072   3.822
 7845SOL    HW124434   0.671   1.009   3.761
 7845SOL    HW224435   0.651   1.128   3.871
 7846SOL     OW24436   1.950   0.506   1.623
 7846SOL    HW124437   1.972   0.502   1.721
 7846SOL    HW224438   2.032   0.485   1.570
 7847SOL     OW24439   6.911   1.918   1.498
 7847SOL    HW124440   6.854   1.999   1.494
 7847SOL    HW224441   6.982   1.923   1.428
 7848SOL     OW24442   3.067   4.323   0.992
 7848SOL    HW124443   3.153   4.374   0.999
 7848SOL    HW224444   3.009   4.345   1.070
 7849SOL     OW24445   5.175   3.996   4.088
 7849SOL    HW124446   5.083   3.982   4.053
 7849SOL    HW224447   5.241   3.993   4.013
 7850SOL     OW24448   0.711   1.180   3.454
 7850SOL    HW124449   0.655   1.160   3.534
 7850SOL    HW224450   0.808   1.167   3.477
 7851SOL     OW24451   6.866   0.255   0.670
 7851SOL    HW124452   6.815   0.341   0.664
 7851SOL    HW224453   6.839   0.206   0.753
 7852SOL     OW24454   2.842   0.118   5.914
 7852SOL    HW124455   2.754   0.101   5.869
 7852SOL    HW224456   2.916   0.093   5.852
 7853SOL     OW24457   4.000   1.704   1.687
 7853SOL    HW124458   3.977   1.791   1.731
 7853SOL    HW224459   4.099   1.690   1.692
 7854SOL     OW24460   3.600   4.909   0.625
 7854SOL    HW124461   3.511   4.955   0.624
 7854SOL    HW224462   3.660   4.953   0.692
 7855SOL     OW24463   4.164   5.687   5.815
 7855SOL    HW124464   4.174   5.589   5.836
 7855SOL    HW224465   4.208   5.741   5.887
 7856SOL     OW24466   6.010   4.821   3.696
 7856SOL    HW124467   5.997   4.791   3.791
 7856SOL    HW224468   5.928   4.798   3.643
 7857SOL     OW24469   6.843   2.873   5.720
 7857SOL    HW124470   6.835   2.777   5.694
 7857SOL    HW224471   6.928   2.910   5.684
 7858SOL     OW24472   5.117   5.122   3.704
 7858SOL    HW124473   5.208   5.093   3.733
 7858SOL    HW224474   5.099   5.215   3.737
 7859SOL     OW24475   6.942   4.518   5.753
 7859SOL    HW124476   7.016   4.452   5.743
 7859SOL    HW224477   6.930   4.569   5.668
 7860SOL     OW24478   4.066   6.283   2.637
 7860SOL    HW124479   4.157   6.243   2.638
 7860SOL    HW224480   3.998   6.212   2.659
 7861SOL     OW24481   4.251   5.330   2.377
 7861SOL    HW124482   4.205   5.246   2.347
 7861SOL    HW224483   4.183   5.397   2.405
 7862SOL     OW24484   3.014   4.476   1.587
 7862SOL    HW124485   2.997   4.450   1.683
 7862SOL    HW224486   2.972   4.408   1.527
 7863SOL     OW24487   6.720   6.251   3.661
 7863SOL    HW124488   6.651   6.219   3.726
 7863SOL    HW224489   6.810   6.249   3.705
 7864SOL     OW24490   6.595   6.223   5.858
 7864SOL    HW124491   6.565   6.264   5.945
 7864SOL    HW224492   6.575   6.125   5.859
 7865SOL     OW24493   4.798   0.096   4.180
 7865SOL    HW124494   4.855   0.176   4.162
 7865SOL    HW224495   4.701   0.121   4.173
 7866SOL     OW24496   2.538   1.920   0.779
 7866SOL    HW124497   2.557   1.904   0.876
 7866SOL    HW224498   2.622   1.948   0.733
 7867SOL     OW24499   5.376   5.323   2.617
 7867SOL    HW124500   5.400   5.275   2.533
 7867SOL    HW224501   5.304   5.272   2.665
 7868SOL     OW24502   5.793   6.921   2.557
 7868SOL    HW124503   5.758   6.841   2.508
 7868SOL    HW224504   5.804   6.899   2.654
 7869SOL     OW24505   6.477   3.440   0.198
 7869SOL    HW124506   6.420   3.522   0.194
 7869SOL    HW224507   6.423   3.360   0.170
 7870SOL     OW24508   5.142   5.664   3.733
 7870SOL    HW124509   5.151   5.707   3.823
 7870SOL    HW224510   5.228   5.674   3.683
 7871SOL     OW24511   6.066   3.796   2.608
 7871SOL    HW124512   6.148   3.846   2.634
 7871SOL    HW224513   5.985   3.849   2.635
 7872SOL     OW24514   1.215   4.589   2.289
 7872SOL    HW124515   1.174   4.558   2.375
 7872SOL    HW224516   1.247   4.683   2.300
 7873SOL     OW24517   5.293   0.114   5.104
 7873SOL    HW124518   5.345   0.105   5.189
 7873SOL    HW224519   5.213   0.171   5.121
 7874SOL     OW24520   5.724   1.381   0.316
 7874SOL    HW124521   5.820   1.399   0.294
 7874SOL    HW224522   5.697   1.294   0.275
 7875SOL     OW24523   3.810   3.384   0.149
 7875SOL    HW124524   3.862   3.468   0.133
 7875SOL    HW224525   3.864   3.305   0.119
 7876SOL     OW24526   0.179   6.947   4.852
 7876SOL    HW124527   0.232   6.930   4.769
 7876SOL    HW224528   0.240   6.983   4.923
 7877SOL     OW24529   0.597   3.391   2.648
 7877SOL    HW124530   0.540   3.384   2.730
 7877SOL    HW224531   0.549   3.444   2.578
 7878SOL     OW24532   4.903   5.055   3.889
 7878SOL    HW124533   4.981   5.095   3.842
 7878SOL    HW224534   4.933   5.006   3.970
 7879SOL     OW24535   4.418   6.143   3.379
 7879SOL    HW124536   4.513   6.130   3.352
 7879SOL    HW224537   4.393   6.075   3.447
 7880SOL     OW24538   0.466   5.572   1.480
 7880SOL    HW124539   0.477   5.483   1.524
 7880SOL    HW224540   0.545   5.630   1.502
 7881SOL     OW24541   6.345   3.279   4.513
 7881SOL    HW124542   6.304   3.336   4.442
 7881SOL    HW224543   6.433   3.318   4.541
 7882SOL     OW24544   2.031   2.818   3.345
 7882SOL    HW124545   2.031   2.764   3.260
 7882SOL    HW224546   1.989   2.907   3.327
 7883SOL     OW24547   2.082   0.055   1.227
 7883SOL    HW124548   2.145   7.012   1.261
 7883SOL    HW224549   1.996   0.012   1.200
 7884SOL     OW24550   1.904   4.027   3.623
 7884SOL    HW124551   1.928   4.121   3.650
 7884SOL    HW224552   1.825   4.029   3.563
 7885SOL     OW24553   5.939   6.245   2.429
 7885SOL    HW124554   5.843   6.219   2.417
 7885SOL    HW224555   5.943   6.334   2.474
 7886SOL     OW24556   4.617   3.633   1.426
 7886SOL    HW124557   4.717   3.640   1.429
 7886SOL    HW224558   4.583   3.618   1.519
 7887SOL     OW24559   3.582   2.549   5.385
 7887SOL    HW124560   3.484   2.546   5.408
 7887SOL    HW224561   3.597   2.618   5.314
 7888SOL     OW24562   0.017   0.285   4.804
 7888SOL    HW124563   0.042   0.343   4.882
 7888SOL    HW224564   0.040   0.190   4.824
 7889SOL     OW24565   0.610   5.323   6.419
 7889SOL    HW124566   0.562   5.271   6.490
 7889SOL    HW224567   0.543   5.358   6.353
 7890SOL     OW24568   0.677   3.509   3.787
 7890SOL    HW124569   0.673   3.412   3.764
 7890SOL    HW224570   0.692   3.519   3.886
 7891SOL     OW24571   1.269   3.910   4.293
 7891SOL    HW124572   1.262   3.998   4.341
 7891SOL    HW224573   1.295   3.839   4.359
 7892SOL     OW24574   0.762   2.169   4.167
 7892SOL    HW124575   0.849   2.219   4.167
 7892SOL    HW224576   0.740   2.141   4.074
 7893SOL     OW24577   5.665   6.403   2.098
 7893SOL    HW124578   5.704   6.495   2.090
 7893SOL    HW224579   5.701   6.345   2.025
 7894SOL     OW24580   3.287   0.813   0.865
 7894SOL    HW124581   3.284   0.849   0.772
 7894SOL    HW224582   3.302   0.887   0.930
 7895SOL     OW24583   4.079   6.483   5.019
 7895SOL    HW124584   4.146   6.409   5.012
 7895SOL    HW224585   3.996   6.458   4.969
 7896SOL     OW24586   5.875   3.546   1.333
 7896SOL    HW124587   5.878   3.643   1.356
 7896SOL    HW224588   5.966   3.516   1.304
 7897SOL     OW24589   3.416   3.112   0.487
 7897SOL    HW124590   3.484   3.185   0.494
 7897SOL    HW224591   3.354   3.117   0.565
 7898SOL     OW24592   4.169   6.925   4.444
 7898SOL    HW124593   4.253   6.959   4.404
 7898SOL    HW224594   4.190   6.858   4.515
 7899SOL     OW24595   5.761   6.645   1.835
 7899SOL    HW124596   5.780   6.667   1.739
 7899SOL    HW224597   5.669   6.678   1.859
 7900SOL     OW24598   0.640   4.432   1.192
 7900SOL    HW124599   0.619   4.414   1.288
 7900SOL    HW224600   0.739   4.445   1.182
 7901SOL     OW24601   4.994   1.069   6.034
 7901SOL    HW124602   5.023   1.162   6.012
 7901SOL    HW224603   5.070   1.020   6.077
 7902SOL     OW24604   6.528   5.852   3.412
 7902SOL    HW124605   6.470   5.800   3.349
 7902SOL    HW224606   6.586   5.789   3.464
 7903SOL     OW24607   4.675   1.884   3.351
 7903SOL    HW124608   4.693   1.786   3.366
 7903SOL    HW224609   4.584   1.896   3.314
 7904SOL     OW24610   5.571   0.718   3.322
 7904SOL    HW124611   5.646   0.759   3.375
 7904SOL    HW224612   5.602   0.699   3.229
 7905SOL     OW24613   6.163   1.683   0.827
 7905SOL    HW124614   6.230   1.612   0.846
 7905SOL    HW224615   6.121   1.665   0.737
 7906SOL     OW24616   1.212   5.713   0.162
 7906SOL    HW124617   1.229   5.735   0.257
 7906SOL    HW224618   1.167   5.790   0.117
 7907SOL     OW24619   6.575   1.091   3.179
 7907SOL    HW124620   6.641   1.017   3.167
 7907SOL    HW224621   6.595   1.166   3.116
 7908SOL     OW24622   1.452   1.467   5.876
 7908SOL    HW124623   1.506   1.382   5.880
 7908SOL    HW224624   1.512   1.543   5.850
 7909SOL     OW24625   4.712   4.210   3.620
 7909SOL    HW124626   4.700   4.111   3.619
 7909SOL    HW224627   4.680   4.247   3.707
 7910SOL     OW24628   1.423   3.567   0.881
 7910SOL    HW124629   1.440   3.506   0.804
 7910SOL    HW224630   1.504   3.571   0.940
 7911SOL     OW24631   0.882   3.842   1.505
 7911SOL    HW124632   0.872   3.926   1.558
 7911SOL    HW224633   0.792   3.812   1.472
 7912SOL     OW24634   5.329   4.046   0.471
 7912SOL    HW124635   5.316   4.045   0.570
 7912SOL    HW224636   5.403   3.982   0.448
 7913SOL     OW24637   0.999   4.414   1.411
 7913SOL    HW124638   1.030   4.375   1.497
 7913SOL    HW224639   0.929   4.483   1.428
 7914SOL     OW24640   0.477   4.705   1.095
 7914SOL    HW124641   0.529   4.637   1.145
 7914SOL    HW224642   0.446   4.666   1.008
 7915SOL     OW24643   4.603   2.095   2.914
 7915SOL    HW124644   4.599   1.997   2.894
 7915SOL    HW224645   4.698   2.123   2.926
 7916SOL     OW24646   0.610   6.652   5.093
 7916SOL    HW124647   0.655   6.648   5.182
 7916SOL    HW224648   0.515   6.622   5.102
 7917SOL     OW24649   4.284   3.115   5.454
 7917SOL    HW124650   4.271   3.168   5.371
 7917SOL    HW224651   4.197   3.106   5.503
 7918SOL     OW24652   6.991   0.972   4.940
 7918SOL    HW124653   0.031   0.905   4.972
 7918SOL    HW224654   6.960   0.947   4.848
 7919SOL     OW24655   0.803   4.335   1.944
 7919SOL    HW124656   0.746   4.403   1.899
 7919SOL    HW224657   0.844   4.274   1.876
 7920SOL     OW24658   5.693   0.287   1.537
 7920SOL    HW124659   5.754   0.348   1.587
 7920SOL    HW224660   5.640   0.232   1.602
 7921SOL     OW24661   5.337   6.994   1.996
 7921SOL    HW124662   5.253   7.024   2.041
 7921SOL    HW224663   5.405   6.970   2.065
 7922SOL     OW24664   1.179   5.956   0.044
 7922SOL    HW124665   1.221   6.001   0.123
 7922SOL    HW224666   1.177   6.019   6.993
 7923SOL     OW24667   3.481   1.889   5.930
 7923SOL    HW124668   3.410   1.860   5.866
 7923SOL    HW224669   3.457   1.979   5.967
 7924SOL     OW24670   4.454   0.394   1.048
 7924SOL    HW124671   4.464   0.302   1.087
 7924SOL    HW224672   4.490   0.395   0.955
 7925SOL     OW24673   0.800   0.207   1.065
 7925SOL    HW124674   0.849   0.280   1.016
 7925SOL    HW224675   0.852   0.182   1.147
 7926SOL     OW24676   4.999   1.755   6.838
 7926SOL    HW124677   5.087   1.760   6.886
 7926SOL    HW224678   4.996   1.824   6.766
 7927SOL     OW24679   4.855   6.790   1.862
 7927SOL    HW124680   4.935   6.760   1.914
 7927SOL    HW224681   4.773   6.782   1.918
 7928SOL     OW24682   0.042   1.876   4.244
 7928SOL    HW124683   7.024   1.966   4.244
 7928SOL    HW224684   7.007   1.810   4.286
 7929SOL     OW24685   3.868   4.124   5.861
 7929SOL    HW124686   3.837   4.191   5.928
 7929SOL    HW224687   3.943   4.070   5.899
 7930SOL     OW24688   3.870   5.335   6.548
 7930SOL    HW124689   3.808   5.319   6.624
 7930SOL    HW224690   3.952   5.278   6.560
 7931SOL     OW24691   4.371   2.932   0.719
 7931SOL    HW124692   4.294   2.973   0.767
 7931SOL    HW224693   4.410   2.859   0.775
 7932SOL     OW24694   1.121   5.147   0.061
 7932SOL    HW124695   1.173   5.066   0.088
 7932SOL    HW224696   1.185   5.219   0.032
 7933SOL     OW24697   6.640   0.348   5.810
 7933SOL    HW124698   6.729   0.369   5.851
 7933SOL    HW224699   6.649   0.271   5.748
 7934SOL     OW24700   1.631   5.294   0.002
 7934SOL    HW124701   1.612   5.340   6.942
 7934SOL    HW224702   1.574   5.333   0.074
 7935SOL     OW24703   5.313   6.036   1.792
 7935SOL    HW124704   5.286   5.975   1.718
 7935SOL    HW224705   5.411   6.054   1.787
 7936SOL     OW24706   2.997   5.333   3.502
 7936SOL    HW124707   2.996   5.292   3.411
 7936SOL    HW224708   2.924   5.401   3.510
 7937SOL     OW24709   1.466   5.955   4.267
 7937SOL    HW124710   1.408   6.024   4.224
 7937SOL    HW224711   1.410   5.876   4.293
 7938SOL     OW24712   5.626   5.897   5.432
 7938SOL    HW124713   5.694   5.957   5.391
 7938SOL    HW224714   5.664   5.805   5.442
 7939SOL     OW24715   1.230   1.844   5.779
 7939SOL    HW124716   1.240   1.781   5.702
 7939SOL    HW224717   1.214   1.937   5.744
 7940SOL     OW24718   2.857   2.255   2.807
 7940SOL    HW124719   2.888   2.200   2.729
 7940SOL    HW224720   2.929   2.257   2.876
 7941SOL     OW24721   5.228   6.541   2.869
 7941SOL    HW124722   5.230   6.599   2.788
 7941SOL    HW224723   5.234   6.598   2.951
 7942SOL     OW24724   1.000   3.112   3.069
 7942SOL    HW124725   1.039   3.057   3.143
 7942SOL    HW224726   1.052   3.098   2.985
 7943SOL     OW24727   0.585   4.236   5.736
 7943SOL    HW124728   0.657   4.171   5.760
 7943SOL    HW224729   0.624   4.309   5.679
 7944SOL     OW24730   0.744   2.818   1.623
 7944SOL    HW124731   0.683   2.810   1.544
 7944SOL    HW224732   0.792   2.906   1.619
 7945SOL     OW24733   6.368   5.721   2.439
 7945SOL    HW124734   6.290   5.665   2.410
 7945SOL    HW224735   6.446   5.705   2.378
 7946SOL     OW24736   3.602   0.297   6.120
 7946SOL    HW124737   3.512   0.342   6.122
 7946SOL    HW224738   3.673   0.365   6.140
 7947SOL     OW24739   2.680   1.738   5.306
 7947SOL    HW124740   2.610   1.784   5.361
 7947SOL    HW224741   2.718   1.802   5.239
 7948SOL     OW24742   0.488   5.650   0.981
 7948SOL    HW124743   0.514   5.746   0.967
 7948SOL    HW224744   0.534   5.615   1.063
 7949SOL     OW24745   4.545   4.385   6.314
 7949SOL    HW124746   4.585   4.449   6.380
 7949SOL    HW224747   4.606   4.377   6.235
 7950SOL     OW24748   4.502   5.935   4.557
 7950SOL    HW124749   4.436   5.904   4.488
 7950SOL    HW224750   4.572   5.865   4.570
 7951SOL     OW24751   1.965   5.111   2.152
 7951SOL    HW124752   2.026   5.151   2.083
 7951SOL    HW224753   1.888   5.066   2.106
 7952SOL     OW24754   0.159   3.335   0.548
 7952SOL    HW124755   0.182   3.407   0.482
 7952SOL    HW224756   0.212   3.253   0.530
 7953SOL     OW24757   4.681   2.321   2.017
 7953SOL    HW124758   4.678   2.336   1.918
 7953SOL    HW224759   4.693   2.408   2.064
 7954SOL     OW24760   3.690   4.518   6.235
 7954SOL    HW124761   3.593   4.496   6.235
 7954SOL    HW224762   3.733   4.478   6.315
 7955SOL     OW24763   2.278   1.418   6.547
 7955SOL    HW124764   2.366   1.386   6.511
 7955SOL    HW224765   2.205   1.356   6.517
 7956SOL     OW24766   4.970   0.861   1.919
 7956SOL    HW124767   4.918   0.936   1.878
 7956SOL    HW224768   5.045   0.835   1.857
 7957SOL     OW24769   1.684   1.062   0.433
 7957SOL    HW124770   1.620   1.037   0.506
 7957SOL    HW224771   1.640   1.126   0.370
 7958SOL     OW24772   5.077   4.301   6.046
 7958SOL    HW124773   5.063   4.329   6.141
 7958SOL    HW224774   4.990   4.272   6.006
 7959SOL     OW24775   5.311   0.077   7.002
 7959SOL    HW124776   5.362   0.125   6.930
 7959SOL    HW224777   5.241   0.020   6.960
 7960SOL     OW24778   1.519   0.980   6.226
 7960SOL    HW124779   1.426   0.992   6.261
 7960SOL    HW224780   1.515   0.952   6.130
 7961SOL     OW24781   6.570   0.257   1.199
 7961SOL    HW124782   6.656   0.294   1.234
 7961SOL    HW224783   6.583   0.162   1.170
 7962SOL     OW24784   0.661   1.672   5.653
 7962SOL    HW124785   0.706   1.595   5.606
 7962SOL    HW224786   0.617   1.639   5.736
 7963SOL     OW24787   6.429   5.749   4.293
 7963SOL    HW124788   6.400   5.705   4.378
 7963SOL    HW224789   6.468   5.681   4.231
 7964SOL     OW24790   6.115   3.388   2.687
 7964SOL    HW124791   6.152   3.302   2.723
 7964SOL    HW224792   6.087   3.447   2.763
 7965SOL     OW24793   3.883   2.272   6.511
 7965SOL    HW124794   3.837   2.231   6.590
 7965SOL    HW224795   3.815   2.297   6.442
 7966SOL     OW24796   3.114   3.026   6.113
 7966SOL    HW124797   3.168   2.973   6.048
 7966SOL    HW224798   3.089   2.968   6.191
 7967SOL     OW24799   2.681   5.483   2.048
 7967SOL    HW124800   2.602   5.483   2.109
 7967SOL    HW224801   2.693   5.392   2.009
 7968SOL     OW24802   6.328   2.152   4.922
 7968SOL    HW124803   6.382   2.158   5.006
 7968SOL    HW224804   6.270   2.071   4.926
 7969SOL     OW24805   5.977   6.034   0.894
 7969SOL    HW124806   5.914   6.112   0.889
 7969SOL    HW224807   5.992   6.010   0.989
 7970SOL     OW24808   6.522   3.710   2.196
 7970SOL    HW124809   6.534   3.777   2.123
 7970SOL    HW224810   6.428   3.713   2.230
 7971SOL     OW24811   3.265   1.512   1.125
 7971SOL    HW124812   3.312   1.520   1.037
 7971SOL    HW224813   3.167   1.524   1.111
 7972SOL     OW24814   3.229   3.556   1.426
 7972SOL    HW124815   3.228   3.507   1.338
 7972SOL    HW224816   3.264   3.496   1.497
 7973SOL     OW24817   4.708   4.637   4.336
 7973SOL    HW124818   4.754   4.613   4.250
 7973SOL    HW224819   4.772   4.629   4.412
 7974SOL     OW24820   6.222   0.861   5.994
 7974SOL    HW124821   6.247   0.815   6.079
 7974SOL    HW224822   6.130   0.900   6.003
 7975SOL     OW24823   5.629   0.047   0.822
 7975SOL    HW124824   5.629   0.098   0.736
 7975SOL    HW224825   5.697   0.087   0.884
 7976SOL     OW24826   0.927   0.462   5.873
 7976SOL    HW124827   0.982   0.545   5.865
 7976SOL    HW224828   0.833   0.487   5.897
 7977SOL     OW24829   4.121   5.956   2.401
 7977SOL    HW124830   4.188   6.017   2.443
 7977SOL    HW224831   4.151   5.934   2.308
 7978SOL     OW24832   0.190   2.572   6.253
 7978SOL    HW124833   0.197   2.533   6.346
 7978SOL    HW224834   0.267   2.539   6.199
 7979SOL     OW24835   2.519   5.073   5.559
 7979SOL    HW124836   2.572   5.136   5.615
 7979SOL    HW224837   2.543   5.086   5.463
 7980SOL     OW24838   3.255   5.400   6.541
 7980SOL    HW124839   3.317   5.477   6.529
 7980SOL    HW224840   3.215   5.374   6.453
 7981SOL     OW24841   0.676   4.580   1.871
 7981SOL    HW124842   0.582   4.583   1.836
 7981SOL    HW224843   0.691   4.657   1.933
 7982SOL     OW24844   1.578   1.847   6.253
 7982SOL    HW124845   1.531   1.770   6.208
 7982SOL    HW224846   1.620   1.815   6.337
 7983SOL     OW24847   6.414   2.352   0.701
 7983SOL    HW124848   6.383   2.260   0.678
 7983SOL    HW224849   6.343   2.418   0.678
 7984SOL     OW24850   0.271   1.171   0.433
 7984SOL    HW124851   0.321   1.102   0.380
 7984SOL    HW224852   0.334   1.242   0.465
 7985SOL     OW24853   2.521   1.823   4.400
 7985SOL    HW124854   2.466   1.756   4.349
 7985SOL    HW224855   2.618   1.811   4.378
 7986SOL     OW24856   3.006   0.710   6.370
 7986SOL    HW124857   3.078   0.763   6.416
 7986SOL    HW224858   2.922   0.765   6.366
 7987SOL     OW24859   2.074   2.457   0.323
 7987SOL    HW124860   2.049   2.462   0.420
 7987SOL    HW224861   1.992   2.438   0.269
 7988SOL     OW24862   1.376   1.014   2.668
 7988SOL    HW124863   1.363   1.076   2.590
 7988SOL    HW224864   1.470   0.981   2.668
 7989SOL     OW24865   2.634   3.170   0.193
 7989SOL    HW124866   2.651   3.073   0.179
 7989SOL    HW224867   2.556   3.198   0.135
 7990SOL     OW24868   2.553   4.966   4.705
 7990SOL    HW124869   2.553   5.013   4.616
 7990SOL    HW224870   2.597   4.877   4.695
 7991SOL     OW24871   5.991   1.732   3.912
 7991SOL    HW124872   5.960   1.815   3.866
 7991SOL    HW224873   5.959   1.732   4.007
 7992SOL     OW24874   1.319   0.513   0.555
 7992SOL    HW124875   1.399   0.567   0.579
 7992SOL    HW224876   1.309   0.436   0.618
 7993SOL     OW24877   0.266   0.082   1.344
 7993SOL    HW124878   0.167   0.076   1.331
 7993SOL    HW224879   0.306   0.137   1.270
 7994SOL     OW24880   4.395   0.165   3.600
 7994SOL    HW124881   4.370   0.090   3.539
 7994SOL    HW224882   4.488   0.195   3.580
 7995SOL     OW24883   6.041   5.554   3.127
 7995SOL    HW124884   5.966   5.604   3.084
 7995SOL    HW224885   6.036   5.457   3.102
 7996SOL     OW24886   3.730   6.168   4.250
 7996SOL    HW124887   3.783   6.253   4.248
 7996SOL    HW224888   3.723   6.136   4.344
 7997SOL     OW24889   6.734   1.596   0.023
 7997SOL    HW124890   6.817   1.596   0.078
 7997SOL    HW224891   6.747   1.655   6.970
 7998SOL     OW24892   3.476   0.331   7.015
 7998SOL    HW124893   3.556   0.388   0.007
 7998SOL    HW224894   3.419   0.375   6.946
 7999SOL     OW24895   1.003   1.196   5.985
 7999SOL    HW124896   1.048   1.177   5.898
 7999SOL    HW224897   0.963   1.111   6.022
 8000SOL     OW24898   5.497   6.155   6.472
 8000SOL    HW124899   5.423   6.145   6.539
 8000SOL    HW224900   5.466   6.121   6.384
 8001SOL     OW24901   4.060   6.335   2.002
 8001SOL    HW124902   4.031   6.428   2.023
 8001SOL    HW224903   4.117   6.300   2.077
 8002SOL     OW24904   0.896   0.443   6.219
 8002SOL    HW124905   0.958   0.416   6.292
 8002SOL    HW224906   0.927   0.529   6.179
 8003SOL     OW24907   2.462   5.473   1.801
 8003SOL    HW124908   2.477   5.419   1.718
 8003SOL    HW224909   2.550   5.490   1.846
 8004SOL     OW24910   1.484   3.808   3.395
 8004SOL    HW124911   1.410   3.872   3.414
 8004SOL    HW224912   1.556   3.854   3.343
 8005SOL     OW24913   2.631   0.389   3.401
 8005SOL    HW124914   2.727   0.362   3.386
 8005SOL    HW224915   2.627   0.487   3.417
 8006SOL     OW24916   1.957   5.844   5.322
 8006SOL    HW124917   2.017   5.923   5.308
 8006SOL    HW224918   2.012   5.760   5.320
 8007SOL     OW24919   6.088   1.790   6.173
 8007SOL    HW124920   6.095   1.796   6.273
 8007SOL    HW224921   6.144   1.713   6.142
 8008SOL     OW24922   3.961   6.046   6.673
 8008SOL    HW124923   3.953   6.129   6.727
 8008SOL    HW224924   3.880   6.036   6.614
 8009SOL     OW24925   4.728   0.860   0.549
 8009SOL    HW124926   4.815   0.846   0.502
 8009SOL    HW224927   4.660   0.892   0.483
 8010SOL     OW24928   2.348   2.182   4.934
 8010SOL    HW124929   2.410   2.119   4.981
 8010SOL    HW224930   2.298   2.236   5.002
 8011SOL     OW24931   3.574   2.034   1.213
 8011SOL    HW124932   3.508   1.960   1.213
 8011SOL    HW224933   3.526   2.122   1.208
 8012SOL     OW24934   1.493   3.009   6.981
 8012SOL    HW124935   1.490   3.054   0.044
 8012SOL    HW224936   1.497   2.909   6.994
 8013SOL     OW24937   1.425   4.739   3.386
 8013SOL    HW124938   1.474   4.772   3.467
 8013SOL    HW224939   1.333   4.709   3.412
 8014SOL     OW24940   1.773   0.148   4.468
 8014SOL    HW124941   1.790   0.214   4.395
 8014SOL    HW224942   1.716   0.073   4.433
 8015SOL     OW24943   1.752   0.364   6.203
 8015SOL    HW124944   1.845   0.395   6.183
 8015SOL    HW224945   1.719   0.309   6.127
 8016SOL     OW24946   4.230   0.942   5.497
 8016SOL    HW124947   4.261   0.953   5.591
 8016SOL    HW224948   4.236   1.030   5.450
 8017SOL     OW24949   6.451   0.114   6.734
 8017SOL    HW124950   6.495   0.067   6.811
 8017SOL    HW224951   6.387   0.182   6.768
 8018SOL     OW24952   3.335   2.804   0.657
 8018SOL    HW124953   3.408   2.869   0.680
 8018SOL    HW224954   3.337   2.785   0.559
 8019SOL     OW24955   1.991   4.558   1.126
 8019SOL    HW124956   1.925   4.516   1.064
 8019SOL    HW224957   2.084   4.532   1.099
 8020SOL     OW24958   6.453   7.024   6.193
 8020SOL    HW124959   6.519   6.950   6.180
 8020SOL    HW224960   6.409   0.019   6.106
 8021SOL     OW24961   1.485   3.368   1.394
 8021SOL    HW124962   1.480   3.352   1.295
 8021SOL    HW224963   1.564   3.320   1.431
 8022SOL     OW24964   6.081   0.717   1.652
 8022SOL    HW124965   6.008   0.711   1.584
 8022SOL    HW224966   6.133   0.801   1.637
 8023SOL     OW24967   5.684   4.752   2.219
 8023SOL    HW124968   5.632   4.833   2.195
 8023SOL    HW224969   5.779   4.778   2.238
 8024SOL     OW24970   1.110   5.366   6.593
 8024SOL    HW124971   1.097   5.382   6.495
 8024SOL    HW224972   1.021   5.355   6.637
 8025SOL     OW24973   2.067   5.708   0.771
 8025SOL    HW124974   2.117   5.636   0.820
 8025SOL    HW224975   2.132   5.771   0.728
 8026SOL     OW24976   0.019   4.107   1.172
 8026SOL    HW124977   0.016   4.008   1.154
 8026SOL    HW224978   0.110   4.132   1.207
 8027SOL     OW24979   3.361   0.019   5.707
 8027SOL    HW124980   3.364   0.002   5.609
 8027SOL    HW224981   3.451   0.046   5.740
 8028SOL     OW24982   3.528   4.906   5.058
 8028SOL    HW124983   3.479   4.941   4.978
 8028SOL    HW224984   3.462   4.866   5.123
 8029SOL     OW24985   5.565   2.879   1.804
 8029SOL    HW124986   5.596   2.802   1.860
 8029SOL    HW224987   5.468   2.866   1.782
 8030SOL     OW24988   5.736   5.847   0.530
 8030SOL    HW124989   5.836   5.839   0.535
 8030SOL    HW224990   5.704   5.802   0.447
 8031SOL     OW24991   0.092   6.455   2.589
 8031SOL    HW124992   0.130   6.395   2.518
 8031SOL    HW224993   0.135   6.433   2.677
 8032SOL     OW24994   5.697   4.089   1.645
 8032SOL    HW124995   5.767   4.130   1.704
 8032SOL    HW224996   5.628   4.158   1.622
 8033SOL     OW24997   4.376   2.971   6.978
 8033SOL    HW124998   4.458   3.028   6.971
 8033SOL    HW224999   4.395   2.881   6.940
 8034SOL     OW25000   4.760   0.056   6.139
 8034SOL    HW125001   4.712   0.028   6.222
 8034SOL    HW225002   4.854   0.081   6.162
 8035SOL     OW25003   5.086   1.997   1.842
 8035SOL    HW125004   5.075   2.097   1.850
 8035SOL    HW225005   5.028   1.952   1.910
 8036SOL     OW25006   6.538   3.781   3.661
 8036SOL    HW125007   6.450   3.740   3.686
 8036SOL    HW225008   6.550   3.866   3.712
 8037SOL     OW25009   1.989   3.164   6.919
 8037SOL    HW125010   2.038   3.235   6.868
 8037SOL    HW225011   2.049   3.085   6.933
 8038SOL     OW25012   4.431   0.159   2.867
 8038SOL    HW125013   4.491   0.208   2.930
 8038SOL    HW225014   4.486   0.118   2.794
 8039SOL     OW25015   6.765   1.587   4.784
 8039SOL    HW125016   6.816   1.660   4.739
 8039SOL    HW225017   6.812   1.500   4.769
 8040SOL     OW25018   1.390   5.781   6.716
 8040SOL    HW125019   1.292   5.796   6.705
 8040SOL    HW225020   1.419   5.814   6.805
 8041SOL     OW25021   2.869   0.836   2.786
 8041SOL    HW125022   2.957   0.845   2.741
 8041SOL    HW225023   2.832   0.926   2.806
 8042SOL     OW25024   4.142   3.650   5.487
 8042SOL    HW125025   4.053   3.623   5.522
 8042SOL    HW225026   4.132   3.683   5.393
 8043SOL     OW25027   3.401   5.294   0.542
 8043SOL    HW125028   3.312   5.306   0.587
 8043SOL    HW225029   3.388   5.296   0.442
 8044SOL     OW25030   4.078   3.709   0.981
 8044SOL    HW125031   4.118   3.798   0.959
 8044SOL    HW225032   3.979   3.712   0.966
 8045SOL     OW25033   5.886   2.105   2.269
 8045SOL    HW125034   5.847   2.095   2.178
 8045SOL    HW225035   5.985   2.116   2.262
 8046SOL     OW25036   0.746   4.049   2.489
 8046SOL    HW125037   0.715   3.984   2.419
 8046SOL    HW225038   0.764   4.137   2.446
 8047SOL     OW25039   3.410   6.141   6.550
 8047SOL    HW125040   3.440   6.076   6.481
 8047SOL    HW225041   3.351   6.095   6.617
 8048SOL     OW25042   3.632   1.847   0.345
 8048SOL    HW125043   3.544   1.878   0.310
 8048SOL    HW225044   3.674   1.784   0.280
 8049SOL     OW25045   1.080   0.071   0.509
 8049SOL    HW125046   1.018   0.071   0.587
 8049SOL    HW225047   1.055   7.024   0.446
 8050SOL     OW25048   1.691   3.236   3.973
 8050SOL    HW125049   1.745   3.182   4.038
 8050SOL    HW225050   1.752   3.294   3.919
 8051SOL     OW25051   4.805   6.210   4.803
 8051SOL    HW125052   4.886   6.178   4.852
 8051SOL    HW225053   4.800   6.165   4.714
 8052SOL     OW25054   2.950   1.797   1.364
 8052SOL    HW125055   3.037   1.789   1.414
 8052SOL    HW225056   2.950   1.881   1.310
 8053SOL     OW25057   3.646   2.852   4.962
 8053SOL    HW125058   3.627   2.854   5.060
 8053SOL    HW225059   3.718   2.785   4.943
 8054SOL     OW25060   6.848   4.110   5.123
 8054SOL    HW125061   6.753   4.139   5.110
 8054SOL    HW225062   6.864   4.025   5.071
 8055SOL     OW25063   6.546   0.860   5.726
 8055SOL    HW125064   6.484   0.782   5.737
 8055SOL    HW225065   6.549   0.886   5.629
 8056SOL     OW25066   2.956   0.799   4.767
 8056SOL    HW125067   2.880   0.813   4.831
 8056SOL    HW225068   2.920   0.792   4.674
 8057SOL     OW25069   2.678   2.373   2.998
 8057SOL    HW125070   2.730   2.373   3.083
 8057SOL    HW225071   2.738   2.344   2.923
 8058SOL     OW25072   3.521   6.836   3.190
 8058SOL    HW125073   3.590   6.826   3.119
 8058SOL    HW225074   3.468   6.920   3.174
 8059SOL     OW25075   2.350   1.223   4.862
 8059SOL    HW125076   2.402   1.301   4.899
 8059SOL    HW225077   2.288   1.188   4.932
 8060SOL     OW25078   0.216   2.181   6.191
 8060SOL    HW125079   0.245   2.169   6.286
 8060SOL    HW225080   0.251   2.267   6.156
 8061SOL     OW25081   0.579   0.063   2.339
 8061SOL    HW125082   0.670   0.102   2.353
 8061SOL    HW225083   0.512   0.113   2.395
 8062SOL     OW25084   3.905   5.123   3.864
 8062SOL    HW125085   3.925   5.136   3.767
 8062SOL    HW225086   3.912   5.025   3.886
 8063SOL     OW25087   2.470   1.222   3.118
 8063SOL    HW125088   2.463   1.311   3.163
 8063SOL    HW225089   2.459   1.149   3.185
 8064SOL     OW25090   5.986   2.383   0.458
 8064SOL    HW125091   6.052   2.365   0.385
 8064SOL    HW225092   5.995   2.313   0.529
 8065SOL     OW25093   2.808   6.354   4.335
 8065SOL    HW125094   2.815   6.412   4.255
 8065SOL    HW225095   2.818   6.258   4.307
 8066SOL     OW25096   6.899   0.234   5.503
 8066SOL    HW125097   6.915   0.327   5.538
 8066SOL    HW225098   6.879   0.239   5.406
 8067SOL     OW25099   5.036   2.827   2.684
 8067SOL    HW125100   5.025   2.874   2.597
 8067SOL    HW225101   4.980   2.743   2.685
 8068SOL     OW25102   7.007   4.806   1.593
 8068SOL    HW125103   6.992   4.747   1.513
 8068SOL    HW225104   0.020   4.893   1.564
 8069SOL     OW25105   1.784   4.762   1.163
 8069SOL    HW125106   1.815   4.676   1.122
 8069SOL    HW225107   1.688   4.776   1.142
 8070SOL     OW25108   4.141   3.060   0.538
 8070SOL    HW125109   4.181   3.134   0.486
 8070SOL    HW225110   4.209   3.023   0.601
 8071SOL     OW25111   2.810   6.967   5.354
 8071SOL    HW125112   2.801   6.869   5.367
 8071SOL    HW225113   2.813   6.988   5.256
 8072SOL     OW25114   3.465   1.832   0.942
 8072SOL    HW125115   3.551   1.790   0.971
 8072SOL    HW225116   3.397   1.761   0.923
 8073SOL     OW25117   3.892   6.200   5.059
 8073SOL    HW125118   3.880   6.260   4.980
 8073SOL    HW225119   3.929   6.253   5.136
 8074SOL     OW25120   2.930   2.004   0.439
 8074SOL    HW125121   2.859   2.047   0.495
 8074SOL    HW225122   2.962   2.069   0.370
 8075SOL     OW25123   6.640   6.889   0.743
 8075SOL    HW125124   6.676   6.942   0.666
 8075SOL    HW225125   6.639   6.792   0.719
 8076SOL     OW25126   6.104   6.981   5.133
 8076SOL    HW125127   6.066   0.048   5.133
 8076SOL    HW225128   6.056   6.927   5.064
 8077SOL     OW25129   3.509   5.678   2.740
 8077SOL    HW125130   3.466   5.765   2.762
 8077SOL    HW225131   3.604   5.679   2.771
 8078SOL     OW25132   0.830   2.097   1.480
 8078SOL    HW125133   0.799   2.189   1.504
 8078SOL    HW225134   0.884   2.102   1.395
 8079SOL     OW25135   6.619   1.744   3.130
 8079SOL    HW125136   6.586   1.712   3.041
 8079SOL    HW225137   6.540   1.767   3.188
 8080SOL     OW25138   1.032   1.805   2.866
 8080SOL    HW125139   1.087   1.809   2.950
 8080SOL    HW225140   1.002   1.897   2.841
 8081SOL     OW25141   6.312   5.505   6.232
 8081SOL    HW125142   6.404   5.465   6.235
 8081SOL    HW225143   6.247   5.440   6.269
 8082SOL     OW25144   3.571   0.964   2.872
 8082SOL    HW125145   3.536   1.057   2.882
 8082SOL    HW225146   3.609   0.952   2.781
 8083SOL     OW25147   5.149   2.705   3.599
 8083SOL    HW125148   5.055   2.682   3.573
 8083SOL    HW225149   5.186   2.633   3.658
 8084SOL     OW25150   3.587   0.140   6.706
 8084SOL    HW125151   3.489   0.121   6.714
 8084SOL    HW225152   3.618   0.124   6.612
 8085SOL     OW25153   5.774   5.696   2.248
 8085SOL    HW125154   5.813   5.783   2.280
 8085SOL    HW225155   5.767   5.633   2.325
 8086SOL     OW25156   6.686   0.654   2.111
 8086SOL    HW125157   6.781   0.627   2.120
 8086SOL    HW225158   6.639   0.590   2.051
 8087SOL     OW25159   1.756   6.989   0.143
 8087SOL    HW125160   1.720   0.008   0.061
 8087SOL    HW225161   1.686   6.926   0.179
 8088SOL     OW25162   5.775   0.620   1.070
 8088SOL    HW125163   5.728   0.666   0.994
 8088SOL    HW225164   5.712   0.611   1.147
 8089SOL     OW25165   5.316   2.720   0.115
 8089SOL    HW125166   5.245   2.688   0.178
 8089SOL    HW225167   5.342   2.646   0.054
 8090SOL     OW25168   3.693   0.939   6.075
 8090SOL    HW125169   3.700   0.845   6.107
 8090SOL    HW225170   3.778   0.988   6.096
 8091SOL     OW25171   1.498   3.958   4.955
 8091SOL    HW125172   1.487   3.911   5.042
 8091SOL    HW225173   1.497   3.891   4.880
 8092SOL     OW25174   5.365   1.847   5.219
 8092SOL    HW125175   5.278   1.855   5.171
 8092SOL    HW225176   5.440   1.849   5.152
 8093SOL     OW25177   2.534   5.440   3.457
 8093SOL    HW125178   2.550   5.373   3.530
 8093SOL    HW225179   2.455   5.412   3.402
 8094SOL     OW25180   6.835   2.871   4.648
 8094SOL    HW125181   6.851   2.934   4.724
 8094SOL    HW225182   6.769   2.911   4.585
 8095SOL     OW25183   0.727   4.568   4.893
 8095SOL    HW125184   0.707   4.581   4.990
 8095SOL    HW225185   0.674   4.634   4.839
 8096SOL     OW25186   2.374   0.487   2.582
 8096SOL    HW125187   2.405   0.401   2.542
 8096SOL    HW225188   2.386   0.484   2.681
 8097SOL     OW25189   4.544   0.035   5.122
 8097SOL    HW125190   4.618   0.102   5.114
 8097SOL    HW225191   4.509   0.034   5.215
 8098SOL     OW25192   1.877   6.583   3.417
 8098SOL    HW125193   1.867   6.489   3.384
 8098SOL    HW225194   1.835   6.591   3.507
 8099SOL     OW25195   4.306   6.555   4.165
 8099SOL    HW125196   4.214   6.590   4.185
 8099SOL    HW225197   4.305   6.505   4.079
 8100SOL     OW25198   0.081   0.552   6.987
 8100SOL    HW125199   7.010   0.558   7.009
 8100SOL    HW225200   0.104   0.460   6.956
 8101SOL     OW25201   1.641   5.699   1.445
 8101SOL    HW125202   1.571   5.749   1.495
 8101SOL    HW225203   1.597   5.637   1.379
 8102SOL     OW25204   0.415   3.407   3.575
 8102SOL    HW125205   0.349   3.402   3.501
 8102SOL    HW225206   0.466   3.492   3.570
 8103SOL     OW25207   2.938   6.827   1.328
 8103SOL    HW125208   2.925   6.794   1.235
 8103SOL    HW225209   2.987   6.758   1.381
 8104SOL     OW25210   1.810   0.713   6.331
 8104SOL    HW125211   1.724   0.719   6.281
 8104SOL    HW225212   1.792   0.679   6.424
 8105SOL     OW25213   0.004   3.416   2.853
 8105SOL    HW125214   7.024   3.370   2.942
 8105SOL    HW225215   6.991   3.508   2.860
 8106SOL     OW25216   3.067   5.494   3.732
 8106SOL    HW125217   3.002   5.452   3.669
 8106SOL    HW225218   3.156   5.501   3.688
 8107SOL     OW25219   1.053   5.639   3.876
 8107SOL    HW125220   0.956   5.615   3.863
 8107SOL    HW225221   1.074   5.720   3.821
 8108SOL     OW25222   6.718   2.752   6.731
 8108SOL    HW125223   6.710   2.766   6.632
 8108SOL    HW225224   6.815   2.742   6.755
 8109SOL     OW25225   6.722   3.799   6.147
 8109SOL    HW125226   6.689   3.892   6.131
 8109SOL    HW225227   6.822   3.801   6.159
 8110SOL     OW25228   3.902   5.464   2.298
 8110SOL    HW125229   3.964   5.482   2.221
 8110SOL    HW225230   3.949   5.482   2.384
 8111SOL     OW25231   4.894   1.109   4.719
 8111SOL    HW125232   4.907   1.192   4.773
 8111SOL    HW225233   4.963   1.105   4.646
 8112SOL     OW25234   2.329   2.771   4.332
 8112SOL    HW125235   2.326   2.741   4.427
 8112SOL    HW225236   2.252   2.732   4.282
 8113SOL     OW25237   0.927   4.092   1.018
 8113SOL    HW125238   0.851   4.145   0.980
 8113SOL    HW225239   0.986   4.060   0.944
 8114SOL     OW25240   1.434   3.871   2.449
 8114SOL    HW125241   1.419   3.969   2.456
 8114SOL    HW225242   1.409   3.826   2.535
 8115SOL     OW25243   3.709   6.678   6.556
 8115SOL    HW125244   3.622   6.673   6.604
 8115SOL    HW225245   3.759   6.759   6.586
 8116SOL     OW25246   4.199   4.842   0.536
 8116SOL    HW125247   4.246   4.888   0.612
 8116SOL    HW225248   4.130   4.780   0.572
 8117SOL     OW25249   1.744   6.982   3.545
 8117SOL    HW125250   1.744   0.024   3.618
 8117SOL    HW225251   1.834   6.979   3.501
 8118SOL     OW25252   5.035   4.326   6.331
 8118SOL    HW125253   4.996   4.350   6.419
 8118SOL    HW225254   5.066   4.231   6.333
 8119SOL     OW25255   5.281   5.403   6.327
 8119SOL    HW125256   5.201   5.447   6.286
 8119SOL    HW225257   5.271   5.402   6.426
 8120SOL     OW25258   3.477   4.547   1.081
 8120SOL    HW125259   3.437   4.478   1.022
 8120SOL    HW225260   3.432   4.635   1.065
 8121SOL     OW25261   0.457   4.963   1.558
 8121SOL    HW125262   0.422   5.035   1.618
 8121SOL    HW225263   0.393   4.950   1.482
 8122SOL     OW25264   0.294   4.404   3.235
 8122SOL    HW125265   0.238   4.323   3.214
 8122SOL    HW225266   0.292   4.466   3.157
 8123SOL     OW25267   6.683   1.792   6.455
 8123SOL    HW125268   6.606   1.824   6.510
 8123SOL    HW225269   6.744   1.869   6.435
 8124SOL     OW25270   4.835   6.063   1.997
 8124SOL    HW125271   4.877   6.147   2.032
 8124SOL    HW225272   4.865   5.985   2.051
 8125SOL     OW25273   1.669   1.684   3.338
 8125SOL    HW125274   1.742   1.616   3.328
 8125SOL    HW225275   1.708   1.768   3.375
 8126SOL     OW25276   5.361   4.494   3.165
 8126SOL    HW125277   5.388   4.589   3.184
 8126SOL    HW225278   5.295   4.493   3.090
 8127SOL     OW25279   2.780   3.601   5.983
 8127SOL    HW125280   2.846   3.591   5.908
 8127SOL    HW225281   2.764   3.511   6.025
 8128SOL     OW25282   2.978   2.149   2.194
 8128SOL    HW125283   2.958   2.221   2.128
 8128SOL    HW225284   2.982   2.061   2.148
 8129SOL     OW25285   3.838   1.546   5.999
 8129SOL    HW125286   3.763   1.501   6.047
 8129SOL    HW225287   3.821   1.645   5.995
 8130SOL     OW25288   0.337   4.075   6.813
 8130SOL    HW125289   0.322   4.052   6.909
 8130SOL    HW225290   0.274   4.148   6.786
 8131SOL     OW25291   2.464   2.180   1.653
 8131SOL    HW125292   2.421   2.185   1.563
 8131SOL    HW225293   2.414   2.238   1.717
 8132SOL     OW25294   5.562   6.804   5.206
 8132SOL    HW125295   5.574   6.734   5.135
 8132SOL    HW225296   5.521   6.762   5.287
 8133SOL     OW25297   3.233   5.140   2.612
 8133SOL    HW125298   3.195   5.048   2.599
 8133SOL    HW225299   3.187   5.204   2.550
 8134SOL     OW25300   6.811   2.122   6.412
 8134SOL    HW125301   6.833   2.091   6.504
 8134SOL    HW225302   6.825   2.221   6.406
 8135SOL     OW25303   2.791   6.700   1.109
 8135SOL    HW125304   2.720   6.730   1.045
 8135SOL    HW225305   2.797   6.600   1.108
 8136SOL     OW25306   4.588   5.834   3.091
 8136SOL    HW125307   4.492   5.839   3.063
 8136SOL    HW225308   4.627   5.748   3.057
 8137SOL     OW25309   3.359   1.720   5.450
 8137SOL    HW125310   3.329   1.670   5.531
 8137SOL    HW225311   3.362   1.658   5.372
 8138SOL     OW25312   5.263   1.001   0.811
 8138SOL    HW125313   5.254   1.101   0.811
 8138SOL    HW225314   5.342   0.975   0.866
 8139SOL     OW25315   0.184   0.573   1.852
 8139SOL    HW125316   0.219   0.641   1.917
 8139SOL    HW225317   0.131   0.504   1.902
 8140SOL     OW25318   5.734   0.281   6.171
 8140SOL    HW125319   5.664   0.261   6.240
 8140SOL    HW225320   5.691   0.318   6.089
 8141SOL     OW25321   4.267   5.099   4.694
 8141SOL    HW125322   4.203   5.163   4.737
 8141SOL    HW225323   4.361   5.132   4.709
 8142SOL     OW25324   0.208   5.412   6.824
 8142SOL    HW125325   0.123   5.358   6.821
 8142SOL    HW225326   0.283   5.357   6.788
 8143SOL     OW25327   6.053   3.908   0.634
 8143SOL    HW125328   6.009   3.825   0.600
 8143SOL    HW225329   6.001   3.988   0.605
 8144SOL     OW25330   5.948   6.114   6.489
 8144SOL    HW125331   5.979   6.022   6.515
 8144SOL    HW225332   5.880   6.106   6.416
 8145SOL     OW25333   5.585   5.902   1.048
 8145SOL    HW125334   5.626   5.963   1.116
 8145SOL    HW225335   5.619   5.926   0.957
 8146SOL     OW25336   3.498   1.037   4.484
 8146SOL    HW125337   3.501   1.030   4.385
 8146SOL    HW225338   3.422   0.982   4.519
 8147SOL     OW25339   6.163   1.737   1.548
 8147SOL    HW125340   6.245   1.783   1.583
 8147SOL    HW225341   6.081   1.785   1.581
 8148SOL     OW25342   5.028   4.573   1.056
 8148SOL    HW125343   5.011   4.496   0.995
 8148SOL    HW225344   5.021   4.541   1.151
 8149SOL     OW25345   2.613   6.009   1.865
 8149SOL    HW125346   2.575   5.917   1.871
 8149SOL    HW225347   2.595   6.059   1.950
 8150SOL     OW25348   0.656   4.683   0.554
 8150SOL    HW125349   0.659   4.587   0.527
 8150SOL    HW225350   0.746   4.725   0.538
 8151SOL     OW25351   6.517   2.090   1.355
 8151SOL    HW125352   6.539   2.035   1.275
 8151SOL    HW225353   6.435   2.053   1.399
 8152SOL     OW25354   0.340   1.454   2.544
 8152SOL    HW125355   0.253   1.474   2.498
 8152SOL    HW225356   0.366   1.533   2.600
 8153SOL     OW25357   3.388   0.073   3.236
 8153SOL    HW125358   3.319   0.089   3.306
 8153SOL    HW225359   3.479   0.094   3.273
 8154SOL     OW25360   2.998   5.756   3.792
 8154SOL    HW125361   3.047   5.669   3.782
 8154SOL    HW225362   2.986   5.799   3.702
 8155SOL     OW25363   2.304   3.984   1.714
 8155SOL    HW125364   2.403   3.985   1.704
 8155SOL    HW225365   2.262   4.023   1.632
 8156SOL     OW25366   5.176   6.654   6.782
 8156SOL    HW125367   5.245   6.664   6.711
 8156SOL    HW225368   5.108   6.587   6.753
 8157SOL     OW25369   6.377   5.083   6.580
 8157SOL    HW125370   6.442   5.008   6.573
 8157SOL    HW225371   6.310   5.076   6.506
 8158SOL     OW25372   6.704   5.401   1.447
 8158SOL    HW125373   6.617   5.364   1.413
 8158SOL    HW225374   6.691   5.497   1.471
 8159SOL     OW25375   2.696   6.156   2.701
 8159SOL    HW125376   2.748   6.144   2.786
 8159SOL    HW225377   2.644   6.073   2.682
 8160SOL     OW25378   4.609   1.267   2.364
 8160SOL    HW125379   4.608   1.361   2.399
 8160SOL    HW225380   4.523   1.222   2.387
 8161SOL     OW25381   5.033   1.486   6.833
 8161SOL    HW125382   5.008   1.583   6.824
 8161SOL    HW225383   5.109   1.478   6.898
 8162SOL     OW25384   6.133   6.437   5.785
 8162SOL    HW125385   6.152   6.339   5.785
 8162SOL    HW225386   6.219   6.488   5.779
 8163SOL     OW25387   2.920   3.696   5.500
 8163SOL    HW125388   2.998   3.757   5.516
 8163SOL    HW225389   2.948   3.620   5.441
 8164SOL     OW25390   5.856   3.234   0.439
 8164SOL    HW125391   5.762   3.262   0.425
 8164SOL    HW225392   5.905   3.305   0.490
 8165SOL     OW25393   0.950   4.937   6.601
 8165SOL    HW125394   0.954   4.838   6.589
 8165SOL    HW225395   0.876   4.960   6.664
 8166SOL     OW25396   2.456   0.607   2.048
 8166SOL    HW125397   2.553   0.629   2.054
 8166SOL    HW225398   2.436   0.526   2.103
 8167SOL     OW25399   6.027   0.956   4.221
 8167SOL    HW125400   6.090   0.940   4.145
 8167SOL    HW225401   6.007   1.053   4.229
 8168SOL     OW25402   3.187   1.646   3.947
 8168SOL    HW125403   3.173   1.597   3.861
 8168SOL    HW225404   3.121   1.721   3.954
 8169SOL     OW25405   5.111   2.974   1.220
 8169SOL    HW125406   5.017   2.993   1.195
 8169SOL    HW225407   5.136   2.882   1.190
 8170SOL     OW25408   1.577   6.013   2.887
 8170SOL    HW125409   1.600   5.967   2.801
 8170SOL    HW225410   1.634   5.978   2.961
 8171SOL     OW25411   1.212   1.369   0.262
 8171SOL    HW125412   1.213   1.366   0.162
 8171SOL    HW225413   1.121   1.397   0.293
 8172SOL     OW25414   0.950   1.024   1.948
 8172SOL    HW125415   1.042   1.007   1.984
 8172SOL    HW225416   0.922   1.117   1.973
 8173SOL     OW25417   3.919   1.817   0.607
 8173SOL    HW125418   4.009   1.816   0.650
 8173SOL    HW225419   3.851   1.782   0.671
 8174SOL     OW25420   5.234   2.179   0.771
 8174SOL    HW125421   5.310   2.118   0.749
 8174SOL    HW225422   5.226   2.248   0.699
 8175SOL     OW25423   0.077   2.840   5.918
 8175SOL    HW125424   0.162   2.809   5.960
 8175SOL    HW225425   0.001   2.822   5.980
 8176SOL     OW25426   2.505   5.335   2.488
 8176SOL    HW125427   2.460   5.329   2.399
 8176SOL    HW225428   2.599   5.302   2.480
 8177SOL     OW25429   2.368   6.324   4.340
 8177SOL    HW125430   2.411   6.294   4.255
 8177SOL    HW225431   2.377   6.253   4.409
 8178SOL     OW25432   2.157   6.690   6.608
 8178SOL    HW125433   2.102   6.771   6.630
 8178SOL    HW225434   2.123   6.611   6.658
 8179SOL     OW25435   3.850   2.605   6.624
 8179SOL    HW125436   3.765   2.553   6.623
 8179SOL    HW225437   3.851   2.670   6.548
 8180SOL     OW25438   6.896   0.025   4.472
 8180SOL    HW125439   6.865   6.972   4.524
 8180SOL    HW225440   6.824   0.054   4.409
 8181SOL     OW25441   2.394   1.754   2.154
 8181SOL    HW125442   2.323   1.795   2.097
 8181SOL    HW225443   2.353   1.685   2.213
 8182SOL     OW25444   3.730   1.618   6.998
 8182SOL    HW125445   3.806   1.592   0.031
 8182SOL    HW225446   3.682   1.536   6.967
 8183SOL     OW25447   0.828   2.494   4.698
 8183SOL    HW125448   0.768   2.528   4.771
 8183SOL    HW225449   0.780   2.497   4.611
 8184SOL     OW25450   5.111   1.420   5.866
 8184SOL    HW125451   5.094   1.512   5.904
 8184SOL    HW225452   5.161   1.428   5.780
 8185SOL     OW25453   3.336   0.203   0.379
 8185SOL    HW125454   3.341   0.303   0.389
 8185SOL    HW225455   3.394   0.175   0.303
 8186SOL     OW25456   3.490   5.983   6.349
 8186SOL    HW125457   3.406   5.968   6.298
 8186SOL    HW225458   3.538   5.896   6.360
 8187SOL     OW25459   1.582   2.220   5.315
 8187SOL    HW125460   1.584   2.262   5.224
 8187SOL    HW225461   1.493   2.177   5.330
 8188SOL     OW25462   5.320   1.944   2.625
 8188SOL    HW125463   5.297   2.039   2.645
 8188SOL    HW225464   5.414   1.939   2.590
 8189SOL     OW25465   5.069   4.717   2.028
 8189SOL    HW125466   5.129   4.747   2.102
 8189SOL    HW225467   5.107   4.636   1.984
 8190SOL     OW25468   5.049   5.680   4.298
 8190SOL    HW125469   4.968   5.651   4.350
 8190SOL    HW225470   5.132   5.654   4.348
 8191SOL     OW25471   2.708   5.125   3.800
 8191SOL    HW125472   2.640   5.057   3.828
 8191SOL    HW225473   2.775   5.136   3.873
 8192SOL     OW25474   3.267   6.054   0.263
 8192SOL    HW125475   3.260   6.089   0.356
 8192SOL    HW225476   3.205   5.977   0.251
 8193SOL     OW25477   6.874   0.105   3.912
 8193SOL    HW125478   6.897   0.131   3.818
 8193SOL    HW225479   6.957   0.098   3.966
 8194SOL     OW25480   6.187   2.525   0.654
 8194SOL    HW125481   6.110   2.497   0.711
 8194SOL    HW225482   6.175   2.621   0.627
 8195SOL     OW25483   0.831   0.533   0.652
 8195SOL    HW125484   0.744   0.489   0.674
 8195SOL    HW225485   0.866   0.498   0.566
 8196SOL     OW25486   3.465   0.364   5.348
 8196SOL    HW125487   3.469   0.369   5.249
 8196SOL    HW225488   3.388   0.418   5.381
 8197SOL     OW25489   4.662   1.398   6.013
 8197SOL    HW125490   4.637   1.464   5.943
 8197SOL    HW225491   4.656   1.440   6.104
 8198SOL     OW25492   2.794   6.699   2.901
 8198SOL    HW125493   2.816   6.760   2.825
 8198SOL    HW225494   2.878   6.665   2.941
 8199SOL     OW25495   6.981   3.854   0.777
 8199SOL    HW125496   6.934   3.794   0.841
 8199SOL    HW225497   6.938   3.846   0.687
 8200SOL     OW25498   4.615   4.294   1.341
 8200SOL    HW125499   4.582   4.309   1.434
 8200SOL    HW225500   4.703   4.247   1.345
 8201SOL     OW25501   5.091   0.758   4.421
 8201SOL    HW125502   5.173   0.710   4.390
 8201SOL    HW225503   5.051   0.808   4.344
 8202SOL     OW25504   1.284   5.741   4.046
 8202SOL    HW125505   1.291   5.841   4.046
 8202SOL    HW225506   1.213   5.713   3.981
 8203SOL     OW25507   4.658   3.380   0.356
 8203SOL    HW125508   4.582   3.436   0.323
 8203SOL    HW225509   4.621   3.299   0.402
 8204SOL     OW25510   3.491   5.457   1.358
 8204SOL    HW125511   3.562   5.477   1.290
 8204SOL    HW225512   3.435   5.539   1.373
 8205SOL     OW25513   6.514   4.815   2.077
 8205SOL    HW125514   6.447   4.784   2.011
 8205SOL    HW225515   6.575   4.740   2.101
 8206SOL     OW25516   2.882   2.121   5.634
 8206SOL    HW125517   2.845   2.186   5.701
 8206SOL    HW225518   2.860   2.152   5.542
 8207SOL     OW25519   3.529   4.535   5.359
 8207SOL    HW125520   3.627   4.554   5.361
 8207SOL    HW225521   3.499   4.508   5.450
 8208SOL     OW25522   2.758   6.389   1.228
 8208SOL    HW125523   2.718   6.423   1.313
 8208SOL    HW225524   2.772   6.290   1.235
 8209SOL     OW25525   0.880   1.761   5.173
 8209SOL    HW125526   0.786   1.735   5.150
 8209SOL    HW225527   0.900   1.733   5.267
 8210SOL     OW25528   3.428   0.484   0.239
 8210SOL    HW125529   3.350   0.469   0.179
 8210SOL    HW225530   3.424   0.576   0.277
 8211SOL     OW25531   3.544   4.132   4.144
 8211SOL    HW125532   3.627   4.172   4.182
 8211SOL    HW225533   3.548   4.135   4.045
 8212SOL     OW25534   3.285   0.559   0.753
 8212SOL    HW125535   3.366   0.510   0.787
 8212SOL    HW225536   3.247   0.616   0.826
 8213SOL     OW25537   4.949   5.007   3.378
 8213SOL    HW125538   4.868   4.951   3.392
 8213SOL    HW225539   4.929   5.102   3.401
 8214SOL     OW25540   2.053   6.225   4.036
 8214SOL    HW125541   1.972   6.254   3.984
 8214SOL    HW225542   2.136   6.247   3.984
 8215SOL     OW25543   4.124   5.189   0.835
 8215SOL    HW125544   4.029   5.214   0.814
 8215SOL    HW225545   4.162   5.256   0.899
 8216SOL     OW25546   5.303   6.930   2.893
 8216SOL    HW125547   5.380   6.877   2.858
 8216SOL    HW225548   5.337   7.010   2.941
 8217SOL     OW25549   2.247   4.197   1.880
 8217SOL    HW125550   2.276   4.117   1.828
 8217SOL    HW225551   2.306   4.275   1.857
 8218SOL     OW25552   1.509   0.328   4.665
 8218SOL    HW125553   1.509   0.296   4.570
 8218SOL    HW225554   1.598   0.307   4.707
 8219SOL     OW25555   2.851   4.432   1.163
 8219SOL    HW125556   2.861   4.383   1.251
 8219SOL    HW225557   2.772   4.396   1.115
 8220SOL     OW25558   3.334   4.286   5.320
 8220SOL    HW125559   3.338   4.377   5.362
 8220SOL    HW225560   3.407   4.276   5.253
 8221SOL     OW25561   6.348   4.231   3.288
 8221SOL    HW125562   6.401   4.271   3.363
 8221SOL    HW225563   6.252   4.253   3.300
 8222SOL     OW25564   5.676   2.070   0.853
 8222SOL    HW125565   5.606   2.070   0.783
 8222SOL    HW225566   5.676   2.159   0.900
 8223SOL     OW25567   0.464   4.998   5.851
 8223SOL    HW125568   0.445   5.028   5.758
 8223SOL    HW225569   0.378   4.984   5.900
 8224SOL     OW25570   4.680   2.076   1.378
 8224SOL    HW125571   4.591   2.120   1.362
 8224SOL    HW225572   4.669   2.001   1.443
 8225SOL     OW25573   3.932   0.395   1.235
 8225SOL    HW125574   3.944   0.308   1.187
 8225SOL    HW225575   3.909   0.376   1.331
 8226SOL     OW25576   3.591   0.483   0.683
 8226SOL    HW125577   3.523   0.411   0.686
 8226SOL    HW225578   3.562   0.554   0.618
 8227SOL     OW25579   6.654   1.555   2.421
 8227SOL    HW125580   6.572   1.601   2.454
 8227SOL    HW225581   6.700   1.614   2.355
 8228SOL     OW25582   0.036   1.284   5.660
 8228SOL    HW125583   0.014   1.279   5.757
 8228SOL    HW225584   0.133   1.261   5.646
 8229SOL     OW25585   4.755   4.437   1.123
 8229SOL    HW125586   4.774   4.355   1.069
 8229SOL    HW225587   4.664   4.429   1.165
 8230SOL     OW25588   3.496   6.824   5.999
 8230SOL    HW125589   3.409   6.833   5.951
 8230SOL    HW225590   3.567   6.799   5.934
 8231SOL     OW25591   3.315   1.919   2.487
 8231SOL    HW125592   3.300   1.905   2.585
 8231SOL    HW225593   3.271   2.004   2.458
 8232SOL     OW25594   5.159   1.657   2.220
 8232SOL    HW125595   5.152   1.731   2.152
 8232SOL    HW225596   5.229   1.681   2.287
 8233SOL     OW25597   1.114   0.640   5.638
 8233SOL    HW125598   1.099   0.737   5.621
 8233SOL    HW225599   1.042   0.587   5.593
 8234SOL     OW25600   3.383   2.869   0.367
 8234SOL    HW125601   3.408   2.864   0.270
 8234SOL    HW225602   3.389   2.963   0.399
 8235SOL     OW25603   0.352   4.386   0.233
 8235SOL    HW125604   0.434   4.363   0.285
 8235SOL    HW225605   0.334   4.315   0.165
 8236SOL     OW25606   0.399   5.930   5.757
 8236SOL    HW125607   0.313   5.905   5.714
 8236SOL    HW225608   0.385   6.006   5.821
 8237SOL     OW25609   4.222   5.451   5.913
 8237SOL    HW125610   4.210   5.395   5.995
 8237SOL    HW225611   4.258   5.394   5.839
 8238SOL     OW25612   0.903   5.375   6.745
 8238SOL    HW125613   0.945   5.458   6.782
 8238SOL    HW225614   0.931   5.297   6.799
 8239SOL     OW25615   0.331   1.320   4.941
 8239SOL    HW125616   0.402   1.376   4.898
 8239SOL    HW225617   0.314   1.352   5.034
 8240SOL     OW25618   2.982   3.881   3.007
 8240SOL    HW125619   2.908   3.948   2.996
 8240SOL    HW225620   3.052   3.919   3.067
 8241SOL     OW25621   1.427   3.783   6.890
 8241SOL    HW125622   1.421   3.826   6.800
 8241SOL    HW225623   1.467   3.847   6.955
 8242SOL     OW25624   1.338   3.614   4.710
 8242SOL    HW125625   1.264   3.619   4.778
 8242SOL    HW225626   1.382   3.524   4.716
 8243SOL     OW25627   0.393   3.891   6.606
 8243SOL    HW125628   0.391   3.977   6.658
 8243SOL    HW225629   0.458   3.828   6.649
 8244SOL     OW25630   1.116   0.285   3.797
 8244SOL    HW125631   1.204   0.240   3.780
 8244SOL    HW225632   1.107   0.364   3.736
 8245SOL     OW25633   4.240   2.032   3.488
 8245SOL    HW125634   4.237   2.096   3.565
 8245SOL    HW225635   4.182   1.953   3.508
 8246SOL     OW25636   1.073   4.251   6.258
 8246SOL    HW125637   1.074   4.333   6.315
 8246SOL    HW225638   1.098   4.275   6.164
 8247SOL     OW25639   2.816   5.517   3.571
 8247SOL    HW125640   2.811   5.561   3.481
 8247SOL    HW225641   2.724   5.496   3.603
 8248SOL     OW25642   1.006   5.824   4.310
 8248SOL    HW125643   1.089   5.796   4.358
 8248SOL    HW225644   1.015   5.919   4.279
 8249SOL     OW25645   2.553   1.586   5.015
 8249SOL    HW125646   2.554   1.486   5.016
 8249SOL    HW225647   2.636   1.619   4.971
 8250SOL     OW25648   3.160   1.825   0.699
 8250SOL    HW125649   3.174   1.874   0.785
 8250SOL    HW225650   3.129   1.889   0.629
 8251SOL     OW25651   6.079   1.900   4.617
 8251SOL    HW125652   6.069   1.832   4.544
 8251SOL    HW225653   5.998   1.898   4.676
 8252SOL     OW25654   2.826   2.086   6.955
 8252SOL    HW125655   2.733   2.061   6.928
 8252SOL    HW225656   2.832   2.185   6.966
 8253SOL     OW25657   4.087   5.755   6.438
 8253SOL    HW125658   4.113   5.773   6.533
 8253SOL    HW225659   3.996   5.714   6.435
 8254SOL     OW25660   5.870   4.883   6.340
 8254SOL    HW125661   5.961   4.842   6.338
 8254SOL    HW225662   5.853   4.921   6.431
 8255SOL     OW25663   0.625   6.875   5.928
 8255SOL    HW125664   0.659   6.818   6.003
 8255SOL    HW225665   0.568   6.948   5.965
 8256SOL     OW25666   6.987   0.051   3.371
 8256SOL    HW125667   6.960   0.075   3.278
 8256SOL    HW225668   0.043   7.021   3.368
 8257SOL     OW25669   5.635   4.135   4.101
 8257SOL    HW125670   5.582   4.132   4.186
 8257SOL    HW225671   5.674   4.045   4.083
 8258SOL     OW25672   5.771   2.489   1.210
 8258SOL    HW125673   5.813   2.468   1.121
 8258SOL    HW225674   5.742   2.584   1.211
 8259SOL     OW25675   3.999   1.709   5.018
 8259SOL    HW125676   3.956   1.624   5.051
 8259SOL    HW225677   3.928   1.773   4.990
 8260SOL     OW25678   2.085   6.437   0.994
 8260SOL    HW125679   2.167   6.414   1.048
 8260SOL    HW225680   2.041   6.352   0.964
 8261SOL     OW25681   5.575   6.596   3.155
 8261SOL    HW125682   5.593   6.688   3.188
 8261SOL    HW225683   5.637   6.532   3.200
 8262SOL     OW25684   0.411   4.821   0.447
 8262SOL    HW125685   0.358   4.779   0.373
 8262SOL    HW225686   0.480   4.756   0.478
 8263SOL     OW25687   6.999   2.755   6.814
 8263SOL    HW125688   0.050   2.706   6.855
 8263SOL    HW225689   7.025   2.850   6.798
 8264SOL     OW25690   1.336   6.672   1.365
 8264SOL    HW125691   1.318   6.578   1.335
 8264SOL    HW225692   1.392   6.719   1.296
 8265SOL     OW25693   4.310   0.366   1.491
 8265SOL    HW125694   4.236   0.361   1.558
 8265SOL    HW225695   4.298   0.449   1.436
 8266SOL     OW25696   2.590   0.201   4.603
 8266SOL    HW125697   2.627   0.198   4.510
 8266SOL    HW225698   2.568   0.108   4.633
 8267SOL     OW25699   1.604   5.125   2.221
 8267SOL    HW125700   1.665   5.048   2.241
 8267SOL    HW225701   1.579   5.170   2.307
 8268SOL     OW25702   2.353   3.836   6.763
 8268SOL    HW125703   2.257   3.825   6.739
 8268SOL    HW225704   2.360   3.888   6.848
 8269SOL     OW25705   4.739   2.873   2.818
 8269SOL    HW125706   4.725   2.884   2.719
 8269SOL    HW225707   4.818   2.927   2.846
 8270SOL     OW25708   2.354   6.361   5.650
 8270SOL    HW125709   2.419   6.296   5.609
 8270SOL    HW225710   2.370   6.452   5.611
 8271SOL     OW25711   6.328   6.944   4.154
 8271SOL    HW125712   6.312   6.845   4.157
 8271SOL    HW225713   6.307   6.979   4.062
 8272SOL     OW25714   0.720   0.636   2.348
 8272SOL    HW125715   0.650   0.682   2.293
 8272SOL    HW225716   0.767   0.704   2.404
 8273SOL     OW25717   3.508   0.126   0.169
 8273SOL    HW125718   3.568   0.061   0.124
 8273SOL    HW225719   3.504   0.211   0.115
 8274SOL     OW25720   3.787   4.678   6.851
 8274SOL    HW125721   3.742   4.766   6.834
 8274SOL    HW225722   3.732   4.605   6.811
 8275SOL     OW25723   5.637   0.134   4.553
 8275SOL    HW125724   5.666   0.183   4.636
 8275SOL    HW225725   5.562   0.072   4.576
 8276SOL     OW25726   6.553   2.617   5.849
 8276SOL    HW125727   6.641   2.657   5.871
 8276SOL    HW225728   6.524   2.556   5.922
 8277SOL     OW25729   2.390   5.625   5.012
 8277SOL    HW125730   2.488   5.632   4.994
 8277SOL    HW225731   2.372   5.643   5.108
 8278SOL     OW25732   3.173   1.491   6.338
 8278SOL    HW125733   3.134   1.493   6.246
 8278SOL    HW225734   3.240   1.418   6.345
 8279SOL     OW25735   5.543   5.180   6.804
 8279SOL    HW125736   5.569   5.130   6.887
 8279SOL    HW225737   5.623   5.228   6.768
 8280SOL     OW25738   4.970   2.699   6.957
 8280SOL    HW125739   4.878   2.706   6.919
 8280SOL    HW225740   4.981   2.610   7.003
 8281SOL     OW25741   1.918   4.411   0.713
 8281SOL    HW125742   1.894   4.504   0.687
 8281SOL    HW225743   1.886   4.347   0.642
 8282SOL     OW25744   2.897   2.293   1.231
 8282SOL    HW125745   2.816   2.303   1.288
 8282SOL    HW225746   2.871   2.301   1.135
 8283SOL     OW25747   0.097   5.235   3.633
 8283SOL    HW125748   0.095   5.172   3.556
 8283SOL    HW225749   0.006   5.273   3.648
 8284SOL     OW25750   1.790   2.953   2.572
 8284SOL    HW125751   1.821   3.041   2.535
 8284SOL    HW225752   1.734   2.906   2.504
 8285SOL     OW25753   3.212   3.670   6.228
 8285SOL    HW125754   3.250   3.676   6.136
 8285SOL    HW225755   3.166   3.756   6.251
 8286SOL     OW25756   5.586   1.386   5.018
 8286SOL    HW125757   5.494   1.355   5.039
 8286SOL    HW225758   5.623   1.332   4.942
 8287SOL     OW25759   1.617   6.986   4.421
 8287SOL    HW125760   1.531   6.969   4.468
 8287SOL    HW225761   1.615   6.942   4.331
 8288SOL     OW25762   1.854   2.384   2.592
 8288SOL    HW125763   1.854   2.482   2.573
 8288SOL    HW225764   1.938   2.343   2.556
 8289SOL     OW25765   6.315   0.539   6.167
 8289SOL    HW125766   6.343   0.635   6.175
 8289SOL    HW225767   6.221   0.534   6.135
 8290SOL     OW25768   3.966   3.135   1.724
 8290SOL    HW125769   4.003   3.126   1.632
 8290SOL    HW225770   3.878   3.183   1.721
 8291SOL     OW25771   5.612   6.502   6.431
 8291SOL    HW125772   5.698   6.452   6.442
 8291SOL    HW225773   5.629   6.600   6.433
 8292SOL     OW25774   2.381   5.267   6.163
 8292SOL    HW125775   2.296   5.219   6.142
 8292SOL    HW225776   2.428   5.222   6.239
 8293SOL     OW25777   1.933   4.849   1.379
 8293SOL    HW125778   1.988   4.774   1.416
 8293SOL    HW225779   1.876   4.814   1.305
 8294SOL     OW25780   6.181   3.685   5.596
 8294SOL    HW125781   6.257   3.625   5.569
 8294SOL    HW225782   6.095   3.640   5.574
 8295SOL     OW25783   4.873   3.959   2.879
 8295SOL    HW125784   4.823   3.952   2.793
 8295SOL    HW225785   4.938   3.884   2.886
 8296SOL     OW25786   4.209   5.719   6.942
 8296SOL    HW125787   4.229   5.623   6.924
 8296SOL    HW225788   4.291   5.764   6.977
 8297SOL     OW25789   6.260   4.165   2.078
 8297SOL    HW125790   6.188   4.097   2.068
 8297SOL    HW225791   6.349   4.119   2.086
 8298SOL     OW25792   0.835   0.770   6.571
 8298SOL    HW125793   0.880   0.809   6.651
 8298SOL    HW225794   0.758   0.827   6.544
 8299SOL     OW25795   0.162   3.640   1.176
 8299SOL    HW125796   0.139   3.548   1.144
 8299SOL    HW225797   0.231   3.633   1.249
 8300SOL     OW25798   6.255   6.482   4.932
 8300SOL    HW125799   6.271   6.538   4.850
 8300SOL    HW225800   6.339   6.476   4.985
 8301SOL     OW25801   4.423   0.334   6.585
 8301SOL    HW125802   4.489   0.375   6.521
 8301SOL    HW225803   4.330   0.359   6.557
 8302SOL     OW25804   3.363   6.964   5.107
 8302SOL    HW125805   3.290   7.016   5.061
 8302SOL    HW225806   3.448   7.016   5.103
 8303SOL     OW25807   6.769   0.321   3.062
 8303SOL    HW125808   6.829   0.391   3.024
 8303SOL    HW225809   6.685   0.316   3.008
 8304SOL     OW25810   6.070   4.234   2.756
 8304SOL    HW125811   6.145   4.275   2.704
 8304SOL    HW225812   6.085   4.250   2.853
 8305SOL     OW25813   4.419   5.637   3.796
 8305SOL    HW125814   4.404   5.542   3.771
 8305SOL    HW225815   4.412   5.647   3.895
 8306SOL     OW25816   6.736   1.308   2.351
 8306SOL    HW125817   6.693   1.396   2.371
 8306SOL    HW225818   6.731   1.250   2.432
 8307SOL     OW25819   1.841   5.053   1.110
 8307SOL    HW125820   1.776   5.123   1.141
 8307SOL    HW225821   1.867   4.995   1.187
 8308SOL     OW25822   1.391   4.493   0.128
 8308SOL    HW125823   1.326   4.458   0.196
 8308SOL    HW225824   1.340   4.534   0.052
 8309SOL     OW25825   6.298   5.101   4.463
 8309SOL    HW125826   6.343   5.012   4.467
 8309SOL    HW225827   6.226   5.106   4.532
 8310SOL     OW25828   1.069   6.347   1.027
 8310SOL    HW125829   1.168   6.350   1.011
 8310SOL    HW225830   1.047   6.270   1.086
 8311SOL     OW25831   5.076   0.032   4.196
 8311SOL    HW125832   4.979   0.022   4.173
 8311SOL    HW225833   5.097   0.129   4.207
 8312SOL     OW25834   5.655   0.218   0.594
 8312SOL    HW125835   5.656   0.309   0.635
 8312SOL    HW225836   5.596   0.218   0.513
 8313SOL     OW25837   3.883   0.163   5.432
 8313SOL    HW125838   3.795   0.152   5.478
 8313SOL    HW225839   3.955   0.178   5.500
 8314SOL     OW25840   5.740   6.271   6.934
 8314SOL    HW125841   5.761   6.184   6.977
 8314SOL    HW225842   5.718   6.257   6.837
 8315SOL     OW25843   3.780   3.659   3.602
 8315SOL    HW125844   3.855   3.658   3.536
 8315SOL    HW225845   3.738   3.569   3.606
 8316SOL     OW25846   1.072   3.232   6.585
 8316SOL    HW125847   1.150   3.192   6.537
 8316SOL    HW225848   1.098   3.320   6.624
 8317SOL     OW25849   2.010   2.018   4.527
 8317SOL    HW125850   1.950   1.967   4.466
 8317SOL    HW225851   2.103   1.981   4.521
 8318SOL     OW25852   4.539   1.144   6.012
 8318SOL    HW125853   4.446   1.172   6.037
 8318SOL    HW225854   4.595   1.225   5.997
 8319SOL     OW25855   1.365   0.046   5.940
 8319SOL    HW125856   1.305   7.000   5.906
 8319SOL    HW225857   1.413   0.088   5.863
 8320SOL     OW25858   3.471   3.864   3.857
 8320SOL    HW125859   3.410   3.913   3.920
 8320SOL    HW225860   3.491   3.774   3.895
 8321SOL     OW25861   0.105   0.199   6.236
 8321SOL    HW125862   0.087   0.297   6.241
 8321SOL    HW225863   0.061   0.161   6.155
 8322SOL     OW25864   0.065   0.989   0.533
 8322SOL    HW125865   0.130   1.055   0.497
 8322SOL    HW225866   0.105   0.897   0.531
 8323SOL     OW25867   4.796   4.720   1.156
 8323SOL    HW125868   4.792   4.622   1.135
 8323SOL    HW225869   4.864   4.736   1.227
 8324SOL     OW25870   5.654   0.325   6.942
 8324SOL    HW125871   5.631   0.283   6.854
 8324SOL    HW225872   5.653   0.256   7.014
 8325SOL     OW25873   1.551   4.919   5.276
 8325SOL    HW125874   1.554   4.963   5.366
 8325SOL    HW225875   1.560   4.820   5.287
 8326SOL     OW25876   3.686   3.781   0.101
 8326SOL    HW125877   3.708   3.877   0.117
 8326SOL    HW225878   3.655   3.769   0.007
 8327SOL     OW25879   0.329   0.784   5.576
 8327SOL    HW125880   0.385   0.812   5.497
 8327SOL    HW225881   0.261   0.855   5.595
 8328SOL     OW25882   1.051   6.757   5.560
 8328SOL    HW125883   1.023   6.661   5.572
 8328SOL    HW225884   1.051   6.802   5.649
 8329SOL     OW25885   0.643   2.885   5.323
 8329SOL    HW125886   0.563   2.865   5.378
 8329SOL    HW225887   0.713   2.928   5.380
 8330SOL     OW25888   3.847   0.971   6.363
 8330SOL    HW125889   3.921   0.976   6.430
 8330SOL    HW225890   3.877   0.917   6.285
 8331SOL     OW25891   2.659   2.196   0.135
 8331SOL    HW125892   2.650   2.098   0.154
 8331SOL    HW225893   2.569   2.238   0.132
 8332SOL     OW25894   5.483   5.692   2.052
 8332SOL    HW125895   5.412   5.629   2.082
 8332SOL    HW225896   5.561   5.641   2.016
 8333SOL     OW25897   1.864   5.348   0.740
 8333SOL    HW125898   1.907   5.359   0.651
 8333SOL    HW225899   1.840   5.438   0.776
 8334SOL     OW25900   2.921   1.789   6.376
 8334SOL    HW125901   2.881   1.825   6.461
 8334SOL    HW225902   2.847   1.760   6.315
 8335SOL     OW25903   4.423   2.726   6.854
 8335SOL    HW125904   4.337   2.716   6.804
 8335SOL    HW225905   4.489   2.657   6.821
 8336SOL     OW25906   1.348   3.810   2.690
 8336SOL    HW125907   1.379   3.757   2.770
 8336SOL    HW225908   1.249   3.799   2.680
 8337SOL     OW25909   0.864   0.392   4.867
 8337SOL    HW125910   0.905   0.457   4.802
 8337SOL    HW225911   0.913   0.305   4.862
 8338SOL     OW25912   3.986   4.806   2.341
 8338SOL    HW125913   3.913   4.845   2.285
 8338SOL    HW225914   4.053   4.761   2.282
 8339SOL     OW25915   6.568   0.736   0.684
 8339SOL    HW125916   6.594   0.802   0.613
 8339SOL    HW225917   6.603   0.645   0.660
 8340SOL     OW25918   4.908   3.773   0.022
 8340SOL    HW125919   4.909   3.864   0.063
 8340SOL    HW225920   4.997   3.729   0.036
 8341SOL     OW25921   3.309   0.526   6.383
 8341SOL    HW125922   3.249   0.591   6.429
 8341SOL    HW225923   3.312   0.440   6.434
 8342SOL     OW25924   3.275   6.174   0.605
 8342SOL    HW125925   3.266   6.248   0.672
 8342SOL    HW225926   3.348   6.112   0.632
 8343SOL     OW25927   6.591   5.464   4.302
 8343SOL    HW125928   6.511   5.407   4.284
 8343SOL    HW225929   6.670   5.406   4.319
 8344SOL     OW25930   0.301   4.826   4.366
 8344SOL    HW125931   0.283   4.783   4.278
 8344SOL    HW225932   0.254   4.914   4.370
 8345SOL     OW25933   5.210   1.708   3.496
 8345SOL    HW125934   5.256   1.785   3.451
 8345SOL    HW225935   5.151   1.662   3.430
 8346SOL     OW25936   4.200   3.298   6.343
 8346SOL    HW125937   4.189   3.353   6.427
 8346SOL    HW225938   4.117   3.306   6.288
 8347SOL     OW25939   2.700   6.634   6.318
 8347SOL    HW125940   2.602   6.652   6.322
 8347SOL    HW225941   2.729   6.590   6.404
 8348SOL     OW25942   2.659   6.522   1.449
 8348SOL    HW125943   2.640   6.613   1.413
 8348SOL    HW225944   2.651   6.524   1.549
 8349SOL     OW25945   0.999   6.392   1.557
 8349SOL    HW125946   0.992   6.389   1.657
 8349SOL    HW225947   0.930   6.454   1.520
 8350SOL     OW25948   2.670   6.941   6.392
 8350SOL    HW125949   2.632   6.860   6.346
 8350SOL    HW225950   2.747   6.914   6.449
 8351SOL     OW25951   5.499   5.704   3.873
 8351SOL    HW125952   5.512   5.787   3.819
 8351SOL    HW225953   5.509   5.624   3.814
 8352SOL     OW25954   2.538   6.341   2.544
 8352SOL    HW125955   2.599   6.289   2.604
 8352SOL    HW225956   2.453   6.361   2.593
 8353SOL     OW25957   1.776   4.223   1.249
 8353SOL    HW125958   1.703   4.169   1.290
 8353SOL    HW225959   1.772   4.213   1.149
 8354SOL     OW25960   3.475   6.495   4.117
 8354SOL    HW125961   3.559   6.542   4.090
 8354SOL    HW225962   3.435   6.541   4.196
 8355SOL     OW25963   2.111   0.674   6.246
 8355SOL    HW125964   2.015   0.689   6.268
 8355SOL    HW225965   2.168   0.703   6.324
 8356SOL     OW25966   1.149   5.139   1.984
 8356SOL    HW125967   1.208   5.093   2.051
 8356SOL    HW225968   1.204   5.168   1.906
 8357SOL     OW25969   3.506   5.503   5.883
 8357SOL    HW125970   3.584   5.500   5.819
 8357SOL    HW225971   3.497   5.414   5.928
 8358SOL     OW25972   0.920   3.281   5.893
 8358SOL    HW125973   0.865   3.269   5.811
 8358SOL    HW225974   0.895   3.212   5.961
 8359SOL     OW25975   2.204   1.455   4.438
 8359SOL    HW125976   2.207   1.363   4.479
 8359SOL    HW225977   2.271   1.514   4.483
 8360SOL     OW25978   4.811   6.857   0.660
 8360SOL    HW125979   4.851   6.812   0.740
 8360SOL    HW225980   4.714   6.874   0.676
 8361SOL     OW25981   3.000   6.818   6.876
 8361SOL    HW125982   3.005   6.915   6.855
 8361SOL    HW225983   2.918   6.800   6.931
 8362SOL     OW25984   6.529   1.814   0.627
 8362SOL    HW125985   6.615   1.858   0.652
 8362SOL    HW225986   6.456   1.848   0.687
 8363SOL     OW25987   4.632   1.881   0.822
 8363SOL    HW125988   4.614   1.784   0.836
 8363SOL    HW225989   4.720   1.905   0.862
 8364SOL     OW25990   0.840   2.987   3.699
 8364SOL    HW125991   0.900   2.986   3.779
 8364SOL    HW225992   0.846   3.076   3.654
 8365SOL     OW25993   1.804   2.239   3.018
 8365SOL    HW125994   1.726   2.203   3.071
 8365SOL    HW225995   1.881   2.256   3.079
 8366SOL     OW25996   3.966   5.134   1.160
 8366SOL    HW125997   3.975   5.228   1.125
 8366SOL    HW225998   4.057   5.094   1.170
 8367SOL     OW25999   2.996   5.031   5.184
 8367SOL    HW126000   3.058   5.080   5.246
 8367SOL    HW226001   2.941   4.966   5.237
 8368SOL     OW26002   1.358   6.116   6.587
 8368SOL    HW126003   1.398   6.029   6.559
 8368SOL    HW226004   1.430   6.182   6.607
 8369SOL     OW26005   0.787   1.118   0.965
 8369SOL    HW126006   0.707   1.064   0.939
 8369SOL    HW226007   0.851   1.121   0.888
 8370SOL     OW26008   2.566   1.351   6.170
 8370SOL    HW126009   2.567   1.368   6.268
 8370SOL    HW226010   2.486   1.396   6.129
 8371SOL     OW26011   1.642   3.406   6.139
 8371SOL    HW126012   1.687   3.459   6.068
 8371SOL    HW226013   1.548   3.440   6.152
 8372SOL     OW26014   2.253   5.837   1.972
 8372SOL    HW126015   2.164   5.863   2.010
 8372SOL    HW226016   2.247   5.745   1.933
 8373SOL     OW26017   1.431   1.561   4.602
 8373SOL    HW126018   1.433   1.568   4.702
 8373SOL    HW226019   1.370   1.631   4.565
 8374SOL     OW26020   0.890   0.839   4.653
 8374SOL    HW126021   0.946   0.779   4.597
 8374SOL    HW226022   0.839   0.903   4.595
 8375SOL     OW26023   3.122   0.313   5.910
 8375SOL    HW126024   3.059   0.368   5.963
 8375SOL    HW226025   3.195   0.279   5.970
 8376SOL     OW26026   1.760   1.046   4.059
 8376SOL    HW126027   1.805   0.959   4.082
 8376SOL    HW226028   1.795   1.118   4.117
 8377SOL     OW26029   5.691   5.495   0.584
 8377SOL    HW126030   5.722   5.547   0.504
 8377SOL    HW226031   5.592   5.478   0.576
 8378SOL     OW26032   5.326   5.137   3.111
 8378SOL    HW126033   5.399   5.188   3.065
 8378SOL    HW226034   5.249   5.198   3.130
 8379SOL     OW26035   4.997   2.446   1.671
 8379SOL    HW126036   5.042   2.513   1.613
 8379SOL    HW226037   4.915   2.412   1.625
 8380SOL     OW26038   0.355   6.648   6.480
 8380SOL    HW126039   0.312   6.664   6.569
 8380SOL    HW226040   0.430   6.713   6.467
 8381SOL     OW26041   6.925   2.269   3.266
 8381SOL    HW126042   6.859   2.222   3.324
 8381SOL    HW226043   7.017   2.241   3.291
 8382SOL     OW26044   2.752   0.435   0.984
 8382SOL    HW126045   2.698   0.438   1.068
 8382SOL    HW226046   2.716   0.503   0.920
 8383SOL     OW26047   2.634   0.686   5.281
 8383SOL    HW126048   2.602   0.780   5.291
 8383SOL    HW226049   2.732   0.686   5.259
 8384SOL     OW26050   6.898   1.388   0.685
 8384SOL    HW126051   6.997   1.379   0.695
 8384SOL    HW226052   6.868   1.337   0.605
 8385SOL     OW26053   4.746   2.560   0.522
 8385SOL    HW126054   4.836   2.565   0.566
 8385SOL    HW226055   4.725   2.465   0.500
 8386SOL     OW26056   1.911   5.460   1.352
 8386SOL    HW126057   1.828   5.444   1.299
 8386SOL    HW226058   1.918   5.391   1.424
 8387SOL     OW26059   1.790   1.384   1.696
 8387SOL    HW126060   1.730   1.329   1.638
 8387SOL    HW226061   1.882   1.386   1.658
 8388SOL     OW26062   1.440   0.240   0.931
 8388SOL    HW126063   1.505   0.273   1.000
 8388SOL    HW226064   1.347   0.252   0.966
 8389SOL     OW26065   0.834   3.061   4.181
 8389SOL    HW126066   0.767   3.085   4.252
 8389SOL    HW226067   0.856   2.964   4.188
 8390SOL     OW26068   3.843   6.931   6.617
 8390SOL    HW126069   3.937   6.962   6.599
 8390SOL    HW226070   3.814   6.961   6.708
 8391SOL     OW26071   5.022   5.305   0.974
 8391SOL    HW126072   5.035   5.238   0.901
 8391SOL    HW226073   5.043   5.397   0.940
 8392SOL     OW26074   6.827   5.608   5.574
 8392SOL    HW126075   6.902   5.649   5.625
 8392SOL    HW226076   6.740   5.649   5.604
 8393SOL     OW26077   6.949   0.590   3.942
 8393SOL    HW126078   6.873   0.568   3.882
 8393SOL    HW226079   6.992   0.675   3.912
 8394SOL     OW26080   0.288   2.106   1.973
 8394SOL    HW126081   0.215   2.150   1.922
 8394SOL    HW226082   0.297   2.011   1.944
 8395SOL     OW26083   1.385   6.779   4.081
 8395SOL    HW126084   1.380   6.808   3.985
 8395SOL    HW226085   1.356   6.684   4.089
 8396SOL     OW26086   4.648   4.349   2.233
 8396SOL    HW126087   4.558   4.362   2.275
 8396SOL    HW226088   4.635   4.317   2.139
 8397SOL     OW26089   2.444   0.256   3.005
 8397SOL    HW126090   2.543   0.270   3.007
 8397SOL    HW226091   2.403   0.298   3.085
 8398SOL     OW26092   3.543   1.799   6.937
 8398SOL    HW126093   3.626   1.759   6.978
 8398SOL    HW226094   3.487   1.725   6.899
 8399SOL     OW26095   6.735   6.731   6.841
 8399SOL    HW126096   6.683   6.658   6.885
 8399SOL    HW226097   6.741   6.712   6.743
 8400SOL     OW26098   1.179   0.668   3.437
 8400SOL    HW126099   1.098   0.679   3.379
 8400SOL    HW226100   1.256   0.635   3.382
 8401SOL     OW26101   3.931   2.769   6.254
 8401SOL    HW126102   3.868   2.773   6.332
 8401SOL    HW226103   3.926   2.854   6.202
 8402SOL     OW26104   3.121   1.759   6.031
 8402SOL    HW126105   3.092   1.666   6.053
 8402SOL    HW226106   3.180   1.757   5.950
 8403SOL     OW26107   0.330   1.859   3.446
 8403SOL    HW126108   0.383   1.921   3.504
 8403SOL    HW226109   0.339   1.765   3.481
 8404SOL     OW26110   5.744   5.994   6.986
 8404SOL    HW126111   5.804   5.962   6.913
 8404SOL    HW226112   5.649   5.974   6.961
 8405SOL     OW26113   2.007   1.501   6.864
 8405SOL    HW126114   1.923   1.523   6.913
 8405SOL    HW226115   2.030   1.404   6.879
 8406SOL     OW26116   3.715   0.739   1.293
 8406SOL    HW126117   3.813   0.721   1.288
 8406SOL    HW226118   3.674   0.721   1.203
 8407SOL     OW26119   5.428   6.046   4.264
 8407SOL    HW126120   5.520   6.078   4.240
 8407SOL    HW226121   5.360   6.103   4.219
 8408SOL     OW26122   4.749   1.615   3.568
 8408SOL    HW126123   4.848   1.609   3.583
 8408SOL    HW226124   4.705   1.650   3.651
 8409SOL     OW26125   6.302   2.451   3.794
 8409SOL    HW126126   6.252   2.410   3.718
 8409SOL    HW226127   6.242   2.455   3.874
 8410SOL     OW26128   4.411   0.660   1.939
 8410SOL    HW126129   4.362   0.598   2.001
 8410SOL    HW226130   4.475   0.715   1.992
 8411SOL     OW26131   1.668   5.523   4.146
 8411SOL    HW126132   1.629   5.519   4.054
 8411SOL    HW226133   1.722   5.441   4.163
 8412SOL     OW26134   4.135   1.789   1.388
 8412SOL    HW126135   4.106   1.864   1.447
 8412SOL    HW226136   4.231   1.767   1.407
 8413SOL     OW26137   4.869   4.519   0.311
 8413SOL    HW126138   4.780   4.497   0.351
 8413SOL    HW226139   4.856   4.551   0.217
 8414SOL     OW26140   4.310   6.911   2.765
 8414SOL    HW126141   4.334   6.815   2.764
 8414SOL    HW226142   4.358   6.959   2.692
 8415SOL     OW26143   0.079   5.146   4.067
 8415SOL    HW126144   0.038   5.103   4.147
 8415SOL    HW226145   0.114   5.237   4.092
 8416SOL     OW26146   5.098   4.768   3.302
 8416SOL    HW126147   5.060   4.694   3.358
 8416SOL    HW226148   5.058   4.855   3.331
 8417SOL     OW26149   1.260   5.389   5.757
 8417SOL    HW126150   1.306   5.353   5.675
 8417SOL    HW226151   1.277   5.487   5.764
 8418SOL     OW26152   6.140   5.460   1.361
 8418SOL    HW126153   6.192   5.545   1.351
 8418SOL    HW226154   6.131   5.417   1.271
 8419SOL     OW26155   4.431   1.033   2.200
 8419SOL    HW126156   4.417   1.056   2.296
 8419SOL    HW226157   4.424   1.115   2.144
 8420SOL     OW26158   3.598   6.743   1.090
 8420SOL    HW126159   3.614   6.784   1.000
 8420SOL    HW226160   3.551   6.656   1.079
 8421SOL     OW26161   2.970   6.482   0.696
 8421SOL    HW126162   3.051   6.429   0.721
 8421SOL    HW226163   2.888   6.436   0.729
 8422SOL     OW26164   4.868   6.395   1.741
 8422SOL    HW126165   4.904   6.302   1.743
 8422SOL    HW226166   4.944   6.459   1.727
 8423SOL     OW26167   4.084   3.694   5.992
 8423SOL    HW126168   4.175   3.658   6.009
 8423SOL    HW226169   4.052   3.745   6.072
 8424SOL     OW26170   2.306   2.753   2.958
 8424SOL    HW126171   2.275   2.795   2.872
 8424SOL    HW226172   2.357   2.670   2.937
 8425SOL     OW26173   6.433   5.243   0.876
 8425SOL    HW126174   6.458   5.339   0.872
 8425SOL    HW226175   6.488   5.192   0.809
 8426SOL     OW26176   3.860   2.933   4.449
 8426SOL    HW126177   3.874   3.016   4.395
 8426SOL    HW226178   3.784   2.881   4.410
 8427SOL     OW26179   1.870   4.177   6.173
 8427SOL    HW126180   1.834   4.231   6.249
 8427SOL    HW226181   1.970   4.181   6.174
 8428SOL     OW26182   6.330   4.714   1.862
 8428SOL    HW126183   6.400   4.646   1.841
 8428SOL    HW226184   6.351   4.799   1.814
 8429SOL     OW26185   2.163   4.449   4.015
 8429SOL    HW126186   2.174   4.353   3.988
 8429SOL    HW226187   2.092   4.456   4.086
 8430SOL     OW26188   4.294   5.581   3.158
 8430SOL    HW126189   4.343   5.523   3.094
 8430SOL    HW226190   4.265   5.665   3.112
 8431SOL     OW26191   2.062   4.976   0.950
 8431SOL    HW126192   2.102   5.055   0.903
 8431SOL    HW226193   1.972   5.001   0.986
 8432SOL     OW26194   4.623   6.171   5.307
 8432SOL    HW126195   4.704   6.117   5.286
 8432SOL    HW226196   4.549   6.145   5.245
 8433SOL     OW26197   6.747   2.848   6.452
 8433SOL    HW126198   6.750   2.947   6.437
 8433SOL    HW226199   6.690   2.805   6.382
 8434SOL     OW26200   2.811   0.254   4.934
 8434SOL    HW126201   2.794   0.180   4.999
 8434SOL    HW226202   2.885   0.312   4.967
 8435SOL     OW26203   4.853   1.340   0.930
 8435SOL    HW126204   4.779   1.345   0.863
 8435SOL    HW226205   4.838   1.261   0.991
 8436SOL     OW26206   2.987   6.400   4.582
 8436SOL    HW126207   2.985   6.306   4.615
 8436SOL    HW226208   2.939   6.405   4.494
 8437SOL     OW26209   2.181   0.496   2.875
 8437SOL    HW126210   2.278   0.512   2.895
 8437SOL    HW226211   2.130   0.492   2.960
 8438SOL     OW26212   3.097   4.936   2.022
 8438SOL    HW126213   3.170   4.973   1.964
 8438SOL    HW226214   3.012   4.983   2.002
 8439SOL     OW26215   6.575   5.925   0.732
 8439SOL    HW126216   6.549   5.918   0.828
 8439SOL    HW226217   6.615   5.839   0.701
 8440SOL     OW26218   0.362   1.245   3.255
 8440SOL    HW126219   0.456   1.248   3.220
 8440SOL    HW226220   0.357   1.298   3.340
 8441SOL     OW26221   6.656   6.347   0.118
 8441SOL    HW126222   6.684   6.253   0.098
 8441SOL    HW226223   6.734   6.397   0.157
 8442SOL     OW26224   3.554   3.267   6.165
 8442SOL    HW126225   3.559   3.176   6.123
 8442SOL    HW226226   3.475   3.316   6.128
 8443SOL     OW26227   1.269   0.071   3.097
 8443SOL    HW126228   1.202   0.121   3.153
 8443SOL    HW226229   1.233   7.007   3.074
 8444SOL     OW26230   3.299   5.902   3.882
 8444SOL    HW126231   3.263   5.854   3.962
 8444SOL    HW226232   3.295   6.001   3.897
 8445SOL     OW26233   3.574   5.284   2.001
 8445SOL    HW126234   3.519   5.340   2.063
 8445SOL    HW226235   3.629   5.220   2.055
 8446SOL     OW26236   5.516   5.669   1.161
 8446SOL    HW126237   5.557   5.757   1.136
 8446SOL    HW226238   5.570   5.626   1.233
 8447SOL     OW26239   5.798   2.020   2.024
 8447SOL    HW126240   5.718   2.053   1.975
 8447SOL    HW226241   5.878   2.021   1.964
 8448SOL     OW26242   6.453   3.758   5.314
 8448SOL    HW126243   6.517   3.700   5.264
 8448SOL    HW226244   6.496   3.791   5.398
 8449SOL     OW26245   0.034   2.702   4.561
 8449SOL    HW126246   0.085   2.733   4.481
 8449SOL    HW226247   6.981   2.761   4.575
 8450SOL     OW26248   1.541   5.963   2.064
 8450SOL    HW126249   1.527   5.947   1.967
 8450SOL    HW226250   1.573   6.057   2.078
 8451SOL     OW26251   4.758   2.781   0.373
 8451SOL    HW126252   4.839   2.801   0.319
 8451SOL    HW226253   4.778   2.708   0.438
 8452SOL     OW26254   6.966   0.221   1.442
 8452SOL    HW126255   6.975   0.141   1.501
 8452SOL    HW226256   0.022   0.276   1.448
 8453SOL     OW26257   6.564   4.519   6.140
 8453SOL    HW126258   6.654   4.499   6.101
 8453SOL    HW226259   6.555   4.474   6.229
 8454SOL     OW26260   1.224   5.540   1.286
 8454SOL    HW126261   1.223   5.514   1.383
 8454SOL    HW226262   1.204   5.459   1.231
 8455SOL     OW26263   4.908   2.404   0.976
 8455SOL    HW126264   4.947   2.416   0.885
 8455SOL    HW226265   4.975   2.430   1.045
 8456SOL     OW26266   5.375   4.763   3.220
 8456SOL    HW126267   5.294   4.801   3.264
 8456SOL    HW226268   5.395   4.814   3.136
 8457SOL     OW26269   6.369   6.616   5.689
 8457SOL    HW126270   6.302   6.637   5.618
 8457SOL    HW226271   6.406   6.702   5.726
 8458SOL     OW26272   2.494   1.149   6.773
 8458SOL    HW126273   2.564   1.189   6.714
 8458SOL    HW226274   2.524   1.155   6.869
 8459SOL     OW26275   3.251   6.781   1.115
 8459SOL    HW126276   3.257   6.719   1.193
 8459SOL    HW226277   3.293   6.869   1.139
 8460SOL     OW26278   4.339   2.263   5.804
 8460SOL    HW126279   4.333   2.180   5.861
 8460SOL    HW226280   4.408   2.249   5.733
 8461SOL     OW26281   0.884   4.046   1.861
 8461SOL    HW126282   0.861   4.042   1.764
 8461SOL    HW226283   0.836   3.972   1.909
 8462SOL     OW26284   3.169   2.628   0.353
 8462SOL    HW126285   3.212   2.715   0.325
 8462SOL    HW226286   3.217   2.552   0.309
 8463SOL     OW26287   6.927   1.215   0.473
 8463SOL    HW126288   6.948   1.125   0.512
 8463SOL    HW226289   6.980   1.228   0.389
 8464SOL     OW26290   0.200   4.474   4.981
 8464SOL    HW126291   0.113   4.430   5.001
 8464SOL    HW226292   0.197   4.514   4.889
 8465SOL     OW26293   3.184   2.106   0.592
 8465SOL    HW126294   3.159   2.060   0.507
 8465SOL    HW226295   3.107   2.160   0.625
 8466SOL     OW26296   5.612   6.573   5.021
 8466SOL    HW126297   5.706   6.538   5.023
 8466SOL    HW226298   5.587   6.595   4.927
 8467SOL     OW26299   4.008   0.843   1.086
 8467SOL    HW126300   4.006   0.940   1.109
 8467SOL    HW226301   4.014   0.789   1.170
 8468SOL     OW26302   4.950   2.829   0.177
 8468SOL    HW126303   4.953   2.789   0.086
 8468SOL    HW226304   4.954   2.929   0.170
 8469SOL     OW26305   2.585   1.697   5.669
 8469SOL    HW126306   2.644   1.772   5.701
 8469SOL    HW226307   2.611   1.671   5.576
 8470SOL     OW26308   1.054   4.799   0.011
 8470SOL    HW126309   0.970   4.824   6.990
 8470SOL    HW226310   1.128   4.791   6.972
 8471SOL     OW26311   3.972   0.720   5.966
 8471SOL    HW126312   4.041   0.671   5.913
 8471SOL    HW226313   3.917   0.776   5.905
 8472SOL     OW26314   5.817   0.572   5.247
 8472SOL    HW126315   5.895   0.517   5.219
 8472SOL    HW226316   5.778   0.618   5.167
 8473SOL     OW26317   6.122   5.252   0.773
 8473SOL    HW126318   6.218   5.255   0.803
 8473SOL    HW226319   6.087   5.159   0.783
 8474SOL     OW26320   3.552   3.344   1.994
 8474SOL    HW126321   3.547   3.247   1.973
 8474SOL    HW226322   3.585   3.357   2.087
 8475SOL     OW26323   6.950   2.662   3.066
 8475SOL    HW126324   6.980   2.634   3.157
 8475SOL    HW226325   6.931   2.581   3.011
 8476SOL     OW26326   6.989   1.746   1.181
 8476SOL    HW126327   7.020   1.716   1.091
 8476SOL    HW226328   0.035   1.728   1.248
 8477SOL     OW26329   4.472   6.618   2.896
 8477SOL    HW126330   4.374   6.636   2.893
 8477SOL    HW226331   4.504   6.619   2.991
 8478SOL     OW26332   1.005   0.910   5.631
 8478SOL    HW126333   0.911   0.881   5.649
 8478SOL    HW226334   1.017   0.925   5.533
 8479SOL     OW26335   1.394   3.901   0.989
 8479SOL    HW126336   1.382   3.811   1.030
 8479SOL    HW226337   1.325   3.964   1.025
 8480SOL     OW26338   5.210   3.392   6.876
 8480SOL    HW126339   5.210   3.482   6.920
 8480SOL    HW226340   5.291   3.382   6.818
 8481SOL     OW26341   4.673   2.318   4.934
 8481SOL    HW126342   4.762   2.363   4.930
 8481SOL    HW226343   4.604   2.376   4.888
 8482SOL     OW26344   4.929   0.432   2.425
 8482SOL    HW126345   5.025   0.460   2.418
 8482SOL    HW226346   4.870   0.512   2.415
 8483SOL     OW26347   3.029   5.588   3.236
 8483SOL    HW126348   3.009   5.568   3.140
 8483SOL    HW226349   2.948   5.629   3.279
 8484SOL     OW26350   6.422   6.270   4.269
 8484SOL    HW126351   6.515   6.244   4.297
 8484SOL    HW226352   6.381   6.195   4.217
 8485SOL     OW26353   3.821   2.687   0.157
 8485SOL    HW126354   3.921   2.690   0.155
 8485SOL    HW226355   3.791   2.601   0.198
 8486SOL     OW26356   2.251   1.287   2.781
 8486SOL    HW126357   2.331   1.347   2.791
 8486SOL    HW226358   2.243   1.259   2.686
 8487SOL     OW26359   5.942   2.399   5.988
 8487SOL    HW126360   5.938   2.428   6.083
 8487SOL    HW226361   5.913   2.474   5.929
 8488SOL     OW26362   5.384   6.379   2.207
 8488SOL    HW126363   5.454   6.350   2.142
 8488SOL    HW226364   5.420   6.451   2.266
 8489SOL     OW26365   6.245   1.236   1.638
 8489SOL    HW126366   6.345   1.234   1.626
 8489SOL    HW226367   6.201   1.228   1.549
 8490SOL     OW26368   3.081   6.906   5.516
 8490SOL    HW126369   3.068   6.812   5.548
 8490SOL    HW226370   3.174   6.917   5.483
 8491SOL     OW26371   1.867   6.389   2.557
 8491SOL    HW126372   1.849   6.300   2.599
 8491SOL    HW226373   1.826   6.461   2.613
 8492SOL     OW26374   5.653   4.469   4.683
 8492SOL    HW126375   5.668   4.388   4.740
 8492SOL    HW226376   5.598   4.444   4.604
 8493SOL     OW26377   1.800   2.483   6.390
 8493SOL    HW126378   1.742   2.479   6.471
 8493SOL    HW226379   1.890   2.518   6.416
 8494SOL     OW26380   4.340   5.604   1.947
 8494SOL    HW126381   4.372   5.653   1.866
 8494SOL    HW226382   4.311   5.670   2.016
 8495SOL     OW26383   0.047   4.963   1.218
 8495SOL    HW126384   7.015   5.002   1.147
 8495SOL    HW226385   0.074   4.870   1.192
 8496SOL     OW26386   0.249   1.090   2.659
 8496SOL    HW126387   0.192   1.104   2.578
 8496SOL    HW226388   0.337   1.137   2.647
 8497SOL     OW26389   0.211   1.631   3.289
 8497SOL    HW126390   0.112   1.638   3.281
 8497SOL    HW226391   0.248   1.717   3.325
 8498SOL     OW26392   6.765   6.986   3.088
 8498SOL    HW126393   6.680   0.009   3.071
 8498SOL    HW226394   6.843   0.010   3.052
 8499SOL     OW26395   1.103   3.754   0.123
 8499SOL    HW126396   1.101   3.816   0.045
 8499SOL    HW226397   1.171   3.786   0.189
 8500SOL     OW26398   1.831   6.368   5.983
 8500SOL    HW126399   1.883   6.379   6.067
 8500SOL    HW226400   1.820   6.270   5.963
 8501SOL     OW26401   0.312   2.783   6.040
 8501SOL    HW126402   0.345   2.701   5.993
 8501SOL    HW226403   0.390   2.830   6.082
 8502SOL     OW26404   0.412   2.809   1.618
 8502SOL    HW126405   0.321   2.845   1.641
 8502SOL    HW226406   0.458   2.872   1.556
 8503SOL     OW26407   0.451   5.433   5.134
 8503SOL    HW126408   0.399   5.465   5.055
 8503SOL    HW226409   0.446   5.500   5.208
 8504SOL     OW26410   2.220   5.515   1.927
 8504SOL    HW126411   2.310   5.506   1.885
 8504SOL    HW226412   2.153   5.541   1.858
 8505SOL     OW26413   6.557   3.378   2.914
 8505SOL    HW126414   6.501   3.383   2.831
 8505SOL    HW226415   6.640   3.327   2.895
 8506SOL     OW26416   1.507   1.197   0.023
 8506SOL    HW126417   1.450   1.166   0.100
 8506SOL    HW226418   1.510   1.296   0.022
 8507SOL     OW26419   3.676   6.925   5.401
 8507SOL    HW126420   3.681   6.827   5.384
 8507SOL    HW226421   3.677   6.974   5.314
 8508SOL     OW26422   4.521   1.921   5.477
 8508SOL    HW126423   4.450   1.927   5.547
 8508SOL    HW226424   4.560   1.829   5.477
 8509SOL     OW26425   5.447   0.563   3.049
 8509SOL    HW126426   5.387   0.640   3.071
 8509SOL    HW226427   5.481   0.572   2.956
 8510SOL     OW26428   5.876   4.096   2.642
 8510SOL    HW126429   5.942   4.159   2.683
 8510SOL    HW226430   5.909   4.068   2.552
 8511SOL     OW26431   6.091   3.564   2.490
 8511SOL    HW126432   6.052   3.645   2.531
 8511SOL    HW226433   6.104   3.494   2.559
 8512SOL     OW26434   3.310   0.672   2.676
 8512SOL    HW126435   3.221   0.713   2.656
 8512SOL    HW226436   3.298   0.577   2.705
 8513SOL     OW26437   0.112   5.416   0.849
 8513SOL    HW126438   0.145   5.493   0.795
 8513SOL    HW226439   0.190   5.364   0.884
 8514SOL     OW26440   2.544   0.571   3.975
 8514SOL    HW126441   2.557   0.624   3.891
 8514SOL    HW226442   2.447   0.556   3.990
 8515SOL     OW26443   4.987   2.452   1.240
 8515SOL    HW126444   5.001   2.366   1.288
 8515SOL    HW226445   4.900   2.493   1.268
 8516SOL     OW26446   0.356   1.743   2.331
 8516SOL    HW126447   0.392   1.674   2.268
 8516SOL    HW226448   0.401   1.735   2.420
 8517SOL     OW26449   0.577   3.116   5.690
 8517SOL    HW126450   0.554   3.130   5.594
 8517SOL    HW226451   0.653   3.051   5.697
 8518SOL     OW26452   4.665   4.217   6.524
 8518SOL    HW126453   4.621   4.237   6.437
 8518SOL    HW226454   4.600   4.232   6.599
 8519SOL     OW26455   1.954   5.474   2.046
 8519SOL    HW126456   2.053   5.486   2.045
 8519SOL    HW226457   1.917   5.490   1.954
 8520SOL     OW26458   3.676   0.842   0.505
 8520SOL    HW126459   3.770   0.825   0.474
 8520SOL    HW226460   3.616   0.770   0.473
 8521SOL     OW26461   1.698   5.369   6.176
 8521SOL    HW126462   1.700   5.469   6.167
 8521SOL    HW226463   1.778   5.330   6.130
 8522SOL     OW26464   0.910   5.671   2.102
 8522SOL    HW126465   0.967   5.691   2.181
 8522SOL    HW226466   0.946   5.718   2.021
 8523SOL     OW26467   3.249   6.439   6.882
 8523SOL    HW126468   3.214   6.443   6.789
 8523SOL    HW226469   3.237   6.527   6.927
 8524SOL     OW26470   1.186   3.081   4.501
 8524SOL    HW126471   1.168   3.073   4.599
 8524SOL    HW226472   1.206   2.991   4.463
 8525SOL     OW26473   6.096   4.202   3.667
 8525SOL    HW126474   6.020   4.210   3.602
 8525SOL    HW226475   6.125   4.293   3.695
 8526SOL     OW26476   2.941   3.893   0.801
 8526SOL    HW126477   2.926   3.896   0.900
 8526SOL    HW226478   2.959   3.799   0.773
 8527SOL     OW26479   3.497   0.365   5.077
 8527SOL    HW126480   3.581   0.418   5.088
 8527SOL    HW226481   3.460   0.380   4.985
 8528SOL     OW26482   5.331   3.293   5.922
 8528SOL    HW126483   5.260   3.244   5.972
 8528SOL    HW226484   5.354   3.378   5.971
 8529SOL     OW26485   1.172   6.927   6.828
 8529SOL    HW126486   1.092   6.886   6.874
 8529SOL    HW226487   1.194   7.014   6.871
 8530SOL     OW26488   1.226   4.933   6.295
 8530SOL    HW126489   1.321   4.956   6.274
 8530SOL    HW226490   1.204   4.962   6.388
 8531SOL     OW26491   5.859   4.409   2.569
 8531SOL    HW126492   5.920   4.451   2.501
 8531SOL    HW226493   5.871   4.310   2.568
 8532SOL     OW26494   4.339   4.774   5.075
 8532SOL    HW126495   4.243   4.800   5.084
 8532SOL    HW226496   4.345   4.675   5.062
 8533SOL     OW26497   1.876   0.769   5.383
 8533SOL    HW126498   1.855   0.705   5.457
 8533SOL    HW226499   1.792   0.798   5.338
 8534SOL     OW26500   0.179   4.011   3.374
 8534SOL    HW126501   0.249   4.016   3.444
 8534SOL    HW226502   0.098   4.062   3.403
 8535SOL     OW26503   0.642   2.024   4.819
 8535SOL    HW126504   0.691   1.979   4.745
 8535SOL    HW226505   0.707   2.055   4.888
 8536SOL     OW26506   6.132   1.975   4.928
 8536SOL    HW126507   6.073   2.047   4.893
 8536SOL    HW226508   6.082   1.919   4.994
 8537SOL     OW26509   6.364   1.499   0.886
 8537SOL    HW126510   6.410   1.480   0.799
 8537SOL    HW226511   6.417   1.567   0.937
 8538SOL     OW26512   0.391   0.723   5.050
 8538SOL    HW126513   0.477   0.765   5.081
 8538SOL    HW226514   0.374   0.640   5.103
 8539SOL     OW26515   6.121   2.238   2.144
 8539SOL    HW126516   6.140   2.315   2.084
 8539SOL    HW226517   6.144   2.153   2.097
 8540SOL     OW26518   3.718   1.556   0.520
 8540SOL    HW126519   3.770   1.494   0.579
 8540SOL    HW226520   3.715   1.647   0.562
 8541SOL     OW26521   2.554   1.854   4.738
 8541SOL    HW126522   2.468   1.824   4.779
 8541SOL    HW226523   2.590   1.780   4.681
 8542SOL     OW26524   2.898   4.485   6.816
 8542SOL    HW126525   2.902   4.414   6.745
 8542SOL    HW226526   2.811   4.479   6.864
 8543SOL     OW26527   2.922   1.732   5.531
 8543SOL    HW126528   2.844   1.786   5.564
 8543SOL    HW226529   2.939   1.656   5.594
 8544SOL     OW26530   5.439   3.032   5.109
 8544SOL    HW126531   5.459   2.950   5.164
 8544SOL    HW226532   5.483   3.111   5.152
 8545SOL     OW26533   3.095   6.653   4.655
 8545SOL    HW126534   3.069   6.562   4.623
 8545SOL    HW226535   3.069   6.664   4.751
 8546SOL     OW26536   5.982   0.234   1.274
 8546SOL    HW126537   5.984   0.312   1.336
 8546SOL    HW226538   5.887   0.203   1.262
 8547SOL     OW26539   0.091   0.424   5.428
 8547SOL    HW126540   0.129   0.338   5.463
 8547SOL    HW226541   0.050   0.409   5.339
 8548SOL     OW26542   0.463   2.971   5.057
 8548SOL    HW126543   0.478   3.062   5.095
 8548SOL    HW226544   0.534   2.909   5.090
 8549SOL     OW26545   0.757   2.598   4.130
 8549SOL    HW126546   0.708   2.683   4.109
 8549SOL    HW226547   0.694   2.521   4.125
 8550SOL     OW26548   1.120   3.523   6.084
 8550SOL    HW126549   1.142   3.523   6.182
 8550SOL    HW226550   1.162   3.443   6.041
 8551SOL     OW26551   3.165   2.860   6.789
 8551SOL    HW126552   3.159   2.911   6.875
 8551SOL    HW226553   3.144   2.921   6.713
 8552SOL     OW26554   2.718   0.359   2.124
 8552SOL    HW126555   2.619   0.367   2.139
 8552SOL    HW226556   2.759   0.314   2.203
 8553SOL     OW26557   4.199   4.390   0.140
 8553SOL    HW126558   4.185   4.461   0.070
 8553SOL    HW226559   4.136   4.406   0.216
 8554SOL     OW26560   0.871   6.010   1.775
 8554SOL    HW126561   0.786   6.040   1.818
 8554SOL    HW226562   0.879   6.052   1.685
 8555SOL     OW26563   4.329   1.695   3.221
 8555SOL    HW126564   4.328   1.657   3.314
 8555SOL    HW226565   4.353   1.792   3.225
 8556SOL     OW26566   1.695   6.208   5.652
 8556SOL    HW126567   1.609   6.167   5.683
 8556SOL    HW226568   1.768   6.184   5.716
 8557SOL     OW26569   6.331   0.970   0.969
 8557SOL    HW126570   6.319   1.068   0.954
 8557SOL    HW226571   6.391   0.956   1.048
 8558SOL     OW26572   2.023   5.254   2.947
 8558SOL    HW126573   1.947   5.202   2.985
 8558SOL    HW226574   2.000   5.351   2.944
 8559SOL     OW26575   1.718   6.507   2.766
 8559SOL    HW126576   1.694   6.469   2.855
 8559SOL    HW226577   1.721   6.606   2.772
 8560SOL     OW26578   0.935   5.650   1.617
 8560SOL    HW126579   0.987   5.722   1.572
 8560SOL    HW226580   0.990   5.566   1.621
 8561SOL     OW26581   3.977   6.819   3.534
 8561SOL    HW126582   3.952   6.769   3.452
 8561SOL    HW226583   3.966   6.760   3.614
 8562SOL     OW26584   4.022   6.923   0.052
 8562SOL    HW126585   4.001   6.998   7.016
 8562SOL    HW226586   3.964   6.931   0.133
 8563SOL     OW26587   0.714   4.732   2.221
 8563SOL    HW126588   0.778   4.795   2.265
 8563SOL    HW226589   0.672   4.777   2.142
 8564SOL     OW26590   3.572   6.301   5.829
 8564SOL    HW126591   3.492   6.272   5.777
 8564SOL    HW226592   3.570   6.258   5.919
 8565SOL     OW26593   3.633   5.467   1.828
 8565SOL    HW126594   3.633   5.394   1.896
 8565SOL    HW226595   3.683   5.438   1.747
 8566SOL     OW26596   2.084   0.750   2.044
 8566SOL    HW126597   2.104   0.812   2.120
 8566SOL    HW226598   2.099   0.798   1.957
 8567SOL     OW26599   1.649   2.158   1.913
 8567SOL    HW126600   1.554   2.131   1.926
 8567SOL    HW226601   1.702   2.131   1.993
 8568SOL     OW26602   6.031   1.185   0.733
 8568SOL    HW126603   5.957   1.169   0.799
 8568SOL    HW226604   5.992   1.201   0.642
 8569SOL     OW26605   5.045   1.662   6.006
 8569SOL    HW126606   4.986   1.705   5.939
 8569SOL    HW226607   5.026   1.700   6.097
 8570SOL     OW26608   1.436   1.790   4.415
 8570SOL    HW126609   1.514   1.766   4.473
 8570SOL    HW226610   1.386   1.866   4.456
 8571SOL     OW26611   0.695   0.302   4.627
 8571SOL    HW126612   0.732   0.235   4.691
 8571SOL    HW226613   0.665   0.383   4.678
 8572SOL     OW26614   1.918   4.082   5.174
 8572SOL    HW126615   1.884   4.104   5.265
 8572SOL    HW226616   1.897   4.158   5.112
 8573SOL     OW26617   2.985   5.994   6.373
 8573SOL    HW126618   2.977   6.087   6.409
 8573SOL    HW226619   2.898   5.947   6.385
 8574SOL     OW26620   6.039   6.313   6.085
 8574SOL    HW126621   5.960   6.255   6.106
 8574SOL    HW226622   6.106   6.261   6.032
 8575SOL     OW26623   3.300   1.377   3.255
 8575SOL    HW126624   3.337   1.308   3.192
 8575SOL    HW226625   3.233   1.434   3.207
 8576SOL     OW26626   2.021   4.842   3.971
 8576SOL    HW126627   1.963   4.818   4.049
 8576SOL    HW226628   2.010   4.772   3.899
 8577SOL     OW26629   1.519   0.389   5.998
 8577SOL    HW126630   1.544   0.485   6.009
 8577SOL    HW226631   1.439   0.369   6.054
 8578SOL     OW26632   6.605   5.343   5.674
 8578SOL    HW126633   6.657   5.404   5.733
 8578SOL    HW226634   6.661   5.316   5.596
 8579SOL     OW26635   1.303   5.900   2.172
 8579SOL    HW126636   1.369   5.952   2.119
 8579SOL    HW226637   1.313   5.802   2.153
 8580SOL     OW26638   2.059   5.774   1.203
 8580SOL    HW126639   2.079   5.716   1.282
 8580SOL    HW226640   1.992   5.843   1.228
 8581SOL     OW26641   4.057   4.652   1.785
 8581SOL    HW126642   4.136   4.593   1.769
 8581SOL    HW226643   3.983   4.625   1.722
 8582SOL     OW26644   4.714   4.630   5.528
 8582SOL    HW126645   4.651   4.618   5.451
 8582SOL    HW226646   4.750   4.723   5.526
 8583SOL     OW26647   3.162   6.703   3.026
 8583SOL    HW126648   3.208   6.617   3.051
 8583SOL    HW226649   3.138   6.701   2.929
 8584SOL     OW26650   0.530   0.283   5.242
 8584SOL    HW126651   0.537   0.221   5.319
 8584SOL    HW226652   0.540   0.232   5.156
 8585SOL     OW26653   6.267   1.237   0.879
 8585SOL    HW126654   6.178   1.206   0.846
 8585SOL    HW226655   6.284   1.330   0.846
 8586SOL     OW26656   4.286   6.841   1.829
 8586SOL    HW126657   4.223   6.834   1.752
 8586SOL    HW226658   4.324   6.934   1.833
 8587SOL     OW26659   0.904   1.226   5.086
 8587SOL    HW126660   0.947   1.296   5.143
 8587SOL    HW226661   0.830   1.267   5.032
 8588SOL     OW26662   4.845   0.948   0.175
 8588SOL    HW126663   4.882   0.930   0.084
 8588SOL    HW226664   4.751   0.914   0.180
 8589SOL     OW26665   6.653   2.568   5.450
 8589SOL    HW126666   6.632   2.529   5.539
 8589SOL    HW226667   6.583   2.634   5.425
 8590SOL     OW26668   0.716   0.980   2.823
 8590SOL    HW126669   0.741   0.920   2.748
 8590SOL    HW226670   0.763   1.068   2.812
 8591SOL     OW26671   0.279   4.198   0.606
 8591SOL    HW126672   0.215   4.131   0.567
 8591SOL    HW226673   0.373   4.168   0.589
 8592SOL     OW26674   0.342   2.522   6.811
 8592SOL    HW126675   0.263   2.553   6.864
 8592SOL    HW226676   0.425   2.567   6.845
 8593SOL     OW26677   3.430   0.807   6.918
 8593SOL    HW126678   3.403   0.849   6.832
 8593SOL    HW226679   3.489   0.729   6.900
 8594SOL     OW26680   6.206   2.488   5.989
 8594SOL    HW126681   6.106   2.487   5.998
 8594SOL    HW226682   6.245   2.411   6.040
 8595SOL     OW26683   6.185   1.120   3.577
 8595SOL    HW126684   6.268   1.126   3.634
 8595SOL    HW226685   6.157   1.212   3.550
 8596SOL     OW26686   1.420   4.277   3.106
 8596SOL    HW126687   1.430   4.355   3.167
 8596SOL    HW226688   1.510   4.250   3.071
 8597SOL     OW26689   5.649   1.711   1.241
 8597SOL    HW126690   5.692   1.761   1.166
 8597SOL    HW226691   5.706   1.719   1.323
 8598SOL     OW26692   5.529   0.020   5.680
 8598SOL    HW126693   5.477   6.990   5.744
 8598SOL    HW226694   5.469   0.093   5.644
 8599SOL     OW26695   1.291   2.454   4.375
 8599SOL    HW126696   1.286   2.465   4.474
 8599SOL    HW226697   1.355   2.521   4.337
 8600SOL     OW26698   5.293   3.676   0.008
 8600SOL    HW126699   5.370   3.613   0.021
 8600SOL    HW226700   5.273   3.723   0.094
 8601SOL     OW26701   0.152   1.984   3.742
 8601SOL    HW126702   0.234   2.040   3.758
 8601SOL    HW226703   0.092   1.989   3.822
 8602SOL     OW26704   2.446   6.294   2.279
 8602SOL    HW126705   2.480   6.316   2.371
 8602SOL    HW226706   2.369   6.231   2.286
 8603SOL     OW26707   5.567   0.194   0.145
 8603SOL    HW126708   5.536   0.191   0.240
 8603SOL    HW226709   5.490   0.172   0.084
 8604SOL     OW26710   1.139   2.660   6.289
 8604SOL    HW126711   1.180   2.573   6.263
 8604SOL    HW226712   1.192   2.702   6.363
 8605SOL     OW26713   1.120   5.121   3.741
 8605SOL    HW126714   1.090   5.141   3.648
 8605SOL    HW226715   1.041   5.094   3.797
 8606SOL     OW26716   2.288   1.966   6.961
 8606SOL    HW126717   2.315   1.869   6.958
 8606SOL    HW226718   2.256   1.994   6.871
 8607SOL     OW26719   2.410   4.131   6.649
 8607SOL    HW126720   2.434   4.039   6.680
 8607SOL    HW226721   2.393   4.130   6.551
 8608SOL     OW26722   1.973   4.559   2.024
 8608SOL    HW126723   1.875   4.578   2.033
 8608SOL    HW226724   2.025   4.631   2.071
 8609SOL     OW26725   5.266   0.403   4.045
 8609SOL    HW126726   5.250   0.485   3.990
 8609SOL    HW226727   5.355   0.364   4.021
 8610SOL     OW26728   6.633   0.669   3.202
 8610SOL    HW126729   6.576   0.632   3.130
 8610SOL    HW226730   6.649   0.600   3.272
 8611SOL     OW26731   2.914   1.186   4.447
 8611SOL    HW126732   2.988   1.245   4.479
 8611SOL    HW226733   2.892   1.209   4.352
 8612SOL     OW26734   2.580   3.361   1.393
 8612SOL    HW126735   2.568   3.320   1.484
 8612SOL    HW226736   2.662   3.418   1.392
 8613SOL     OW26737   3.344   2.077   1.445
 8613SOL    HW126738   3.254   2.090   1.487
 8613SOL    HW226739   3.331   2.044   1.351
 8614SOL     OW26740   1.710   2.784   3.261
 8614SOL    HW126741   1.786   2.842   3.290
 8614SOL    HW226742   1.743   2.717   3.194
 8615SOL     OW26743   4.634   2.115   5.303
 8615SOL    HW126744   4.581   2.043   5.349
 8615SOL    HW226745   4.718   2.131   5.354
 8616SOL     OW26746   2.678   4.819   1.791
 8616SOL    HW126747   2.595   4.808   1.737
 8616SOL    HW226748   2.693   4.738   1.847
 8617SOL     OW26749   5.708   1.300   3.655
 8617SOL    HW126750   5.725   1.392   3.690
 8617SOL    HW226751   5.774   1.236   3.695
 8618SOL     OW26752   6.434   4.354   1.172
 8618SOL    HW126753   6.420   4.437   1.119
 8618SOL    HW226754   6.359   4.343   1.237
 8619SOL     OW26755   3.564   4.999   3.291
 8619SOL    HW126756   3.549   5.082   3.344
 8619SOL    HW226757   3.660   4.995   3.262
 8620SOL     OW26758   2.102   6.442   4.603
 8620SOL    HW126759   2.149   6.529   4.594
 8620SOL    HW226760   2.077   6.408   4.512
 8621SOL     OW26761   4.806   2.835   2.155
 8621SOL    HW126762   4.779   2.895   2.230
 8621SOL    HW226763   4.799   2.884   2.068
 8622SOL     OW26764   5.388   4.842   1.601
 8622SOL    HW126765   5.343   4.756   1.577
 8622SOL    HW226766   5.378   4.858   1.700
 8623SOL     OW26767   0.523   4.042   4.990
 8623SOL    HW126768   0.534   4.048   4.891
 8623SOL    HW226769   0.469   4.120   5.022
 8624SOL     OW26770   3.317   3.680   5.974
 8624SOL    HW126771   3.406   3.725   5.978
 8624SOL    HW226772   3.253   3.737   5.922
 8625SOL     OW26773   4.687   0.488   5.544
 8625SOL    HW126774   4.667   0.559   5.611
 8625SOL    HW226775   4.777   0.448   5.564
 8626SOL     OW26776   3.888   3.178   6.745
 8626SOL    HW126777   3.932   3.088   6.744
 8626SOL    HW226778   3.803   3.175   6.693
 8627SOL     OW26779   2.623   1.889   1.993
 8627SOL    HW126780   2.568   1.823   2.045
 8627SOL    HW226781   2.564   1.937   1.928
 8628SOL     OW26782   6.418   6.720   6.618
 8628SOL    HW126783   6.381   6.721   6.711
 8628SOL    HW226784   6.413   6.628   6.581
 8629SOL     OW26785   1.535   6.583   5.376
 8629SOL    HW126786   1.589   6.598   5.294
 8629SOL    HW226787   1.437   6.584   5.352
 8630SOL     OW26788   4.896   3.772   4.114
 8630SOL    HW126789   4.899   3.790   4.016
 8630SOL    HW226790   4.885   3.673   4.129
 8631SOL     OW26791   1.285   5.842   6.006
 8631SOL    HW126792   1.224   5.812   6.080
 8631SOL    HW226793   1.314   5.936   6.023
 8632SOL     OW26794   3.798   4.307   5.257
 8632SOL    HW126795   3.778   4.385   5.316
 8632SOL    HW226796   3.891   4.275   5.275
 8633SOL     OW26797   5.756   3.027   5.769
 8633SOL    HW126798   5.687   3.098   5.759
 8633SOL    HW226799   5.827   3.058   5.833
 8634SOL     OW26800   4.983   4.077   6.762
 8634SOL    HW126801   4.931   4.137   6.822
 8634SOL    HW226802   5.038   4.014   6.817
 8635SOL     OW26803   5.333   2.950   6.732
 8635SOL    HW126804   5.252   2.953   6.792
 8635SOL    HW226805   5.336   2.861   6.686
 8636SOL     OW26806   5.081   5.962   1.210
 8636SOL    HW126807   5.008   5.893   1.207
 8636SOL    HW226808   5.153   5.937   1.146
 8637SOL     OW26809   1.944   1.545   6.600
 8637SOL    HW126810   1.847   1.569   6.595
 8637SOL    HW226811   1.966   1.514   6.693
 8638SOL     OW26812   4.108   2.361   5.346
 8638SOL    HW126813   4.131   2.446   5.299
 8638SOL    HW226814   4.077   2.382   5.439
 8639SOL     OW26815   4.388   3.274   6.792
 8639SOL    HW126816   4.314   3.309   6.849
 8639SOL    HW226817   4.351   3.217   6.719
 8640SOL     OW26818   4.236   3.662   1.213
 8640SOL    HW126819   4.168   3.694   1.147
 8640SOL    HW226820   4.262   3.737   1.274
 8641SOL     OW26821   3.795   4.987   4.389
 8641SOL    HW126822   3.722   4.952   4.331
 8641SOL    HW226823   3.795   5.087   4.387
 8642SOL     OW26824   0.801   0.118   3.434
 8642SOL    HW126825   0.718   0.064   3.421
 8642SOL    HW226826   0.847   0.089   3.518
 8643SOL     OW26827   1.792   0.351   0.099
 8643SOL    HW126828   1.818   0.313   0.188
 8643SOL    HW226829   1.832   0.442   0.089
 8644SOL     OW26830   5.624   2.658   6.214
 8644SOL    HW126831   5.720   2.671   6.188
 8644SOL    HW226832   5.579   2.747   6.218
 8645SOL     OW26833   4.373   5.125   1.512
 8645SOL    HW126834   4.363   5.172   1.424
 8645SOL    HW226835   4.399   5.030   1.495
 8646SOL     OW26836   0.564   1.914   6.784
 8646SOL    HW126837   0.611   1.827   6.769
 8646SOL    HW226838   0.517   1.911   6.873
 8647SOL     OW26839   2.215   5.372   0.324
 8647SOL    HW126840   2.296   5.353   0.269
 8647SOL    HW226841   2.169   5.454   0.290
 8648SOL     OW26842   6.325   6.964   0.597
 8648SOL    HW126843   6.342   6.977   0.499
 8648SOL    HW226844   6.402   6.914   0.637
 8649SOL     OW26845   5.945   6.078   0.328
 8649SOL    HW126846   5.888   6.090   0.410
 8649SOL    HW226847   5.968   6.168   0.291
 8650SOL     OW26848   1.582   6.510   5.085
 8650SOL    HW126849   1.591   6.600   5.042
 8650SOL    HW226850   1.503   6.462   5.047
 8651SOL     OW26851   3.997   1.649   0.893
 8651SOL    HW126852   3.978   1.612   0.984
 8651SOL    HW226853   3.911   1.670   0.847
 8652SOL     OW26854   0.697   4.992   3.518
 8652SOL    HW126855   0.778   4.948   3.558
 8652SOL    HW226856   0.645   5.037   3.590
 8653SOL     OW26857   6.804   1.217   6.104
 8653SOL    HW126858   6.719   1.233   6.054
 8653SOL    HW226859   6.803   1.271   6.188
 8654SOL     OW26860   0.304   4.968   1.330
 8654SOL    HW126861   0.355   5.010   1.255
 8654SOL    HW226862   0.206   4.987   1.318
 8655SOL     OW26863   5.548   0.443   4.256
 8655SOL    HW126864   5.548   0.448   4.156
 8655SOL    HW226865   5.518   0.352   4.285
 8656SOL     OW26866   6.061   1.449   2.033
 8656SOL    HW126867   6.034   1.432   2.128
 8656SOL    HW226868   6.094   1.364   1.992
 8657SOL     OW26869   5.504   6.006   0.238
 8657SOL    HW126870   5.531   6.080   0.300
 8657SOL    HW226871   5.516   5.918   0.285
 8658SOL     OW26872   6.398   5.667   0.099
 8658SOL    HW126873   6.326   5.735   0.086
 8658SOL    HW226874   6.374   5.583   0.050
 8659SOL     OW26875   4.805   2.276   2.938
 8659SOL    HW126876   4.889   2.223   2.948
 8659SOL    HW226877   4.813   2.361   2.991
 8660SOL     OW26878   0.024   3.020   2.525
 8660SOL    HW126879   0.051   3.114   2.509
 8660SOL    HW226880   0.105   2.962   2.531
 8661SOL     OW26881   6.103   4.105   1.747
 8661SOL    HW126882   6.156   4.026   1.779
 8661SOL    HW226883   6.157   4.188   1.759
 8662SOL     OW26884   3.915   5.783   2.299
 8662SOL    HW126885   3.917   5.807   2.202
 8662SOL    HW226886   3.969   5.850   2.351
 8663SOL     OW26887   2.901   5.549   2.429
 8663SOL    HW126888   2.943   5.616   2.367
 8663SOL    HW226889   2.835   5.494   2.379
 8664SOL     OW26890   2.689   5.160   2.135
 8664SOL    HW126891   2.595   5.145   2.165
 8664SOL    HW226892   2.721   5.081   2.083
 8665SOL     OW26893   6.327   5.566   4.479
 8665SOL    HW126894   6.396   5.494   4.465
 8665SOL    HW226895   6.237   5.532   4.451
 8666SOL     OW26896   5.304   0.548   4.473
 8666SOL    HW126897   5.367   0.503   4.536
 8666SOL    HW226898   5.213   0.508   4.483
 8667SOL     OW26899   4.838   2.003   4.409
 8667SOL    HW126900   4.894   1.992   4.326
 8667SOL    HW226901   4.754   2.051   4.386
 8668SOL     OW26902   5.448   3.660   4.922
 8668SOL    HW126903   5.475   3.709   4.839
 8668SOL    HW226904   5.418   3.568   4.897
 8669SOL     OW26905   0.462   5.953   6.247
 8669SOL    HW126906   0.403   6.031   6.229
 8669SOL    HW226907   0.466   5.894   6.167
 8670SOL     OW26908   4.581   5.156   6.164
 8670SOL    HW126909   4.505   5.151   6.229
 8670SOL    HW226910   4.666   5.137   6.212
 8671SOL     OW26911   0.486   1.567   2.193
 8671SOL    HW126912   0.454   1.473   2.191
 8671SOL    HW226913   0.531   1.590   2.107
 8672SOL     OW26914   0.554   0.012   3.394
 8672SOL    HW126915   0.577   0.106   3.372
 8672SOL    HW226916   0.538   0.004   3.493
 8673SOL     OW26917   6.436   1.616   7.019
 8673SOL    HW126918   6.534   1.607   0.008
 8673SOL    HW226919   6.408   1.552   6.948
 8674SOL     OW26920   6.395   4.974   2.706
 8674SOL    HW126921   6.419   4.974   2.609
 8674SOL    HW226922   6.380   4.880   2.737
 8675SOL     OW26923   4.515   1.121   5.647
 8675SOL    HW126924   4.467   1.164   5.570
 8675SOL    HW226925   4.449   1.096   5.718
 8676SOL     OW26926   4.867   6.999   1.682
 8676SOL    HW126927   4.947   0.007   1.632
 8676SOL    HW226928   4.890   6.911   1.723
 8677SOL     OW26929   1.579   5.917   5.590
 8677SOL    HW126930   1.547   6.000   5.635
 8677SOL    HW226931   1.504   5.877   5.538
 8678SOL     OW26932   0.940   0.378   0.879
 8678SOL    HW126933   1.000   0.414   0.950
 8678SOL    HW226934   0.953   0.430   0.794
 8679SOL     OW26935   1.623   1.178   3.500
 8679SOL    HW126936   1.611   1.098   3.560
 8679SOL    HW226937   1.692   1.238   3.540
 8680SOL     OW26938   6.328   2.871   6.564
 8680SOL    HW126939   6.375   2.937   6.505
 8680SOL    HW226940   6.288   2.799   6.507
 8681SOL     OW26941   4.660   5.548   1.315
 8681SOL    HW126942   4.600   5.510   1.386
 8681SOL    HW226943   4.755   5.537   1.342
 8682SOL     OW26944   6.981   0.791   1.646
 8682SOL    HW126945   6.921   0.814   1.722
 8682SOL    HW226946   6.926   0.759   1.568
 8683SOL     OW26947   1.466   2.600   5.331
 8683SOL    HW126948   1.507   2.637   5.248
 8683SOL    HW226949   1.367   2.615   5.330
 8684SOL     OW26950   6.590   2.727   4.513
 8684SOL    HW126951   6.623   2.643   4.557
 8684SOL    HW226952   6.652   2.754   4.440
 8685SOL     OW26953   5.748   3.002   6.713
 8685SOL    HW126954   5.712   2.929   6.655
 8685SOL    HW226955   5.844   2.985   6.734
 8686SOL     OW26956   6.254   0.298   1.678
 8686SOL    HW126957   6.342   0.290   1.630
 8686SOL    HW226958   6.254   0.239   1.758
 8687SOL     OW26959   5.855   5.300   3.133
 8687SOL    HW126960   5.805   5.221   3.169
 8687SOL    HW226961   5.946   5.271   3.104
 8688SOL     OW26962   1.371   3.889   6.656
 8688SOL    HW126963   1.374   3.979   6.611
 8688SOL    HW226964   1.369   3.817   6.587
 8689SOL     OW26965   4.202   3.038   0.152
 8689SOL    HW126966   4.110   3.051   0.116
 8689SOL    HW226967   4.267   3.031   0.077
 8690SOL     OW26968   0.781   3.174   2.898
 8690SOL    HW126969   0.813   3.247   2.836
 8690SOL    HW226970   0.851   3.155   2.966
 8691SOL     OW26971   3.319   2.079   5.603
 8691SOL    HW126972   3.396   2.025   5.571
 8691SOL    HW226973   3.235   2.025   5.598
 8692SOL     OW26974   3.429   1.058   4.988
 8692SOL    HW126975   3.528   1.074   4.993
 8692SOL    HW226976   3.386   1.130   4.933
 8693SOL     OW26977   6.477   0.481   6.645
 8693SOL    HW126978   6.575   0.468   6.659
 8693SOL    HW226979   6.444   0.418   6.575
 8694SOL     OW26980   5.852   1.886   4.756
 8694SOL    HW126981   5.818   1.800   4.794
 8694SOL    HW226982   5.891   1.942   4.829
 8695SOL     OW26983   3.770   3.157   6.314
 8695SOL    HW126984   3.754   3.181   6.409
 8695SOL    HW226985   3.694   3.191   6.258
 8696SOL     OW26986   3.058   5.944   5.621
 8696SOL    HW126987   3.027   5.879   5.692
 8696SOL    HW226988   2.980   5.973   5.567
 8697SOL     OW26989   0.416   4.109   6.140
 8697SOL    HW126990   0.471   4.044   6.088
 8697SOL    HW226991   0.387   4.184   6.080
 8698SOL     OW26992   4.654   6.663   5.237
 8698SOL    HW126993   4.641   6.604   5.158
 8698SOL    HW226994   4.722   6.733   5.216
 8699SOL     OW26995   1.665   2.974   5.605
 8699SOL    HW126996   1.755   2.951   5.566
 8699SOL    HW226997   1.596   2.912   5.567
 8700SOL     OW26998   1.126   0.866   4.941
 8700SOL    HW126999   1.049   0.828   4.993
 8700SOL    HW227000   1.118   0.966   4.939
 8701SOL     OW27001   1.604   1.299   0.326
 8701SOL    HW127002   1.533   1.367   0.308
 8701SOL    HW227003   1.686   1.322   0.272
 8702SOL     OW27004   5.396   4.909   1.878
 8702SOL    HW127005   5.362   4.842   1.944
 8702SOL    HW227006   5.401   4.999   1.922
 8703SOL     OW27007   2.926   4.751   6.911
 8703SOL    HW127008   2.898   4.663   6.875
 8703SOL    HW227009   2.866   4.823   6.876
 8704SOL     OW27010   6.511   4.085   3.514
 8704SOL    HW127011   6.560   4.022   3.453
 8704SOL    HW227012   6.421   4.048   3.535
 8705SOL     OW27013   4.073   1.928   6.313
 8705SOL    HW127014   4.005   1.878   6.367
 8705SOL    HW227015   4.041   1.936   6.218
 8706SOL     OW27016   5.116   1.872   0.056
 8706SOL    HW127017   5.133   1.777   0.082
 8706SOL    HW227018   5.142   1.933   0.131
 8707SOL     OW27019   1.235   2.760   4.067
 8707SOL    HW127020   1.148   2.806   4.084
 8707SOL    HW227021   1.226   2.662   4.084
 8708SOL     OW27022   4.042   1.460   3.936
 8708SOL    HW127023   4.043   1.514   3.852
 8708SOL    HW227024   4.132   1.418   3.950
 8709SOL     OW27025   6.892   6.697   6.390
 8709SOL    HW127026   6.902   6.791   6.357
 8709SOL    HW227027   6.829   6.695   6.467
 8710SOL     OW27028   2.309   2.735   3.230
 8710SOL    HW127029   2.310   2.749   3.131
 8710SOL    HW227030   2.272   2.816   3.275
 8711SOL     OW27031   1.453   7.020   2.733
 8711SOL    HW127032   1.420   0.081   2.766
 8711SOL    HW227033   1.378   6.970   2.690
 8712SOL     OW27034   3.363   1.727   4.342
 8712SOL    HW127035   3.340   1.757   4.434
 8712SOL    HW227036   3.455   1.688   4.342
 8713SOL     OW27037   6.717   4.505   1.582
 8713SOL    HW127038   6.695   4.592   1.625
 8713SOL    HW227039   6.782   4.454   1.640
 8714SOL     OW27040   1.033   0.164   6.026
 8714SOL    HW127041   1.065   0.145   5.934
 8714SOL    HW227042   0.944   0.210   6.022
 8715SOL     OW27043   4.207   1.655   0.478
 8715SOL    HW127044   4.202   1.730   0.413
 8715SOL    HW227045   4.199   1.691   0.571
 8716SOL     OW27046   0.576   6.618   0.953
 8716SOL    HW127047   0.613   6.526   0.968
 8716SOL    HW227048   0.647   6.676   0.913
 8717SOL     OW27049   2.666   3.681   5.543
 8717SOL    HW127050   2.759   3.716   5.526
 8717SOL    HW227051   2.660   3.586   5.513
 8718SOL     OW27052   1.914   2.885   5.525
 8718SOL    HW127053   2.013   2.885   5.535
 8718SOL    HW227054   1.888   2.934   5.441
 8719SOL     OW27055   3.820   0.602   0.375
 8719SOL    HW127056   3.903   0.627   0.323
 8719SOL    HW227057   3.841   0.601   0.472
 8720SOL     OW27058   0.514   6.595   6.053
 8720SOL    HW127059   0.592   6.604   6.115
 8720SOL    HW227060   0.445   6.537   6.096
 8721SOL     OW27061   6.171   0.657   0.430
 8721SOL    HW127062   6.227   0.706   0.363
 8721SOL    HW227063   6.125   0.580   0.386
 8722SOL     OW27064   3.728   1.114   0.170
 8722SOL    HW127065   3.672   1.035   0.146
 8722SOL    HW227066   3.745   1.114   0.269
 8723SOL     OW27067   5.632   0.132   2.710
 8723SOL    HW127068   5.602   0.052   2.659
 8723SOL    HW227069   5.557   0.198   2.717
 8724SOL     OW27070   5.861   0.401   3.990
 8724SOL    HW127071   5.928   0.329   4.007
 8724SOL    HW227072   5.772   0.373   4.027
 8725SOL     OW27073   0.748   6.288   5.248
 8725SOL    HW127074   0.796   6.362   5.293
 8725SOL    HW227075   0.719   6.220   5.316
 8726SOL     OW27076   6.664   0.803   0.943
 8726SOL    HW127077   6.763   0.810   0.945
 8726SOL    HW227078   6.632   0.794   0.849
 8727SOL     OW27079   5.836   6.535   0.210
 8727SOL    HW127080   5.811   6.526   0.114
 8727SOL    HW227081   5.826   6.630   0.239
 8728SOL     OW27082   5.290   1.495   1.950
 8728SOL    HW127083   5.377   1.493   2.000
 8728SOL    HW227084   5.215   1.491   2.016
 8729SOL     OW27085   2.872   5.084   5.569
 8729SOL    HW127086   2.898   5.147   5.496
 8729SOL    HW227087   2.791   5.118   5.616
 8730SOL     OW27088   4.975   4.528   3.394
 8730SOL    HW127089   5.050   4.485   3.446
 8730SOL    HW227090   4.938   4.461   3.329
 8731SOL     OW27091   0.716   3.076   3.181
 8731SOL    HW127092   0.682   3.117   3.096
 8731SOL    HW227093   0.809   3.042   3.167
 8732SOL     OW27094   5.549   4.503   2.157
 8732SOL    HW127095   5.614   4.571   2.189
 8732SOL    HW227096   5.588   4.454   2.079
 8733SOL     OW27097   1.431   5.888   6.958
 8733SOL    HW127098   1.351   5.909   7.014
 8733SOL    HW227099   1.488   5.970   6.950
 8734SOL     OW27100   6.772   3.210   2.880
 8734SOL    HW127101   6.848   3.233   2.940
 8734SOL    HW227102   6.806   3.157   2.802
 8735SOL     OW27103   1.058   3.393   5.203
 8735SOL    HW127104   1.151   3.358   5.219
 8735SOL    HW227105   0.993   3.317   5.203
 8736SOL     OW27106   0.019   5.263   2.265
 8736SOL    HW127107   6.992   5.231   2.344
 8736SOL    HW227108   0.044   5.185   2.208
 8737SOL     OW27109   2.707   6.461   6.939
 8737SOL    HW127110   2.626   6.495   6.889
 8737SOL    HW227111   2.688   6.370   6.975
 8738SOL     OW27112   2.239   5.941   3.913
 8738SOL    HW127113   2.250   5.846   3.885
 8738SOL    HW227114   2.326   5.990   3.901
 8739SOL     OW27115   5.483   4.722   5.850
 8739SOL    HW127116   5.507   4.640   5.798
 8739SOL    HW227117   5.559   4.748   5.909
 8740SOL     OW27118   3.785   2.055   2.727
 8740SOL    HW127119   3.813   2.027   2.636
 8740SOL    HW227120   3.685   2.061   2.730
 8741SOL     OW27121   2.465   0.538   2.838
 8741SOL    HW127122   2.494   0.628   2.870
 8741SOL    HW227123   2.533   0.470   2.865
 8742SOL     OW27124   4.492   0.245   1.721
 8742SOL    HW127125   4.548   0.321   1.755
 8742SOL    HW227126   4.437   0.276   1.644
 8743SOL     OW27127   2.453   0.897   1.229
 8743SOL    HW127128   2.545   0.861   1.243
 8743SOL    HW227129   2.394   0.826   1.190
 8744SOL     OW27130   4.486   2.960   0.472
 8744SOL    HW127131   4.421   2.943   0.545
 8744SOL    HW227132   4.509   2.874   0.427
 8745SOL     OW27133   6.587   2.488   6.289
 8745SOL    HW127134   6.678   2.448   6.297
 8745SOL    HW227135   6.530   2.456   6.364
 8746SOL     OW27136   4.748   5.794   4.565
 8746SOL    HW127137   4.752   5.799   4.665
 8746SOL    HW227138   4.802   5.717   4.533
 8747SOL     OW27139   0.505   1.011   2.462
 8747SOL    HW127140   0.483   1.096   2.511
 8747SOL    HW227141   0.515   0.936   2.528
 8748SOL     OW27142   0.703   1.940   4.363
 8748SOL    HW127143   0.762   1.964   4.286
 8748SOL    HW227144   0.670   1.846   4.352
 8749SOL     OW27145   1.588   1.124   5.334
 8749SOL    HW127146   1.571   1.185   5.256
 8749SOL    HW227147   1.529   1.150   5.410
 8750SOL     OW27148   3.874   3.620   5.842
 8750SOL    HW127149   3.874   3.522   5.863
 8750SOL    HW227150   3.954   3.663   5.884
 8751SOL     OW27151   6.981   1.119   1.511
 8751SOL    HW127152   6.893   1.165   1.527
 8751SOL    HW227153   6.997   1.052   1.584
 8752SOL     OW27154   3.977   2.931   6.706
 8752SOL    HW127155   3.973   2.831   6.708
 8752SOL    HW227156   3.973   2.963   6.611
 8753SOL     OW27157   2.559   2.948   6.384
 8753SOL    HW127158   2.645   2.944   6.436
 8753SOL    HW227159   2.495   2.880   6.421
 8754SOL     OW27160   2.784   4.231   5.663
 8754SOL    HW127161   2.782   4.150   5.604
 8754SOL    HW227162   2.867   4.229   5.719
 8755SOL     OW27163   2.734   0.957   1.715
 8755SOL    HW127164   2.814   1.017   1.714
 8755SOL    HW227165   2.652   1.011   1.734
 8756SOL     OW27166   1.124   2.953   3.292
 8756SOL    HW127167   1.147   3.008   3.373
 8756SOL    HW227168   1.169   2.864   3.298
 8757SOL     OW27169   5.086   5.952   6.572
 8757SOL    HW127170   5.147   5.886   6.616
 8757SOL    HW227171   5.044   5.912   6.491
 8758SOL     OW27172   4.677   6.122   3.309
 8758SOL    HW127173   4.723   6.051   3.362
 8758SOL    HW227174   4.723   6.132   3.221
 8759SOL     OW27175   6.349   2.640   6.749
 8759SOL    HW127176   6.306   2.642   6.839
 8759SOL    HW227177   6.349   2.732   6.709
 8760SOL     OW27178   2.794   1.614   4.630
 8760SOL    HW127179   2.858   1.553   4.582
 8760SOL    HW227180   2.820   1.620   4.726
 8761SOL     OW27181   6.050   1.416   1.705
 8761SOL    HW127182   6.111   1.493   1.724
 8761SOL    HW227183   6.104   1.333   1.690
 8762SOL     OW27184   1.259   5.752   4.355
 8762SOL    HW127185   1.263   5.707   4.266
 8762SOL    HW227186   1.301   5.694   4.424
 8763SOL     OW27187   5.535   0.317   5.311
 8763SOL    HW127188   5.528   0.217   5.311
 8763SOL    HW227189   5.480   0.354   5.236
 8764SOL     OW27190   4.160   6.142   5.765
 8764SOL    HW127191   4.259   6.124   5.772
 8764SOL    HW227192   4.111   6.056   5.764
 8765SOL     OW27193   5.503   1.499   4.558
 8765SOL    HW127194   5.576   1.565   4.545
 8765SOL    HW227195   5.513   1.425   4.491
 8766SOL     OW27196   4.090   4.157   5.249
 8766SOL    HW127197   4.145   4.240   5.239
 8766SOL    HW227198   4.150   4.078   5.259
 8767SOL     OW27199   4.499   6.601   3.327
 8767SOL    HW127200   4.509   6.632   3.422
 8767SOL    HW227201   4.590   6.593   3.285
 8768SOL     OW27202   1.448   2.407   1.301
 8768SOL    HW127203   1.358   2.443   1.324
 8768SOL    HW227204   1.446   2.307   1.306
 8769SOL     OW27205   0.247   1.416   1.833
 8769SOL    HW127206   0.200   1.455   1.754
 8769SOL    HW227207   0.346   1.430   1.823
 8770SOL     OW27208   5.317   4.560   2.576
 8770SOL    HW127209   5.394   4.500   2.599
 8770SOL    HW227210   5.232   4.519   2.608
 8771SOL     OW27211   0.512   2.757   6.502
 8771SOL    HW127212   0.413   2.751   6.487
 8771SOL    HW227213   0.557   2.679   6.459
 8772SOL     OW27214   4.791   0.629   5.947
 8772SOL    HW127215   4.737   0.652   5.866
 8772SOL    HW227216   4.888   0.643   5.927
 8773SOL     OW27217   5.328   2.927   2.604
 8773SOL    HW127218   5.370   2.877   2.529
 8773SOL    HW227219   5.298   2.863   2.675
 8774SOL     OW27220   0.604   0.564   0.268
 8774SOL    HW127221   0.527   0.528   0.322
 8774SOL    HW227222   0.689   0.548   0.317
 8775SOL     OW27223   4.971   0.991   5.382
 8775SOL    HW127224   4.901   1.051   5.343
 8775SOL    HW227225   5.001   1.028   5.470
 8776SOL     OW27226   4.934   3.215   1.507
 8776SOL    HW127227   4.917   3.221   1.409
 8776SOL    HW227228   4.865   3.269   1.556
 8777SOL     OW27229   6.809   3.361   3.775
 8777SOL    HW127230   6.737   3.362   3.844
 8777SOL    HW227231   6.898   3.372   3.820
 8778SOL     OW27232   5.109   3.674   5.386
 8778SOL    HW127233   5.185   3.678   5.451
 8778SOL    HW227234   5.023   3.663   5.436
 8779SOL     OW27235   2.430   5.578   2.549
 8779SOL    HW127236   2.441   5.636   2.468
 8779SOL    HW227237   2.460   5.485   2.528
 8780SOL     OW27238   0.574   6.702   3.491
 8780SOL    HW127239   0.604   6.711   3.397
 8780SOL    HW227240   0.474   6.710   3.495
 8781SOL     OW27241   4.947   0.105   3.504
 8781SOL    HW127242   4.885   0.046   3.556
 8781SOL    HW227243   4.995   0.050   3.436
 8782SOL     OW27244   5.796   1.435   1.846
 8782SOL    HW127245   5.795   1.520   1.898
 8782SOL    HW227246   5.873   1.436   1.781
 8783SOL     OW27247   6.661   3.910   4.604
 8783SOL    HW127248   6.703   3.849   4.536
 8783SOL    HW227249   6.587   3.861   4.650
 8784SOL     OW27250   6.379   6.127   6.981
 8784SOL    HW127251   6.304   6.066   7.006
 8784SOL    HW227252   6.379   6.207   0.016
 8785SOL     OW27253   6.592   5.482   6.128
 8785SOL    HW127254   6.670   5.504   6.187
 8785SOL    HW227255   6.590   5.544   6.050
 8786SOL     OW27256   3.516   1.130   1.838
 8786SOL    HW127257   3.444   1.196   1.860
 8786SOL    HW227258   3.580   1.171   1.774
 8787SOL     OW27259   2.958   0.481   2.398
 8787SOL    HW127260   2.914   0.571   2.389
 8787SOL    HW227261   3.057   0.494   2.402
 8788SOL     OW27262   6.490   1.141   5.393
 8788SOL    HW127263   6.422   1.161   5.323
 8788SOL    HW227264   6.481   1.206   5.468
 8789SOL     OW27265   6.867   4.415   5.281
 8789SOL    HW127266   6.916   4.501   5.288
 8789SOL    HW227267   6.888   4.358   5.361
 8790SOL     OW27268   6.791   1.270   6.746
 8790SOL    HW127269   6.767   1.365   6.726
 8790SOL    HW227270   6.841   1.231   6.670
 8791SOL     OW27271   4.662   6.481   5.017
 8791SOL    HW127272   4.752   6.461   4.977
 8791SOL    HW227273   4.603   6.522   4.947
 8792SOL     OW27274   3.155   4.891   2.522
 8792SOL    HW127275   3.087   4.875   2.450
 8792SOL    HW227276   3.246   4.871   2.486
 8793SOL     OW27277   0.645   5.071   3.868
 8793SOL    HW127278   0.591   4.990   3.893
 8793SOL    HW227279   0.594   5.125   3.801
 8794SOL     OW27280   5.776   1.169   3.391
 8794SOL    HW127281   5.695   1.116   3.366
 8794SOL    HW227282   5.754   1.229   3.468
 8795SOL     OW27283   1.041   5.115   4.789
 8795SOL    HW127284   0.944   5.090   4.793
 8795SOL    HW227285   1.053   5.207   4.826
 8796SOL     OW27286   5.678   3.038   2.943
 8796SOL    HW127287   5.699   3.136   2.948
 8796SOL    HW227288   5.709   2.994   3.028
 8797SOL     OW27289   6.924   6.969   4.841
 8797SOL    HW127290   7.019   6.953   4.815
 8797SOL    HW227291   6.865   6.948   4.763
 8798SOL     OW27292   4.119   5.757   6.171
 8798SOL    HW127293   4.200   5.769   6.114
 8798SOL    HW227294   4.140   5.782   6.266
 8799SOL     OW27295   3.008   4.856   2.265
 8799SOL    HW127296   2.991   4.953   2.277
 8799SOL    HW227297   3.066   4.842   2.185
 8800SOL     OW27298   5.801   5.058   5.595
 8800SOL    HW127299   5.894   5.035   5.624
 8800SOL    HW227300   5.776   5.149   5.628
 8801SOL     OW27301   6.542   1.787   4.565
 8801SOL    HW127302   6.503   1.851   4.499
 8801SOL    HW227303   6.478   1.774   4.641
 8802SOL     OW27304   1.704   5.389   5.798
 8802SOL    HW127305   1.642   5.358   5.870
 8802SOL    HW227306   1.678   5.482   5.770
 8803SOL     OW27307   6.871   0.171   0.118
 8803SOL    HW127308   6.895   0.248   0.177
 8803SOL    HW227309   6.800   0.116   0.163
 8804SOL     OW27310   2.137   6.256   1.360
 8804SOL    HW127311   2.171   6.243   1.267
 8804SOL    HW227312   2.067   6.327   1.360
 8805SOL     OW27313   3.434   5.219   3.721
 8805SOL    HW127314   3.461   5.140   3.777
 8805SOL    HW227315   3.347   5.200   3.677
 8806SOL     OW27316   1.789   4.500   0.937
 8806SOL    HW127317   1.700   4.456   0.947
 8806SOL    HW227318   1.836   4.462   0.857
 8807SOL     OW27319   4.160   1.453   0.043
 8807SOL    HW127320   4.087   1.450   7.001
 8807SOL    HW227321   4.145   1.381   0.111
 8808SOL     OW27322   0.169   1.999   6.508
 8808SOL    HW127323   0.266   2.018   6.489
 8808SOL    HW227324   0.117   2.084   6.506
 8809SOL     OW27325   2.448   4.405   3.377
 8809SOL    HW127326   2.404   4.321   3.409
 8809SOL    HW227327   2.472   4.395   3.281
 8810SOL     OW27328   5.687   1.354   5.444
 8810SOL    HW127329   5.646   1.445   5.433
 8810SOL    HW227330   5.614   1.286   5.456
 8811SOL     OW27331   3.690   0.908   2.633
 8811SOL    HW127332   3.610   0.889   2.576
 8811SOL    HW227333   3.761   0.839   2.617
 8812SOL     OW27334   3.126   0.404   0.556
 8812SOL    HW127335   3.116   0.311   0.592
 8812SOL    HW227336   3.172   0.461   0.624
 8813SOL     OW27337   1.813   5.069   3.034
 8813SOL    HW127338   1.716   5.063   3.010
 8813SOL    HW227339   1.855   4.979   3.021
 8814SOL     OW27340   5.976   6.750   0.472
 8814SOL    HW127341   6.027   6.789   0.548
 8814SOL    HW227342   6.031   6.752   0.389
 8815SOL     OW27343   5.709   6.926   1.341
 8815SOL    HW127344   5.715   7.019   1.305
 8815SOL    HW227345   5.750   6.862   1.276
 8816SOL     OW27346   0.926   0.129   6.528
 8816SOL    HW127347   0.961   0.073   6.602
 8816SOL    HW227348   0.835   0.095   6.501
 8817SOL     OW27349   0.015   3.633   4.200
 8817SOL    HW127350   0.019   3.623   4.101
 8817SOL    HW227351   0.047   3.549   4.244
 8818SOL     OW27352   1.227   6.592   3.413
 8818SOL    HW127353   1.140   6.638   3.400
 8818SOL    HW227354   1.223   6.501   3.372
 8819SOL     OW27355   6.007   4.776   5.515
 8819SOL    HW127356   5.955   4.730   5.442
 8819SOL    HW227357   6.061   4.850   5.475
 8820SOL     OW27358   2.788   1.756   4.407
 8820SOL    HW127359   2.798   1.699   4.488
 8820SOL    HW227360   2.815   1.705   4.326
 8821SOL     OW27361   0.859   6.017   0.570
 8821SOL    HW127362   0.848   5.954   0.646
 8821SOL    HW227363   0.771   6.063   0.552
 8822SOL     OW27364   0.593   0.373   3.416
 8822SOL    HW127365   0.598   0.345   3.320
 8822SOL    HW227366   0.674   0.340   3.464
 8823SOL     OW27367   2.544   0.991   2.942
 8823SOL    HW127368   2.494   1.029   2.864
 8823SOL    HW227369   2.521   1.043   3.024
 8824SOL     OW27370   1.308   0.738   0.875
 8824SOL    HW127371   1.343   0.831   0.870
 8824SOL    HW227372   1.378   0.674   0.842
 8825SOL     OW27373   0.651   0.882   1.739
 8825SOL    HW127374   0.603   0.917   1.819
 8825SOL    HW227375   0.718   0.949   1.707
 8826SOL     OW27376   1.121   3.288   0.868
 8826SOL    HW127377   1.079   3.372   0.903
 8826SOL    HW227378   1.128   3.222   0.943
 8827SOL     OW27379   4.094   0.204   3.306
 8827SOL    HW127380   4.140   0.271   3.247
 8827SOL    HW227381   4.012   0.247   3.346
 8828SOL     OW27382   3.805   5.337   6.993
 8828SOL    HW127383   3.727   5.378   0.013
 8828SOL    HW227384   3.889   5.386   7.017
 8829SOL     OW27385   5.997   1.544   1.467
 8829SOL    HW127386   6.054   1.626   1.461
 8829SOL    HW227387   6.035   1.482   1.535
 8830SOL     OW27388   2.136   1.618   3.134
 8830SOL    HW127389   2.171   1.641   3.224
 8830SOL    HW227390   2.082   1.534   3.139
 8831SOL     OW27391   5.906   2.919   2.415
 8831SOL    HW127392   5.870   2.996   2.469
 8831SOL    HW227393   5.982   2.951   2.360
 8832SOL     OW27394   0.562   6.402   4.417
 8832SOL    HW127395   0.542   6.473   4.351
 8832SOL    HW227396   0.545   6.436   4.510
 8833SOL     OW27397   3.936   3.645   0.093
 8833SOL    HW127398   3.850   3.694   0.105
 8833SOL    HW227399   3.990   3.652   0.177
 8834SOL     OW27400   5.637   4.154   4.615
 8834SOL    HW127401   5.677   4.135   4.526
 8834SOL    HW227402   5.706   4.140   4.686
 8835SOL     OW27403   5.382   1.272   6.427
 8835SOL    HW127404   5.414   1.325   6.506
 8835SOL    HW227405   5.333   1.333   6.364
 8836SOL     OW27406   5.029   2.317   0.586
 8836SOL    HW127407   5.089   2.298   0.507
 8836SOL    HW227408   5.018   2.416   0.596
 8837SOL     OW27409   0.107   0.186   1.722
 8837SOL    HW127410   0.187   0.128   1.709
 8837SOL    HW227411   0.118   0.271   1.672
 8838SOL     OW27412   1.430   4.777   2.400
 8838SOL    HW127413   1.395   4.861   2.442
 8838SOL    HW227414   1.478   4.722   2.468
 8839SOL     OW27415   3.954   6.213   2.386
 8839SOL    HW127416   3.933   6.115   2.384
 8839SOL    HW227417   3.993   6.237   2.475
 8840SOL     OW27418   6.469   0.042   2.103
 8840SOL    HW127419   6.514   6.979   2.102
 8840SOL    HW227420   6.376   0.032   2.138
 8841SOL     OW27421   5.971   1.598   2.606
 8841SOL    HW127422   5.949   1.654   2.527
 8841SOL    HW227423   5.961   1.501   2.581
 8842SOL     OW27424   3.341   3.822   3.595
 8842SOL    HW127425   3.420   3.761   3.588
 8842SOL    HW227426   3.372   3.915   3.615
 8843SOL     OW27427   1.690   3.550   4.050
 8843SOL    HW127428   1.725   3.478   4.110
 8843SOL    HW227429   1.603   3.584   4.087
 8844SOL     OW27430   6.902   1.786   4.672
 8844SOL    HW127431   6.990   1.800   4.626
 8844SOL    HW227432   6.869   1.873   4.707
 8845SOL     OW27433   2.214   4.089   0.516
 8845SOL    HW127434   2.137   4.030   0.491
 8845SOL    HW227435   2.227   4.085   0.615
 8846SOL     OW27436   4.990   4.346   4.197
 8846SOL    HW127437   4.964   4.322   4.291
 8846SOL    HW227438   5.060   4.417   4.199
 8847SOL     OW27439   2.118   1.609   3.456
 8847SOL    HW127440   2.166   1.545   3.396
 8847SOL    HW227441   2.157   1.605   3.548
 8848SOL     OW27442   3.237   1.657   2.381
 8848SOL    HW127443   3.237   1.748   2.423
 8848SOL    HW227444   3.199   1.662   2.289
 8849SOL     OW27445   2.982   4.982   3.465
 8849SOL    HW127446   2.986   4.948   3.371
 8849SOL    HW227447   2.912   5.053   3.472
 8850SOL     OW27448   3.306   1.613   0.876
 8850SOL    HW127449   3.244   1.649   0.806
 8850SOL    HW227450   3.378   1.559   0.833
 8851SOL     OW27451   1.086   4.818   2.452
 8851SOL    HW127452   1.141   4.805   2.535
 8851SOL    HW227453   0.996   4.777   2.465
 8852SOL     OW27454   4.766   3.040   5.796
 8852SOL    HW127455   4.691   3.078   5.743
 8852SOL    HW227456   4.742   2.947   5.826
 8853SOL     OW27457   2.877   0.483   4.584
 8853SOL    HW127458   2.794   0.458   4.634
 8853SOL    HW227459   2.958   0.464   4.640
 8854SOL     OW27460   2.648   0.539   6.795
 8854SOL    HW127461   2.711   0.571   6.866
 8854SOL    HW227462   2.700   0.498   6.721
 8855SOL     OW27463   0.419   6.253   0.387
 8855SOL    HW127464   0.348   6.312   0.424
 8855SOL    HW227465   0.391   6.217   0.298
 8856SOL     OW27466   5.685   0.113   5.896
 8856SOL    HW127467   5.651   0.075   5.810
 8856SOL    HW227468   5.679   0.212   5.894
 8857SOL     OW27469   6.128   2.316   3.616
 8857SOL    HW127470   6.064   2.337   3.542
 8857SOL    HW227471   6.213   2.281   3.577
 8858SOL     OW27472   2.189   3.064   5.533
 8858SOL    HW127473   2.237   3.147   5.561
 8858SOL    HW227474   2.194   3.054   5.434
 8859SOL     OW27475   0.344   0.074   5.024
 8859SOL    HW127476   0.393   0.017   5.090
 8859SOL    HW227477   0.410   0.128   4.971
 8860SOL     OW27478   2.023   4.576   2.745
 8860SOL    HW127479   2.065   4.535   2.826
 8860SOL    HW227480   2.092   4.623   2.691
 8861SOL     OW27481   3.706   2.112   5.837
 8861SOL    HW127482   3.682   2.027   5.791
 8861SOL    HW227483   3.650   2.187   5.802
 8862SOL     OW27484   6.518   1.514   3.465
 8862SOL    HW127485   6.540   1.425   3.424
 8862SOL    HW227486   6.431   1.507   3.514
 8863SOL     OW27487   1.452   5.703   4.605
 8863SOL    HW127488   1.524   5.634   4.599
 8863SOL    HW227489   1.490   5.792   4.581
 8864SOL     OW27490   2.752   3.419   6.352
 8864SOL    HW127491   2.837   3.462   6.322
 8864SOL    HW227492   2.674   3.470   6.314
 8865SOL     OW27493   3.280   1.942   5.290
 8865SOL    HW127494   3.298   1.868   5.354
 8865SOL    HW227495   3.357   2.007   5.291
 8866SOL     OW27496   5.300   6.906   4.104
 8866SOL    HW127497   5.217   6.920   4.157
 8866SOL    HW227498   5.333   6.994   4.070
 8867SOL     OW27499   5.309   3.233   2.916
 8867SOL    HW127500   5.251   3.220   2.996
 8867SOL    HW227501   5.371   3.155   2.908
 8868SOL     OW27502   5.964   3.461   0.553
 8868SOL    HW127503   5.926   3.434   0.642
 8868SOL    HW227504   6.055   3.423   0.543
 8869SOL     OW27505   4.352   5.915   3.582
 8869SOL    HW127506   4.374   5.850   3.655
 8869SOL    HW227507   4.296   5.870   3.513
 8870SOL     OW27508   4.281   6.935   0.170
 8870SOL    HW127509   4.192   6.942   0.125
 8870SOL    HW227510   4.296   7.014   0.229
 8871SOL     OW27511   2.999   0.578   3.859
 8871SOL    HW127512   3.019   0.623   3.946
 8871SOL    HW227513   2.916   0.617   3.819
 8872SOL     OW27514   1.698   4.224   4.735
 8872SOL    HW127515   1.617   4.167   4.749
 8872SOL    HW227516   1.678   4.294   4.666
 8873SOL     OW27517   6.771   5.745   1.812
 8873SOL    HW127518   6.694   5.683   1.797
 8873SOL    HW227519   6.758   5.794   1.898
 8874SOL     OW27520   2.360   6.323   1.165
 8874SOL    HW127521   2.431   6.379   1.121
 8874SOL    HW227522   2.374   6.227   1.142
 8875SOL     OW27523   0.481   3.215   5.175
 8875SOL    HW127524   0.403   3.272   5.201
 8875SOL    HW227525   0.538   3.264   5.109
 8876SOL     OW27526   1.152   0.227   4.517
 8876SOL    HW127527   1.101   0.184   4.443
 8876SOL    HW227528   1.152   0.167   4.597
 8877SOL     OW27529   2.765   1.066   4.636
 8877SOL    HW127530   2.784   0.968   4.639
 8877SOL    HW227531   2.839   1.113   4.587
 8878SOL     OW27532   0.229   5.976   0.438
 8878SOL    HW127533   0.264   6.060   0.480
 8878SOL    HW227534   0.129   5.983   0.430
 8879SOL     OW27535   5.446   5.199   1.648
 8879SOL    HW127536   5.491   5.143   1.718
 8879SOL    HW227537   5.448   5.295   1.676
 8880SOL     OW27538   6.944   5.811   4.457
 8880SOL    HW127539   6.939   5.858   4.369
 8880SOL    HW227540   6.857   5.764   4.475
 8881SOL     OW27541   5.920   0.283   4.315
 8881SOL    HW127542   5.832   0.235   4.321
 8881SOL    HW227543   5.939   0.328   4.403
 8882SOL     OW27544   5.238   1.887   0.974
 8882SOL    HW127545   5.144   1.886   0.938
 8882SOL    HW227546   5.299   1.845   0.908
 8883SOL     OW27547   0.855   0.700   5.471
 8883SOL    HW127548   0.784   0.630   5.466
 8883SOL    HW227549   0.812   0.790   5.463
 8884SOL     OW27550   5.525   5.552   6.558
 8884SOL    HW127551   5.469   5.632   6.536
 8884SOL    HW227552   5.469   5.469   6.550
 8885SOL     OW27553   0.068   3.433   1.002
 8885SOL    HW127554   0.022   3.515   0.968
 8885SOL    HW227555   0.069   3.363   0.930
 8886SOL     OW27556   3.346   6.909   5.395
 8886SOL    HW127557   3.330   6.881   5.300
 8886SOL    HW227558   3.421   6.855   5.433
 8887SOL     OW27559   3.341   1.072   1.081
 8887SOL    HW127560   3.381   1.136   1.016
 8887SOL    HW227561   3.414   1.034   1.139
 8888SOL     OW27562   1.425   1.664   1.222
 8888SOL    HW127563   1.502   1.706   1.269
 8888SOL    HW227564   1.383   1.596   1.282
 8889SOL     OW27565   5.303   6.355   5.509
 8889SOL    HW127566   5.323   6.407   5.426
 8889SOL    HW227567   5.361   6.274   5.513
 8890SOL     OW27568   6.189   5.432   4.059
 8890SOL    HW127569   6.151   5.525   4.060
 8890SOL    HW227570   6.271   5.431   4.002
 8891SOL     OW27571   5.787   3.385   5.947
 8891SOL    HW127572   5.848   3.361   5.871
 8891SOL    HW227573   5.840   3.432   6.017
 8892SOL     OW27574   3.477   5.782   3.542
 8892SOL    HW127575   3.436   5.727   3.615
 8892SOL    HW227576   3.473   5.733   3.456
 8893SOL     OW27577   1.250   0.623   1.979
 8893SOL    HW127578   1.194   0.664   2.051
 8893SOL    HW227579   1.196   0.554   1.930
 8894SOL     OW27580   3.989   2.830   5.727
 8894SOL    HW127581   3.959   2.749   5.778
 8894SOL    HW227582   4.069   2.807   5.672
 8895SOL     OW27583   6.526   1.162   1.298
 8895SOL    HW127584   6.535   1.085   1.235
 8895SOL    HW227585   6.578   1.240   1.263
 8896SOL     OW27586   1.766   3.573   4.847
 8896SOL    HW127587   1.863   3.550   4.837
 8896SOL    HW227588   1.737   3.553   4.941
 8897SOL     OW27589   2.444   2.148   2.842
 8897SOL    HW127590   2.476   2.092   2.765
 8897SOL    HW227591   2.349   2.176   2.826
 8898SOL     OW27592   6.188   3.686   4.578
 8898SOL    HW127593   6.108   3.746   4.580
 8898SOL    HW227594   6.171   3.607   4.637
 8899SOL     OW27595   1.650   5.243   0.547
 8899SOL    HW127596   1.666   5.297   0.465
 8899SOL    HW227597   1.712   5.272   0.619
 8900SOL     OW27598   5.549   3.318   2.982
 8900SOL    HW127599   5.596   3.343   2.897
 8900SOL    HW227600   5.453   3.300   2.963
 8901SOL     OW27601   2.709   0.955   4.241
 8901SOL    HW127602   2.709   0.864   4.283
 8901SOL    HW227603   2.772   0.956   4.163
 8902SOL     OW27604   3.563   6.446   0.167
 8902SOL    HW127605   3.599   6.531   0.126
 8902SOL    HW227606   3.499   6.470   0.240
 8903SOL     OW27607   1.081   1.327   4.613
 8903SOL    HW127608   1.103   1.287   4.523
 8903SOL    HW227609   1.061   1.253   4.678
 8904SOL     OW27610   6.372   5.542   3.630
 8904SOL    HW127611   6.449   5.601   3.607
 8904SOL    HW227612   6.288   5.580   3.592
 8905SOL     OW27613   2.140   4.088   4.816
 8905SOL    HW127614   2.056   4.034   4.821
 8905SOL    HW227615   2.202   4.060   4.888
 8906SOL     OW27616   0.230   6.735   6.708
 8906SOL    HW127617   0.186   6.699   6.790
 8906SOL    HW227618   0.195   6.827   6.689
 8907SOL     OW27619   3.342   2.152   4.867
 8907SOL    HW127620   3.433   2.170   4.905
 8907SOL    HW227621   3.275   2.212   4.911
 8908SOL     OW27622   1.406   3.028   6.731
 8908SOL    HW127623   1.452   3.044   6.818
 8908SOL    HW227624   1.429   2.936   6.697
 8909SOL     OW27625   1.651   0.818   5.009
 8909SOL    HW127626   1.561   0.787   4.978
 8909SOL    HW227627   1.643   0.855   5.102
 8910SOL     OW27628   1.537   2.641   5.799
 8910SOL    HW127629   1.562   2.549   5.828
 8910SOL    HW227630   1.600   2.707   5.841
 8911SOL     OW27631   4.210   2.289   4.815
 8911SOL    HW127632   4.200   2.333   4.904
 8911SOL    HW227633   4.127   2.237   4.794
 8912SOL     OW27634   4.491   1.776   0.366
 8912SOL    HW127635   4.516   1.775   0.463
 8912SOL    HW227636   4.392   1.763   0.358
 8913SOL     OW27637   4.520   5.048   0.622
 8913SOL    HW127638   4.454   5.123   0.619
 8913SOL    HW227639   4.561   5.043   0.713
 8914SOL     OW27640   4.065   0.625   4.304
 8914SOL    HW127641   4.050   0.706   4.360
 8914SOL    HW227642   4.109   0.554   4.360
 8915SOL     OW27643   0.864   2.550   3.857
 8915SOL    HW127644   0.777   2.530   3.814
 8915SOL    HW227645   0.853   2.552   3.956
 8916SOL     OW27646   0.663   3.219   1.859
 8916SOL    HW127647   0.742   3.162   1.836
 8916SOL    HW227648   0.585   3.195   1.802
 8917SOL     OW27649   6.095   4.143   6.212
 8917SOL    HW127650   6.060   4.151   6.118
 8917SOL    HW227651   6.121   4.233   6.246
 8918SOL     OW27652   6.963   5.069   1.489
 8918SOL    HW127653   6.958   5.156   1.440
 8918SOL    HW227654   6.917   4.998   1.435
 8919SOL     OW27655   4.350   4.215   0.526
 8919SOL    HW127656   4.261   4.259   0.538
 8919SOL    HW227657   4.371   4.208   0.428
 8920SOL     OW27658   1.051   6.925   6.145
 8920SOL    HW127659   1.038   7.010   6.095
 8920SOL    HW227660   1.123   6.871   6.101
 8921SOL     OW27661   2.021   2.001   2.860
 8921SOL    HW127662   1.957   2.078   2.867
 8921SOL    HW227663   2.031   1.957   2.949
 8922SOL     OW27664   3.222   4.964   1.776
 8922SOL    HW127665   3.314   4.999   1.756
 8922SOL    HW227666   3.155   5.017   1.723
 8923SOL     OW27667   1.171   4.266   5.718
 8923SOL    HW127668   1.076   4.279   5.688
 8923SOL    HW227669   1.231   4.323   5.663
 8924SOL     OW27670   3.490   5.667   5.406
 8924SOL    HW127671   3.402   5.649   5.450
 8924SOL    HW227672   3.533   5.580   5.383
 8925SOL     OW27673   1.091   0.515   2.390
 8925SOL    HW127674   1.185   0.551   2.394
 8925SOL    HW227675   1.086   0.431   2.444
 8926SOL     OW27676   6.089   3.388   6.847
 8926SOL    HW127677   6.007   3.332   6.833
 8926SOL    HW227678   6.171   3.330   6.839
 8927SOL     OW27679   1.636   2.037   4.697
 8927SOL    HW127680   1.552   2.025   4.751
 8927SOL    HW227681   1.710   2.065   4.757
 8928SOL     OW27682   6.607   0.631   5.203
 8928SOL    HW127683   6.569   0.609   5.114
 8928SOL    HW227684   6.632   0.728   5.206
 8929SOL     OW27685   0.352   3.260   3.941
 8929SOL    HW127686   0.354   3.229   4.036
 8929SOL    HW227687   0.445   3.261   3.905
 8930SOL     OW27688   2.356   4.322   4.243
 8930SOL    HW127689   2.428   4.252   4.251
 8930SOL    HW227690   2.300   4.322   4.326
 8931SOL     OW27691   3.557   2.430   0.663
 8931SOL    HW127692   3.552   2.338   0.626
 8931SOL    HW227693   3.629   2.435   0.733
 8932SOL     OW27694   5.093   0.520   0.114
 8932SOL    HW127695   5.053   0.434   0.083
 8932SOL    HW227696   5.189   0.506   0.138
 8933SOL     OW27697   0.960   2.105   5.514
 8933SOL    HW127698   0.878   2.150   5.547
 8933SOL    HW227699   1.040   2.142   5.561
 8934SOL     OW27700   2.627   5.369   3.752
 8934SOL    HW127701   2.670   5.421   3.826
 8934SOL    HW227702   2.663   5.276   3.753
 8935SOL     OW27703   5.330   4.352   1.833
 8935SOL    HW127704   5.272   4.308   1.764
 8935SOL    HW227705   5.295   4.333   1.924
 8936SOL     OW27706   0.894   3.197   1.140
 8936SOL    HW127707   0.897   3.290   1.103
 8936SOL    HW227708   0.953   3.192   1.221
 8937SOL     OW27709   0.363   0.645   4.105
 8937SOL    HW127710   0.385   0.707   4.029
 8937SOL    HW227711   0.294   0.579   4.075
 8938SOL     OW27712   0.075   1.212   0.269
 8938SOL    HW127713   0.078   1.155   0.186
 8938SOL    HW227714   0.159   1.199   0.322
 8939SOL     OW27715   6.075   3.446   4.174
 8939SOL    HW127716   6.002   3.469   4.238
 8939SOL    HW227717   6.113   3.530   4.135
 8940SOL     OW27718   5.331   1.858   1.219
 8940SOL    HW127719   5.304   1.905   1.135
 8940SOL    HW227720   5.380   1.921   1.279
 8941SOL     OW27721   5.477   2.584   2.137
 8941SOL    HW127722   5.570   2.564   2.104
 8941SOL    HW227723   5.445   2.508   2.192
 8942SOL     OW27724   1.272   5.324   4.557
 8942SOL    HW127725   1.367   5.347   4.579
 8942SOL    HW227726   1.221   5.409   4.541
 8943SOL     OW27727   4.244   4.945   0.788
 8943SOL    HW127728   4.305   4.913   0.860
 8943SOL    HW227729   4.225   5.042   0.801
 8944SOL     OW27730   4.899   5.256   4.116
 8944SOL    HW127731   4.877   5.187   4.185
 8944SOL    HW227732   4.840   5.243   4.036
 8945SOL     OW27733   6.818   2.119   4.733
 8945SOL    HW127734   6.724   2.118   4.699
 8945SOL    HW227735   6.838   2.208   4.774
 8946SOL     OW27736   3.534   0.705   4.136
 8946SOL    HW127737   3.512   0.612   4.107
 8946SOL    HW227738   3.501   0.721   4.228
 8947SOL     OW27739   2.095   3.642   6.028
 8947SOL    HW127740   2.152   3.723   6.024
 8947SOL    HW227741   2.005   3.662   5.991
 8948SOL     OW27742   6.005   5.954   3.027
 8948SOL    HW127743   6.053   5.891   2.966
 8948SOL    HW227744   6.064   5.976   3.105
 8949SOL     OW27745   4.023   5.802   0.499
 8949SOL    HW127746   4.066   5.858   0.427
 8949SOL    HW227747   3.924   5.812   0.493
 8950SOL     OW27748   4.523   3.361   1.329
 8950SOL    HW127749   4.527   3.457   1.357
 8950SOL    HW227750   4.442   3.318   1.369
 8951SOL     OW27751   2.216   1.100   4.320
 8951SOL    HW127752   2.202   1.149   4.406
 8951SOL    HW227753   2.153   1.022   4.315
 8952SOL     OW27754   1.113   5.410   2.907
 8952SOL    HW127755   1.066   5.389   2.821
 8952SOL    HW227756   1.088   5.342   2.976
 8953SOL     OW27757   1.542   4.351   1.031
 8953SOL    HW127758   1.579   4.258   1.031
 8953SOL    HW227759   1.450   4.351   0.991
 8954SOL     OW27760   0.153   6.906   3.843
 8954SOL    HW127761   0.192   6.815   3.857
 8954SOL    HW227762   0.087   6.903   3.768
 8955SOL     OW27763   0.056   3.332   2.608
 8955SOL    HW127764   0.052   3.348   2.707
 8955SOL    HW227765   7.009   3.383   2.564
 8956SOL     OW27766   0.900   0.919   5.976
 8956SOL    HW127767   0.843   0.907   5.895
 8956SOL    HW227768   0.974   0.852   5.975
 8957SOL     OW27769   2.157   4.810   1.182
 8957SOL    HW127770   2.134   4.890   1.127
 8957SOL    HW227771   2.086   4.740   1.170
 8958SOL     OW27772   1.205   2.357   5.231
 8958SOL    HW127773   1.209   2.285   5.162
 8958SOL    HW227774   1.225   2.445   5.189
 8959SOL     OW27775   1.465   3.280   2.691
 8959SOL    HW127776   1.486   3.378   2.687
 8959SOL    HW227777   1.476   3.240   2.600
 8960SOL     OW27778   6.276   5.712   3.267
 8960SOL    HW127779   6.216   5.746   3.195
 8960SOL    HW227780   6.224   5.654   3.330
 8961SOL     OW27781   4.250   1.846   3.935
 8961SOL    HW127782   4.267   1.781   4.009
 8961SOL    HW227783   4.152   1.865   3.930
 8962SOL     OW27784   0.220   6.161   1.476
 8962SOL    HW127785   0.177   6.152   1.387
 8962SOL    HW227786   0.305   6.108   1.477
 8963SOL     OW27787   3.285   6.748   4.931
 8963SOL    HW127788   3.188   6.724   4.930
 8963SOL    HW227789   3.298   6.831   4.986
 8964SOL     OW27790   5.220   3.821   2.793
 8964SOL    HW127791   5.259   3.802   2.703
 8964SOL    HW227792   5.131   3.777   2.801
 8965SOL     OW27793   3.652   5.383   0.624
 8965SOL    HW127794   3.566   5.342   0.593
 8965SOL    HW227795   3.728   5.341   0.576
 8966SOL     OW27796   6.876   4.848   6.531
 8966SOL    HW127797   6.858   4.760   6.488
 8966SOL    HW227798   6.862   4.921   6.465
 8967SOL     OW27799   4.680   1.480   3.357
 8967SOL    HW127800   4.591   1.473   3.402
 8967SOL    HW227801   4.744   1.527   3.418
 8968SOL     OW27802   3.290   5.394   2.406
 8968SOL    HW127803   3.191   5.402   2.418
 8968SOL    HW227804   3.336   5.467   2.456
 8969SOL     OW27805   0.009   0.869   3.821
 8969SOL    HW127806   0.068   0.848   3.743
 8969SOL    HW227807   6.940   0.856   3.795
 8970SOL     OW27808   1.426   2.377   0.522
 8970SOL    HW127809   1.403   2.279   0.525
 8970SOL    HW227810   1.442   2.405   0.428
 8971SOL     OW27811   5.459   6.816   1.688
 8971SOL    HW127812   5.488   6.911   1.694
 8971SOL    HW227813   5.415   6.800   1.600
 8972SOL     OW27814   5.363   4.129   0.025
 8972SOL    HW127815   5.294   4.155   0.094
 8972SOL    HW227816   5.454   4.138   0.064
 8973SOL     OW27817   0.267   2.695   2.347
 8973SOL    HW127818   0.192   2.645   2.390
 8973SOL    HW227819   0.353   2.674   2.394
 8974SOL     OW27820   1.882   3.900   3.870
 8974SOL    HW127821   1.979   3.873   3.872
 8974SOL    HW227822   1.861   3.942   3.782
 8975SOL     OW27823   0.915   6.700   6.889
 8975SOL    HW127824   0.972   6.693   6.807
 8975SOL    HW227825   0.823   6.667   6.868
 8976SOL     OW27826   0.059   6.429   0.772
 8976SOL    HW127827   0.011   6.512   0.799
 8976SOL    HW227828   0.025   6.352   0.827
 8977SOL     OW27829   6.918   4.048   6.461
 8977SOL    HW127830   6.932   4.146   6.476
 8977SOL    HW227831   6.974   4.018   6.384
 8978SOL     OW27832   5.008   6.530   4.927
 8978SOL    HW127833   5.004   6.510   4.829
 8978SOL    HW227834   4.991   6.627   4.942
 8979SOL     OW27835   1.213   5.428   6.166
 8979SOL    HW127836   1.142   5.379   6.217
 8979SOL    HW227837   1.174   5.466   6.082
 8980SOL     OW27838   5.592   2.149   5.740
 8980SOL    HW127839   5.513   2.146   5.679
 8980SOL    HW227840   5.594   2.065   5.796
 8981SOL     OW27841   4.950   1.935   5.844
 8981SOL    HW127842   4.856   1.920   5.815
 8981SOL    HW227843   4.954   2.006   5.914
 8982SOL     OW27844   7.012   2.175   1.324
 8982SOL    HW127845   6.926   2.212   1.358
 8982SOL    HW227846   0.060   2.236   1.351
 8983SOL     OW27847   1.040   5.256   1.355
 8983SOL    HW127848   1.069   5.162   1.375
 8983SOL    HW227849   1.080   5.285   1.268
 8984SOL     OW27850   5.967   0.402   4.542
 8984SOL    HW127851   5.936   0.449   4.625
 8984SOL    HW227852   6.053   0.355   4.561
 8985SOL     OW27853   3.418   2.260   1.207
 8985SOL    HW127854   3.329   2.281   1.249
 8985SOL    HW227855   3.421   2.301   1.116
 8986SOL     OW27856   5.549   4.435   2.598
 8986SOL    HW127857   5.624   4.426   2.531
 8986SOL    HW227858   5.587   4.435   2.690
 8987SOL     OW27859   3.248   0.447   1.036
 8987SOL    HW127860   3.274   0.376   1.101
 8987SOL    HW227861   3.271   0.537   1.073
 8988SOL     OW27862   2.073   5.565   0.240
 8988SOL    HW127863   1.974   5.556   0.231
 8988SOL    HW227864   2.095   5.655   0.277
 8989SOL     OW27865   4.858   3.244   2.752
 8989SOL    HW127866   4.832   3.222   2.658
 8989SOL    HW227867   4.853   3.161   2.808
 8990SOL     OW27868   1.955   5.946   1.858
 8990SOL    HW127869   1.893   6.024   1.859
 8990SOL    HW227870   1.907   5.865   1.825
 8991SOL     OW27871   2.780   2.032   1.403
 8991SOL    HW127872   2.686   2.005   1.383
 8991SOL    HW227873   2.842   1.982   1.343
 8992SOL     OW27874   0.428   2.783   0.403
 8992SOL    HW127875   0.491   2.712   0.370
 8992SOL    HW227876   0.474   2.838   0.473
 8993SOL     OW27877   5.260   2.480   2.870
 8993SOL    HW127878   5.197   2.551   2.901
 8993SOL    HW227879   5.220   2.431   2.792
 8994SOL     OW27880   1.606   5.119   3.870
 8994SOL    HW127881   1.654   5.100   3.784
 8994SOL    HW227882   1.651   5.195   3.917
 8995SOL     OW27883   1.340   2.464   4.998
 8995SOL    HW127884   1.302   2.381   4.958
 8995SOL    HW227885   1.439   2.464   4.985
 8996SOL     OW27886   0.728   3.876   2.016
 8996SOL    HW127887   0.684   3.786   2.008
 8996SOL    HW227888   0.732   3.903   2.112
 8997SOL     OW27889   5.097   0.793   6.638
 8997SOL    HW127890   5.081   0.861   6.710
 8997SOL    HW227891   5.184   0.748   6.655
 8998SOL     OW27892   0.250   1.815   4.709
 8998SOL    HW127893   0.229   1.719   4.728
 8998SOL    HW227894   0.224   1.836   4.615
 8999SOL     OW27895   4.894   0.814   6.942
 8999SOL    HW127896   4.993   0.817   6.958
 8999SOL    HW227897   4.867   0.720   6.919
 9000SOL     OW27898   2.702   4.187   6.375
 9000SOL    HW127899   2.687   4.179   6.277
 9000SOL    HW227900   2.722   4.096   6.413
 9001SOL     OW27901   1.200   5.027   2.886
 9001SOL    HW127902   1.104   5.006   2.908
 9001SOL    HW227903   1.256   5.017   2.969
 9002SOL     OW27904   0.590   5.309   5.789
 9002SOL    HW127905   0.588   5.406   5.766
 9002SOL    HW227906   0.528   5.293   5.866
 9003SOL     OW27907   5.990   2.247   1.163
 9003SOL    HW127908   5.948   2.164   1.202
 9003SOL    HW227909   6.036   2.297   1.236
 9004SOL     OW27910   4.683   6.461   1.939
 9004SOL    HW127911   4.605   6.503   1.893
 9004SOL    HW227912   4.748   6.427   1.871
 9005SOL     OW27913   5.479   2.180   3.304
 9005SOL    HW127914   5.386   2.144   3.294
 9005SOL    HW227915   5.542   2.124   3.250
 9006SOL     OW27916   1.124   5.958   0.867
 9006SOL    HW127917   1.087   6.037   0.817
 9006SOL    HW227918   1.050   5.902   0.901
 9007SOL     OW27919   3.490   5.480   3.985
 9007SOL    HW127920   3.502   5.383   3.961
 9007SOL    HW227921   3.580   5.522   3.998
 9008SOL     OW27922   6.180   5.166   2.798
 9008SOL    HW127923   6.260   5.138   2.745
 9008SOL    HW227924   6.154   5.259   2.771
 9009SOL     OW27925   3.368   6.928   0.759
 9009SOL    HW127926   3.377   6.830   0.739
 9009SOL    HW227927   3.283   6.944   0.809
 9010SOL     OW27928   0.639   6.762   4.847
 9010SOL    HW127929   0.567   6.722   4.790
 9010SOL    HW227930   0.647   6.708   4.931
 9011SOL     OW27931   3.683   2.434   1.189
 9011SOL    HW127932   3.776   2.407   1.215
 9011SOL    HW227933   3.672   2.422   1.090
 9012SOL     OW27934   2.544   5.133   0.564
 9012SOL    HW127935   2.508   5.046   0.530
 9012SOL    HW227936   2.639   5.143   0.536
 9013SOL     OW27937   6.356   5.915   5.055
 9013SOL    HW127938   6.323   6.009   5.055
 9013SOL    HW227939   6.356   5.879   4.962
 9014SOL     OW27940   1.251   1.636   0.697
 9014SOL    HW127941   1.225   1.545   0.666
 9014SOL    HW227942   1.264   1.696   0.618
 9015SOL     OW27943   6.222   0.958   6.917
 9015SOL    HW127944   6.222   0.859   6.935
 9015SOL    HW227945   6.236   0.974   6.820
 9016SOL     OW27946   6.282   6.155   5.942
 9016SOL    HW127947   6.358   6.108   5.896
 9016SOL    HW227948   6.294   6.148   6.041
 9017SOL     OW27949   5.703   2.024   3.214
 9017SOL    HW127950   5.774   1.953   3.217
 9017SOL    HW227951   5.735   2.101   3.158
 9018SOL     OW27952   3.983   1.433   5.490
 9018SOL    HW127953   4.042   1.512   5.503
 9018SOL    HW227954   3.915   1.429   5.563
 9019SOL     OW27955   1.615   6.729   0.851
 9019SOL    HW127956   1.520   6.697   0.848
 9019SOL    HW227957   1.629   6.801   0.784
 9020SOL     OW27958   1.770   3.875   2.032
 9020SOL    HW127959   1.829   3.809   1.985
 9020SOL    HW227960   1.732   3.833   2.114
 9021SOL     OW27961   6.673   0.293   3.917
 9021SOL    HW127962   6.746   0.245   3.966
 9021SOL    HW227963   6.652   0.245   3.832
 9022SOL     OW27964   2.716   0.446   0.583
 9022SOL    HW127965   2.684   0.449   0.488
 9022SOL    HW227966   2.792   0.510   0.595
 9023SOL     OW27967   3.844   3.376   3.366
 9023SOL    HW127968   3.831   3.399   3.269
 9023SOL    HW227969   3.918   3.432   3.403
 9024SOL     OW27970   1.845   5.728   6.373
 9024SOL    HW127971   1.918   5.660   6.361
 9024SOL    HW227972   1.765   5.699   6.320
 9025SOL     OW27973   6.074   5.970   1.149
 9025SOL    HW127974   6.152   6.017   1.108
 9025SOL    HW227975   6.055   5.886   1.098
 9026SOL     OW27976   3.684   3.409   3.707
 9026SOL    HW127977   3.613   3.339   3.703
 9026SOL    HW227978   3.774   3.366   3.707
 9027SOL     OW27979   2.586   1.983   3.771
 9027SOL    HW127980   2.613   1.922   3.696
 9027SOL    HW227981   2.661   1.987   3.838
 9028SOL     OW27982   2.593   4.642   6.515
 9028SOL    HW127983   2.494   4.636   6.526
 9028SOL    HW227984   2.618   4.608   6.424
 9029SOL     OW27985   3.816   5.293   4.685
 9029SOL    HW127986   3.865   5.294   4.598
 9029SOL    HW227987   3.729   5.246   4.674
 9030SOL     OW27988   1.879   1.057   2.684
 9030SOL    HW127989   1.805   1.117   2.652
 9030SOL    HW227990   1.893   0.984   2.617
 9031SOL     OW27991   3.221   5.278   5.466
 9031SOL    HW127992   3.314   5.295   5.434
 9031SOL    HW227993   3.201   5.337   5.544
 9032SOL     OW27994   3.975   2.508   0.677
 9032SOL    HW127995   3.916   2.574   0.630
 9032SOL    HW227996   3.961   2.417   0.639
 9033SOL     OW27997   1.305   3.305   3.768
 9033SOL    HW127998   1.205   3.304   3.770
 9033SOL    HW227999   1.340   3.288   3.860
 9034SOL     OW28000   2.697   6.420   5.175
 9034SOL    HW128001   2.638   6.459   5.105
 9034SOL    HW228002   2.641   6.391   5.253
 9035SOL     OW28003   0.211   6.472   4.927
 9035SOL    HW128004   0.247   6.525   5.003
 9035SOL    HW228005   0.280   6.406   4.896
 9036SOL     OW28006   1.832   2.100   4.867
 9036SOL    HW128007   1.901   2.140   4.807
 9036SOL    HW228008   1.877   2.057   4.945
 9037SOL     OW28009   1.545   3.448   6.647
 9037SOL    HW128010   1.606   3.416   6.574
 9037SOL    HW228011   1.598   3.461   6.731
 9038SOL     OW28012   5.225   0.369   5.608
 9038SOL    HW128013   5.293   0.347   5.679
 9038SOL    HW228014   5.239   0.463   5.577
 9039SOL     OW28015   1.867   4.564   4.990
 9039SOL    HW128016   1.876   4.644   4.931
 9039SOL    HW228017   1.771   4.536   4.994
 9040SOL     OW28018   3.213   1.501   3.705
 9040SOL    HW128019   3.203   1.403   3.723
 9040SOL    HW228020   3.307   1.528   3.728
 9041SOL     OW28021   0.963   2.069   1.861
 9041SOL    HW128022   1.008   2.025   1.783
 9041SOL    HW228023   0.977   2.012   1.943
 9042SOL     OW28024   2.686   6.275   3.606
 9042SOL    HW128025   2.644   6.363   3.631
 9042SOL    HW228026   2.779   6.271   3.642
 9043SOL     OW28027   2.209   1.480   5.641
 9043SOL    HW128028   2.284   1.545   5.633
 9043SOL    HW228029   2.168   1.464   5.551
 9044SOL     OW28030   6.313   1.311   1.361
 9044SOL    HW128031   6.227   1.269   1.335
 9044SOL    HW228032   6.389   1.259   1.322
 9045SOL     OW28033   3.408   1.530   2.119
 9045SOL    HW128034   3.352   1.611   2.100
 9045SOL    HW228035   3.348   1.454   2.144
 9046SOL     OW28036   3.293   4.159   4.744
 9046SOL    HW128037   3.351   4.175   4.824
 9046SOL    HW228038   3.309   4.230   4.675
 9047SOL     OW28039   1.741   4.082   5.415
 9047SOL    HW128040   1.681   4.090   5.494
 9047SOL    HW228041   1.786   3.992   5.416
 9048SOL     OW28042   0.241   3.235   6.107
 9048SOL    HW128043   0.174   3.198   6.171
 9048SOL    HW228044   0.316   3.277   6.157
 9049SOL     OW28045   4.987   6.461   6.703
 9049SOL    HW128046   4.915   6.528   6.687
 9049SOL    HW228047   4.968   6.412   6.788
 9050SOL     OW28048   1.396   5.513   6.359
 9050SOL    HW128049   1.369   5.480   6.450
 9050SOL    HW228050   1.323   5.494   6.294
 9051SOL     OW28051   4.473   6.364   0.834
 9051SOL    HW128052   4.438   6.454   0.862
 9051SOL    HW228053   4.424   6.333   0.753
 9052SOL     OW28054   2.208   4.001   4.375
 9052SOL    HW128055   2.258   4.034   4.455
 9052SOL    HW228056   2.114   3.981   4.401
 9053SOL     OW28057   2.415   1.562   3.720
 9053SOL    HW128058   2.439   1.611   3.637
 9053SOL    HW228059   2.320   1.581   3.745
 9054SOL     OW28060   1.688   0.823   1.978
 9054SOL    HW128061   1.711   0.847   1.884
 9054SOL    HW228062   1.624   0.746   1.977
 9055SOL     OW28063   0.345   3.982   3.603
 9055SOL    HW128064   0.428   3.950   3.558
 9055SOL    HW228065   0.355   3.974   3.702
 9056SOL     OW28066   5.054   0.187   2.004
 9056SOL    HW128067   5.003   0.147   1.929
 9056SOL    HW228068   4.994   0.247   2.057
 9057SOL     OW28069   6.600   4.707   5.903
 9057SOL    HW128070   6.539   4.693   5.825
 9057SOL    HW228071   6.553   4.679   5.987
 9058SOL     OW28072   2.528   1.511   3.946
 9058SOL    HW128073   2.501   1.555   4.031
 9058SOL    HW228074   2.485   1.558   3.869
 9059SOL     OW28075   0.046   0.445   3.371
 9059SOL    HW128076   0.125   0.387   3.389
 9059SOL    HW228077   0.009   0.480   3.457
 9060SOL     OW28078   6.593   4.107   2.513
 9060SOL    HW128079   6.571   4.164   2.592
 9060SOL    HW228080   6.674   4.144   2.468
 9061SOL     OW28081   4.392   5.599   2.735
 9061SOL    HW128082   4.458   5.662   2.776
 9061SOL    HW228083   4.312   5.649   2.703
 9062SOL     OW28084   0.832   4.750   2.517
 9062SOL    HW128085   0.881   4.663   2.526
 9062SOL    HW228086   0.817   4.789   2.607
 9063SOL     OW28087   3.068   0.640   2.156
 9063SOL    HW128088   3.057   0.547   2.191
 9063SOL    HW228089   2.997   0.699   2.196
 9064SOL     OW28090   6.261   4.390   4.140
 9064SOL    HW128091   6.287   4.307   4.091
 9064SOL    HW228092   6.220   4.455   4.076
 9065SOL     OW28093   2.801   6.228   6.445
 9065SOL    HW128094   2.744   6.153   6.413
 9065SOL    HW228095   2.861   6.259   6.372
 9066SOL     OW28096   5.987   0.312   6.127
 9066SOL    HW128097   5.890   0.302   6.146
 9066SOL    HW228098   6.040   0.269   6.200
 9067SOL     OW28099   5.933   6.144   4.601
 9067SOL    HW128100   5.971   6.140   4.508
 9067SOL    HW228101   5.834   6.154   4.596
 9068SOL     OW28102   3.153   0.375   5.250
 9068SOL    HW128103   3.190   0.429   5.175
 9068SOL    HW228104   3.159   0.427   5.335
 9069SOL     OW28105   3.918   2.162   2.223
 9069SOL    HW128106   3.842   2.176   2.160
 9069SOL    HW228107   3.883   2.161   2.317
 9070SOL     OW28108   1.434   2.986   6.269
 9070SOL    HW128109   1.470   3.059   6.211
 9070SOL    HW228110   1.401   2.911   6.212
 9071SOL     OW28111   5.116   6.961   6.914
 9071SOL    HW128112   5.097   6.874   6.960
 9071SOL    HW228113   5.074   6.961   6.824
 9072SOL     OW28114   5.144   0.051   1.590
 9072SOL    HW128115   5.240   0.049   1.561
 9072SOL    HW228116   5.089   0.093   1.517
 9073SOL     OW28117   3.664   6.831   1.397
 9073SOL    HW128118   3.627   6.821   1.305
 9073SOL    HW228119   3.612   6.773   1.460
 9074SOL     OW28120   1.875   0.594   1.323
 9074SOL    HW128121   1.857   0.609   1.420
 9074SOL    HW228122   1.870   0.496   1.304
 9075SOL     OW28123   0.379   0.317   1.822
 9075SOL    HW128124   0.324   0.279   1.897
 9075SOL    HW228125   0.452   0.374   1.860
 9076SOL     OW28126   4.988   1.760   4.580
 9076SOL    HW128127   4.977   1.809   4.493
 9076SOL    HW228128   5.086   1.755   4.603
 9077SOL     OW28129   5.069   1.275   6.649
 9077SOL    HW128130   5.104   1.232   6.732
 9077SOL    HW228131   5.001   1.344   6.673
 9078SOL     OW28132   4.796   4.194   6.903
 9078SOL    HW128133   4.748   4.108   6.886
 9078SOL    HW228134   4.732   4.270   6.900
 9079SOL     OW28135   1.586   6.770   5.029
 9079SOL    HW128136   1.503   6.826   5.025
 9079SOL    HW228137   1.666   6.829   5.013
 9080SOL     OW28138   6.083   2.752   0.111
 9080SOL    HW128139   6.137   2.805   0.177
 9080SOL    HW228140   5.997   2.725   0.154
 9081SOL     OW28141   3.489   1.031   2.128
 9081SOL    HW128142   3.533   0.995   2.046
 9081SOL    HW228143   3.392   1.006   2.127
 9082SOL     OW28144   2.071   6.251   5.497
 9082SOL    HW128145   2.124   6.271   5.580
 9082SOL    HW228146   2.052   6.336   5.448
 9083SOL     OW28147   3.819   4.235   6.121
 9083SOL    HW128148   3.720   4.243   6.123
 9083SOL    HW228149   3.858   4.276   6.203
 9084SOL     OW28150   1.555   2.273   6.408
 9084SOL    HW128151   1.501   2.357   6.411
 9084SOL    HW228152   1.534   2.223   6.324
 9085SOL     OW28153   2.172   5.585   1.361
 9085SOL    HW128154   2.231   5.522   1.311
 9085SOL    HW228155   2.094   5.535   1.399
 9086SOL     OW28156   6.074   4.223   1.510
 9086SOL    HW128157   6.071   4.167   1.593
 9086SOL    HW228158   5.985   4.265   1.494
 9087SOL     OW28159   5.130   3.056   1.855
 9087SOL    HW128160   5.072   2.996   1.800
 9087SOL    HW228161   5.073   3.112   1.915
 9088SOL     OW28162   6.640   6.624   0.801
 9088SOL    HW128163   6.655   6.535   0.758
 9088SOL    HW228164   6.660   6.619   0.899
 9089SOL     OW28165   3.755   6.066   5.830
 9089SOL    HW128166   3.791   5.986   5.781
 9089SOL    HW228167   3.776   6.148   5.777
 9090SOL     OW28168   5.448   6.923   3.690
 9090SOL    HW128169   5.385   6.982   3.740
 9090SOL    HW228170   5.520   6.979   3.648
 9091SOL     OW28171   2.528   3.331   0.579
 9091SOL    HW128172   2.548   3.393   0.504
 9091SOL    HW228173   2.613   3.291   0.613
 9092SOL     OW28174   0.576   1.653   6.991
 9092SOL    HW128175   0.497   1.604   6.954
 9092SOL    HW228176   0.648   1.658   6.922
 9093SOL     OW28177   1.381   6.204   6.329
 9093SOL    HW128178   1.479   6.201   6.308
 9093SOL    HW228179   1.365   6.156   6.415
 9094SOL     OW28180   0.660   5.368   2.711
 9094SOL    HW128181   0.639   5.421   2.628
 9094SOL    HW228182   0.709   5.427   2.775
 9095SOL     OW28183   3.946   3.756   6.249
 9095SOL    HW128184   3.971   3.724   6.340
 9095SOL    HW228185   3.847   3.760   6.241
 9096SOL     OW28186   5.820   3.983   2.347
 9096SOL    HW128187   5.761   4.032   2.284
 9096SOL    HW228188   5.766   3.918   2.401
 9097SOL     OW28189   0.682   2.862   6.686
 9097SOL    HW128190   0.705   2.957   6.665
 9097SOL    HW228191   0.615   2.828   6.621
 9098SOL     OW28192   3.610   2.876   6.702
 9098SOL    HW128193   3.559   2.797   6.669
 9098SOL    HW228194   3.651   2.855   6.791
 9099SOL     OW28195   3.889   4.130   0.771
 9099SOL    HW128196   3.796   4.168   0.780
 9099SOL    HW228197   3.888   4.058   0.702
 9100SOL     OW28198   1.208   3.254   3.208
 9100SOL    HW128199   1.124   3.243   3.155
 9100SOL    HW228200   1.194   3.219   3.300
 9101SOL     OW28201   2.226   3.055   3.146
 9101SOL    HW128202   2.324   3.045   3.131
 9101SOL    HW228203   2.179   3.050   3.058
 9102SOL     OW28204   3.468   6.669   2.138
 9102SOL    HW128205   3.445   6.640   2.231
 9102SOL    HW228206   3.392   6.647   2.076
 9103SOL     OW28207   6.564   3.949   0.025
 9103SOL    HW128208   6.608   3.960   6.963
 9103SOL    HW228209   6.483   3.891   0.016
 9104SOL     OW28210   4.820   6.684   3.214
 9104SOL    HW128211   4.754   6.611   3.195
 9104SOL    HW228212   4.861   6.715   3.128
 9105SOL     OW28213   1.605   1.043   0.704
 9105SOL    HW128214   1.645   1.132   0.723
 9105SOL    HW228215   1.517   1.035   0.751
 9106SOL     OW28216   6.661   4.435   0.355
 9106SOL    HW128217   6.666   4.466   0.450
 9106SOL    HW228218   6.692   4.340   0.350
 9107SOL     OW28219   2.980   0.481   6.072
 9107SOL    HW128220   3.057   0.544   6.082
 9107SOL    HW228221   2.971   0.426   6.155
 9108SOL     OW28222   5.076   4.024   6.004
 9108SOL    HW128223   5.093   4.119   6.031
 9108SOL    HW228224   5.072   3.967   6.086
 9109SOL     OW28225   0.956   2.577   2.971
 9109SOL    HW128226   0.922   2.531   2.889
 9109SOL    HW228227   0.885   2.638   3.007
 9110SOL     OW28228   1.869   4.148   4.090
 9110SOL    HW128229   1.916   4.096   4.018
 9110SOL    HW228230   1.809   4.086   4.141
 9111SOL     OW28231   4.289   2.765   0.162
 9111SOL    HW128232   4.248   2.856   0.160
 9111SOL    HW228233   4.387   2.772   0.147
 9112SOL     OW28234   1.002   4.832   5.249
 9112SOL    HW128235   1.101   4.829   5.258
 9112SOL    HW228236   0.969   4.924   5.270
 9113SOL     OW28237   4.640   0.097   1.572
 9113SOL    HW128238   4.591   0.151   1.641
 9113SOL    HW228239   4.719   0.053   1.613
 9114SOL     OW28240   1.298   4.829   1.733
 9114SOL    HW128241   1.209   4.871   1.748
 9114SOL    HW228242   1.285   4.736   1.698
 9115SOL     OW28243   1.263   4.890   5.376
 9115SOL    HW128244   1.345   4.914   5.325
 9115SOL    HW228245   1.289   4.847   5.462
 9116SOL     OW28246   6.319   1.166   0.017
 9116SOL    HW128247   6.301   1.092   6.979
 9116SOL    HW228248   6.389   1.226   7.006
 9117SOL     OW28249   5.700   2.886   0.319
 9117SOL    HW128250   5.784   2.939   0.311
 9117SOL    HW228251   5.637   2.933   0.381
 9118SOL     OW28252   6.542   5.097   0.180
 9118SOL    HW128253   6.558   5.008   0.222
 9118SOL    HW228254   6.623   5.154   0.191
 9119SOL     OW28255   4.861   0.449   1.739
 9119SOL    HW128256   4.816   0.536   1.758
 9119SOL    HW228257   4.819   0.377   1.795
 9120SOL     OW28258   5.932   1.938   5.777
 9120SOL    HW128259   5.953   1.983   5.690
 9120SOL    HW228260   6.006   1.875   5.802
 9121SOL     OW28261   2.471   2.349   5.628
 9121SOL    HW128262   2.529   2.400   5.563
 9121SOL    HW228263   2.378   2.346   5.593
 9122SOL     OW28264   1.839   4.257   2.271
 9122SOL    HW128265   1.856   4.182   2.335
 9122SOL    HW228266   1.830   4.342   2.322
 9123SOL     OW28267   3.252   0.388   4.420
 9123SOL    HW128268   3.345   0.388   4.383
 9123SOL    HW228269   3.217   0.294   4.424
 9124SOL     OW28270   5.488   6.654   6.912
 9124SOL    HW128271   5.460   6.564   6.881
 9124SOL    HW228272   5.408   6.703   6.949
 9125SOL     OW28273   5.223   4.513   1.463
 9125SOL    HW128274   5.208   4.583   1.533
 9125SOL    HW228275   5.138   4.498   1.413
 9126SOL     OW28276   5.850   2.656   1.470
 9126SOL    HW128277   5.789   2.579   1.488
 9126SOL    HW228278   5.875   2.658   1.374
 9127SOL     OW28279   6.382   1.424   6.219
 9127SOL    HW128280   6.388   1.520   6.246
 9127SOL    HW228281   6.425   1.366   6.288
 9128SOL     OW28282   5.317   1.506   5.383
 9128SOL    HW128283   5.266   1.522   5.298
 9128SOL    HW228284   5.384   1.580   5.395
 9129SOL     OW28285   0.363   2.542   0.913
 9129SOL    HW128286   0.421   2.481   0.860
 9129SOL    HW228287   0.378   2.527   1.011
 9130SOL     OW28288   0.054   3.249   0.774
 9130SOL    HW128289   0.097   3.300   0.700
 9130SOL    HW228290   0.087   3.155   0.773
 9131SOL     OW28291   6.110   3.074   5.445
 9131SOL    HW128292   6.164   3.152   5.414
 9131SOL    HW228293   6.013   3.099   5.446
 9132SOL     OW28294   1.001   5.261   4.406
 9132SOL    HW128295   1.053   5.264   4.321
 9132SOL    HW228296   1.056   5.218   4.477
 9133SOL     OW28297   3.935   5.732   2.570
 9133SOL    HW128298   3.915   5.739   2.472
 9133SOL    HW228299   3.852   5.751   2.622
 9134SOL     OW28300   4.976   5.451   0.455
 9134SOL    HW128301   4.920   5.508   0.516
 9134SOL    HW228302   4.949   5.355   0.465
 9135SOL     OW28303   6.650   6.632   1.431
 9135SOL    HW128304   6.682   6.717   1.473
 9135SOL    HW228305   6.693   6.554   1.476
 9136SOL     OW28306   5.556   5.212   5.791
 9136SOL    HW128307   5.541   5.151   5.714
 9136SOL    HW228308   5.486   5.284   5.792
 9137SOL     OW28309   4.811   1.645   1.402
 9137SOL    HW128310   4.880   1.667   1.333
 9137SOL    HW228311   4.835   1.559   1.447
 9138SOL     OW28312   0.454   5.525   5.972
 9138SOL    HW128313   0.519   5.494   6.041
 9138SOL    HW228314   0.488   5.608   5.928
 9139SOL     OW28315   2.563   1.492   4.462
 9139SOL    HW128316   2.564   1.392   4.461
 9139SOL    HW228317   2.643   1.526   4.512
 9140SOL     OW28318   6.413   3.649   2.963
 9140SOL    HW128319   6.342   3.619   3.027
 9140SOL    HW228320   6.478   3.575   2.947
 9141SOL     OW28321   5.948   0.361   0.010
 9141SOL    HW128322   6.018   0.290   0.021
 9141SOL    HW228323   5.858   0.318   0.007
 9142SOL     OW28324   0.266   2.662   1.410
 9142SOL    HW128325   0.192   2.622   1.465
 9142SOL    HW228326   0.350   2.664   1.464
 9143SOL     OW28327   6.422   3.158   0.443
 9143SOL    HW128328   6.470   3.079   0.480
 9143SOL    HW228329   6.487   3.218   0.395
 9144SOL     OW28330   2.235   5.338   5.300
 9144SOL    HW128331   2.296   5.383   5.365
 9144SOL    HW228332   2.251   5.375   5.208
 9145SOL     OW28333   0.011   5.626   0.242
 9145SOL    HW128334   0.037   5.625   0.145
 9145SOL    HW228335   6.958   5.685   0.254
 9146SOL     OW28336   5.434   2.940   2.943
 9146SOL    HW128337   5.421   2.856   2.891
 9146SOL    HW228338   5.526   2.976   2.928
 9147SOL     OW28339   6.147   0.748   4.614
 9147SOL    HW128340   6.181   0.786   4.528
 9147SOL    HW228341   6.053   0.778   4.629
 9148SOL     OW28342   4.880   5.769   1.141
 9148SOL    HW128343   4.940   5.694   1.168
 9148SOL    HW228344   4.793   5.733   1.109
 9149SOL     OW28345   6.033   3.471   3.316
 9149SOL    HW128346   5.981   3.415   3.252
 9149SOL    HW228347   6.090   3.536   3.265
 9150SOL     OW28348   3.094   5.317   1.635
 9150SOL    HW128349   3.025   5.246   1.622
 9150SOL    HW228350   3.168   5.304   1.569
 9151SOL     OW28351   2.015   4.443   3.444
 9151SOL    HW128352   2.057   4.355   3.422
 9151SOL    HW228353   2.085   4.514   3.447
 9152SOL     OW28354   1.927   4.186   4.579
 9152SOL    HW128355   1.852   4.167   4.643
 9152SOL    HW228356   1.983   4.260   4.614
 9153SOL     OW28357   1.467   3.532   0.075
 9153SOL    HW128358   1.488   3.438   0.046
 9153SOL    HW228359   1.431   3.583   7.023
 9154SOL     OW28360   4.059   4.373   6.813
 9154SOL    HW128361   4.122   4.300   6.838
 9154SOL    HW228362   4.007   4.401   6.893
 9155SOL     OW28363   1.499   3.993   2.107
 9155SOL    HW128364   1.568   3.932   2.148
 9155SOL    HW228365   1.536   4.086   2.102
 9156SOL     OW28366   1.574   2.341   0.761
 9156SOL    HW128367   1.565   2.242   0.750
 9156SOL    HW228368   1.523   2.387   0.689
 9157SOL     OW28369   0.139   4.519   5.959
 9157SOL    HW128370   0.203   4.594   5.974
 9157SOL    HW228371   0.095   4.530   5.870
 9158SOL     OW28372   5.707   3.479   4.524
 9158SOL    HW128373   5.613   3.510   4.532
 9158SOL    HW228374   5.734   3.430   4.607
 9159SOL     OW28375   1.992   0.571   2.389
 9159SOL    HW128376   2.086   0.572   2.355
 9159SOL    HW228377   1.929   0.572   2.311
 9160SOL     OW28378   5.691   6.881   5.497
 9160SOL    HW128379   5.734   6.927   5.419
 9160SOL    HW228380   5.652   6.950   5.559
 9161SOL     OW28381   4.808   4.139   4.648
 9161SOL    HW128382   4.763   4.217   4.691
 9161SOL    HW228383   4.751   4.105   4.573
 9162SOL     OW28384   4.307   1.379   4.181
 9162SOL    HW128385   4.324   1.374   4.082
 9162SOL    HW228386   4.355   1.305   4.227
 9163SOL     OW28387   1.596   2.516   4.874
 9163SOL    HW128388   1.545   2.599   4.852
 9163SOL    HW228389   1.686   2.541   4.909
 9164SOL     OW28390   2.075   0.256   7.011
 9164SOL    HW128391   2.098   0.167   0.024
 9164SOL    HW228392   2.026   0.311   0.052
 9165SOL     OW28393   6.066   1.464   6.133
 9165SOL    HW128394   6.128   1.427   6.064
 9165SOL    HW228395   5.979   1.488   6.089
 9166SOL     OW28396   3.877   6.178   1.841
 9166SOL    HW128397   3.916   6.134   1.760
 9166SOL    HW228398   3.949   6.227   1.890
 9167SOL     OW28399   1.826   2.799   6.031
 9167SOL    HW128400   1.791   2.809   5.938
 9167SOL    HW228401   1.925   2.814   6.032
 9168SOL     OW28402   6.885   6.957   6.297
 9168SOL    HW128403   6.924   7.000   6.215
 9168SOL    HW228404   6.880   7.023   6.371
 9169SOL     OW28405   5.869   7.023   5.323
 9169SOL    HW128406   5.968   7.007   5.322
 9169SOL    HW228407   5.849   0.084   5.367
 9170SOL     OW28408   1.440   6.210   6.929
 9170SOL    HW128409   1.372   6.244   6.994
 9170SOL    HW228410   1.513   6.278   6.918
 9171SOL     OW28411   3.955   4.914   0.750
 9171SOL    HW128412   3.936   4.970   0.670
 9171SOL    HW228413   4.039   4.947   0.795
 9172SOL     OW28414   4.091   1.243   2.191
 9172SOL    HW128415   4.083   1.189   2.108
 9172SOL    HW228416   4.055   1.192   2.268
 9173SOL     OW28417   6.245   3.446   6.158
 9173SOL    HW128418   6.317   3.380   6.182
 9173SOL    HW228419   6.286   3.531   6.127
 9174SOL     OW28420   6.046   4.238   1.033
 9174SOL    HW128421   5.961   4.212   1.079
 9174SOL    HW228422   6.109   4.161   1.034
 9175SOL     OW28423   0.448   7.026   5.672
 9175SOL    HW128424   0.526   7.009   5.733
 9175SOL    HW228425   0.364   0.008   5.726
 9176SOL     OW28426   2.570   0.966   3.972
 9176SOL    HW128427   2.528   0.992   4.059
 9176SOL    HW228428   2.615   1.046   3.932
 9177SOL     OW28429   0.697   4.776   4.540
 9177SOL    HW128430   0.623   4.759   4.605
 9177SOL    HW228431   0.781   4.734   4.575
 9178SOL     OW28432   1.551   5.628   0.624
 9178SOL    HW128433   1.475   5.588   0.675
 9178SOL    HW228434   1.635   5.619   0.677
 9179SOL     OW28435   2.288   4.193   3.487
 9179SOL    HW128436   2.238   4.107   3.487
 9179SOL    HW228437   2.345   4.198   3.569
 9180SOL     OW28438   6.626   2.562   3.610
 9180SOL    HW128439   6.616   2.475   3.659
 9180SOL    HW228440   6.565   2.630   3.650
 9181SOL     OW28441   5.526   2.618   5.008
 9181SOL    HW128442   5.428   2.596   5.005
 9181SOL    HW228443   5.551   2.672   4.928
 9182SOL     OW28444   2.703   6.677   2.256
 9182SOL    HW128445   2.735   6.772   2.257
 9182SOL    HW228446   2.685   6.647   2.350
 9183SOL     OW28447   4.966   4.920   0.569
 9183SOL    HW128448   4.919   4.881   0.490
 9183SOL    HW228449   5.019   4.849   0.615
 9184SOL     OW28450   5.096   2.057   0.250
 9184SOL    HW128451   5.022   2.025   0.310
 9184SOL    HW228452   5.115   2.153   0.269
 9185SOL     OW28453   4.981   6.819   4.906
 9185SOL    HW128454   4.908   6.886   4.914
 9185SOL    HW228455   5.025   6.827   4.817
 9186SOL     OW28456   5.655   6.122   4.531
 9186SOL    HW128457   5.602   6.049   4.487
 9186SOL    HW228458   5.641   6.208   4.481
 9187SOL     OW28459   2.411   2.229   0.402
 9187SOL    HW128460   2.421   2.140   0.357
 9187SOL    HW228461   2.402   2.301   0.333
 9188SOL     OW28462   1.446   6.864   1.140
 9188SOL    HW128463   1.475   6.898   1.229
 9188SOL    HW228464   1.364   6.913   1.110
 9189SOL     OW28465   2.866   5.979   1.996
 9189SOL    HW128466   2.926   5.914   1.951
 9189SOL    HW228467   2.781   5.987   1.944
 9190SOL     OW28468   1.975   4.621   5.606
 9190SOL    HW128469   1.935   4.577   5.526
 9190SOL    HW228470   2.015   4.709   5.579
 9191SOL     OW28471   6.329   1.698   6.381
 9191SOL    HW128472   6.380   1.758   6.319
 9191SOL    HW228473   6.247   1.745   6.413
 9192SOL     OW28474   0.880   2.322   6.089
 9192SOL    HW128475   0.955   2.328   6.155
 9192SOL    HW228476   0.918   2.314   5.997
 9193SOL     OW28477   3.521   4.169   6.024
 9193SOL    HW128478   3.519   4.072   6.045
 9193SOL    HW228479   3.436   4.212   6.053
 9194SOL     OW28480   3.408   1.261   3.486
 9194SOL    HW128481   3.330   1.287   3.430
 9194SOL    HW228482   3.389   1.282   3.582
 9195SOL     OW28483   0.633   2.138   2.859
 9195SOL    HW128484   0.589   2.053   2.885
 9195SOL    HW228485   0.609   2.210   2.925
 9196SOL     OW28486   5.811   0.315   3.258
 9196SOL    HW128487   5.867   0.346   3.335
 9196SOL    HW228488   5.870   0.281   3.186
 9197SOL     OW28489   1.797   5.013   1.567
 9197SOL    HW128490   1.709   4.970   1.589
 9197SOL    HW228491   1.843   4.959   1.496
 9198SOL     OW28492   6.516   4.654   6.685
 9198SOL    HW128493   6.550   4.560   6.696
 9198SOL    HW228494   6.442   4.670   6.751
 9199SOL     OW28495   0.607   3.538   5.069
 9199SOL    HW128496   0.600   3.445   5.034
 9199SOL    HW228497   0.556   3.601   5.010
 9200SOL     OW28498   3.446   6.207   0.110
 9200SOL    HW128499   3.465   6.304   0.127
 9200SOL    HW228500   3.389   6.170   0.183
 9201SOL     OW28501   0.379   3.510   0.661
 9201SOL    HW128502   0.343   3.417   0.654
 9201SOL    HW228503   0.364   3.559   0.575
 9202SOL     OW28504   0.984   6.243   2.667
 9202SOL    HW128505   1.029   6.216   2.581
 9202SOL    HW228506   1.017   6.332   2.696
 9203SOL     OW28507   0.036   3.396   5.809
 9203SOL    HW128508   0.035   3.494   5.790
 9203SOL    HW228509   0.125   3.358   5.785
 9204SOL     OW28510   4.751   2.828   5.384
 9204SOL    HW128511   4.815   2.862   5.453
 9204SOL    HW228512   4.658   2.850   5.412
 9205SOL     OW28513   5.195   6.093   3.223
 9205SOL    HW128514   5.104   6.118   3.190
 9205SOL    HW228515   5.261   6.105   3.149
 9206SOL     OW28516   3.209   4.889   3.609
 9206SOL    HW128517   3.150   4.897   3.529
 9206SOL    HW228518   3.303   4.872   3.579
 9207SOL     OW28519   5.258   4.729   5.997
 9207SOL    HW128520   5.327   4.700   5.931
 9207SOL    HW228521   5.198   4.797   5.954
 9208SOL     OW28522   5.813   4.592   3.544
 9208SOL    HW128523   5.856   4.645   3.471
 9208SOL    HW228524   5.815   4.494   3.520
 9209SOL     OW28525   4.197   0.917   0.455
 9209SOL    HW128526   4.236   1.006   0.481
 9209SOL    HW228527   4.238   0.888   0.369
 9210SOL     OW28528   0.455   1.320   2.090
 9210SOL    HW128529   0.545   1.277   2.092
 9210SOL    HW228530   0.430   1.341   1.996
 9211SOL     OW28531   6.633   2.893   6.069
 9211SOL    HW128532   6.543   2.911   6.108
 9211SOL    HW228533   6.666   2.974   6.021
 9212SOL     OW28534   4.281   5.493   4.193
 9212SOL    HW128535   4.315   5.467   4.284
 9212SOL    HW228536   4.244   5.412   4.148
 9213SOL     OW28537   5.484   4.000   5.237
 9213SOL    HW128538   5.467   3.903   5.220
 9213SOL    HW228539   5.462   4.052   5.154
 9214SOL     OW28540   6.893   4.062   5.860
 9214SOL    HW128541   6.951   4.019   5.792
 9214SOL    HW228542   6.941   4.064   5.948
 9215SOL     OW28543   1.706   3.020   1.914
 9215SOL    HW128544   1.647   3.098   1.930
 9215SOL    HW228545   1.762   3.036   1.832
 9216SOL     OW28546   3.830   0.068   2.393
 9216SOL    HW128547   3.924   0.034   2.388
 9216SOL    HW228548   3.825   0.143   2.459
 9217SOL     OW28549   7.006   3.031   6.825
 9217SOL    HW128550   6.927   3.052   6.882
 9217SOL    HW228551   6.989   3.061   6.732
 9218SOL     OW28552   2.207   1.151   0.042
 9218SOL    HW128553   2.145   1.075   0.026
 9218SOL    HW228554   2.195   1.220   6.997
 9219SOL     OW28555   5.983   3.528   0.274
 9219SOL    HW128556   6.010   3.452   0.215
 9219SOL    HW228557   5.923   3.494   0.346
 9220SOL     OW28558   1.177   6.021   1.839
 9220SOL    HW128559   1.136   5.939   1.878
 9220SOL    HW228560   1.106   6.088   1.817
 9221SOL     OW28561   2.436   0.684   3.208
 9221SOL    HW128562   2.509   0.686   3.139
 9221SOL    HW228563   2.404   0.590   3.219
 9222SOL     OW28564   2.625   6.209   6.078
 9222SOL    HW128565   2.575   6.144   6.135
 9222SOL    HW228566   2.722   6.208   6.102
 9223SOL     OW28567   1.031   2.292   4.013
 9223SOL    HW128568   1.040   2.198   3.980
 9223SOL    HW228569   0.948   2.333   3.974
 9224SOL     OW28570   1.203   5.392   4.216
 9224SOL    HW128571   1.207   5.415   4.119
 9224SOL    HW228572   1.273   5.445   4.265
 9225SOL     OW28573   3.018   6.171   6.610
 9225SOL    HW128574   2.948   6.223   6.561
 9225SOL    HW228575   3.095   6.231   6.632
 9226SOL     OW28576   6.176   6.665   1.774
 9226SOL    HW128577   6.128   6.739   1.728
 9226SOL    HW228578   6.120   6.631   1.850
 9227SOL     OW28579   1.794   5.621   0.802
 9227SOL    HW128580   1.830   5.632   0.895
 9227SOL    HW228581   1.865   5.643   0.736
 9228SOL     OW28582   1.944   1.726   5.827
 9228SOL    HW128583   1.871   1.779   5.870
 9228SOL    HW228584   1.997   1.679   5.897
 9229SOL     OW28585   1.034   6.157   5.033
 9229SOL    HW128586   0.960   6.091   5.016
 9229SOL    HW228587   1.001   6.249   5.012
 9230SOL     OW28588   5.458   2.699   2.830
 9230SOL    HW128589   5.410   2.612   2.840
 9230SOL    HW228590   5.548   2.693   2.873
 9231SOL     OW28591   0.456   3.233   4.677
 9231SOL    HW128592   0.397   3.192   4.608
 9231SOL    HW228593   0.525   3.167   4.705
 9232SOL     OW28594   3.869   5.304   0.816
 9232SOL    HW128595   3.855   5.385   0.759
 9232SOL    HW228596   3.894   5.332   0.909
 9233SOL     OW28597   5.668   5.541   1.916
 9233SOL    HW128598   5.659   5.442   1.906
 9233SOL    HW228599   5.752   5.562   1.966
 9234SOL     OW28600   3.638   5.829   6.838
 9234SOL    HW128601   3.546   5.797   6.817
 9234SOL    HW228602   3.704   5.780   6.782
 9235SOL     OW28603   1.376   2.996   3.061
 9235SOL    HW128604   1.318   3.035   2.990
 9235SOL    HW228605   1.319   2.957   3.133
 9236SOL     OW28606   2.045   4.367   5.961
 9236SOL    HW128607   2.134   4.405   5.936
 9236SOL    HW228608   2.005   4.422   6.034
 9237SOL     OW28609   1.121   6.103   4.183
 9237SOL    HW128610   1.150   6.080   4.090
 9237SOL    HW228611   1.035   6.153   4.179
 9238SOL     OW28612   2.620   1.842   6.904
 9238SOL    HW128613   2.584   1.932   6.880
 9238SOL    HW228614   2.544   1.780   6.923
 9239SOL     OW28615   6.874   3.912   0.067
 9239SOL    HW128616   6.825   3.903   0.154
 9239SOL    HW228617   6.851   4.000   0.025
 9240SOL     OW28618   4.809   1.824   1.896
 9240SOL    HW128619   4.833   1.728   1.907
 9240SOL    HW228620   4.804   1.868   1.985
 9241SOL     OW28621   1.148   5.139   5.852
 9241SOL    HW128622   1.135   5.237   5.834
 9241SOL    HW228623   1.085   5.086   5.796
 9242SOL     OW28624   0.646   4.762   0.107
 9242SOL    HW128625   0.691   4.831   0.164
 9242SOL    HW228626   0.689   4.761   0.017
 9243SOL     OW28627   0.236   6.431   1.435
 9243SOL    HW128628   0.222   6.336   1.463
 9243SOL    HW228629   0.253   6.435   1.337
 9244SOL     OW28630   4.078   5.795   6.716
 9244SOL    HW128631   4.021   5.876   6.729
 9244SOL    HW228632   4.116   5.766   6.804
 9245SOL     OW28633   1.748   4.603   2.779
 9245SOL    HW128634   1.714   4.524   2.830
 9245SOL    HW228635   1.842   4.584   2.748
 9246SOL     OW28636   6.751   5.504   2.357
 9246SOL    HW128637   6.685   5.534   2.426
 9246SOL    HW228638   6.706   5.497   2.268
 9247SOL     OW28639   0.985   6.996   2.843
 9247SOL    HW128640   0.967   0.066   2.863
 9247SOL    HW228641   1.031   6.953   2.921
 9248SOL     OW28642   2.232   1.887   4.461
 9248SOL    HW128643   2.309   1.928   4.412
 9248SOL    HW228644   2.261   1.802   4.504
 9249SOL     OW28645   3.702   3.521   0.373
 9249SOL    HW128646   3.643   3.583   0.322
 9249SOL    HW228647   3.743   3.455   0.310
 9250SOL     OW28648   5.325   3.035   3.928
 9250SOL    HW128649   5.275   3.014   3.844
 9250SOL    HW228650   5.411   2.985   3.929
 9251SOL     OW28651   3.766   1.836   2.890
 9251SOL    HW128652   3.856   1.832   2.934
 9251SOL    HW228653   3.769   1.903   2.816
 9252SOL     OW28654   5.250   0.051   3.860
 9252SOL    HW128655   5.314   0.097   3.921
 9252SOL    HW228656   5.211   6.998   3.905
 9253SOL     OW28657   5.656   6.480   5.352
 9253SOL    HW128658   5.637   6.483   5.450
 9253SOL    HW228659   5.570   6.490   5.302
 9254SOL     OW28660   6.936   4.894   2.831
 9254SOL    HW128661   6.948   4.896   2.930
 9254SOL    HW228662   6.938   4.988   2.796
 9255SOL     OW28663   4.477   4.050   0.080
 9255SOL    HW128664   4.402   4.007   0.030
 9255SOL    HW228665   4.564   4.017   0.043
 9256SOL     OW28666   3.433   0.118   2.717
 9256SOL    HW128667   3.495   0.040   2.713
 9256SOL    HW228668   3.450   0.171   2.800
 9257SOL     OW28669   7.009   3.562   3.305
 9257SOL    HW128670   6.985   3.614   3.388
 9257SOL    HW228671   6.967   3.606   3.225
 9258SOL     OW28672   3.370   2.882   2.849
 9258SOL    HW128673   3.288   2.888   2.792
 9258SOL    HW228674   3.450   2.907   2.794
 9259SOL     OW28675   1.189   2.480   0.911
 9259SOL    HW128676   1.276   2.458   0.954
 9259SOL    HW228677   1.199   2.479   0.812
 9260SOL     OW28678   5.471   1.635   4.932
 9260SOL    HW128679   5.461   1.549   4.983
 9260SOL    HW228680   5.384   1.657   4.887
 9261SOL     OW28681   3.422   0.645   0.538
 9261SOL    HW128682   3.360   0.692   0.475
 9261SOL    HW228683   3.369   0.592   0.604
 9262SOL     OW28684   0.104   4.340   5.655
 9262SOL    HW128685   0.152   4.373   5.574
 9262SOL    HW228686   0.043   4.264   5.629
 9263SOL     OW28687   4.952   6.743   0.861
 9263SOL    HW128688   4.997   6.799   0.931
 9263SOL    HW228689   4.933   6.652   0.898
 9264SOL     OW28690   4.484   5.289   0.372
 9264SOL    HW128691   4.544   5.241   0.436
 9264SOL    HW228692   4.468   5.232   0.292
 9265SOL     OW28693   4.238   1.887   0.320
 9265SOL    HW128694   4.141   1.899   0.297
 9265SOL    HW228695   4.270   1.967   0.371
 9266SOL     OW28696   2.200   6.948   1.491
 9266SOL    HW128697   2.219   6.850   1.499
 9266SOL    HW228698   2.161   6.982   1.576
 9267SOL     OW28699   6.469   2.945   4.601
 9267SOL    HW128700   6.512   2.855   4.613
 9267SOL    HW228701   6.494   2.982   4.512
 9268SOL     OW28702   1.024   5.292   2.213
 9268SOL    HW128703   1.032   5.225   2.288
 9268SOL    HW228704   1.082   5.263   2.137
 9269SOL     OW28705   3.061   1.499   6.072
 9269SOL    HW128706   3.139   1.450   6.031
 9269SOL    HW228707   2.979   1.443   6.064
 9270SOL     OW28708   4.185   6.360   5.934
 9270SOL    HW128709   4.167   6.280   5.877
 9270SOL    HW228710   4.279   6.356   5.969
 9271SOL     OW28711   6.432   6.932   0.093
 9271SOL    HW128712   6.470   6.974   0.011
 9271SOL    HW228713   6.385   6.847   0.069
 9272SOL     OW28714   1.130   5.563   4.590
 9272SOL    HW128715   1.035   5.542   4.564
 9272SOL    HW228716   1.134   5.656   4.627
 9273SOL     OW28717   6.208   6.340   3.302
 9273SOL    HW128718   6.274   6.269   3.328
 9273SOL    HW228719   6.148   6.304   3.230
 9274SOL     OW28720   6.839   2.398   6.688
 9274SOL    HW128721   6.863   2.486   6.648
 9274SOL    HW228722   6.828   2.409   6.787
 9275SOL     OW28723   0.058   1.082   0.025
 9275SOL    HW128724   0.080   0.989   7.024
 9275SOL    HW228725   6.989   1.102   0.002
 9276SOL     OW28726   2.058   3.821   1.613
 9276SOL    HW128727   2.138   3.780   1.656
 9276SOL    HW228728   2.023   3.759   1.542
 9277SOL     OW28729   4.757   3.514   6.802
 9277SOL    HW128730   4.668   3.498   6.844
 9277SOL    HW228731   4.748   3.585   6.732
 9278SOL     OW28732   1.653   0.617   6.087
 9278SOL    HW128733   1.698   0.537   6.128
 9278SOL    HW228734   1.577   0.646   6.145
 9279SOL     OW28735   4.598   0.478   1.814
 9279SOL    HW128736   4.528   0.548   1.828
 9279SOL    HW228737   4.628   0.443   1.903
 9280SOL     OW28738   2.052   2.028   3.354
 9280SOL    HW128739   2.040   2.116   3.307
 9280SOL    HW228740   2.146   2.021   3.388
 9281SOL     OW28741   2.721   4.335   0.319
 9281SOL    HW128742   2.660   4.273   0.269
 9281SOL    HW228743   2.715   4.317   0.417
 9282SOL     OW28744   4.727   1.286   3.895
 9282SOL    HW128745   4.714   1.279   3.994
 9282SOL    HW228746   4.792   1.216   3.865
 9283SOL     OW28747   5.634   0.727   3.946
 9283SOL    HW128748   5.692   0.796   3.990
 9283SOL    HW228749   5.577   0.770   3.876
 9284SOL     OW28750   3.573   3.303   5.865
 9284SOL    HW128751   3.513   3.335   5.938
 9284SOL    HW228752   3.520   3.288   5.782
 9285SOL     OW28753   4.852   2.774   0.856
 9285SOL    HW128754   4.920   2.736   0.793
 9285SOL    HW228755   4.770   2.801   0.805
 9286SOL     OW28756   5.221   5.615   0.567
 9286SOL    HW128757   5.188   5.673   0.642
 9286SOL    HW228758   5.299   5.561   0.599
 9287SOL     OW28759   3.395   4.954   6.769
 9287SOL    HW128760   3.369   5.046   6.740
 9287SOL    HW228761   3.314   4.906   6.804
 9288SOL     OW28762   4.911   1.363   3.677
 9288SOL    HW128763   4.854   1.360   3.759
 9288SOL    HW228764   4.961   1.450   3.675
 9289SOL     OW28765   3.820   1.191   2.467
 9289SOL    HW128766   3.785   1.156   2.380
 9289SOL    HW228767   3.756   1.257   2.505
 9290SOL     OW28768   5.073   1.405   2.911
 9290SOL    HW128769   5.014   1.383   2.834
 9290SOL    HW228770   5.168   1.413   2.879
 9291SOL     OW28771   1.714   6.305   4.258
 9291SOL    HW128772   1.797   6.342   4.299
 9291SOL    HW228773   1.713   6.205   4.268
 9292SOL     OW28774   1.188   3.275   0.138
 9292SOL    HW128775   1.117   3.344   0.128
 9292SOL    HW228776   1.264   3.296   0.076
 9293SOL     OW28777   5.016   3.634   6.807
 9293SOL    HW128778   4.923   3.597   6.806
 9293SOL    HW228779   5.018   3.721   6.855
 9294SOL     OW28780   4.580   0.579   5.297
 9294SOL    HW128781   4.492   0.532   5.284
 9294SOL    HW228782   4.623   0.544   5.380
 9295SOL     OW28783   5.601   2.511   4.486
 9295SOL    HW128784   5.628   2.466   4.401
 9295SOL    HW228785   5.501   2.522   4.488
 9296SOL     OW28786   0.732   6.491   0.066
 9296SOL    HW128787   0.749   6.453   0.157
 9296SOL    HW228788   0.640   6.464   0.036
 9297SOL     OW28789   6.620   0.541   0.978
 9297SOL    HW128790   6.560   0.484   1.034
 9297SOL    HW228791   6.587   0.635   0.979
 9298SOL     OW28792   0.556   0.105   5.450
 9298SOL    HW128793   0.499   0.040   5.500
 9298SOL    HW228794   0.651   0.074   5.451
 9299SOL     OW28795   0.631   2.582   5.394
 9299SOL    HW128796   0.683   2.615   5.315
 9299SOL    HW228797   0.534   2.577   5.371
 9300SOL     OW28798   0.683   4.803   5.643
 9300SOL    HW128799   0.781   4.785   5.637
 9300SOL    HW228800   0.667   4.901   5.654
 9301SOL     OW28801   4.869   4.769   3.720
 9301SOL    HW128802   4.872   4.859   3.764
 9301SOL    HW228803   4.800   4.770   3.647
 9302SOL     OW28804   1.942   3.066   3.646
 9302SOL    HW128805   1.895   3.029   3.726
 9302SOL    HW228806   1.880   3.126   3.595
 9303SOL     OW28807   2.620   4.352   0.745
 9303SOL    HW128808   2.595   4.449   0.736
 9303SOL    HW228809   2.681   4.327   0.669
 9304SOL     OW28810   4.185   4.900   1.727
 9304SOL    HW128811   4.252   4.927   1.797
 9304SOL    HW228812   4.150   4.809   1.748
 9305SOL     OW28813   3.490   1.256   0.701
 9305SOL    HW128814   3.395   1.273   0.676
 9305SOL    HW228815   3.528   1.185   0.641
 9306SOL     OW28816   0.111   5.179   4.860
 9306SOL    HW128817   0.078   5.213   4.772
 9306SOL    HW228818   0.207   5.155   4.852
 9307SOL     OW28819   2.055   3.476   1.791
 9307SOL    HW128820   2.107   3.521   1.718
 9307SOL    HW228821   2.115   3.455   1.867
 9308SOL     OW28822   1.974   3.515   0.230
 9308SOL    HW128823   2.022   3.450   0.171
 9308SOL    HW228824   1.915   3.465   0.294
 9309SOL     OW28825   3.358   4.580   5.938
 9309SOL    HW128826   3.375   4.583   6.037
 9309SOL    HW228827   3.351   4.673   5.902
 9310SOL     OW28828   4.645   5.231   6.541
 9310SOL    HW128829   4.698   5.269   6.617
 9310SOL    HW228830   4.680   5.267   6.455
 9311SOL     OW28831   4.269   5.132   2.036
 9311SOL    HW128832   4.293   5.037   2.014
 9311SOL    HW228833   4.307   5.193   1.967
 9312SOL     OW28834   1.301   3.860   1.370
 9312SOL    HW128835   1.270   3.817   1.455
 9312SOL    HW228836   1.258   3.814   1.292
 9313SOL     OW28837   0.151   1.038   1.291
 9313SOL    HW128838   0.195   0.971   1.351
 9313SOL    HW228839   0.053   1.041   1.311
 9314SOL     OW28840   4.872   5.272   6.360
 9314SOL    HW128841   4.912   5.362   6.375
 9314SOL    HW228842   4.945   5.203   6.363
 9315SOL     OW28843   5.940   0.740   4.976
 9315SOL    HW128844   5.848   0.750   5.014
 9315SOL    HW228845   6.008   0.758   5.047
 9316SOL     OW28846   4.785   6.008   5.553
 9316SOL    HW128847   4.854   6.052   5.611
 9316SOL    HW228848   4.813   6.014   5.457
 9317SOL     OW28849   5.568   5.262   3.322
 9317SOL    HW128850   5.540   5.326   3.250
 9317SOL    HW228851   5.642   5.205   3.289
 9318SOL     OW28852   5.999   0.647   5.679
 9318SOL    HW128853   5.955   0.650   5.769
 9318SOL    HW228854   6.095   0.624   5.689
 9319SOL     OW28855   2.039   2.956   0.143
 9319SOL    HW128856   1.984   2.876   0.120
 9319SOL    HW228857   2.102   2.976   0.068
 9320SOL     OW28858   3.775   0.394   5.109
 9320SOL    HW128859   3.806   0.305   5.140
 9320SOL    HW228860   3.826   0.421   5.027
 9321SOL     OW28861   6.766   0.549   3.671
 9321SOL    HW128862   6.678   0.528   3.630
 9321SOL    HW228863   6.803   0.633   3.631
 9322SOL     OW28864   0.441   3.517   6.892
 9322SOL    HW128865   0.402   3.548   6.806
 9322SOL    HW228866   0.384   3.444   6.931
 9323SOL     OW28867   1.408   0.688   5.856
 9323SOL    HW128868   1.433   0.614   5.794
 9323SOL    HW228869   1.389   0.650   5.946
 9324SOL     OW28870   1.039   4.660   0.915
 9324SOL    HW128871   1.020   4.561   0.910
 9324SOL    HW228872   0.958   4.710   0.882
 9325SOL     OW28873   5.872   0.593   0.441
 9325SOL    HW128874   5.822   0.620   0.359
 9325SOL    HW228875   5.823   0.519   0.487
 9326SOL     OW28876   2.056   5.394   0.542
 9326SOL    HW128877   2.105   5.363   0.460
 9326SOL    HW228878   2.102   5.474   0.580
 9327SOL     OW28879   5.040   0.833   2.874
 9327SOL    HW128880   5.130   0.878   2.874
 9327SOL    HW228881   4.973   0.893   2.916
 9328SOL     OW28882   2.421   1.083   5.151
 9328SOL    HW128883   2.323   1.079   5.171
 9328SOL    HW228884   2.471   1.036   5.224
 9329SOL     OW28885   6.083   3.636   0.898
 9329SOL    HW128886   6.048   3.727   0.921
 9329SOL    HW228887   6.182   3.638   0.893
 9330SOL     OW28888   6.386   0.333   5.970
 9330SOL    HW128889   6.467   0.344   5.913
 9330SOL    HW228890   6.406   0.366   6.063
 9331SOL     OW28891   2.585   1.205   0.320
 9331SOL    HW128892   2.489   1.181   0.337
 9331SOL    HW228893   2.593   1.303   0.306
 9332SOL     OW28894   4.244   4.279   1.355
 9332SOL    HW128895   4.320   4.224   1.321
 9332SOL    HW228896   4.172   4.282   1.285
 9333SOL     OW28897   4.148   4.088   7.026
 9333SOL    HW128898   4.055   4.057   7.006
 9333SOL    HW228899   4.145   4.159   0.070
 9334SOL     OW28900   5.683   6.042   3.384
 9334SOL    HW128901   5.713   6.115   3.323
 9334SOL    HW228902   5.585   6.049   3.400
 9335SOL     OW28903   0.990   1.355   6.793
 9335SOL    HW128904   0.894   1.384   6.790
 9335SOL    HW228905   1.003   1.276   6.734
 9336SOL     OW28906   3.302   5.658   5.790
 9336SOL    HW128907   3.361   5.581   5.816
 9336SOL    HW228908   3.357   5.741   5.781
 9337SOL     OW28909   4.118   1.880   4.835
 9337SOL    HW128910   4.176   1.933   4.897
 9337SOL    HW228911   4.082   1.800   4.884
 9338SOL     OW28912   5.335   0.244   1.930
 9338SOL    HW128913   5.238   0.267   1.935
 9338SOL    HW228914   5.346   0.146   1.950
 9339SOL     OW28915   6.045   6.710   1.295
 9339SOL    HW128916   6.144   6.712   1.309
 9339SOL    HW228917   6.013   6.801   1.268
 9340SOL     OW28918   4.960   4.349   4.478
 9340SOL    HW128919   4.874   4.298   4.486
 9340SOL    HW228920   5.036   4.290   4.507
 9341SOL     OW28921   0.605   5.923   0.947
 9341SOL    HW128922   0.590   6.003   0.889
 9341SOL    HW228923   0.652   5.950   1.030
 9342SOL     OW28924   2.309   6.285   3.935
 9342SOL    HW128925   2.325   6.240   3.847
 9342SOL    HW228926   2.363   6.239   4.006
 9343SOL     OW28927   5.336   4.391   2.337
 9343SOL    HW128928   5.347   4.457   2.411
 9343SOL    HW228929   5.415   4.397   2.275
 9344SOL     OW28930   4.793   6.763   2.714
 9344SOL    HW128931   4.778   6.671   2.678
 9344SOL    HW228932   4.780   6.830   2.641
 9345SOL     OW28933   6.353   5.849   1.692
 9345SOL    HW128934   6.434   5.866   1.635
 9345SOL    HW228935   6.378   5.786   1.766
 9346SOL     OW28936   5.610   1.457   0.862
 9346SOL    HW128937   5.537   1.513   0.901
 9346SOL    HW228938   5.663   1.415   0.935
 9347SOL     OW28939   2.926   3.756   0.317
 9347SOL    HW128940   3.007   3.788   0.267
 9347SOL    HW228941   2.876   3.835   0.353
 9348SOL     OW28942   2.823   6.406   2.228
 9348SOL    HW128943   2.772   6.492   2.220
 9348SOL    HW228944   2.836   6.367   2.137
 9349SOL     OW28945   6.848   5.580   3.062
 9349SOL    HW128946   6.912   5.536   2.999
 9349SOL    HW228947   6.764   5.604   3.013
 9350SOL     OW28948   0.005   2.831   5.302
 9350SOL    HW128949   0.026   2.889   5.380
 9350SOL    HW228950   0.080   2.835   5.236
 9351SOL     OW28951   2.964   0.093   6.980
 9351SOL    HW128952   2.900   0.026   7.016
 9351SOL    HW228953   3.053   0.081   7.024
 9352SOL     OW28954   3.255   1.637   6.542
 9352SOL    HW128955   3.219   1.587   6.463
 9352SOL    HW228956   3.333   1.693   6.514
 9353SOL     OW28957   0.462   4.558   0.841
 9353SOL    HW128958   0.527   4.482   0.840
 9353SOL    HW228959   0.511   4.644   0.833
 9354SOL     OW28960   0.364   1.670   6.576
 9354SOL    HW128961   0.351   1.619   6.491
 9354SOL    HW228962   0.397   1.762   6.554
 9355SOL     OW28963   0.197   1.909   4.463
 9355SOL    HW128964   0.175   1.870   4.374
 9355SOL    HW228965   0.127   1.975   4.489
 9356SOL     OW28966   4.805   0.074   2.145
 9356SOL    HW128967   4.821   0.166   2.179
 9356SOL    HW228968   4.841   0.007   2.210
 9357SOL     OW28969   1.877   3.477   5.889
 9357SOL    HW128970   1.891   3.380   5.907
 9357SOL    HW228971   1.837   3.489   5.798
 9358SOL     OW28972   6.958   3.175   1.616
 9358SOL    HW128973   6.911   3.110   1.676
 9358SOL    HW228974   6.891   3.235   1.572
 9359SOL     OW28975   1.835   4.403   5.770
 9359SOL    HW128976   1.920   4.395   5.822
 9359SOL    HW228977   1.847   4.363   5.679
 9360SOL     OW28978   0.606   4.369   6.972
 9360SOL    HW128979   0.601   4.416   6.884
 9360SOL    HW228980   0.683   4.305   6.971
 9361SOL     OW28981   1.591   5.595   2.934
 9361SOL    HW128982   1.559   5.614   2.842
 9361SOL    HW228983   1.514   5.600   2.998
 9362SOL     OW28984   1.822   1.825   2.630
 9362SOL    HW128985   1.853   1.765   2.704
 9362SOL    HW228986   1.768   1.900   2.668
 9363SOL     OW28987   3.161   5.811   1.922
 9363SOL    HW128988   3.250   5.765   1.914
 9363SOL    HW228989   3.120   5.818   1.831
 9364SOL     OW28990   2.609   2.698   6.644
 9364SOL    HW128991   2.673   2.621   6.645
 9364SOL    HW228992   2.659   2.783   6.625
 9365SOL     OW28993   2.989   2.223   4.055
 9365SOL    HW128994   3.082   2.224   4.019
 9365SOL    HW228995   2.935   2.296   4.012
 9366SOL     OW28996   3.949   5.335   6.288
 9366SOL    HW128997   3.926   5.344   6.385
 9366SOL    HW228998   3.881   5.384   6.234
 9367SOL     OW28999   6.830   6.453   2.324
 9367SOL    HW129000   6.876   6.541   2.317
 9367SOL    HW229001   6.884   6.391   2.380
 9368SOL     OW29002   3.679   0.714   3.080
 9368SOL    HW129003   3.598   0.709   3.021
 9368SOL    HW229004   3.689   0.806   3.116
 9369SOL     OW29005   6.784   6.556   3.584
 9369SOL    HW129006   6.715   6.496   3.543
 9369SOL    HW229007   6.875   6.520   3.564
 9370SOL     OW29008   5.611   0.615   4.440
 9370SOL    HW129009   5.578   0.543   4.378
 9370SOL    HW229010   5.573   0.601   4.531
 9371SOL     OW29011   2.417   4.904   0.495
 9371SOL    HW129012   2.475   4.824   0.481
 9371SOL    HW229013   2.416   4.959   0.411
 9372SOL     OW29014   5.175   6.698   1.135
 9372SOL    HW129015   5.241   6.639   1.088
 9372SOL    HW229016   5.124   6.643   1.201
 9373SOL     OW29017   4.732   2.646   1.652
 9373SOL    HW129018   4.680   2.726   1.683
 9373SOL    HW229019   4.779   2.670   1.567
 9374SOL     OW29020   0.552   2.690   6.879
 9374SOL    HW129021   0.607   2.752   6.823
 9374SOL    HW229022   0.563   2.713   6.976
 9375SOL     OW29023   0.770   1.966   1.012
 9375SOL    HW129024   0.783   1.976   1.111
 9375SOL    HW229025   0.680   1.927   0.995
 9376SOL     OW29026   2.363   4.286   1.117
 9376SOL    HW129027   2.379   4.319   1.210
 9376SOL    HW229028   2.323   4.195   1.121
 9377SOL     OW29029   1.722   5.093   3.278
 9377SOL    HW129030   1.755   5.159   3.345
 9377SOL    HW229031   1.759   5.116   3.188
 9378SOL     OW29032   2.786   1.647   3.462
 9378SOL    HW129033   2.756   1.553   3.447
 9378SOL    HW229034   2.878   1.658   3.425
 9379SOL     OW29035   4.909   0.364   5.580
 9379SOL    HW129036   4.912   0.266   5.563
 9379SOL    HW229037   4.993   0.407   5.549
 9380SOL     OW29038   4.052   5.544   5.352
 9380SOL    HW129039   3.993   5.611   5.308
 9380SOL    HW229040   4.080   5.475   5.285
 9381SOL     OW29041   5.562   3.214   5.799
 9381SOL    HW129042   5.472   3.206   5.842
 9381SOL    HW229043   5.626   3.258   5.862
 9382SOL     OW29044   4.261   7.006   4.068
 9382SOL    HW129045   4.171   0.015   4.094
 9382SOL    HW229046   4.260   6.982   3.971
 9383SOL     OW29047   5.683   4.978   3.982
 9383SOL    HW129048   5.629   4.923   3.920
 9383SOL    HW229049   5.687   4.934   4.072
 9384SOL     OW29050   4.505   0.090   2.072
 9384SOL    HW129051   4.459   0.100   1.984
 9384SOL    HW229052   4.602   0.074   2.058
 9385SOL     OW29053   4.712   1.855   4.150
 9385SOL    HW129054   4.703   1.955   4.157
 9385SOL    HW229055   4.703   1.827   4.055
 9386SOL     OW29056   3.326   5.947   5.576
 9386SOL    HW129057   3.227   5.958   5.579
 9386SOL    HW229058   3.356   5.937   5.481
 9387SOL     OW29059   2.717   2.266   0.520
 9387SOL    HW129060   2.775   2.280   0.440
 9387SOL    HW229061   2.621   2.275   0.493
 9388SOL     OW29062   2.420   6.110   3.760
 9388SOL    HW129063   2.517   6.134   3.772
 9388SOL    HW229064   2.410   6.052   3.679
 9389SOL     OW29065   2.835   0.198   2.931
 9389SOL    HW129066   2.935   0.189   2.927
 9389SOL    HW229067   2.808   0.285   2.890
 9390SOL     OW29068   5.629   5.101   6.317
 9390SOL    HW129069   5.629   5.011   6.273
 9390SOL    HW229070   5.579   5.166   6.261
 9391SOL     OW29071   0.763   0.280   6.036
 9391SOL    HW129072   0.811   0.349   6.089
 9391SOL    HW229073   0.675   0.317   6.005
 9392SOL     OW29074   5.370   5.204   5.118
 9392SOL    HW129075   5.420   5.201   5.031
 9392SOL    HW229076   5.420   5.152   5.187
 9393SOL     OW29077   2.590   0.053   5.846
 9393SOL    HW129078   2.612   0.047   5.749
 9393SOL    HW229079   2.496   0.084   5.858
 9394SOL     OW29080   6.280   0.672   1.399
 9394SOL    HW129081   6.256   0.711   1.487
 9394SOL    HW229082   6.202   0.679   1.337
 9395SOL     OW29083   2.728   1.102   0.525
 9395SOL    HW129084   2.678   1.149   0.452
 9395SOL    HW229085   2.791   1.035   0.485
 9396SOL     OW29086   2.041   4.612   4.602
 9396SOL    HW129087   2.055   4.704   4.638
 9396SOL    HW229088   2.083   4.546   4.664
 9397SOL     OW29089   2.961   6.265   6.219
 9397SOL    HW129090   2.908   6.323   6.158
 9397SOL    HW229091   3.058   6.267   6.192
 9398SOL     OW29092   5.888   0.875   6.398
 9398SOL    HW129093   5.960   0.805   6.405
 9398SOL    HW229094   5.929   0.963   6.375
 9399SOL     OW29095   1.001   3.416   4.754
 9399SOL    HW129096   1.052   3.339   4.716
 9399SOL    HW229097   1.063   3.474   4.808
 9400SOL     OW29098   4.881   0.842   1.241
 9400SOL    HW129099   4.883   0.847   1.341
 9400SOL    HW229100   4.961   0.890   1.204
 9401SOL     OW29101   6.700   1.913   2.874
 9401SOL    HW129102   6.795   1.943   2.881
 9401SOL    HW229103   6.696   1.821   2.835
 9402SOL     OW29104   1.269   4.020   3.045
 9402SOL    HW129105   1.300   4.115   3.050
 9402SOL    HW229106   1.173   4.014   3.072
 9403SOL     OW29107   6.350   1.570   1.747
 9403SOL    HW129108   6.377   1.659   1.710
 9403SOL    HW229109   6.382   1.498   1.685
 9404SOL     OW29110   0.538   2.234   1.371
 9404SOL    HW129111   0.548   2.135   1.373
 9404SOL    HW229112   0.473   2.260   1.300
 9405SOL     OW29113   2.122   4.110   3.902
 9405SOL    HW129114   2.120   4.174   3.825
 9405SOL    HW229115   2.129   4.016   3.868
 9406SOL     OW29116   0.860   2.652   6.754
 9406SOL    HW129117   0.784   2.713   6.732
 9406SOL    HW229118   0.845   2.563   6.710
 9407SOL     OW29119   2.521   5.296   4.269
 9407SOL    HW129120   2.613   5.333   4.260
 9407SOL    HW229121   2.456   5.370   4.290
 9408SOL     OW29122   6.900   2.980   6.175
 9408SOL    HW129123   6.855   3.027   6.250
 9408SOL    HW229124   6.946   3.047   6.116
 9409SOL     OW29125   6.337   6.412   1.337
 9409SOL    HW129126   6.239   6.392   1.344
 9409SOL    HW229127   6.367   6.459   1.420
 9410SOL     OW29128   3.384   0.592   2.143
 9410SOL    HW129129   3.289   0.614   2.120
 9410SOL    HW229130   3.434   0.570   2.060
 9411SOL     OW29131   3.950   3.143   3.263
 9411SOL    HW129132   3.918   3.220   3.319
 9411SOL    HW229133   3.902   3.060   3.290
 9412SOL     OW29134   1.461   0.732   2.236
 9412SOL    HW129135   1.485   0.723   2.140
 9412SOL    HW229136   1.545   0.735   2.291
 9413SOL     OW29137   4.644   5.061   3.473
 9413SOL    HW129138   4.561   5.016   3.505
 9413SOL    HW229139   4.637   5.159   3.488
 9414SOL     OW29140   3.239   1.236   3.745
 9414SOL    HW129141   3.302   1.190   3.807
 9414SOL    HW229142   3.202   1.170   3.680
 9415SOL     OW29143   2.112   6.958   1.764
 9415SOL    HW129144   2.082   0.015   1.811
 9415SOL    HW229145   2.112   6.882   1.829
 9416SOL     OW29146   0.045   0.875   6.019
 9416SOL    HW129147   0.016   0.843   5.929
 9416SOL    HW229148   6.991   0.906   6.070
 9417SOL     OW29149   3.629   0.142   0.877
 9417SOL    HW129150   3.556   0.166   0.814
 9417SOL    HW229151   3.718   0.164   0.836
 9418SOL     OW29152   2.068   1.384   1.621
 9418SOL    HW129153   2.060   1.436   1.536
 9418SOL    HW229154   2.148   1.324   1.616
 9419SOL     OW29155   1.567   3.743   6.011
 9419SOL    HW129156   1.646   3.799   5.986
 9419SOL    HW229157   1.483   3.796   5.999
 9420SOL     OW29158   5.874   4.261   0.305
 9420SOL    HW129159   5.924   4.175   0.292
 9420SOL    HW229160   5.916   4.333   0.250
 9421SOL     OW29161   2.814   5.713   4.933
 9421SOL    HW129162   2.809   5.650   5.010
 9421SOL    HW229163   2.884   5.782   4.950
 9422SOL     OW29164   3.076   5.621   2.958
 9422SOL    HW129165   3.025   5.605   2.874
 9422SOL    HW229166   3.138   5.698   2.945
 9423SOL     OW29167   4.000   6.343   3.387
 9423SOL    HW129168   4.089   6.379   3.415
 9423SOL    HW229169   3.993   6.246   3.413
 9424SOL     OW29170   5.226   2.275   4.560
 9424SOL    HW129171   5.278   2.360   4.571
 9424SOL    HW229172   5.173   2.280   4.475
 9425SOL     OW29173   5.517   4.733   1.240
 9425SOL    HW129174   5.512   4.810   1.304
 9425SOL    HW229175   5.430   4.685   1.240
 9426SOL     OW29176   2.928   1.204   6.320
 9426SOL    HW129177   2.917   1.106   6.339
 9426SOL    HW229178   3.009   1.218   6.264
 9427SOL     OW29179   2.384   5.650   2.966
 9427SOL    HW129180   2.345   5.686   2.881
 9427SOL    HW229181   2.460   5.708   2.996
 9428SOL     OW29182   0.176   0.098   0.542
 9428SOL    HW129183   0.153   0.127   0.449
 9428SOL    HW229184   0.239   0.020   0.538
 9429SOL     OW29185   2.150   3.012   3.905
 9429SOL    HW129186   2.069   3.066   3.880
 9429SOL    HW229187   2.200   2.988   3.822
 9430SOL     OW29188   0.465   2.247   4.683
 9430SOL    HW129189   0.466   2.200   4.594
 9430SOL    HW229190   0.518   2.194   4.749
 9431SOL     OW29191   6.345   4.625   1.215
 9431SOL    HW129192   6.273   4.692   1.230
 9431SOL    HW229193   6.378   4.591   1.303
 9432SOL     OW29194   6.242   0.857   4.382
 9432SOL    HW129195   6.169   0.861   4.314
 9432SOL    HW229196   6.328   0.833   4.338
 9433SOL     OW29197   3.223   6.462   2.698
 9433SOL    HW129198   3.207   6.436   2.793
 9433SOL    HW229199   3.179   6.550   2.679
 9434SOL     OW29200   5.527   5.942   2.821
 9434SOL    HW129201   5.542   5.849   2.855
 9434SOL    HW229202   5.432   5.951   2.792
 9435SOL     OW29203   0.154   2.079   3.042
 9435SOL    HW129204   0.232   2.097   3.103
 9435SOL    HW229205   0.089   2.019   3.087
 9436SOL     OW29206   1.496   1.763   2.710
 9436SOL    HW129207   1.546   1.850   2.714
 9436SOL    HW229208   1.516   1.709   2.792
 9437SOL     OW29209   0.020   5.682   3.370
 9437SOL    HW129210   7.001   5.765   3.339
 9437SOL    HW229211   0.078   5.646   3.297
 9438SOL     OW29212   1.171   6.966   2.027
 9438SOL    HW129213   1.186   0.020   2.085
 9438SOL    HW229214   1.089   6.918   2.057
 9439SOL     OW29215   1.004   2.655   1.075
 9439SOL    HW129216   1.000   2.754   1.056
 9439SOL    HW229217   1.075   2.614   1.018
 9440SOL     OW29218   3.984   4.820   3.402
 9440SOL    HW129219   3.940   4.733   3.382
 9440SOL    HW229220   4.049   4.809   3.477
 9441SOL     OW29221   6.347   5.434   5.738
 9441SOL    HW129222   6.442   5.419   5.711
 9441SOL    HW229223   6.342   5.509   5.803
 9442SOL     OW29224   4.924   3.422   1.759
 9442SOL    HW129225   4.943   3.467   1.846
 9442SOL    HW229226   5.010   3.401   1.712
 9443SOL     OW29227   2.392   5.404   0.613
 9443SOL    HW129228   2.427   5.316   0.581
 9443SOL    HW229229   2.379   5.464   0.534
 9444SOL     OW29230   1.579   4.323   0.474
 9444SOL    HW129231   1.675   4.314   0.448
 9444SOL    HW229232   1.567   4.409   0.525
 9445SOL     OW29233   6.612   3.621   3.328
 9445SOL    HW129234   6.683   3.598   3.396
 9445SOL    HW229235   6.523   3.590   3.362
 9446SOL     OW29236   0.100   5.781   4.645
 9446SOL    HW129237   0.030   5.809   4.580
 9446SOL    HW229238   0.075   5.692   4.685
 9447SOL     OW29239   5.479   5.035   3.492
 9447SOL    HW129240   5.456   5.099   3.418
 9447SOL    HW229241   5.425   4.952   3.482
 9448SOL     OW29242   6.679   0.133   6.029
 9448SOL    HW129243   6.621   0.199   6.076
 9448SOL    HW229244   6.621   0.061   5.989
 9449SOL     OW29245   6.107   0.109   0.063
 9449SOL    HW129246   6.198   0.144   0.085
 9449SOL    HW229247   6.065   0.071   0.145
 9450SOL     OW29248   2.275   5.597   3.204
 9450SOL    HW129249   2.307   5.608   3.110
 9450SOL    HW229250   2.178   5.573   3.203
 9451SOL     OW29251   3.566   5.397   5.420
 9451SOL    HW129252   3.647   5.409   5.478
 9451SOL    HW229253   3.572   5.309   5.372
 9452SOL     OW29254   0.823   4.294   0.299
 9452SOL    HW129255   0.888   4.243   0.242
 9452SOL    HW229256   0.778   4.364   0.243
 9453SOL     OW29257   3.026   5.317   2.524
 9453SOL    HW129258   2.985   5.399   2.486
 9453SOL    HW229259   2.978   5.291   2.608
 9454SOL     OW29260   3.414   3.702   6.515
 9454SOL    HW129261   3.443   3.791   6.480
 9454SOL    HW229262   3.450   3.630   6.455
 9455SOL     OW29263   2.280   2.082   3.125
 9455SOL    HW129264   2.273   2.012   3.196
 9455SOL    HW229265   2.335   2.047   3.050
 9456SOL     OW29266   6.454   3.436   0.592
 9456SOL    HW129267   6.486   3.481   0.676
 9456SOL    HW229268   6.533   3.398   0.544
 9457SOL     OW29269   0.335   4.982   4.616
 9457SOL    HW129270   0.412   4.923   4.595
 9457SOL    HW229271   0.283   5.000   4.533
 9458SOL     OW29272   0.517   3.736   7.014
 9458SOL    HW129273   0.495   3.644   6.981
 9458SOL    HW229274   0.500   3.742   0.085
 9459SOL     OW29275   5.448   4.752   3.802
 9459SOL    HW129276   5.369   4.753   3.741
 9459SOL    HW229277   5.517   4.689   3.767
 9460SOL     OW29278   2.016   3.486   4.797
 9460SOL    HW129279   2.087   3.532   4.850
 9460SOL    HW229280   2.039   3.491   4.699
 9461SOL     OW29281   0.550   1.892   1.900
 9461SOL    HW129282   0.609   1.955   1.849
 9461SOL    HW229283   0.549   1.917   1.996
 9462SOL     OW29284   1.663   2.548   3.483
 9462SOL    HW129285   1.723   2.609   3.536
 9462SOL    HW229286   1.609   2.602   3.419
 9463SOL     OW29287   5.133   6.983   1.147
 9463SOL    HW129288   5.163   6.887   1.154
 9463SOL    HW229289   5.204   0.010   1.101
 9464SOL     OW29290   6.090   0.174   0.462
 9464SOL    HW129291   6.174   0.124   0.447
 9464SOL    HW229292   6.093   0.261   0.412
 9465SOL     OW29293   0.293   3.400   1.898
 9465SOL    HW129294   0.205   3.354   1.908
 9465SOL    HW229295   0.361   3.335   1.866
 9466SOL     OW29296   3.352   3.972   5.798
 9466SOL    HW129297   3.340   4.061   5.754
 9466SOL    HW229298   3.263   3.927   5.805
 9467SOL     OW29299   0.597   2.898   0.970
 9467SOL    HW129300   0.515   2.935   1.015
 9467SOL    HW229301   0.639   2.969   0.914
 9468SOL     OW29302   5.949   3.885   0.032
 9468SOL    HW129303   5.982   3.956   6.997
 9468SOL    HW229304   5.944   3.798   7.009
 9469SOL     OW29305   0.077   5.906   1.241
 9469SOL    HW129306   0.131   5.869   1.316
 9469SOL    HW229307   0.010   5.838   1.211
 9470SOL     OW29308   4.640   3.697   0.012
 9470SOL    HW129309   4.621   3.619   6.979
 9470SOL    HW229310   4.736   3.694   0.041
 9471SOL     OW29311   6.498   2.069   4.728
 9471SOL    HW129312   6.445   2.106   4.804
 9471SOL    HW229313   6.471   1.974   4.711
 9472SOL     OW29314   0.000   3.669   5.828
 9472SOL    HW129315   0.064   3.720   5.887
 9472SOL    HW229316   7.009   3.723   5.745
 9473SOL     OW29317   3.180   4.826   6.876
 9473SOL    HW129318   3.083   4.843   6.894
 9473SOL    HW229319   3.189   4.746   6.816
 9474SOL     OW29320   6.265   3.934   1.866
 9474SOL    HW129321   6.252   3.876   1.947
 9474SOL    HW229322   6.358   3.972   1.867
 9475SOL     OW29323   4.301   3.300   0.954
 9475SOL    HW129324   4.326   3.391   0.923
 9475SOL    HW229325   4.274   3.303   1.050
 9476SOL     OW29326   3.987   3.919   4.668
 9476SOL    HW129327   3.996   3.821   4.650
 9476SOL    HW229328   4.063   3.968   4.627
 9477SOL     OW29329   0.408   2.581   1.188
 9477SOL    HW129330   0.343   2.621   1.253
 9477SOL    HW229331   0.495   2.629   1.194
 9478SOL     OW29332   5.410   3.522   0.819
 9478SOL    HW129333   5.493   3.481   0.781
 9478SOL    HW229334   5.434   3.577   0.899
 9479SOL     OW29335   4.415   6.885   0.968
 9479SOL    HW129336   4.475   6.808   0.990
 9479SOL    HW229337   4.377   6.923   1.052
 9480SOL     OW29338   6.342   5.277   0.238
 9480SOL    HW129339   6.372   5.311   0.327
 9480SOL    HW229340   6.404   5.205   0.207
 9481SOL     OW29341   4.773   2.326   2.613
 9481SOL    HW129342   4.781   2.294   2.707
 9481SOL    HW229343   4.728   2.256   2.558
 9482SOL     OW29344   6.953   0.487   2.934
 9482SOL    HW129345   7.019   0.426   2.890
 9482SOL    HW229346   6.999   0.538   3.007
 9483SOL     OW29347   1.936   0.969   0.485
 9483SOL    HW129348   1.970   1.020   0.564
 9483SOL    HW229349   1.839   0.992   0.471
 9484SOL     OW29350   3.926   0.492   4.892
 9484SOL    HW129351   3.889   0.449   4.809
 9484SOL    HW229352   3.932   0.591   4.877
 9485SOL     OW29353   0.551   1.724   1.232
 9485SOL    HW129354   0.458   1.722   1.195
 9485SOL    HW229355   0.602   1.644   1.201
 9486SOL     OW29356   4.651   6.326   1.576
 9486SOL    HW129357   4.730   6.372   1.616
 9486SOL    HW229358   4.568   6.355   1.623
 9487SOL     OW29359   3.272   4.155   3.739
 9487SOL    HW129360   3.235   4.116   3.823
 9487SOL    HW229361   3.364   4.189   3.754
 9488SOL     OW29362   2.663   0.119   0.968
 9488SOL    HW129363   2.614   0.102   1.053
 9488SOL    HW229364   2.685   0.216   0.960
 9489SOL     OW29365   5.141   4.152   1.231
 9489SOL    HW129366   5.216   4.167   1.296
 9489SOL    HW229367   5.159   4.069   1.179
 9490SOL     OW29368   6.646   5.663   3.581
 9490SOL    HW129369   6.701   5.648   3.663
 9490SOL    HW229370   6.688   5.615   3.504
 9491SOL     OW29371   5.540   5.251   3.774
 9491SOL    HW129372   5.488   5.333   3.748
 9491SOL    HW229373   5.572   5.262   3.868
 9492SOL     OW29374   3.658   3.523   4.863
 9492SOL    HW129375   3.632   3.526   4.959
 9492SOL    HW229376   3.611   3.447   4.818
 9493SOL     OW29377   3.237   5.796   4.805
 9493SOL    HW129378   3.290   5.847   4.736
 9493SOL    HW229379   3.146   5.835   4.811
 9494SOL     OW29380   5.545   3.156   2.413
 9494SOL    HW129381   5.575   3.076   2.362
 9494SOL    HW229382   5.465   3.132   2.469
 9495SOL     OW29383   6.875   1.639   3.021
 9495SOL    HW129384   6.923   1.718   2.980
 9495SOL    HW229385   6.785   1.668   3.054
 9496SOL     OW29386   5.539   3.368   1.503
 9496SOL    HW129387   5.517   3.465   1.513
 9496SOL    HW229388   5.602   3.340   1.576
 9497SOL     OW29389   4.982   5.841   4.742
 9497SOL    HW129390   4.905   5.799   4.790
 9497SOL    HW229391   5.057   5.857   4.807
 9498SOL     OW29392   6.390   4.828   4.902
 9498SOL    HW129393   6.411   4.831   5.000
 9498SOL    HW229394   6.447   4.896   4.855
 9499SOL     OW29395   1.469   6.289   5.386
 9499SOL    HW129396   1.561   6.249   5.389
 9499SOL    HW229397   1.475   6.382   5.351
 9500SOL     OW29398   4.116   6.796   0.390
 9500SOL    HW129399   4.025   6.765   0.362
 9500SOL    HW229400   4.175   6.799   0.309
 9501SOL     OW29401   2.195   1.230   4.596
 9501SOL    HW129402   2.121   1.164   4.606
 9501SOL    HW229403   2.235   1.249   4.686
 9502SOL     OW29404   5.767   3.381   5.360
 9502SOL    HW129405   5.682   3.432   5.349
 9502SOL    HW229406   5.826   3.397   5.280
 9503SOL     OW29407   6.692   2.561   0.307
 9503SOL    HW129408   6.701   2.475   0.256
 9503SOL    HW229409   6.624   2.550   0.379
 9504SOL     OW29410   6.660   3.417   1.625
 9504SOL    HW129411   6.564   3.422   1.601
 9504SOL    HW229412   6.679   3.478   1.702
 9505SOL     OW29413   4.766   4.521   5.783
 9505SOL    HW129414   4.738   4.562   5.696
 9505SOL    HW229415   4.865   4.529   5.793
 9506SOL     OW29416   1.579   2.670   0.856
 9506SOL    HW129417   1.658   2.725   0.828
 9506SOL    HW229418   1.611   2.583   0.894
 9507SOL     OW29419   0.038   0.930   2.022
 9507SOL    HW129420   0.070   0.863   2.089
 9507SOL    HW229421   0.110   0.997   2.004
 9508SOL     OW29422   5.941   1.992   2.484
 9508SOL    HW129423   5.997   1.923   2.437
 9508SOL    HW229424   5.899   2.052   2.416
 9509SOL     OW29425   7.008   1.231   3.616
 9509SOL    HW129426   0.039   1.308   3.645
 9509SOL    HW229427   6.947   1.206   3.691
 9510SOL     OW29428   1.528   4.286   3.737
 9510SOL    HW129429   1.505   4.269   3.641
 9510SOL    HW229430   1.473   4.362   3.772
 9511SOL     OW29431   2.171   0.302   1.136
 9511SOL    HW129432   2.171   0.220   1.193
 9511SOL    HW229433   2.104   0.291   1.062
 9512SOL     OW29434   6.760   2.140   0.884
 9512SOL    HW129435   6.764   2.240   0.877
 9512SOL    HW229436   6.725   2.114   0.974
 9513SOL     OW29437   2.575   4.353   6.766
 9513SOL    HW129438   2.496   4.312   6.719
 9513SOL    HW229439   2.611   4.428   6.711
 9514SOL     OW29440   2.332   4.800   6.687
 9514SOL    HW129441   2.399   4.869   6.659
 9514SOL    HW229442   2.298   4.752   6.606
 9515SOL     OW29443   1.804   6.362   2.306
 9515SOL    HW129444   1.719   6.413   2.300
 9515SOL    HW229445   1.835   6.360   2.401
 9516SOL     OW29446   5.611   4.337   0.326
 9516SOL    HW129447   5.710   4.323   0.325
 9516SOL    HW229448   5.571   4.289   0.404
 9517SOL     OW29449   1.569   4.116   1.392
 9517SOL    HW129450   1.546   4.054   1.466
 9517SOL    HW229451   1.485   4.144   1.345
 9518SOL     OW29452   1.982   1.273   0.711
 9518SOL    HW129453   1.932   1.307   0.632
 9518SOL    HW229454   2.013   1.349   0.767
 9519SOL     OW29455   3.369   2.943   5.075
 9519SOL    HW129456   3.345   2.944   4.978
 9519SOL    HW229457   3.369   3.037   5.110
 9520SOL     OW29458   2.824   1.045   3.187
 9520SOL    HW129459   2.905   1.078   3.235
 9520SOL    HW229460   2.747   1.106   3.206
 9521SOL     OW29461   5.467   5.580   2.494
 9521SOL    HW129462   5.434   5.493   2.532
 9521SOL    HW229463   5.567   5.580   2.492
 9522SOL     OW29464   3.318   5.629   1.468
 9522SOL    HW129465   3.333   5.715   1.516
 9522SOL    HW229466   3.246   5.577   1.513
 9523SOL     OW29467   3.004   5.442   5.036
 9523SOL    HW129468   2.916   5.489   5.044
 9523SOL    HW229469   2.999   5.376   4.961
 9524SOL     OW29470   3.730   2.428   0.911
 9524SOL    HW129471   3.716   2.526   0.895
 9524SOL    HW229472   3.828   2.407   0.907
 9525SOL     OW29473   2.309   2.615   6.221
 9525SOL    HW129474   2.263   2.526   6.232
 9525SOL    HW229475   2.333   2.651   6.311
 9526SOL     OW29476   4.935   6.116   1.729
 9526SOL    HW129477   4.880   6.083   1.805
 9526SOL    HW229478   4.987   6.040   1.689
 9527SOL     OW29479   0.748   0.358   1.974
 9527SOL    HW129480   0.686   0.423   1.932
 9527SOL    HW229481   0.807   0.405   2.040
 9528SOL     OW29482   6.830   0.582   0.476
 9528SOL    HW129483   6.811   0.495   0.522
 9528SOL    HW229484   6.892   0.565   0.398
 9529SOL     OW29485   6.593   3.151   5.500
 9529SOL    HW129486   6.626   3.141   5.407
 9529SOL    HW229487   6.671   3.158   5.563
 9530SOL     OW29488   2.118   3.177   3.356
 9530SOL    HW129489   2.175   3.142   3.281
 9530SOL    HW229490   2.050   3.109   3.380
 9531SOL     OW29491   3.985   5.384   2.812
 9531SOL    HW129492   3.912   5.331   2.856
 9531SOL    HW229493   4.073   5.341   2.830
 9532SOL     OW29494   0.439   6.443   1.970
 9532SOL    HW129495   0.408   6.533   1.938
 9532SOL    HW229496   0.382   6.372   1.929
 9533SOL     OW29497   0.093   0.767   4.665
 9533SOL    HW129498   0.125   0.860   4.649
 9533SOL    HW229499   0.167   0.713   4.705
 9534SOL     OW29500   5.809   3.234   5.004
 9534SOL    HW129501   5.729   3.290   5.027
 9534SOL    HW229502   5.795   3.141   5.037
 9535SOL     OW29503   2.667   1.166   5.486
 9535SOL    HW129504   2.666   1.145   5.388
 9535SOL    HW229505   2.704   1.258   5.501
 9536SOL     OW29506   3.023   4.751   5.295
 9536SOL    HW129507   2.980   4.676   5.245
 9536SOL    HW229508   2.968   4.773   5.375
 9537SOL     OW29509   2.456   0.371   2.210
 9537SOL    HW129510   2.435   0.340   2.303
 9537SOL    HW229511   2.431   0.299   2.145
 9538SOL     OW29512   6.355   1.948   4.385
 9538SOL    HW129513   6.321   1.971   4.293
 9538SOL    HW229514   6.390   2.031   4.428
 9539SOL     OW29515   2.225   4.029   5.790
 9539SOL    HW129516   2.278   4.114   5.797
 9539SOL    HW229517   2.167   4.033   5.709
 9540SOL     OW29518   4.659   4.248   5.014
 9540SOL    HW129519   4.711   4.326   5.050
 9540SOL    HW229520   4.630   4.269   4.920
 9541SOL     OW29521   2.352   1.967   5.909
 9541SOL    HW129522   2.287   2.044   5.915
 9541SOL    HW229523   2.322   1.894   5.970
 9542SOL     OW29524   4.804   3.818   5.247
 9542SOL    HW129525   4.831   3.730   5.208
 9542SOL    HW229526   4.822   3.890   5.180
 9543SOL     OW29527   3.679   0.512   4.366
 9543SOL    HW129528   3.743   0.453   4.414
 9543SOL    HW229529   3.728   0.589   4.325
 9544SOL     OW29530   6.368   1.029   2.332
 9544SOL    HW129531   6.409   0.976   2.407
 9544SOL    HW229532   6.429   1.103   2.306
 9545SOL     OW29533   6.509   5.331   3.453
 9545SOL    HW129534   6.462   5.407   3.498
 9545SOL    HW229535   6.475   5.244   3.490
 9546SOL     OW29536   1.781   2.965   6.875
 9546SOL    HW129537   1.741   3.015   6.952
 9546SOL    HW229538   1.871   3.002   6.855
 9547SOL     OW29539   2.304   6.020   4.246
 9547SOL    HW129540   2.218   6.053   4.285
 9547SOL    HW229541   2.285   5.959   4.169
 9548SOL     OW29542   6.628   5.699   4.720
 9548SOL    HW129543   6.653   5.612   4.763
 9548SOL    HW229544   6.551   5.740   4.769
 9549SOL     OW29545   2.901   4.293   1.404
 9549SOL    HW129546   2.864   4.201   1.411
 9549SOL    HW229547   2.999   4.289   1.385
 9550SOL     OW29548   0.044   1.390   6.331
 9550SOL    HW129549   0.024   1.298   6.295
 9550SOL    HW229550   7.011   1.456   6.286
 9551SOL     OW29551   0.127   0.077   4.492
 9551SOL    HW129552   0.126   0.175   4.472
 9551SOL    HW229553   0.035   0.047   4.516
 9552SOL     OW29554   0.800   6.067   2.453
 9552SOL    HW129555   0.899   6.080   2.464
 9552SOL    HW229556   0.768   6.001   2.520
 9553SOL     OW29557   6.187   4.081   6.487
 9553SOL    HW129558   6.141   4.169   6.501
 9553SOL    HW229559   6.163   4.019   6.562
 9554SOL     OW29560   2.701   0.746   1.244
 9554SOL    HW129561   2.770   0.724   1.312
 9554SOL    HW229562   2.743   0.748   1.153
 9555SOL     OW29563   7.014   1.899   0.891
 9555SOL    HW129564   6.983   1.806   0.912
 9555SOL    HW229565   6.953   1.965   0.935
 9556SOL     OW29566   2.340   1.707   1.011
 9556SOL    HW129567   2.315   1.626   0.958
 9556SOL    HW229568   2.433   1.698   1.044
 9557SOL     OW29569   6.214   0.524   2.385
 9557SOL    HW129570   6.181   0.430   2.372
 9557SOL    HW229571   6.136   0.586   2.389
 9558SOL     OW29572   6.395   5.446   3.891
 9558SOL    HW129573   6.431   5.357   3.866
 9558SOL    HW229574   6.410   5.511   3.816
 9559SOL     OW29575   6.854   3.834   1.747
 9559SOL    HW129576   6.803   3.917   1.768
 9559SOL    HW229577   6.924   3.853   1.678
 9560SOL     OW29578   1.543   1.562   2.901
 9560SOL    HW129579   1.466   1.534   2.958
 9560SOL    HW229580   1.596   1.632   2.949
 9561SOL     OW29581   2.463   6.734   0.987
 9561SOL    HW129582   2.507   6.761   0.901
 9561SOL    HW229583   2.385   6.794   1.005
 9562SOL     OW29584   2.959   6.457   5.100
 9562SOL    HW129585   3.034   6.407   5.142
 9562SOL    HW229586   2.874   6.437   5.150
 9563SOL     OW29587   6.172   5.953   6.808
 9563SOL    HW129588   6.170   6.042   6.762
 9563SOL    HW229589   6.267   5.921   6.814
 9564SOL     OW29590   2.940   0.159   6.724
 9564SOL    HW129591   2.930   0.142   6.822
 9564SOL    HW229592   3.030   0.128   6.694
 9565SOL     OW29593   4.463   5.813   4.969
 9565SOL    HW129594   4.384   5.807   4.908
 9565SOL    HW229595   4.475   5.725   5.015
 9566SOL     OW29596   3.305   4.582   0.309
 9566SOL    HW129597   3.348   4.671   0.324
 9566SOL    HW229598   3.355   4.511   0.359
 9567SOL     OW29599   6.463   5.257   6.083
 9567SOL    HW129600   6.415   5.256   5.995
 9567SOL    HW229601   6.509   5.346   6.094
 9568SOL     OW29602   4.611   3.072   6.286
 9568SOL    HW129603   4.689   3.104   6.341
 9568SOL    HW229604   4.526   3.103   6.328
 9569SOL     OW29605   6.577   1.222   0.762
 9569SOL    HW129606   6.564   1.290   0.690
 9569SOL    HW229607   6.514   1.241   0.837
 9570SOL     OW29608   0.711   2.116   1.802
 9570SOL    HW129609   0.793   2.097   1.856
 9570SOL    HW229610   0.738   2.144   1.710
 9571SOL     OW29611   2.779   3.319   0.350
 9571SOL    HW129612   2.708   3.267   0.303
 9571SOL    HW229613   2.833   3.259   0.408
 9572SOL     OW29614   1.342   5.546   0.803
 9572SOL    HW129615   1.245   5.559   0.780
 9572SOL    HW229616   1.360   5.449   0.820
 9573SOL     OW29617   0.740   1.320   6.676
 9573SOL    HW129618   0.663   1.265   6.707
 9573SOL    HW229619   0.806   1.262   6.629
 9574SOL     OW29620   3.895   3.358   4.940
 9574SOL    HW129621   3.852   3.440   4.903
 9574SOL    HW229622   3.871   3.349   5.037
 9575SOL     OW29623   5.620   0.910   0.967
 9575SOL    HW129624   5.574   0.836   1.018
 9575SOL    HW229625   5.578   0.997   0.991
 9576SOL     OW29626   3.409   1.667   3.468
 9576SOL    HW129627   3.409   1.671   3.568
 9576SOL    HW229628   3.494   1.626   3.436
 9577SOL     OW29629   1.349   0.571   2.424
 9577SOL    HW129630   1.384   0.628   2.349
 9577SOL    HW229631   1.405   0.587   2.505
 9578SOL     OW29632   5.942   3.478   2.945
 9578SOL    HW129633   5.856   3.455   2.900
 9578SOL    HW229634   5.972   3.400   3.001
 9579SOL     OW29635   1.304   6.410   2.780
 9579SOL    HW129636   1.363   6.355   2.722
 9579SOL    HW229637   1.352   6.493   2.808
 9580SOL     OW29638   5.626   3.738   7.007
 9580SOL    HW129639   5.709   3.776   0.022
 9580SOL    HW229640   5.594   3.660   0.033
 9581SOL     OW29641   2.747   4.827   6.614
 9581SOL    HW129642   2.678   4.760   6.590
 9581SOL    HW229643   2.838   4.786   6.608
 9582SOL     OW29644   4.396   4.631   4.112
 9582SOL    HW129645   4.330   4.649   4.186
 9582SOL    HW229646   4.454   4.554   4.138
 9583SOL     OW29647   2.162   3.560   1.473
 9583SOL    HW129648   2.210   3.629   1.528
 9583SOL    HW229649   2.202   3.470   1.490
 9584SOL     OW29650   5.906   5.903   6.782
 9584SOL    HW129651   5.887   5.844   6.704
 9584SOL    HW229652   6.005   5.910   6.795
 9585SOL     OW29653   6.445   0.513   2.214
 9585SOL    HW129654   6.376   0.524   2.286
 9585SOL    HW229655   6.504   0.594   2.213
 9586SOL     OW29656   5.938   3.772   3.015
 9586SOL    HW129657   5.953   3.676   2.991
 9586SOL    HW229658   5.898   3.821   2.937
 9587SOL     OW29659   5.925   0.312   2.040
 9587SOL    HW129660   5.853   0.251   2.007
 9587SOL    HW229661   5.896   0.356   2.125
 9588SOL     OW29662   0.236   1.246   1.496
 9588SOL    HW129663   0.311   1.200   1.542
 9588SOL    HW229664   0.149   1.203   1.520
 9589SOL     OW29665   2.517   5.736   0.170
 9589SOL    HW129666   2.474   5.807   0.115
 9589SOL    HW229667   2.615   5.756   0.179
 9590SOL     OW29668   0.405   3.724   2.278
 9590SOL    HW129669   0.356   3.708   2.363
 9590SOL    HW229670   0.410   3.638   2.226
 9591SOL     OW29671   2.737   5.724   0.666
 9591SOL    HW129672   2.668   5.774   0.612
 9591SOL    HW229673   2.820   5.779   0.673
 9592SOL     OW29674   4.410   5.340   2.594
 9592SOL    HW129675   4.382   5.422   2.645
 9592SOL    HW229676   4.355   5.331   2.512
 9593SOL     OW29677   5.082   2.233   4.787
 9593SOL    HW129678   5.044   2.144   4.761
 9593SOL    HW229679   5.143   2.266   4.715
 9594SOL     OW29680   6.887   6.180   3.222
 9594SOL    HW129681   6.844   6.107   3.275
 9594SOL    HW229682   6.819   6.251   3.202
 9595SOL     OW29683   1.973   5.539   5.199
 9595SOL    HW129684   2.061   5.493   5.195
 9595SOL    HW229685   1.937   5.552   5.106
 9596SOL     OW29686   0.344   4.702   5.953
 9596SOL    HW129687   0.342   4.675   5.857
 9596SOL    HW229688   0.438   4.694   5.988
 9597SOL     OW29689   0.158   4.021   1.524
 9597SOL    HW129690   0.103   3.938   1.537
 9597SOL    HW229691   0.158   4.074   1.608
 9598SOL     OW29692   0.460   3.775   5.318
 9598SOL    HW129693   0.440   3.684   5.354
 9598SOL    HW229694   0.402   3.843   5.362
 9599SOL     OW29695   3.667   0.810   5.217
 9599SOL    HW129696   3.606   0.784   5.142
 9599SOL    HW229697   3.691   0.729   5.270
 9600SOL     OW29698   1.509   0.272   5.754
 9600SOL    HW129699   1.505   0.351   5.694
 9600SOL    HW229700   1.447   0.286   5.831
 9601SOL     OW29701   6.416   4.056   6.235
 9601SOL    HW129702   6.326   4.081   6.269
 9601SOL    HW229703   6.462   3.998   6.302
 9602SOL     OW29704   6.836   5.294   6.058
 9602SOL    HW129705   6.920   5.273   6.107
 9602SOL    HW229706   6.757   5.266   6.113
 9603SOL     OW29707   2.194   6.696   4.622
 9603SOL    HW129708   2.106   6.726   4.659
 9603SOL    HW229709   2.268   6.730   4.681
 9604SOL     OW29710   5.360   0.745   0.371
 9604SOL    HW129711   5.356   0.768   0.274
 9604SOL    HW229712   5.370   0.829   0.425
 9605SOL     OW29713   1.279   4.771   5.636
 9605SOL    HW129714   1.368   4.810   5.661
 9605SOL    HW229715   1.290   4.673   5.617
 9606SOL     OW29716   0.795   0.205   3.959
 9606SOL    HW129717   0.742   0.190   4.042
 9606SOL    HW229718   0.873   0.264   3.979
 9607SOL     OW29719   0.848   1.042   1.678
 9607SOL    HW129720   0.886   1.105   1.610
 9607SOL    HW229721   0.886   1.064   1.768
 9608SOL     OW29722   6.835   0.123   2.785
 9608SOL    HW129723   6.805   0.151   2.694
 9608SOL    HW229724   6.765   0.066   2.828
 9609SOL     OW29725   1.274   4.181   4.392
 9609SOL    HW129726   1.371   4.167   4.370
 9609SOL    HW229727   1.265   4.215   4.485
 9610SOL     OW29728   1.497   2.761   5.549
 9610SOL    HW129729   1.501   2.704   5.632
 9610SOL    HW229730   1.479   2.703   5.470
 9611SOL     OW29731   6.750   6.868   1.531
 9611SOL    HW129732   6.665   6.915   1.555
 9611SOL    HW229733   6.823   6.935   1.516
 9612SOL     OW29734   6.782   2.693   0.566
 9612SOL    HW129735   6.701   2.708   0.622
 9612SOL    HW229736   6.756   2.648   0.480
 9613SOL     OW29737   5.594   6.533   4.257
 9613SOL    HW129738   5.652   6.611   4.279
 9613SOL    HW229739   5.505   6.565   4.227
 9614SOL     OW29740   4.190   3.502   1.913
 9614SOL    HW129741   4.217   3.407   1.895
 9614SOL    HW229742   4.242   3.563   1.854
 9615SOL     OW29743   2.531   5.085   3.313
 9615SOL    HW129744   2.580   4.998   3.312
 9615SOL    HW229745   2.436   5.070   3.283
 9616SOL     OW29746   4.007   3.118   1.432
 9616SOL    HW129747   4.036   3.057   1.358
 9616SOL    HW229748   3.916   3.090   1.465
 9617SOL     OW29749   1.141   3.357   3.469
 9617SOL    HW129750   1.080   3.399   3.536
 9617SOL    HW229751   1.144   3.414   3.387
 9618SOL     OW29752   3.605   0.508   6.527
 9618SOL    HW129753   3.508   0.518   6.547
 9618SOL    HW229754   3.648   0.598   6.524
 9619SOL     OW29755   1.312   6.273   0.725
 9619SOL    HW129756   1.226   6.223   0.727
 9619SOL    HW229757   1.375   6.229   0.661
 9620SOL     OW29758   3.936   0.859   6.829
 9620SOL    HW129759   4.029   0.895   6.819
 9620SOL    HW229760   3.925   0.822   6.921
 9621SOL     OW29761   1.536   0.624   1.961
 9621SOL    HW129762   1.437   0.611   1.969
 9621SOL    HW229763   1.577   0.541   1.924
 9622SOL     OW29764   6.701   0.808   6.837
 9622SOL    HW129765   6.787   0.765   6.811
 9622SOL    HW229766   6.681   0.884   6.775
 9623SOL     OW29767   4.940   5.510   6.483
 9623SOL    HW129768   4.854   5.561   6.489
 9623SOL    HW229769   4.986   5.532   6.397
 9624SOL     OW29770   5.068   5.102   5.331
 9624SOL    HW129771   5.157   5.101   5.376
 9624SOL    HW229772   5.081   5.098   5.232
 9625SOL     OW29773   4.920   4.323   6.604
 9625SOL    HW129774   4.829   4.282   6.598
 9625SOL    HW229775   4.942   4.343   6.700
 9626SOL     OW29776   1.856   4.584   4.384
 9626SOL    HW129777   1.863   4.500   4.331
 9626SOL    HW229778   1.918   4.579   4.463
 9627SOL     OW29779   1.424   4.451   5.314
 9627SOL    HW129780   1.427   4.351   5.325
 9627SOL    HW229781   1.426   4.473   5.216
 9628SOL     OW29782   6.018   4.428   0.150
 9628SOL    HW129783   6.077   4.350   0.130
 9628SOL    HW229784   6.057   4.511   0.108
 9629SOL     OW29785   6.560   6.291   3.431
 9629SOL    HW129786   6.533   6.385   3.414
 9629SOL    HW229787   6.621   6.287   3.510
 9630SOL     OW29788   5.763   6.123   5.400
 9630SOL    HW129789   5.843   6.158   5.449
 9630SOL    HW229790   5.746   6.180   5.319
 9631SOL     OW29791   4.457   1.119   1.767
 9631SOL    HW129792   4.376   1.157   1.723
 9631SOL    HW229793   4.452   1.019   1.767
 9632SOL     OW29794   1.754   5.326   1.848
 9632SOL    HW129795   1.851   5.305   1.841
 9632SOL    HW229796   1.702   5.240   1.854
 9633SOL     OW29797   3.732   3.302   1.709
 9633SOL    HW129798   3.671   3.370   1.750
 9633SOL    HW229799   3.687   3.260   1.630
 9634SOL     OW29800   6.183   4.295   2.997
 9634SOL    HW129801   6.206   4.386   2.960
 9634SOL    HW229802   6.197   4.295   3.096
 9635SOL     OW29803   0.005   4.743   5.030
 9635SOL    HW129804   6.988   4.701   4.951
 9635SOL    HW229805   0.009   4.842   5.019
 9636SOL     OW29806   3.916   1.121   6.010
 9636SOL    HW129807   3.864   1.121   5.925
 9636SOL    HW229808   3.939   1.216   6.035
 9637SOL     OW29809   2.575   3.892   1.132
 9637SOL    HW129810   2.521   3.820   1.174
 9637SOL    HW229811   2.526   3.979   1.138
 9638SOL     OW29812   0.087   4.309   6.196
 9638SOL    HW129813   0.118   4.387   6.141
 9638SOL    HW229814   0.148   4.298   6.275
 9639SOL     OW29815   4.430   2.651   1.697
 9639SOL    HW129816   4.505   2.710   1.668
 9639SOL    HW229817   4.446   2.557   1.665
 9640SOL     OW29818   3.912   1.039   2.040
 9640SOL    HW129819   3.948   0.972   2.104
 9640SOL    HW229820   3.837   1.089   2.084
 9641SOL     OW29821   5.304   5.617   2.722
 9641SOL    HW129822   5.365   5.632   2.800
 9641SOL    HW229823   5.355   5.631   2.637
 9642SOL     OW29824   1.058   0.671   4.508
 9642SOL    HW129825   1.072   0.602   4.580
 9642SOL    HW229826   1.144   0.717   4.489
 9643SOL     OW29827   4.714   4.437   3.477
 9643SOL    HW129828   4.721   4.352   3.529
 9643SOL    HW229829   4.799   4.488   3.485
 9644SOL     OW29830   1.446   5.660   5.091
 9644SOL    HW129831   1.520   5.606   5.129
 9644SOL    HW229832   1.419   5.622   5.003
 9645SOL     OW29833   0.945   4.090   5.391
 9645SOL    HW129834   0.894   4.126   5.313
 9645SOL    HW229835   1.002   4.014   5.361
 9646SOL     OW29836   2.225   6.394   3.685
 9646SOL    HW129837   2.182   6.305   3.672
 9646SOL    HW229838   2.195   6.457   3.614
 9647SOL     OW29839   6.895   6.599   2.597
 9647SOL    HW129840   6.902   6.662   2.675
 9647SOL    HW229841   6.984   6.556   2.581
 9648SOL     OW29842   5.275   3.205   1.110
 9648SOL    HW129843   5.206   3.133   1.103
 9648SOL    HW229844   5.312   3.207   1.204
 9649SOL     OW29845   2.350   3.469   6.116
 9649SOL    HW129846   2.420   3.529   6.156
 9649SOL    HW229847   2.274   3.524   6.083
 9650SOL     OW29848   6.038   4.987   3.257
 9650SOL    HW129849   6.128   5.028   3.273
 9650SOL    HW229850   6.023   4.975   3.159
 9651SOL     OW29851   3.853   1.386   0.699
 9651SOL    HW129852   3.829   1.399   0.795
 9651SOL    HW229853   3.953   1.388   0.689
 9652SOL     OW29854   0.552   4.458   1.470
 9652SOL    HW129855   0.481   4.523   1.444
 9652SOL    HW229856   0.525   4.411   1.555
 9653SOL     OW29857   4.319   4.619   5.693
 9653SOL    HW129858   4.404   4.671   5.705
 9653SOL    HW229859   4.252   4.648   5.761
 9654SOL     OW29860   3.311   3.093   2.494
 9654SOL    HW129861   3.250   3.057   2.565
 9654SOL    HW229862   3.277   3.065   2.404
 9655SOL     OW29863   0.257   1.667   0.880
 9655SOL    HW129864   0.235   1.582   0.927
 9655SOL    HW229865   0.227   1.744   0.935
 9656SOL     OW29866   4.554   2.069   0.606
 9656SOL    HW129867   4.558   2.001   0.679
 9656SOL    HW229868   4.579   2.159   0.642
 9657SOL     OW29869   5.196   4.419   3.533
 9657SOL    HW129870   5.209   4.455   3.625
 9657SOL    HW229871   5.270   4.354   3.511
 9658SOL     OW29872   5.249   1.994   2.199
 9658SOL    HW129873   5.308   1.967   2.123
 9658SOL    HW229874   5.153   1.978   2.175
 9659SOL     OW29875   2.030   2.045   0.071
 9659SOL    HW129876   2.070   2.111   0.134
 9659SOL    HW229877   2.103   1.998   0.021
 9660SOL     OW29878   0.648   0.205   1.541
 9660SOL    HW129879   0.557   0.201   1.583
 9660SOL    HW229880   0.702   0.277   1.585
 9661SOL     OW29881   4.483   5.766   1.701
 9661SOL    HW129882   4.521   5.679   1.670
 9661SOL    HW229883   4.548   5.839   1.681
 9662SOL     OW29884   5.436   4.250   6.802
 9662SOL    HW129885   5.368   4.297   6.745
 9662SOL    HW229886   5.390   4.205   6.878
 9663SOL     OW29887   0.487   4.294   2.624
 9663SOL    HW129888   0.551   4.283   2.700
 9663SOL    HW229889   0.489   4.212   2.567
 9664SOL     OW29890   5.540   4.472   4.391
 9664SOL    HW129891   5.492   4.558   4.403
 9664SOL    HW229892   5.479   4.404   4.352
 9665SOL     OW29893   6.257   5.835   5.747
 9665SOL    HW129894   6.303   5.892   5.815
 9665SOL    HW229895   6.187   5.779   5.792
 9666SOL     OW29896   6.552   4.283   1.533
 9666SOL    HW129897   6.626   4.349   1.541
 9666SOL    HW229898   6.514   4.265   1.624
 9667SOL     OW29899   4.595   4.171   0.649
 9667SOL    HW129900   4.629   4.080   0.674
 9667SOL    HW229901   4.504   4.164   0.609
 9668SOL     OW29902   1.263   1.341   6.193
 9668SOL    HW129903   1.311   1.366   6.277
 9668SOL    HW229904   1.258   1.420   6.133
 9669SOL     OW29905   2.504   6.800   0.733
 9669SOL    HW129906   2.444   6.753   0.669
 9669SOL    HW229907   2.492   6.899   0.724
 9670SOL     OW29908   0.279   5.943   5.217
 9670SOL    HW129909   0.227   5.916   5.299
 9670SOL    HW229910   0.217   5.945   5.138
 9671SOL     OW29911   0.318   5.257   0.141
 9671SOL    HW129912   0.221   5.250   0.165
 9671SOL    HW229913   0.374   5.241   0.222
 9672SOL     OW29914   1.829   4.918   2.736
 9672SOL    HW129915   1.789   4.832   2.768
 9672SOL    HW229916   1.921   4.927   2.774
 9673SOL     OW29917   3.862   3.738   1.296
 9673SOL    HW129918   3.916   3.822   1.308
 9673SOL    HW229919   3.879   3.676   1.373
 9674SOL     OW29920   3.735   6.166   3.117
 9674SOL    HW129921   3.767   6.104   3.189
 9674SOL    HW229922   3.810   6.225   3.088
 9675SOL     OW29923   4.940   3.263   6.807
 9675SOL    HW129924   5.033   3.285   6.838
 9675SOL    HW229925   4.893   3.347   6.781
 9676SOL     OW29926   1.361   3.615   5.454
 9676SOL    HW129927   1.355   3.713   5.474
 9676SOL    HW229928   1.452   3.582   5.478
 9677SOL     OW29929   6.682   5.303   6.415
 9677SOL    HW129930   6.590   5.328   6.447
 9677SOL    HW229931   6.716   5.375   6.354
 9678SOL     OW29932   3.241   3.714   4.309
 9678SOL    HW129933   3.255   3.813   4.306
 9678SOL    HW229934   3.149   3.694   4.342
 9679SOL     OW29935   3.047   1.533   4.505
 9679SOL    HW129936   3.124   1.471   4.519
 9679SOL    HW229937   3.023   1.536   4.408
 9680SOL     OW29938   4.759   6.899   5.509
 9680SOL    HW129939   4.702   6.842   5.570
 9680SOL    HW229940   4.853   6.900   5.543
 9681SOL     OW29941   3.393   1.840   1.269
 9681SOL    HW129942   3.330   1.829   1.345
 9681SOL    HW229943   3.391   1.758   1.211
 9682SOL     OW29944   4.982   4.224   3.628
 9682SOL    HW129945   4.888   4.196   3.611
 9682SOL    HW229946   5.032   4.226   3.541
 9683SOL     OW29947   2.983   5.845   0.677
 9683SOL    HW129948   3.064   5.823   0.623
 9683SOL    HW229949   3.010   5.894   0.759
 9684SOL     OW29950   0.464   3.780   4.992
 9684SOL    HW129951   0.503   3.872   4.988
 9684SOL    HW229952   0.465   3.747   5.086
 9685SOL     OW29953   4.485   3.624   0.578
 9685SOL    HW129954   4.578   3.587   0.574
 9685SOL    HW229955   4.464   3.671   0.493
 9686SOL     OW29956   0.930   2.838   0.176
 9686SOL    HW129957   0.908   2.862   0.270
 9686SOL    HW229958   0.977   2.915   0.132
 9687SOL     OW29959   6.287   0.571   1.773
 9687SOL    HW129960   6.223   0.619   1.713
 9687SOL    HW229961   6.292   0.475   1.745
 9688SOL     OW29962   0.857   3.560   0.878
 9688SOL    HW129963   0.888   3.646   0.839
 9688SOL    HW229964   0.759   3.550   0.865
 9689SOL     OW29965   0.994   4.152   6.691
 9689SOL    HW129966   1.058   4.125   6.763
 9689SOL    HW229967   0.907   4.103   6.704
 9690SOL     OW29968   4.537   5.912   5.640
 9690SOL    HW129969   4.625   5.955   5.620
 9690SOL    HW229970   4.474   5.927   5.564
 9691SOL     OW29971   3.107   3.970   2.115
 9691SOL    HW129972   3.068   3.885   2.082
 9691SOL    HW229973   3.043   4.045   2.098
 9692SOL     OW29974   4.749   6.014   1.151
 9692SOL    HW129975   4.822   5.946   1.151
 9692SOL    HW229976   4.753   6.068   1.068
 9693SOL     OW29977   5.744   4.316   3.128
 9693SOL    HW129978   5.779   4.228   3.095
 9693SOL    HW229979   5.818   4.368   3.170
 9694SOL     OW29980   3.727   1.142   2.215
 9694SOL    HW129981   3.725   1.242   2.208
 9694SOL    HW229982   3.636   1.105   2.198
 9695SOL     OW29983   6.785   2.689   3.445
 9695SOL    HW129984   6.742   2.776   3.422
 9695SOL    HW229985   6.728   2.640   3.511
 9696SOL     OW29986   5.998   2.060   1.841
 9696SOL    HW129987   5.957   2.145   1.808
 9696SOL    HW229988   6.096   2.075   1.857
 9697SOL     OW29989   0.438   6.564   0.639
 9697SOL    HW129990   0.514   6.519   0.592
 9697SOL    HW229991   0.474   6.627   0.708
 9698SOL     OW29992   5.549   2.932   6.233
 9698SOL    HW129993   5.639   2.961   6.265
 9698SOL    HW229994   5.490   3.012   6.223
 9699SOL     OW29995   0.539   5.836   0.051
 9699SOL    HW129996   0.511   5.932   0.046
 9699SOL    HW229997   0.547   5.809   0.147
 9700SOL     OW29998   6.462   5.307   4.539
 9700SOL    HW129999   6.476   5.297   4.637
 9700SOL    HW230000   6.393   5.242   4.508
 9701SOL     OW30001   4.080   3.946   5.901
 9701SOL    HW130002   4.119   3.978   5.815
 9701SOL    HW230003   4.105   3.850   5.915
 9702SOL     OW30004   3.910   2.364   0.066
 9702SOL    HW130005   3.834   2.298   0.062
 9702SOL    HW230006   3.932   2.394   7.000
 9703SOL     OW30007   4.889   3.946   3.880
 9703SOL    HW130008   4.905   4.045   3.882
 9703SOL    HW230009   4.883   3.915   3.785
 9704SOL     OW30010   3.330   5.641   2.526
 9704SOL    HW130011   3.235   5.634   2.558
 9704SOL    HW230012   3.391   5.655   2.604
 9705SOL     OW30013   5.877   4.442   5.651
 9705SOL    HW130014   5.916   4.533   5.640
 9705SOL    HW230015   5.791   4.447   5.701
 9706SOL     OW30016   2.913   2.315   1.678
 9706SOL    HW130017   2.844   2.262   1.728
 9706SOL    HW230018   2.946   2.390   1.735
 9707SOL     OW30019   5.542   5.153   2.416
 9707SOL    HW130020   5.513   5.068   2.371
 9707SOL    HW230021   5.642   5.152   2.427
 9708SOL     OW30022   0.970   1.408   2.954
 9708SOL    HW130023   1.007   1.495   2.983
 9708SOL    HW230024   0.870   1.409   2.963
 9709SOL     OW30025   5.380   4.641   1.959
 9709SOL    HW130026   5.364   4.582   1.880
 9709SOL    HW230027   5.442   4.596   2.023
 9710SOL     OW30028   6.263   0.623   0.947
 9710SOL    HW130029   6.293   0.532   0.977
 9710SOL    HW230030   6.260   0.685   1.026
 9711SOL     OW30031   3.859   5.606   6.467
 9711SOL    HW130032   3.906   5.526   6.505
 9711SOL    HW230033   3.866   5.603   6.367
 9712SOL     OW30034   5.582   3.331   0.402
 9712SOL    HW130035   5.510   3.266   0.377
 9712SOL    HW230036   5.552   3.423   0.380
 9713SOL     OW30037   2.696   5.306   3.134
 9713SOL    HW130038   2.788   5.300   3.174
 9713SOL    HW230039   2.635   5.244   3.182
 9714SOL     OW30040   3.734   6.511   5.812
 9714SOL    HW130041   3.815   6.513   5.871
 9714SOL    HW230042   3.674   6.437   5.841
 9715SOL     OW30043   5.942   4.550   6.727
 9715SOL    HW130044   6.030   4.510   6.753
 9715SOL    HW230045   5.943   4.648   6.750
 9716SOL     OW30046   3.524   4.678   7.025
 9716SOL    HW130047   3.535   4.604   0.065
 9716SOL    HW230048   3.579   4.659   6.944
 9717SOL     OW30049   4.589   6.252   6.580
 9717SOL    HW130050   4.632   6.242   6.670
 9717SOL    HW230051   4.645   6.206   6.511
 9718SOL     OW30052   4.278   2.840   1.142
 9718SOL    HW130053   4.306   2.779   1.068
 9718SOL    HW230054   4.358   2.863   1.198
 9719SOL     OW30055   5.013   6.874   5.845
 9719SOL    HW130056   5.062   6.803   5.895
 9719SOL    HW230057   4.919   6.880   5.878
 9720SOL     OW30058   0.800   3.645   2.459
 9720SOL    HW130059   0.849   3.629   2.544
 9720SOL    HW230060   0.785   3.558   2.412
 9721SOL     OW30061   0.175   1.206   6.653
 9721SOL    HW130062   0.129   1.295   6.653
 9721SOL    HW230063   0.224   1.194   6.567
 9722SOL     OW30064   3.494   0.773   5.504
 9722SOL    HW130065   3.459   0.765   5.410
 9722SOL    HW230066   3.442   0.844   5.553
 9723SOL     OW30067   4.605   5.745   4.177
 9723SOL    HW130068   4.612   5.677   4.250
 9723SOL    HW230069   4.616   5.837   4.216
 9724SOL     OW30070   1.685   4.380   0.070
 9724SOL    HW130071   1.755   4.444   0.104
 9724SOL    HW230072   1.648   4.415   7.011
 9725SOL     OW30073   3.859   6.411   6.445
 9725SOL    HW130074   3.857   6.418   6.544
 9725SOL    HW230075   3.844   6.501   6.404
 9726SOL     OW30076   4.543   2.062   4.714
 9726SOL    HW130077   4.473   2.073   4.784
 9726SOL    HW230078   4.501   2.039   4.627
 9727SOL     OW30079   1.207   2.168   6.545
 9727SOL    HW130080   1.217   2.267   6.549
 9727SOL    HW230081   1.244   2.127   6.628
 9728SOL     OW30082   0.372   1.792   5.164
 9728SOL    HW130083   0.292   1.733   5.148
 9728SOL    HW230084   0.368   1.870   5.101
 9729SOL     OW30085   1.426   4.516   3.891
 9729SOL    HW130086   1.484   4.548   3.817
 9729SOL    HW230087   1.428   4.582   3.966
 9730SOL     OW30088   1.042   4.438   3.346
 9730SOL    HW130089   1.016   4.396   3.433
 9730SOL    HW230090   1.137   4.417   3.326
 9731SOL     OW30091   4.791   5.520   1.640
 9731SOL    HW130092   4.750   5.531   1.550
 9731SOL    HW230093   4.782   5.425   1.670
 9732SOL     OW30094   1.052   3.203   2.147
 9732SOL    HW130095   0.964   3.221   2.103
 9732SOL    HW230096   1.116   3.277   2.124
 9733SOL     OW30097   5.838   5.616   0.376
 9733SOL    HW130098   5.821   5.607   0.278
 9733SOL    HW230099   5.934   5.637   0.392
 9734SOL     OW30100   6.646   0.013   0.225
 9734SOL    HW130101   6.575   6.979   0.187
 9734SOL    HW230102   6.604   0.075   0.291
 9735SOL     OW30103   1.473   2.830   3.360
 9735SOL    HW130104   1.490   2.891   3.437
 9735SOL    HW230105   1.558   2.814   3.310
 9736SOL     OW30106   5.501   1.790   6.179
 9736SOL    HW130107   5.458   1.711   6.222
 9736SOL    HW230108   5.530   1.855   6.249
 9737SOL     OW30109   5.260   2.382   2.583
 9737SOL    HW130110   5.335   2.448   2.577
 9737SOL    HW230111   5.210   2.380   2.496
 9738SOL     OW30112   1.820   6.683   1.015
 9738SOL    HW130113   1.754   6.709   0.944
 9738SOL    HW230114   1.862   6.596   0.991
 9739SOL     OW30115   5.059   5.720   0.290
 9739SOL    HW130116   5.102   5.797   0.337
 9739SOL    HW230117   4.960   5.724   0.305
 9740SOL     OW30118   0.139   1.218   3.082
 9740SOL    HW130119   0.203   1.246   3.154
 9740SOL    HW230120   0.126   1.293   3.018
 9741SOL     OW30121   2.571   1.088   3.474
 9741SOL    HW130122   2.506   1.127   3.538
 9741SOL    HW230123   2.661   1.081   3.517
 9742SOL     OW30124   4.082   1.413   0.470
 9742SOL    HW130125   4.160   1.359   0.502
 9742SOL    HW230126   4.106   1.510   0.473
 9743SOL     OW30127   0.084   4.212   2.782
 9743SOL    HW130128   0.172   4.166   2.798
 9743SOL    HW230129   0.014   4.173   2.842
 9744SOL     OW30130   2.021   0.366   2.650
 9744SOL    HW130131   2.013   0.388   2.748
 9744SOL    HW230132   2.114   0.334   2.631
 9745SOL     OW30133   4.949   3.093   6.281
 9745SOL    HW130134   4.953   3.070   6.378
 9745SOL    HW230135   4.908   3.016   6.231
 9746SOL     OW30136   5.495   6.702   5.540
 9746SOL    HW130137   5.572   6.754   5.504
 9746SOL    HW230138   5.468   6.739   5.629
 9747SOL     OW30139   2.990   2.073   1.868
 9747SOL    HW130140   2.916   2.063   1.802
 9747SOL    HW230141   2.987   2.165   1.907
 9748SOL     OW30142   6.854   6.581   3.190
 9748SOL    HW130143   6.803   6.495   3.199
 9748SOL    HW230144   6.827   6.627   3.106
 9749SOL     OW30145   0.848   0.845   3.511
 9749SOL    HW130146   0.885   0.836   3.418
 9749SOL    HW230147   0.760   0.892   3.508
 9750SOL     OW30148   5.729   5.426   3.481
 9750SOL    HW130149   5.751   5.360   3.553
 9750SOL    HW230150   5.673   5.382   3.411
 9751SOL     OW30151   2.002   0.036   0.825
 9751SOL    HW130152   1.954   6.978   0.803
 9751SOL    HW230153   2.089   0.039   0.774
 9752SOL     OW30154   4.618   1.654   5.430
 9752SOL    HW130155   4.654   1.626   5.519
 9752SOL    HW230156   4.562   1.580   5.392
 9753SOL     OW30157   1.091   5.520   5.918
 9753SOL    HW130158   1.006   5.549   5.874
 9753SOL    HW230159   1.142   5.460   5.855
 9754SOL     OW30160   3.019   0.324   0.935
 9754SOL    HW130161   2.940   0.372   0.973
 9754SOL    HW230162   3.103   0.367   0.970
 9755SOL     OW30163   3.093   3.884   4.519
 9755SOL    HW130164   3.189   3.907   4.509
 9755SOL    HW230165   3.055   3.932   4.598
 9756SOL     OW30166   6.234   2.455   6.359
 9756SOL    HW130167   6.247   2.371   6.306
 9756SOL    HW230168   6.206   2.431   6.452
 9757SOL     OW30169   6.082   4.528   4.910
 9757SOL    HW130170   6.067   4.443   4.959
 9757SOL    HW230171   6.058   4.605   4.969
 9758SOL     OW30172   2.235   1.167   0.549
 9758SOL    HW130173   2.148   1.203   0.583
 9758SOL    HW230174   2.238   1.177   0.449
 9759SOL     OW30175   0.924   0.889   0.221
 9759SOL    HW130176   0.892   0.894   0.316
 9759SOL    HW230177   0.926   0.982   0.183
 9760SOL     OW30178   5.111   3.302   5.382
 9760SOL    HW130179   5.062   3.349   5.308
 9760SOL    HW230180   5.067   3.322   5.470
 9761SOL     OW30181   0.989   2.592   1.853
 9761SOL    HW130182   1.048   2.672   1.866
 9761SOL    HW230183   1.012   2.522   1.920
 9762SOL     OW30184   3.291   1.654   5.177
 9762SOL    HW130185   3.315   1.699   5.091
 9762SOL    HW230186   3.198   1.680   5.204
 9763SOL     OW30187   5.662   1.005   3.694
 9763SOL    HW130188   5.605   0.923   3.702
 9763SOL    HW230189   5.611   1.076   3.646
 9764SOL     OW30190   6.352   2.573   2.317
 9764SOL    HW130191   6.270   2.610   2.273
 9764SOL    HW230192   6.334   2.479   2.345
 9765SOL     OW30193   0.059   6.362   2.969
 9765SOL    HW130194   0.088   6.284   3.025
 9765SOL    HW230195   0.112   6.365   2.885
 9766SOL     OW30196   2.297   6.406   1.933
 9766SOL    HW130197   2.268   6.495   1.896
 9766SOL    HW230198   2.369   6.420   2.001
 9767SOL     OW30199   2.476   2.374   5.898
 9767SOL    HW130200   2.453   2.383   5.801
 9767SOL    HW230201   2.504   2.280   5.917
 9768SOL     OW30202   4.421   1.246   2.034
 9768SOL    HW130203   4.453   1.236   1.939
 9768SOL    HW230204   4.361   1.326   2.040
 9769SOL     OW30205   3.576   1.434   4.657
 9769SOL    HW130206   3.572   1.402   4.752
 9769SOL    HW230207   3.497   1.398   4.607
 9770SOL     OW30208   3.781   1.233   5.368
 9770SOL    HW130209   3.748   1.165   5.434
 9770SOL    HW230210   3.877   1.253   5.387
 9771SOL     OW30211   2.373   5.457   1.151
 9771SOL    HW130212   2.414   5.376   1.194
 9771SOL    HW230213   2.444   5.508   1.102
 9772SOL     OW30214   1.876   6.204   1.943
 9772SOL    HW130215   1.904   6.299   1.956
 9772SOL    HW230216   1.791   6.186   1.992
 9773SOL     OW30217   4.842   5.380   3.865
 9773SOL    HW130218   4.871   5.427   3.949
 9773SOL    HW230219   4.917   5.379   3.800
 9774SOL     OW30220   0.349   5.472   2.913
 9774SOL    HW130221   0.434   5.443   2.956
 9774SOL    HW230222   0.278   5.403   2.929
 9775SOL     OW30223   3.197   0.437   3.251
 9775SOL    HW130224   3.210   0.344   3.216
 9775SOL    HW230225   3.276   0.463   3.306
 9776SOL     OW30226   1.049   4.544   6.001
 9776SOL    HW130227   1.081   4.586   5.916
 9776SOL    HW230228   1.066   4.607   6.077
 9777SOL     OW30229   6.189   5.064   1.080
 9777SOL    HW130230   6.106   5.008   1.077
 9777SOL    HW230231   6.237   5.058   0.992
 9778SOL     OW30232   7.017   1.536   4.962
 9778SOL    HW130233   6.936   1.509   5.013
 9778SOL    HW230234   6.993   1.605   4.893
 9779SOL     OW30235   0.758   1.691   3.986
 9779SOL    HW130236   0.734   1.594   3.981
 9779SOL    HW230237   0.858   1.701   3.978
 9780SOL     OW30238   2.275   1.780   0.330
 9780SOL    HW130239   2.276   1.872   0.292
 9780SOL    HW230240   2.318   1.780   0.420
 9781SOL     OW30241   2.215   3.094   4.451
 9781SOL    HW130242   2.305   3.094   4.494
 9781SOL    HW230243   2.171   3.182   4.466
 9782SOL     OW30244   0.693   2.188   0.185
 9782SOL    HW130245   0.658   2.135   0.108
 9782SOL    HW230246   0.662   2.149   0.271
 9783SOL     OW30247   4.353   2.369   3.198
 9783SOL    HW130248   4.362   2.461   3.237
 9783SOL    HW230249   4.377   2.372   3.101
 9784SOL     OW30250   3.774   0.541   6.184
 9784SOL    HW130251   3.701   0.592   6.229
 9784SOL    HW230252   3.844   0.605   6.152
 9785SOL     OW30253   0.042   2.157   5.545
 9785SOL    HW130254   0.135   2.171   5.577
 9785SOL    HW230255   7.004   2.190   5.615
 9786SOL     OW30256   2.364   3.161   0.389
 9786SOL    HW130257   2.396   3.212   0.468
 9786SOL    HW230258   2.365   3.221   0.308
 9787SOL     OW30259   3.414   3.217   2.840
 9787SOL    HW130260   3.411   3.137   2.781
 9787SOL    HW230261   3.489   3.277   2.811
 9788SOL     OW30262   0.924   6.745   2.061
 9788SOL    HW130263   0.866   6.813   2.017
 9788SOL    HW230264   0.987   6.706   1.993
 9789SOL     OW30265   1.356   6.006   0.244
 9789SOL    HW130266   1.445   6.014   0.199
 9789SOL    HW230267   1.361   5.937   0.316
 9790SOL     OW30268   6.325   4.431   5.982
 9790SOL    HW130269   6.395   4.443   6.052
 9790SOL    HW230270   6.363   4.377   5.906
 9791SOL     OW30271   0.529   6.827   6.588
 9791SOL    HW130272   0.577   6.750   6.631
 9791SOL    HW230273   0.482   6.880   6.658
 9792SOL     OW30274   3.175   4.800   0.829
 9792SOL    HW130275   3.099   4.736   0.843
 9792SOL    HW230276   3.151   4.864   0.756
 9793SOL     OW30277   4.034   0.216   2.548
 9793SOL    HW130278   4.089   0.290   2.588
 9793SOL    HW230279   4.043   0.134   2.604
 9794SOL     OW30280   6.188   4.604   5.576
 9794SOL    HW130281   6.136   4.686   5.597
 9794SOL    HW230282   6.233   4.613   5.488
 9795SOL     OW30283   1.314   2.434   4.642
 9795SOL    HW130284   1.321   2.339   4.672
 9795SOL    HW230285   1.363   2.493   4.706
 9796SOL     OW30286   4.100   3.621   2.748
 9796SOL    HW130287   4.128   3.538   2.796
 9796SOL    HW230288   4.126   3.614   2.651
 9797SOL     OW30289   2.002   6.045   0.209
 9797SOL    HW130290   2.023   6.037   0.111
 9797SOL    HW230291   1.927   6.109   0.222
 9798SOL     OW30292   2.895   0.752   2.373
 9798SOL    HW130293   2.919   0.843   2.342
 9798SOL    HW230294   2.797   0.736   2.356
 9799SOL     OW30295   3.072   4.068   6.124
 9799SOL    HW130296   3.017   3.986   6.109
 9799SOL    HW230297   3.016   4.150   6.113
 9800SOL     OW30298   5.314   5.073   4.814
 9800SOL    HW130299   5.248   5.149   4.820
 9800SOL    HW230300   5.378   5.091   4.739
 9801SOL     OW30301   4.626   4.407   6.866
 9801SOL    HW130302   4.587   4.476   6.805
 9801SOL    HW230303   4.600   4.428   6.961
 9802SOL     OW30304   5.803   4.791   0.634
 9802SOL    HW130305   5.768   4.707   0.592
 9802SOL    HW230306   5.880   4.768   0.694
 9803SOL     OW30307   1.773   3.166   6.599
 9803SOL    HW130308   1.759   3.235   6.528
 9803SOL    HW230309   1.693   3.106   6.604
 9804SOL     OW30310   0.554   6.344   3.381
 9804SOL    HW130311   0.552   6.427   3.325
 9804SOL    HW230312   0.514   6.268   3.329
 9805SOL     OW30313   0.338   6.558   2.935
 9805SOL    HW130314   0.432   6.580   2.909
 9805SOL    HW230315   0.280   6.639   2.923
 9806SOL     OW30316   1.508   1.476   6.997
 9806SOL    HW130317   1.604   1.494   6.978
 9806SOL    HW230318   1.451   1.516   6.926
 9807SOL     OW30319   3.156   3.830   1.046
 9807SOL    HW130320   3.150   3.844   0.947
 9807SOL    HW230321   3.234   3.772   1.067
 9808SOL     OW30322   4.210   5.557   4.925
 9808SOL    HW130323   4.285   5.508   4.879
 9808SOL    HW230324   4.185   5.637   4.871
 9809SOL     OW30325   0.920   3.251   6.913
 9809SOL    HW130326   0.930   3.154   6.890
 9809SOL    HW230327   0.826   3.269   6.940
 9810SOL     OW30328   3.329   2.021   4.594
 9810SOL    HW130329   3.311   2.074   4.677
 9810SOL    HW230330   3.250   1.964   4.574
 9811SOL     OW30331   5.769   5.076   3.296
 9811SOL    HW130332   5.866   5.053   3.288
 9811SOL    HW230333   5.714   4.993   3.280
 9812SOL     OW30334   3.309   1.549   5.665
 9812SOL    HW130335   3.399   1.508   5.649
 9812SOL    HW230336   3.242   1.477   5.683
 9813SOL     OW30337   5.054   2.050   1.197
 9813SOL    HW130338   5.002   2.017   1.118
 9813SOL    HW230339   5.041   1.988   1.274
 9814SOL     OW30340   0.319   0.178   6.588
 9814SOL    HW130341   0.375   0.225   6.520
 9814SOL    HW230342   0.252   0.121   6.541
 9815SOL     OW30343   4.947   3.419   4.404
 9815SOL    HW130344   4.947   3.517   4.385
 9815SOL    HW230345   4.999   3.372   4.333
 9816SOL     OW30346   0.527   1.029   5.983
 9816SOL    HW130347   0.561   1.002   5.893
 9816SOL    HW230348   0.446   1.087   5.973
 9817SOL     OW30349   1.568   6.860   3.350
 9817SOL    HW130350   1.573   6.762   3.367
 9817SOL    HW230351   1.632   6.907   3.412
 9818SOL     OW30352   6.546   1.233   4.012
 9818SOL    HW130353   6.630   1.285   4.027
 9818SOL    HW230354   6.474   1.267   4.073
 9819SOL     OW30355   5.264   3.228   3.389
 9819SOL    HW130356   5.239   3.290   3.315
 9819SOL    HW230357   5.193   3.158   3.399
 9820SOL     OW30358   3.464   3.260   6.470
 9820SOL    HW130359   3.469   3.336   6.405
 9820SOL    HW230360   3.432   3.293   6.558
 9821SOL     OW30361   5.606   1.060   6.420
 9821SOL    HW130362   5.515   1.102   6.425
 9821SOL    HW230363   5.665   1.115   6.361
 9822SOL     OW30364   1.571   0.234   3.310
 9822SOL    HW130365   1.533   0.295   3.241
 9822SOL    HW230366   1.503   0.166   3.336
 9823SOL     OW30367   2.744   0.148   0.547
 9823SOL    HW130368   2.697   0.122   0.463
 9823SOL    HW230369   2.728   0.245   0.566
 9824SOL     OW30370   2.151   4.868   4.684
 9824SOL    HW130371   2.202   4.841   4.602
 9824SOL    HW230372   2.212   4.918   4.746
 9825SOL     OW30373   4.005   5.185   5.914
 9825SOL    HW130374   4.104   5.187   5.897
 9825SOL    HW230375   3.972   5.091   5.910
 9826SOL     OW30376   5.085   4.964   5.920
 9826SOL    HW130377   5.179   5.000   5.920
 9826SOL    HW230378   5.043   4.981   5.831
 9827SOL     OW30379   2.110   3.790   3.867
 9827SOL    HW130380   2.127   3.738   3.783
 9827SOL    HW230381   2.154   3.745   3.944
 9828SOL     OW30382   2.438   3.086   6.181
 9828SOL    HW130383   2.358   3.141   6.204
 9828SOL    HW230384   2.471   3.038   6.262
 9829SOL     OW30385   3.631   6.120   6.957
 9829SOL    HW130386   3.544   6.151   6.997
 9829SOL    HW230387   3.612   6.073   6.870
 9830SOL     OW30388   6.038   2.797   1.991
 9830SOL    HW130389   6.036   2.774   2.089
 9830SOL    HW230390   6.119   2.853   1.972
 9831SOL     OW30391   2.126   5.409   1.033
 9831SOL    HW130392   2.041   5.441   1.075
 9831SOL    HW230393   2.204   5.433   1.092
 9832SOL     OW30394   5.060   5.518   2.609
 9832SOL    HW130395   4.966   5.527   2.643
 9832SOL    HW230396   5.123   5.514   2.687
 9833SOL     OW30397   3.902   3.661   5.311
 9833SOL    HW130398   3.861   3.681   5.400
 9833SOL    HW230399   3.910   3.562   5.299
 9834SOL     OW30400   3.248   4.558   5.359
 9834SOL    HW130401   3.176   4.607   5.310
 9834SOL    HW230402   3.336   4.580   5.317
 9835SOL     OW30403   3.239   2.801   5.506
 9835SOL    HW130404   3.229   2.781   5.408
 9835SOL    HW230405   3.308   2.741   5.545
 9836SOL     OW30406   6.157   4.562   3.952
 9836SOL    HW130407   6.082   4.627   3.966
 9836SOL    HW230408   6.146   4.518   3.862
 9837SOL     OW30409   3.126   0.445   2.907
 9837SOL    HW130410   3.071   0.465   2.825
 9837SOL    HW230411   3.215   0.408   2.880
 9838SOL     OW30412   0.986   6.598   5.851
 9838SOL    HW130413   1.021   6.547   5.772
 9838SOL    HW230414   1.018   6.692   5.847
 9839SOL     OW30415   5.898   1.754   3.456
 9839SOL    HW130416   5.941   1.783   3.370
 9839SOL    HW230417   5.932   1.812   3.531
 9840SOL     OW30418   6.886   2.003   1.118
 9840SOL    HW130419   6.935   2.084   1.152
 9840SOL    HW230420   6.935   1.920   1.148
 9841SOL     OW30421   1.960   3.936   4.471
 9841SOL    HW130422   1.945   3.862   4.537
 9841SOL    HW230423   1.947   4.024   4.517
 9842SOL     OW30424   4.114   3.276   2.479
 9842SOL    HW130425   4.044   3.345   2.499
 9842SOL    HW230426   4.170   3.262   2.560
 9843SOL     OW30427   5.146   0.721   1.397
 9843SOL    HW130428   5.229   0.759   1.438
 9843SOL    HW230429   5.126   0.771   1.313
 9844SOL     OW30430   6.042   1.108   1.835
 9844SOL    HW130431   5.950   1.118   1.873
 9844SOL    HW230432   6.046   1.153   1.746
 9845SOL     OW30433   3.124   2.128   3.823
 9845SOL    HW130434   3.221   2.129   3.798
 9845SOL    HW230435   3.108   2.053   3.887
 9846SOL     OW30436   3.880   3.624   1.872
 9846SOL    HW130437   3.919   3.646   1.782
 9846SOL    HW230438   3.782   3.644   1.872
 9847SOL     OW30439   3.515   2.893   4.556
 9847SOL    HW130440   3.554   2.801   4.567
 9847SOL    HW230441   3.562   2.957   4.617
 9848SOL     OW30442   3.118   3.300   6.098
 9848SOL    HW130443   3.128   3.201   6.108
 9848SOL    HW230444   3.054   3.320   6.024
 9849SOL     OW30445   0.685   0.078   6.753
 9849SOL    HW130446   0.699   0.047   6.659
 9849SOL    HW230447   0.594   0.050   6.784
 9850SOL     OW30448   5.681   0.143   4.008
 9850SOL    HW130449   5.761   0.166   4.064
 9850SOL    HW230450   5.712   0.097   3.925
 9851SOL     OW30451   4.779   1.097   5.039
 9851SOL    HW130452   4.694   1.046   5.030
 9851SOL    HW230453   4.856   1.033   5.046
 9852SOL     OW30454   4.193   2.293   2.722
 9852SOL    HW130455   4.275   2.239   2.705
 9852SOL    HW230456   4.217   2.378   2.769
 9853SOL     OW30457   5.306   4.318   4.303
 9853SOL    HW130458   5.233   4.321   4.372
 9853SOL    HW230459   5.297   4.396   4.241
 9854SOL     OW30460   0.760   6.075   4.968
 9854SOL    HW130461   0.685   6.136   4.993
 9854SOL    HW230462   0.811   6.115   4.892
 9855SOL     OW30463   2.498   2.698   0.952
 9855SOL    HW130464   2.567   2.759   0.992
 9855SOL    HW230465   2.458   2.741   0.871
 9856SOL     OW30466   4.653   4.121   5.479
 9856SOL    HW130467   4.741   4.156   5.512
 9856SOL    HW230468   4.656   4.021   5.477
 9857SOL     OW30469   4.489   2.453   3.421
 9857SOL    HW130470   4.462   2.372   3.368
 9857SOL    HW230471   4.587   2.468   3.412
 9858SOL     OW30472   0.099   0.701   0.544
 9858SOL    HW130473   0.075   0.670   0.636
 9858SOL    HW230474   0.077   0.630   0.478
 9859SOL     OW30475   6.005   6.849   1.949
 9859SOL    HW130476   5.935   6.879   1.884
 9859SOL    HW230477   6.092   6.893   1.926
 9860SOL     OW30478   0.806   1.419   3.931
 9860SOL    HW130479   0.835   1.342   3.988
 9860SOL    HW230480   0.848   1.412   3.841
 9861SOL     OW30481   3.146   0.127   3.354
 9861SOL    HW130482   3.096   0.047   3.322
 9861SOL    HW230483   3.096   0.170   3.430
 9862SOL     OW30484   3.743   4.030   0.159
 9862SOL    HW130485   3.678   4.014   0.233
 9862SOL    HW230486   3.789   4.118   0.173
 9863SOL     OW30487   3.532   6.881   2.668
 9863SOL    HW130488   3.491   6.796   2.700
 9863SOL    HW230489   3.576   6.866   2.579
 9864SOL     OW30490   3.721   6.529   4.005
 9864SOL    HW130491   3.798   6.482   3.962
 9864SOL    HW230492   3.681   6.593   3.940
 9865SOL     OW30493   1.510   0.932   4.165
 9865SOL    HW130494   1.589   0.973   4.120
 9865SOL    HW230495   1.541   0.864   4.232
 9866SOL     OW30496   4.800   4.978   6.259
 9866SOL    HW130497   4.799   4.955   6.356
 9866SOL    HW230498   4.733   4.922   6.211
 9867SOL     OW30499   6.203   0.935   0.720
 9867SOL    HW130500   6.134   1.007   0.725
 9867SOL    HW230501   6.262   0.940   0.801
 9868SOL     OW30502   0.536   3.874   5.956
 9868SOL    HW130503   0.554   3.790   6.006
 9868SOL    HW230504   0.611   3.893   5.892
 9869SOL     OW30505   1.693   3.201   2.296
 9869SOL    HW130506   1.712   3.112   2.255
 9869SOL    HW230507   1.704   3.273   2.227
 9870SOL     OW30508   4.068   5.489   2.513
 9870SOL    HW130509   4.070   5.426   2.590
 9870SOL    HW230510   4.039   5.579   2.545
 9871SOL     OW30511   0.246   5.774   6.069
 9871SOL    HW130512   0.243   5.696   6.007
 9871SOL    HW230513   0.243   5.859   6.017
 9872SOL     OW30514   2.346   4.860   4.363
 9872SOL    HW130515   2.379   4.773   4.327
 9872SOL    HW230516   2.303   4.912   4.290
 9873SOL     OW30517   2.679   2.552   6.973
 9873SOL    HW130518   2.757   2.606   7.003
 9873SOL    HW230519   2.711   2.476   6.916
 9874SOL     OW30520   6.835   3.025   4.870
 9874SOL    HW130521   6.804   3.120   4.874
 9874SOL    HW230522   6.760   2.964   4.896
 9875SOL     OW30523   6.246   6.274   1.952
 9875SOL    HW130524   6.228   6.319   2.039
 9875SOL    HW230525   6.345   6.272   1.936
 9876SOL     OW30526   6.375   0.464   3.249
 9876SOL    HW130527   6.309   0.388   3.244
 9876SOL    HW230528   6.327   0.547   3.278
 9877SOL     OW30529   0.220   5.971   4.242
 9877SOL    HW130530   0.253   6.013   4.327
 9877SOL    HW230531   0.269   5.885   4.225
 9878SOL     OW30532   2.699   4.786   5.204
 9878SOL    HW130533   2.779   4.729   5.185
 9878SOL    HW230534   2.686   4.851   5.129
 9879SOL     OW30535   5.569   5.447   4.491
 9879SOL    HW130536   5.655   5.413   4.528
 9879SOL    HW230537   5.584   5.485   4.399
 9880SOL     OW30538   3.274   0.862   5.848
 9880SOL    HW130539   3.275   0.766   5.821
 9880SOL    HW230540   3.326   0.874   5.933
 9881SOL     OW30541   0.614   0.925   5.105
 9881SOL    HW130542   0.704   0.952   5.072
 9881SOL    HW230543   0.544   0.974   5.054
 9882SOL     OW30544   1.230   3.766   3.679
 9882SOL    HW130545   1.310   3.713   3.704
 9882SOL    HW230546   1.215   3.838   3.747
 9883SOL     OW30547   1.173   6.285   0.035
 9883SOL    HW130548   1.182   6.282   0.134
 9883SOL    HW230549   1.180   6.379   0.003
 9884SOL     OW30550   4.951   2.277   1.915
 9884SOL    HW130551   4.858   2.284   1.951
 9884SOL    HW230552   4.961   2.338   1.837
 9885SOL     OW30553   6.854   2.371   4.894
 9885SOL    HW130554   6.872   2.468   4.883
 9885SOL    HW230555   6.814   2.354   4.984
 9886SOL     OW30556   1.254   4.510   2.624
 9886SOL    HW130557   1.342   4.548   2.597
 9886SOL    HW230558   1.258   4.410   2.619
 9887SOL     OW30559   3.911   0.369   6.362
 9887SOL    HW130560   3.958   0.309   6.296
 9887SOL    HW230561   3.862   0.440   6.312
 9888SOL     OW30562   5.719   4.669   3.063
 9888SOL    HW130563   5.790   4.599   3.058
 9888SOL    HW230564   5.659   4.662   2.984
 9889SOL     OW30565   6.684   5.259   2.023
 9889SOL    HW130566   6.683   5.174   2.076
 9889SOL    HW230567   6.767   5.311   2.044
 9890SOL     OW30568   1.861   2.155   0.488
 9890SOL    HW130569   1.901   2.101   0.562
 9890SOL    HW230570   1.925   2.228   0.462
 9891SOL     OW30571   4.797   3.874   1.906
 9891SOL    HW130572   4.826   3.969   1.918
 9891SOL    HW230573   4.813   3.823   1.991
 9892SOL     OW30574   6.837   4.794   1.192
 9892SOL    HW130575   6.926   4.833   1.216
 9892SOL    HW230576   6.828   4.789   1.093
 9893SOL     OW30577   0.740   0.561   1.107
 9893SOL    HW130578   0.660   0.607   1.143
 9893SOL    HW230579   0.715   0.510   1.024
 9894SOL     OW30580   3.224   3.071   0.669
 9894SOL    HW130581   3.233   2.972   0.660
 9894SOL    HW230582   3.142   3.091   0.723
 9895SOL     OW30583   6.037   4.902   4.335
 9895SOL    HW130584   6.059   4.888   4.239
 9895SOL    HW230585   5.989   4.821   4.371
 9896SOL     OW30586   6.405   1.505   6.553
 9896SOL    HW130587   6.361   1.534   6.638
 9896SOL    HW230588   6.377   1.567   6.479
 9897SOL     OW30589   5.485   6.274   2.569
 9897SOL    HW130590   5.552   6.254   2.497
 9897SOL    HW230591   5.401   6.223   2.552
 9898SOL     OW30592   1.697   5.840   4.845
 9898SOL    HW130593   1.637   5.883   4.913
 9898SOL    HW230594   1.702   5.900   4.765
 9899SOL     OW30595   1.407   5.869   0.824
 9899SOL    HW130596   1.378   5.775   0.841
 9899SOL    HW230597   1.338   5.933   0.860
 9900SOL     OW30598   1.740   2.455   3.204
 9900SOL    HW130599   1.804   2.391   3.162
 9900SOL    HW230600   1.680   2.406   3.267
 9901SOL     OW30601   2.979   0.461   6.829
 9901SOL    HW130602   2.952   0.436   6.922
 9901SOL    HW230603   2.910   0.429   6.764
 9902SOL     OW30604   3.502   4.994   1.610
 9902SOL    HW130605   3.579   4.980   1.672
 9902SOL    HW230606   3.493   5.092   1.591
 9903SOL     OW30607   5.673   2.030   1.222
 9903SOL    HW130608   5.685   1.968   1.145
 9903SOL    HW230609   5.603   1.994   1.284
 9904SOL     OW30610   1.073   3.907   6.933
 9904SOL    HW130611   0.973   3.908   6.925
 9904SOL    HW230612   1.109   3.828   6.884
 9905SOL     OW30613   2.141   0.415   6.602
 9905SOL    HW130614   2.089   0.500   6.611
 9905SOL    HW230615   2.189   0.414   6.514
 9906SOL     OW30616   1.818   3.435   0.934
 9906SOL    HW130617   1.839   3.337   0.941
 9906SOL    HW230618   1.886   3.480   0.877
 9907SOL     OW30619   0.842   0.131   1.370
 9907SOL    HW130620   0.790   0.132   1.456
 9907SOL    HW230621   0.893   0.216   1.360
 9908SOL     OW30622   6.436   1.319   5.596
 9908SOL    HW130623   6.486   1.380   5.656
 9908SOL    HW230624   6.379   1.257   5.651
 9909SOL     OW30625   4.789   1.486   2.862
 9909SOL    HW130626   4.733   1.500   2.944
 9909SOL    HW230627   4.842   1.569   2.844
 9910SOL     OW30628   1.109   4.968   1.544
 9910SOL    HW130629   1.093   4.948   1.640
 9910SOL    HW230630   1.196   4.928   1.515
 9911SOL     OW30631   3.213   5.933   2.598
 9911SOL    HW130632   3.272   5.948   2.519
 9911SOL    HW230633   3.117   5.947   2.571
 9912SOL     OW30634   3.970   0.124   1.559
 9912SOL    HW130635   4.057   0.081   1.535
 9912SOL    HW230636   3.904   0.111   1.485
 9913SOL     OW30637   6.695   3.889   0.271
 9913SOL    HW130638   6.647   3.911   0.187
 9913SOL    HW230639   6.661   3.802   0.308
 9914SOL     OW30640   5.943   1.212   4.901
 9914SOL    HW130641   5.892   1.284   4.854
 9914SOL    HW230642   5.880   1.139   4.927
 9915SOL     OW30643   6.414   1.113   3.761
 9915SOL    HW130644   6.464   1.150   3.839
 9915SOL    HW230645   6.375   1.024   3.786
 9916SOL     OW30646   1.854   2.548   2.915
 9916SOL    HW130647   1.856   2.610   2.837
 9916SOL    HW230648   1.759   2.520   2.933
 9917SOL     OW30649   4.344   3.776   6.308
 9917SOL    HW130650   4.415   3.814   6.367
 9917SOL    HW230651   4.271   3.843   6.296
 9918SOL     OW30652   2.294   2.184   3.501
 9918SOL    HW130653   2.231   2.250   3.459
 9918SOL    HW230654   2.373   2.232   3.539
 9919SOL     OW30655   0.740   5.467   0.575
 9919SOL    HW130656   0.750   5.543   0.511
 9919SOL    HW230657   0.677   5.494   0.648
 9920SOL     OW30658   4.726   1.162   2.120
 9920SOL    HW130659   4.672   1.097   2.173
 9920SOL    HW230660   4.693   1.254   2.136
 9921SOL     OW30661   3.983   6.066   4.576
 9921SOL    HW130662   4.048   6.033   4.507
 9921SOL    HW230663   4.028   6.069   4.665
 9922SOL     OW30664   2.134   3.767   0.043
 9922SOL    HW130665   2.074   3.723   7.004
 9922SOL    HW230666   2.116   3.730   0.135
 9923SOL     OW30667   5.639   4.598   0.107
 9923SOL    HW130668   5.680   4.518   0.065
 9923SOL    HW230669   5.614   4.664   0.036
 9924SOL     OW30670   6.028   1.621   3.054
 9924SOL    HW130671   6.087   1.544   3.077
 9924SOL    HW230672   6.059   1.662   2.968
 9925SOL     OW30673   0.495   4.622   4.039
 9925SOL    HW130674   0.522   4.645   4.133
 9925SOL    HW230675   0.428   4.548   4.040
 9926SOL     OW30676   4.631   3.134   1.441
 9926SOL    HW130677   4.597   3.202   1.376
 9926SOL    HW230678   4.634   3.174   1.532
 9927SOL     OW30679   1.582   0.333   0.673
 9927SOL    HW130680   1.557   0.236   0.676
 9927SOL    HW230681   1.603   0.359   0.579
 9928SOL     OW30682   5.077   4.919   2.741
 9928SOL    HW130683   5.091   4.957   2.833
 9928SOL    HW230684   4.991   4.868   2.739
 9929SOL     OW30685   3.054   4.063   5.145
 9929SOL    HW130686   3.136   4.049   5.088
 9929SOL    HW230687   3.069   4.142   5.204
 9930SOL     OW30688   6.481   6.695   5.133
 9930SOL    HW130689   6.436   6.770   5.085
 9930SOL    HW230690   6.412   6.638   5.177
 9931SOL     OW30691   0.523   5.235   4.438
 9931SOL    HW130692   0.594   5.171   4.468
 9931SOL    HW230693   0.496   5.213   4.344
 9932SOL     OW30694   3.033   3.476   6.284
 9932SOL    HW130695   3.085   3.407   6.235
 9932SOL    HW230696   3.080   3.564   6.278
 9933SOL     OW30697   1.072   6.660   4.084
 9933SOL    HW130698   1.151   6.616   4.042
 9933SOL    HW230699   1.086   6.668   4.182
 9934SOL     OW30700   6.347   2.251   5.842
 9934SOL    HW130701   6.252   2.232   5.816
 9934SOL    HW230702   6.392   2.165   5.868
 9935SOL     OW30703   3.335   6.661   0.684
 9935SOL    HW130704   3.328   6.578   0.628
 9935SOL    HW230705   3.245   6.704   0.691
 9936SOL     OW30706   6.805   4.804   0.505
 9936SOL    HW130707   6.725   4.849   0.465
 9936SOL    HW230708   6.855   4.756   0.432
 9937SOL     OW30709   0.132   2.060   1.707
 9937SOL    HW130710   0.041   2.027   1.734
 9937SOL    HW230711   0.195   1.983   1.702
 9938SOL     OW30712   6.702   4.985   3.643
 9938SOL    HW130713   6.632   4.954   3.707
 9938SOL    HW230714   6.788   4.938   3.663
 9939SOL     OW30715   4.451   2.641   1.380
 9939SOL    HW130716   4.371   2.680   1.426
 9939SOL    HW230717   4.421   2.586   1.301
 9940SOL     OW30718   0.702   0.816   1.450
 9940SOL    HW130719   0.695   0.908   1.412
 9940SOL    HW230720   0.670   0.818   1.545
 9941SOL     OW30721   3.016   3.197   4.541
 9941SOL    HW130722   2.998   3.147   4.625
 9941SOL    HW230723   3.108   3.175   4.508
 9942SOL     OW30724   2.608   5.252   2.840
 9942SOL    HW130725   2.644   5.257   2.933
 9942SOL    HW230726   2.528   5.312   2.832
 9943SOL     OW30727   0.357   4.176   5.618
 9943SOL    HW130728   0.449   4.183   5.658
 9943SOL    HW230729   0.296   4.239   5.665
 9944SOL     OW30730   0.571   4.374   6.556
 9944SOL    HW130731   0.565   4.380   6.456
 9944SOL    HW230732   0.545   4.282   6.585
 9945SOL     OW30733   4.513   5.817   6.556
 9945SOL    HW130734   4.448   5.886   6.588
 9945SOL    HW230735   4.587   5.861   6.506
 9946SOL     OW30736   6.074   0.735   3.548
 9946SOL    HW130737   6.018   0.729   3.631
 9946SOL    HW230738   6.053   0.821   3.501
 9947SOL     OW30739   2.613   2.500   4.685
 9947SOL    HW130740   2.644   2.506   4.591
 9947SOL    HW230741   2.557   2.418   4.697
 9948SOL     OW30742   6.103   4.565   6.043
 9948SOL    HW130743   6.188   4.516   6.020
 9948SOL    HW230744   6.036   4.499   6.076
 9949SOL     OW30745   6.647   4.911   3.989
 9949SOL    HW130746   6.571   4.928   3.927
 9949SOL    HW230747   6.729   4.956   3.954
 9950SOL     OW30748   5.445   6.120   5.494
 9950SOL    HW130749   5.423   6.061   5.572
 9950SOL    HW230750   5.530   6.088   5.451
 9951SOL     OW30751   1.096   1.728   3.985
 9951SOL    HW130752   1.077   1.630   3.987
 9951SOL    HW230753   1.164   1.748   3.915
 9952SOL     OW30754   1.225   4.698   0.413
 9952SOL    HW130755   1.308   4.734   0.371
 9952SOL    HW230756   1.233   4.702   0.513
 9953SOL     OW30757   5.946   2.619   4.868
 9953SOL    HW130758   5.925   2.522   4.858
 9953SOL    HW230759   5.877   2.662   4.927
 9954SOL     OW30760   0.349   0.756   5.979
 9954SOL    HW130761   0.369   0.850   5.949
 9954SOL    HW230762   0.425   0.723   6.036
 9955SOL     OW30763   5.895   3.744   6.133
 9955SOL    HW130764   5.882   3.646   6.145
 9955SOL    HW230765   5.965   3.777   6.196
 9956SOL     OW30766   0.618   5.840   2.554
 9956SOL    HW130767   0.619   5.807   2.459
 9956SOL    HW230768   0.529   5.879   2.574
 9957SOL     OW30769   5.514   6.708   1.926
 9957SOL    HW130770   5.459   6.749   1.999
 9957SOL    HW230771   5.497   6.757   1.841
 9958SOL     OW30772   2.141   5.207   7.009
 9958SOL    HW130773   2.171   5.133   6.949
 9958SOL    HW230774   2.216   5.273   7.021
 9959SOL     OW30775   4.112   3.687   4.387
 9959SOL    HW130776   4.137   3.626   4.462
 9959SOL    HW230777   4.113   3.637   4.301
 9960SOL     OW30778   0.076   0.349   1.969
 9960SOL    HW130779   0.158   0.313   2.011
 9960SOL    HW230780   0.035   0.279   1.909
 9961SOL     OW30781   1.731   5.591   4.517
 9961SOL    HW130782   1.802   5.560   4.580
 9961SOL    HW230783   1.770   5.600   4.425
 9962SOL     OW30784   5.039   6.496   1.256
 9962SOL    HW130785   5.026   6.412   1.307
 9962SOL    HW230786   4.985   6.492   1.171
 9963SOL     OW30787   2.733   3.142   6.577
 9963SOL    HW130788   2.758   3.209   6.507
 9963SOL    HW230789   2.769   3.171   6.666
 9964SOL     OW30790   5.042   3.625   5.922
 9964SOL    HW130791   5.106   3.700   5.940
 9964SOL    HW230792   4.952   3.662   5.901
 9965SOL     OW30793   3.765   5.618   6.736
 9965SOL    HW130794   3.848   5.671   6.718
 9965SOL    HW230795   3.760   5.541   6.671
 9966SOL     OW30796   2.512   5.578   2.243
 9966SOL    HW130797   2.545   5.665   2.206
 9966SOL    HW230798   2.412   5.576   2.237
 9967SOL     OW30799   5.960   7.023   2.374
 9967SOL    HW130800   5.999   6.944   2.327
 9967SOL    HW230801   5.878   6.995   2.424
 9968SOL     OW30802   2.854   3.200   6.792
 9968SOL    HW130803   2.849   3.282   6.849
 9968SOL    HW230804   2.930   3.208   6.728
 9969SOL     OW30805   2.217   2.944   3.644
 9969SOL    HW130806   2.220   2.861   3.589
 9969SOL    HW230807   2.146   3.005   3.610
 9970SOL     OW30808   5.376   4.282   2.858
 9970SOL    HW130809   5.449   4.318   2.917
 9970SOL    HW230810   5.288   4.294   2.904
 9971SOL     OW30811   2.837   4.326   0.593
 9971SOL    HW130812   2.824   4.226   0.596
 9971SOL    HW230813   2.933   4.346   0.577
 9972SOL     OW30814   3.802   4.774   1.446
 9972SOL    HW130815   3.716   4.786   1.397
 9972SOL    HW230816   3.832   4.862   1.483
 9973SOL     OW30817   4.181   2.322   4.532
 9973SOL    HW130818   4.164   2.297   4.627
 9973SOL    HW230819   4.133   2.259   4.471
 9974SOL     OW30820   6.747   3.515   3.546
 9974SOL    HW130821   6.768   3.432   3.597
 9974SOL    HW230822   6.697   3.579   3.604
 9975SOL     OW30823   0.158   4.848   6.679
 9975SOL    HW130824   0.073   4.831   6.629
 9975SOL    HW230825   0.169   4.779   6.750
 9976SOL     OW30826   0.512   5.812   5.270
 9976SOL    HW130827   0.593   5.860   5.236
 9976SOL    HW230828   0.432   5.872   5.261
 9977SOL     OW30829   0.023   5.678   5.274
 9977SOL    HW130830   0.068   5.590   5.291
 9977SOL    HW230831   7.006   5.709   5.358
 9978SOL     OW30832   6.025   2.989   3.069
 9978SOL    HW130833   5.970   2.920   3.117
 9978SOL    HW230834   6.117   2.991   3.107
 9979SOL     OW30835   6.908   4.648   5.517
 9979SOL    HW130836   6.831   4.710   5.500
 9979SOL    HW230837   6.937   4.606   5.432
 9980SOL     OW30838   1.846   1.887   6.193
 9980SOL    HW130839   1.820   1.844   6.279
 9980SOL    HW230840   1.778   1.867   6.123
 9981SOL     OW30841   2.889   1.895   2.053
 9981SOL    HW130842   2.923   1.922   1.963
 9981SOL    HW230843   2.790   1.885   2.049
 9982SOL     OW30844   0.160   0.711   3.612
 9982SOL    HW130845   0.160   0.708   3.512
 9982SOL    HW230846   0.113   0.631   3.647
 9983SOL     OW30847   0.520   2.690   3.677
 9983SOL    HW130848   0.477   2.684   3.587
 9983SOL    HW230849   0.590   2.619   3.685
 9984SOL     OW30850   2.112   0.923   0.254
 9984SOL    HW130851   2.053   0.946   0.331
 9984SOL    HW230852   2.163   0.840   0.274
 9985SOL     OW30853   2.276   1.222   1.643
 9985SOL    HW130854   2.362   1.212   1.594
 9985SOL    HW230855   2.269   1.151   1.714
 9986SOL     OW30856   4.634   4.582   6.476
 9986SOL    HW130857   4.604   4.628   6.560
 9986SOL    HW230858   4.715   4.628   6.440
 9987SOL     OW30859   6.790   2.214   3.704
 9987SOL    HW130860   6.713   2.269   3.737
 9987SOL    HW230861   6.870   2.232   3.761
 9988SOL     OW30862   0.714   5.830   4.872
 9988SOL    HW130863   0.730   5.815   4.775
 9988SOL    HW230864   0.749   5.920   4.898
 9989SOL     OW30865   6.188   4.447   3.701
 9989SOL    HW130866   6.148   4.495   3.623
 9989SOL    HW230867   6.283   4.423   3.681
 9990SOL     OW30868   2.735   6.371   1.936
 9990SOL    HW130869   2.785   6.458   1.940
 9990SOL    HW230870   2.761   6.321   1.854
 9991SOL     OW30871   2.044   2.740   3.915
 9991SOL    HW130872   2.042   2.749   4.014
 9991SOL    HW230873   2.093   2.818   3.876
 9992SOL     OW30874   5.055   4.281   0.413
 9992SOL    HW130875   4.990   4.300   0.340
 9992SOL    HW230876   5.006   4.261   0.498
 9993SOL     OW30877   3.861   0.586   1.871
 9993SOL    HW130878   3.776   0.551   1.830
 9993SOL    HW230879   3.918   0.627   1.800
 9994SOL     OW30880   0.139   4.794   3.169
 9994SOL    HW130881   0.059   4.855   3.168
 9994SOL    HW230882   0.126   4.724   3.239
 9995SOL     OW30883   4.027   1.470   3.012
 9995SOL    HW130884   4.006   1.542   2.946
 9995SOL    HW230885   3.956   1.400   3.008
 9996SOL     OW30886   2.326   3.263   1.727
 9996SOL    HW130887   2.325   3.362   1.742
 9996SOL    HW230888   2.274   3.241   1.645
 9997SOL     OW30889   3.757   1.748   0.804
 9997SOL    HW130890   3.780   1.809   0.879
 9997SOL    HW230891   3.670   1.776   0.763
 9998SOL     OW30892   5.628   4.223   0.623
 9998SOL    HW130893   5.645   4.293   0.693
 9998SOL    HW230894   5.594   4.140   0.667
 9999SOL     OW30895   6.765   2.876   5.350
 9999SOL    HW130896   6.740   2.819   5.428
 9999SOL    HW230897   6.859   2.857   5.323
10000SOL     OW30898   6.653   3.325   0.448
10000SOL    HW130899   6.635   3.373   0.361
10000SOL    HW230900   6.748   3.294   0.450
10001SOL     OW30901   4.983   0.603   2.014
10001SOL    HW130902   4.890   0.593   2.052
10001SOL    HW230903   4.994   0.695   1.977
10002SOL     OW30904   1.659   0.670   2.408
10002SOL    HW130905   1.725   0.715   2.349
10002SOL    HW230906   1.700   0.588   2.448
10003SOL     OW30907   3.770   1.787   3.677
10003SOL    HW130908   3.770   1.877   3.632
10003SOL    HW230909   3.863   1.764   3.705
10004SOL     OW30910   5.307   2.480   3.663
10004SOL    HW130911   5.364   2.558   3.639
10004SOL    HW230912   5.349   2.430   3.738
10005SOL     OW30913   4.817   0.565   3.843
10005SOL    HW130914   4.738   0.554   3.783
10005SOL    HW230915   4.804   0.510   3.925
10006SOL     OW30916   5.192   0.157   4.515
10006SOL    HW130917   5.182   0.252   4.486
10006SOL    HW230918   5.106   0.124   4.553
10007SOL     OW30919   0.739   5.214   5.136
10007SOL    HW130920   0.732   5.304   5.094
10007SOL    HW230921   0.674   5.207   5.212
10008SOL     OW30922   4.153   1.165   4.598
10008SOL    HW130923   4.071   1.221   4.599
10008SOL    HW230924   4.230   1.217   4.636
10009SOL     OW30925   1.901   4.228   1.486
10009SOL    HW130926   1.865   4.218   1.393
10009SOL    HW230927   1.884   4.145   1.538
10010SOL     OW30928   1.823   0.380   5.777
10010SOL    HW130929   1.737   0.350   5.817
10010SOL    HW230930   1.897   0.368   5.843
10011SOL     OW30931   5.739   1.685   4.893
10011SOL    HW130932   5.646   1.651   4.878
10011SOL    HW230933   5.784   1.630   4.963
10012SOL     OW30934   4.860   1.063   3.366
10012SOL    HW130935   4.862   1.051   3.266
10012SOL    HW230936   4.932   1.008   3.407
10013SOL     OW30937   0.922   1.377   3.683
10013SOL    HW130938   0.933   1.405   3.587
10013SOL    HW230939   0.982   1.299   3.701
10014SOL     OW30940   6.882   3.844   0.508
10014SOL    HW130941   6.808   3.877   0.448
10014SOL    HW230942   6.900   3.748   0.488
10015SOL     OW30943   1.566   3.669   0.436
10015SOL    HW130944   1.501   3.744   0.427
10015SOL    HW230945   1.517   3.582   0.430
10016SOL     OW30946   1.738   1.086   6.314
10016SOL    HW130947   1.803   1.035   6.258
10016SOL    HW230948   1.646   1.075   6.278
10017SOL     OW30949   2.981   1.965   3.203
10017SOL    HW130950   3.018   1.997   3.291
10017SOL    HW230951   2.884   1.942   3.214
10018SOL     OW30952   4.333   6.422   5.625
10018SOL    HW130953   4.239   6.454   5.639
10018SOL    HW230954   4.349   6.410   5.527
10019SOL     OW30955   6.699   2.347   2.713
10019SOL    HW130956   6.661   2.287   2.783
10019SOL    HW230957   6.678   2.310   2.623
10020SOL     OW30958   1.726   2.306   1.713
10020SOL    HW130959   1.701   2.243   1.787
10020SOL    HW230960   1.689   2.272   1.626
10021SOL     OW30961   0.014   2.813   1.342
10021SOL    HW130962   6.964   2.749   1.331
10021SOL    HW230963   0.095   2.775   1.298
10022SOL     OW30964   2.830   0.372   6.594
10022SOL    HW130965   2.867   0.292   6.641
10022SOL    HW230966   2.857   0.369   6.497
10023SOL     OW30967   0.999   5.129   6.839
10023SOL    HW130968   1.045   5.146   6.926
10023SOL    HW230969   1.011   5.033   6.813
10024SOL     OW30970   1.590   6.516   2.291
10024SOL    HW130971   1.568   6.540   2.197
10024SOL    HW230972   1.544   6.578   2.354
10025SOL     OW30973   1.813   1.387   1.301
10025SOL    HW130974   1.714   1.394   1.288
10025SOL    HW230975   1.838   1.291   1.313
10026SOL     OW30976   5.854   6.332   3.583
10026SOL    HW130977   5.913   6.253   3.603
10026SOL    HW230978   5.779   6.334   3.649
10027SOL     OW30979   6.506   3.793   5.000
10027SOL    HW130980   6.472   3.772   5.092
10027SOL    HW230981   6.450   3.865   4.959
10028SOL     OW30982   1.765   0.940   1.735
10028SOL    HW130983   1.829   0.879   1.689
10028SOL    HW230984   1.806   1.031   1.742
10029SOL     OW30985   4.685   1.819   4.972
10029SOL    HW130986   4.695   1.911   5.010
10029SOL    HW230987   4.588   1.797   4.964
10030SOL     OW30988   2.710   0.011   3.592
10030SOL    HW130989   2.761   0.025   3.507
10030SOL    HW230990   2.708   6.940   3.614
10031SOL     OW30991   5.816   5.163   4.806
10031SOL    HW130992   5.878   5.213   4.866
10031SOL    HW230993   5.822   5.065   4.826
10032SOL     OW30994   2.334   1.648   5.273
10032SOL    HW130995   2.379   1.618   5.189
10032SOL    HW230996   2.396   1.707   5.324
10033SOL     OW30997   5.803   2.699   4.460
10033SOL    HW130998   5.718   2.648   4.474
10033SOL    HW230999   5.857   2.655   4.388
10034SOL     OW31000   3.314   0.364   3.808
10034SOL    HW131001   3.399   0.415   3.824
10034SOL    HW231002   3.278   0.331   3.896
10035SOL     OW31003   6.217   4.365   1.324
10035SOL    HW131004   6.170   4.305   1.388
10035SOL    HW231005   6.149   4.421   1.276
10036SOL     OW31006   6.085   2.383   1.406
10036SOL    HW131007   6.076   2.482   1.396
10036SOL    HW231008   6.009   2.347   1.459
10037SOL     OW31009   6.991   1.540   0.467
10037SOL    HW131010   6.899   1.572   0.488
10037SOL    HW231011   7.010   1.456   0.517
10038SOL     OW31012   5.359   0.499   0.173
10038SOL    HW131013   5.371   0.552   0.257
10038SOL    HW231014   5.434   0.433   0.164
10039SOL     OW31015   3.566   0.375   3.601
10039SOL    HW131016   3.493   0.406   3.540
10039SOL    HW231017   3.573   0.437   3.679
10040SOL     OW31018   5.349   5.148   6.607
10040SOL    HW131019   5.346   5.069   6.546
10040SOL    HW231020   5.419   5.134   6.677
10041SOL     OW31021   4.466   5.797   6.989
10041SOL    HW131022   4.463   5.885   6.940
10041SOL    HW231023   4.516   5.730   6.934
10042SOL     OW31024   0.606   2.388   4.046
10042SOL    HW131025   0.635   2.305   3.999
10042SOL    HW231026   0.527   2.427   3.999
10043SOL     OW31027   6.612   1.139   4.853
10043SOL    HW131028   6.561   1.222   4.874
10043SOL    HW231029   6.576   1.063   4.907
10044SOL     OW31030   1.950   2.266   4.441
10044SOL    HW131031   1.852   2.288   4.435
10044SOL    HW231032   1.961   2.176   4.482
10045SOL     OW31033   4.138   0.319   1.916
10045SOL    HW131034   4.061   0.288   1.971
10045SOL    HW231035   4.191   0.387   1.967
10046SOL     OW31036   1.987   3.513   0.733
10046SOL    HW131037   2.002   3.578   0.658
10046SOL    HW231038   2.029   3.426   0.710
10047SOL     OW31039   0.793   3.359   4.548
10047SOL    HW131040   0.834   3.311   4.470
10047SOL    HW231041   0.865   3.410   4.596
10048SOL     OW31042   0.372   6.350   2.506
10048SOL    HW131043   0.448   6.287   2.490
10048SOL    HW231044   0.345   6.346   2.602
10049SOL     OW31045   2.138   1.282   5.797
10049SOL    HW131046   2.183   1.349   5.738
10049SOL    HW231047   2.194   1.199   5.801
10050SOL     OW31048   5.433   4.188   5.030
10050SOL    HW131049   5.347   4.239   5.023
10050SOL    HW231050   5.510   4.251   5.032
10051SOL     OW31051   0.559   4.073   4.721
10051SOL    HW131052   0.498   4.018   4.664
10051SOL    HW231053   0.597   4.148   4.667
10052SOL     OW31054   2.240   1.287   3.551
10052SOL    HW131055   2.211   1.207   3.499
10052SOL    HW231056   2.271   1.258   3.642
10053SOL     OW31057   4.158   5.967   4.367
10053SOL    HW131058   4.089   5.918   4.313
10053SOL    HW231059   4.175   6.056   4.326
10054SOL     OW31060   6.124   5.004   5.460
10054SOL    HW131061   6.122   5.077   5.529
10054SOL    HW231062   6.067   5.031   5.382
10055SOL     OW31063   6.305   2.026   5.669
10055SOL    HW131064   6.257   2.111   5.690
10055SOL    HW231065   6.362   2.039   5.588
10056SOL     OW31066   5.350   4.787   3.489
10056SOL    HW131067   5.345   4.737   3.403
10056SOL    HW231068   5.260   4.784   3.534
10057SOL     OW31069   5.308   4.430   5.245
10057SOL    HW131070   5.344   4.393   5.331
10057SOL    HW231071   5.245   4.364   5.204
10058SOL     OW31072   6.734   3.272   4.906
10058SOL    HW131073   6.666   3.291   4.977
10058SOL    HW231074   6.720   3.333   4.829
10059SOL     OW31075   6.942   1.639   0.185
10059SOL    HW131076   6.952   1.736   0.164
10059SOL    HW231077   6.975   1.621   0.277
10060SOL     OW31078   2.060   2.242   3.142
10060SOL    HW131079   2.140   2.182   3.139
10060SOL    HW231080   2.082   2.329   3.098
10061SOL     OW31081   4.517   1.036   3.931
10061SOL    HW131082   4.521   1.016   3.833
10061SOL    HW231083   4.538   1.132   3.947
10062SOL     OW31084   6.648   0.006   4.257
10062SOL    HW131085   6.669   6.989   4.170
10062SOL    HW231086   6.599   6.969   4.316
10063SOL     OW31087   3.383   1.619   4.881
10063SOL    HW131088   3.464   1.581   4.925
10063SOL    HW231089   3.407   1.655   4.791
10064SOL     OW31090   4.380   6.077   6.610
10064SOL    HW131091   4.442   6.152   6.588
10064SOL    HW231092   4.286   6.103   6.587
10065SOL     OW31093   1.982   1.178   1.129
10065SOL    HW131094   2.030   1.240   1.191
10065SOL    HW231095   2.034   1.093   1.120
10066SOL     OW31096   0.362   2.384   4.917
10066SOL    HW131097   0.334   2.478   4.897
10066SOL    HW231098   0.418   2.349   4.842
10067SOL     OW31099   0.163   3.091   6.414
10067SOL    HW131100   0.149   3.015   6.350
10067SOL    HW231101   0.260   3.093   6.442
10068SOL     OW31102   1.155   3.732   3.287
10068SOL    HW131103   1.137   3.648   3.235
10068SOL    HW231104   1.092   3.738   3.364
10069SOL     OW31105   3.082   4.812   1.427
10069SOL    HW131106   3.124   4.788   1.339
10069SOL    HW231107   2.984   4.796   1.422
10070SOL     OW31108   0.923   5.079   5.328
10070SOL    HW131109   0.850   5.140   5.296
10070SOL    HW231110   0.982   5.128   5.391
10071SOL     OW31111   1.078   0.259   4.074
10071SOL    HW131112   1.037   0.348   4.092
10071SOL    HW231113   1.120   0.259   3.983
10072SOL     OW31114   0.662   1.243   3.202
10072SOL    HW131115   0.709   1.169   3.155
10072SOL    HW231116   0.664   1.227   3.301
10073SOL     OW31117   6.708   3.831   3.896
10073SOL    HW131118   6.804   3.810   3.908
10073SOL    HW231119   6.675   3.792   3.810
10074SOL     OW31120   1.817   5.808   0.483
10074SOL    HW131121   1.907   5.821   0.441
10074SOL    HW231122   1.753   5.772   0.415
10075SOL     OW31123   2.111   0.695   2.649
10075SOL    HW131124   2.093   0.609   2.601
10075SOL    HW231125   2.158   0.677   2.735
10076SOL     OW31126   4.960   5.613   3.071
10076SOL    HW131127   5.005   5.523   3.065
10076SOL    HW231128   4.866   5.604   3.040
10077SOL     OW31129   5.344   2.725   0.750
10077SOL    HW131130   5.363   2.664   0.673
10077SOL    HW231131   5.264   2.691   0.800
10078SOL     OW31132   0.928   6.467   4.674
10078SOL    HW131133   1.019   6.433   4.695
10078SOL    HW231134   0.905   6.446   4.579
10079SOL     OW31135   5.525   2.167   2.891
10079SOL    HW131136   5.584   2.174   2.811
10079SOL    HW231137   5.532   2.251   2.945
10080SOL     OW31138   4.959   0.929   6.399
10080SOL    HW131139   4.993   0.867   6.470
10080SOL    HW231140   4.915   0.876   6.326
10081SOL     OW31141   0.459   1.508   0.379
10081SOL    HW131142   0.531   1.565   0.340
10081SOL    HW231143   0.385   1.567   0.413
10082SOL     OW31144   1.482   5.424   3.507
10082SOL    HW131145   1.440   5.379   3.586
10082SOL    HW231146   1.544   5.495   3.540
10083SOL     OW31147   3.513   6.568   3.618
10083SOL    HW131148   3.590   6.513   3.586
10083SOL    HW231149   3.490   6.638   3.550
10084SOL     OW31150   6.931   6.812   5.124
10084SOL    HW131151   6.928   6.859   5.036
10084SOL    HW231152   6.931   6.713   5.109
10085SOL     OW31153   4.544   6.842   0.686
10085SOL    HW131154   4.475   6.810   0.751
10085SOL    HW231155   4.512   6.826   0.592
10086SOL     OW31156   5.817   6.427   3.261
10086SOL    HW131157   5.753   6.355   3.234
10086SOL    HW231158   5.832   6.423   3.360
10087SOL     OW31159   6.959   6.721   4.445
10087SOL    HW131160   6.881   6.703   4.385
10087SOL    HW231161   6.934   6.787   4.515
10088SOL     OW31162   6.863   0.861   0.559
10088SOL    HW131163   6.946   0.913   0.538
10088SOL    HW231164   6.864   0.776   0.507
10089SOL     OW31165   3.082   1.660   3.389
10089SOL    HW131166   3.153   1.597   3.419
10089SOL    HW231167   3.096   1.684   3.293
10090SOL     OW31168   0.512   4.552   2.207
10090SOL    HW131169   0.590   4.605   2.239
10090SOL    HW231170   0.427   4.593   2.242
10091SOL     OW31171   6.116   6.212   6.695
10091SOL    HW131172   6.135   6.310   6.710
10091SOL    HW231173   6.051   6.201   6.621
10092SOL     OW31174   1.311   3.331   5.273
10092SOL    HW131175   1.339   3.360   5.365
10092SOL    HW231176   1.352   3.242   5.253
10093SOL     OW31177   4.995   3.544   4.856
10093SOL    HW131178   5.037   3.454   4.860
10093SOL    HW231179   4.945   3.562   4.941
10094SOL     OW31180   2.283   6.600   0.701
10094SOL    HW131181   2.252   6.661   0.628
10094SOL    HW231182   2.266   6.643   0.790
10095SOL     OW31183   5.568   1.876   5.061
10095SOL    HW131184   5.551   1.958   5.006
10095SOL    HW231185   5.577   1.797   5.000
10096SOL     OW31186   5.097   0.937   2.513
10096SOL    HW131187   5.071   0.914   2.420
10096SOL    HW231188   5.197   0.942   2.520
10097SOL     OW31189   2.062   2.498   6.478
10097SOL    HW131190   2.079   2.492   6.380
10097SOL    HW231191   2.130   2.445   6.528
10098SOL     OW31192   2.969   6.123   4.691
10098SOL    HW131193   2.877   6.124   4.652
10098SOL    HW231194   3.032   6.082   4.625
10099SOL     OW31195   6.218   4.320   1.848
10099SOL    HW131196   6.309   4.337   1.810
10099SOL    HW231197   6.227   4.273   1.936
10100SOL     OW31198   5.590   5.245   5.386
10100SOL    HW131199   5.634   5.295   5.311
10100SOL    HW231200   5.659   5.206   5.446
10101SOL     OW31201   6.809   3.029   1.783
10101SOL    HW131202   6.850   2.951   1.738
10101SOL    HW231203   6.784   3.004   1.877
10102SOL     OW31204   5.805   0.449   0.727
10102SOL    HW131205   5.780   0.533   0.775
10102SOL    HW231206   5.903   0.434   0.735
10103SOL     OW31207   1.042   0.509   5.065
10103SOL    HW131208   0.996   0.596   5.084
10103SOL    HW231209   0.991   0.459   4.994
10104SOL     OW31210   2.466   0.720   6.267
10104SOL    HW131211   2.493   0.627   6.290
10104SOL    HW231212   2.483   0.736   6.169
10105SOL     OW31213   2.809   1.012   6.101
10105SOL    HW131214   2.846   0.929   6.059
10105SOL    HW231215   2.878   1.084   6.097
10106SOL     OW31216   4.225   6.061   1.473
10106SOL    HW131217   4.238   5.962   1.464
10106SOL    HW231218   4.265   6.093   1.559
10107SOL     OW31219   4.847   3.444   6.510
10107SOL    HW131220   4.828   3.533   6.551
10107SOL    HW231221   4.946   3.428   6.511
10108SOL     OW31222   1.429   2.403   1.012
10108SOL    HW131223   1.470   2.413   1.102
10108SOL    HW231224   1.499   2.377   0.945
10109SOL     OW31225   0.876   1.167   0.164
10109SOL    HW131226   0.808   1.240   0.174
10109SOL    HW231227   0.913   1.170   0.071
10110SOL     OW31228   4.598   4.962   2.775
10110SOL    HW131229   4.615   4.868   2.804
10110SOL    HW231230   4.668   4.989   2.709
10111SOL     OW31231   1.382   2.623   2.256
10111SOL    HW131232   1.416   2.636   2.349
10111SOL    HW231233   1.326   2.702   2.229
10112SOL     OW31234   6.802   3.689   3.106
10112SOL    HW131235   6.702   3.685   3.098
10112SOL    HW231236   6.829   3.782   3.133
10113SOL     OW31237   4.212   0.917   6.756
10113SOL    HW131238   4.197   0.826   6.716
10113SOL    HW231239   4.297   0.955   6.721
10114SOL     OW31240   3.866   2.188   3.105
10114SOL    HW131241   3.948   2.211   3.158
10114SOL    HW231242   3.892   2.169   3.010
10115SOL     OW31243   4.085   1.799   4.474
10115SOL    HW131244   4.113   1.875   4.415
10115SOL    HW231245   4.166   1.757   4.515
10116SOL     OW31246   5.902   0.197   5.644
10116SOL    HW131247   5.853   0.259   5.583
10116SOL    HW231248   5.909   0.238   5.735
10117SOL     OW31249   6.582   5.689   5.664
10117SOL    HW131250   6.534   5.686   5.752
10117SOL    HW231251   6.527   5.739   5.597
10118SOL     OW31252   2.771   4.700   4.301
10118SOL    HW131253   2.804   4.738   4.387
10118SOL    HW231254   2.676   4.670   4.311
10119SOL     OW31255   7.017   5.432   3.884
10119SOL    HW131256   0.024   5.357   3.828
10119SOL    HW231257   0.067   5.478   3.928
10120SOL     OW31258   1.216   2.844   2.697
10120SOL    HW131259   1.194   2.775   2.766
10120SOL    HW231260   1.307   2.883   2.717
10121SOL     OW31261   5.722   4.442   0.786
10121SOL    HW131262   5.813   4.439   0.827
10121SOL    HW231263   5.730   4.468   0.690
10122SOL     OW31264   5.906   2.125   3.376
10122SOL    HW131265   5.906   2.223   3.394
10122SOL    HW231266   5.821   2.100   3.330
10123SOL     OW31267   6.035   6.364   0.501
10123SOL    HW131268   6.077   6.360   0.410
10123SOL    HW231269   6.088   6.423   0.561
10124SOL     OW31270   1.344   5.010   2.530
10124SOL    HW131271   1.254   5.043   2.501
10124SOL    HW231272   1.333   4.955   2.613
10125SOL     OW31273   2.136   0.883   1.800
10125SOL    HW131274   2.231   0.892   1.772
10125SOL    HW231275   2.088   0.970   1.784
10126SOL     OW31276   6.328   0.075   5.925
10126SOL    HW131277   6.303   0.060   5.829
10126SOL    HW231278   6.331   0.174   5.943
10127SOL     OW31279   1.054   4.478   6.418
10127SOL    HW131280   1.007   4.466   6.505
10127SOL    HW231281   1.136   4.534   6.432
10128SOL     OW31282   2.814   0.623   0.086
10128SOL    HW131283   2.745   0.675   0.137
10128SOL    HW231284   2.798   0.525   0.098
10129SOL     OW31285   6.942   1.569   1.979
10129SOL    HW131286   6.951   1.470   1.991
10129SOL    HW231287   6.914   1.611   2.066
10130SOL     OW31288   1.114   2.445   1.671
10130SOL    HW131289   1.126   2.361   1.723
10130SOL    HW231290   1.079   2.517   1.731
10131SOL     OW31291   1.740   0.679   4.059
10131SOL    HW131292   1.686   0.743   4.005
10131SOL    HW231293   1.834   0.711   4.065
10132SOL     OW31294   0.386   0.188   2.480
10132SOL    HW131295   0.397   0.169   2.577
10132SOL    HW231296   0.289   0.181   2.455
10133SOL     OW31297   4.561   5.994   1.361
10133SOL    HW131298   4.619   6.024   1.437
10133SOL    HW231299   4.619   5.966   1.284
10134SOL     OW31300   0.055   0.931   2.775
10134SOL    HW131301   0.137   0.976   2.740
10134SOL    HW231302   0.016   0.873   2.704
10135SOL     OW31303   5.452   1.198   3.646
10135SOL    HW131304   5.372   1.251   3.616
10135SOL    HW231305   5.529   1.260   3.661
10136SOL     OW31306   4.866   2.613   2.716
10136SOL    HW131307   4.830   2.520   2.704
10136SOL    HW231308   4.799   2.678   2.679
10137SOL     OW31309   0.683   5.090   5.622
10137SOL    HW131310   0.614   5.091   5.550
10137SOL    HW231311   0.642   5.122   5.707
10138SOL     OW31312   5.915   1.730   6.616
10138SOL    HW131313   5.857   1.741   6.696
10138SOL    HW231314   5.943   1.634   6.608
10139SOL     OW31315   3.701   3.185   5.160
10139SOL    HW131316   3.762   3.113   5.126
10139SOL    HW231317   3.755   3.250   5.214
10140SOL     OW31318   6.422   6.594   6.008
10140SOL    HW131319   6.391   6.682   5.971
10140SOL    HW231320   6.522   6.594   6.015
10141SOL     OW31321   3.784   1.088   3.961
10141SOL    HW131322   3.864   1.083   3.901
10141SOL    HW231323   3.813   1.124   4.050
10142SOL     OW31324   5.908   6.609   4.728
10142SOL    HW131325   5.838   6.540   4.743
10142SOL    HW231326   5.977   6.574   4.664
10143SOL     OW31327   5.785   3.127   0.014
10143SOL    HW131328   5.843   3.107   0.094
10143SOL    HW231329   5.736   3.044   7.014
10144SOL     OW31330   4.154   6.785   5.361
10144SOL    HW131331   4.248   6.760   5.335
10144SOL    HW231332   4.153   6.813   5.457
10145SOL     OW31333   4.284   6.185   2.523
10145SOL    HW131334   4.358   6.120   2.540
10145SOL    HW231335   4.319   6.262   2.470
10146SOL     OW31336   6.961   4.123   4.415
10146SOL    HW131337   6.914   4.137   4.502
10146SOL    HW231338   6.940   4.032   4.380
10147SOL     OW31339   4.254   5.028   0.345
10147SOL    HW131340   4.276   4.946   0.398
10147SOL    HW231341   4.178   5.077   0.389
10148SOL     OW31342   6.968   5.170   1.033
10148SOL    HW131343   6.945   5.219   1.117
10148SOL    HW231344   6.923   5.214   0.955
10149SOL     OW31345   4.775   4.858   1.528
10149SOL    HW131346   4.724   4.936   1.564
10149SOL    HW231347   4.713   4.782   1.513
10150SOL     OW31348   5.067   3.788   1.881
10150SOL    HW131349   4.970   3.802   1.899
10150SOL    HW231350   5.113   3.758   1.964
10151SOL     OW31351   0.233   0.235   5.620
10151SOL    HW131352   0.211   0.221   5.717
10151SOL    HW231353   0.184   0.167   5.564
10152SOL     OW31354   5.769   6.047   2.886
10152SOL    HW131355   5.837   6.034   2.959
10152SOL    HW231356   5.684   6.002   2.912
10153SOL     OW31357   3.932   5.866   3.946
10153SOL    HW131358   4.032   5.857   3.941
10153SOL    HW231359   3.891   5.830   3.863
10154SOL     OW31360   4.032   4.791   5.623
10154SOL    HW131361   4.062   4.805   5.718
10154SOL    HW231362   4.111   4.797   5.562
10155SOL     OW31363   4.702   2.136   5.904
10155SOL    HW131364   4.788   2.166   5.945
10155SOL    HW231365   4.639   2.214   5.898
10156SOL     OW31366   4.322   0.567   1.299
10156SOL    HW131367   4.421   0.568   1.281
10156SOL    HW231368   4.273   0.569   1.212
10157SOL     OW31369   0.161   2.142   0.285
10157SOL    HW131370   0.160   2.042   0.291
10157SOL    HW231371   0.223   2.178   0.354
10158SOL     OW31372   5.784   6.660   2.486
10158SOL    HW131373   5.757   6.634   2.394
10158SOL    HW231374   5.839   6.587   2.527
10159SOL     OW31375   3.400   2.920   3.149
10159SOL    HW131376   3.397   2.856   3.226
10159SOL    HW231377   3.385   2.869   3.064
10160SOL     OW31378   1.936   4.386   2.565
10160SOL    HW131379   2.019   4.341   2.532
10160SOL    HW231380   1.959   4.448   2.640
10161SOL     OW31381   3.466   4.772   6.372
10161SOL    HW131382   3.553   4.750   6.328
10161SOL    HW231383   3.481   4.845   6.440
10162SOL     OW31384   1.710   4.396   1.653
10162SOL    HW131385   1.732   4.493   1.650
10162SOL    HW231386   1.767   4.346   1.588
10163SOL     OW31387   1.329   5.462   5.420
10163SOL    HW131388   1.375   5.515   5.491
10163SOL    HW231389   1.293   5.524   5.350
10164SOL     OW31390   6.310   3.312   3.486
10164SOL    HW131391   6.368   3.293   3.566
10164SOL    HW231392   6.214   3.306   3.513
10165SOL     OW31393   5.533   2.831   3.919
10165SOL    HW131394   5.490   2.751   3.960
10165SOL    HW231395   5.632   2.826   3.932
10166SOL     OW31396   1.651   2.538   1.450
10166SOL    HW131397   1.712   2.540   1.371
10166SOL    HW231398   1.588   2.460   1.442
10167SOL     OW31399   0.458   4.952   6.802
10167SOL    HW131400   0.390   4.893   6.846
10167SOL    HW231401   0.438   5.048   6.823
10168SOL     OW31402   5.793   1.488   6.436
10168SOL    HW131403   5.792   1.581   6.400
10168SOL    HW231404   5.734   1.483   6.516
10169SOL     OW31405   0.297   3.800   3.239
10169SOL    HW131406   0.245   3.787   3.155
10169SOL    HW231407   0.253   3.870   3.295
10170SOL     OW31408   6.703   5.663   6.514
10170SOL    HW131409   6.668   5.603   6.586
10170SOL    HW231410   6.641   5.741   6.503
10171SOL     OW31411   0.964   2.883   5.565
10171SOL    HW131412   0.930   2.898   5.657
10171SOL    HW231413   1.063   2.900   5.563
10172SOL     OW31414   0.016   6.853   3.600
10172SOL    HW131415   0.005   6.950   3.623
10172SOL    HW231416   6.957   6.817   3.565
10173SOL     OW31417   3.437   4.804   0.383
10173SOL    HW131418   3.486   4.742   0.444
10173SOL    HW231419   3.410   4.886   0.434
10174SOL     OW31420   5.350   6.282   3.372
10174SOL    HW131421   5.252   6.270   3.363
10174SOL    HW231422   5.383   6.343   3.300
10175SOL     OW31423   6.473   1.803   3.509
10175SOL    HW131424   6.519   1.714   3.513
10175SOL    HW231425   6.427   1.812   3.420
10176SOL     OW31426   6.206   3.222   5.857
10176SOL    HW131427   6.262   3.188   5.933
10176SOL    HW231428   6.219   3.321   5.850
10177SOL     OW31429   2.183   0.526   1.473
10177SOL    HW131430   2.148   0.586   1.400
10177SOL    HW231431   2.282   0.517   1.463
10178SOL     OW31432   1.735   0.761   0.737
10178SOL    HW131433   1.780   0.762   0.826
10178SOL    HW231434   1.709   0.855   0.711
10179SOL     OW31435   7.013   4.194   0.182
10179SOL    HW131436   7.014   4.252   0.100
10179SOL    HW231437   0.049   4.118   0.169
10180SOL     OW31438   4.644   0.096   0.067
10180SOL    HW131439   4.585   0.146   0.131
10180SOL    HW231440   4.684   0.017   0.114
10181SOL     OW31441   6.475   3.338   1.225
10181SOL    HW131442   6.377   3.316   1.232
10181SOL    HW231443   6.513   3.295   1.143
10182SOL     OW31444   5.531   1.534   0.385
10182SOL    HW131445   5.496   1.496   0.471
10182SOL    HW231446   5.620   1.495   0.365
10183SOL     OW31447   5.981   3.050   5.956
10183SOL    HW131448   6.069   3.092   5.936
10183SOL    HW231449   5.984   2.953   5.933
10184SOL     OW31450   5.622   2.676   6.773
10184SOL    HW131451   5.555   2.716   6.711
10184SOL    HW231452   5.703   2.649   6.721
10185SOL     OW31453   4.552   6.094   2.509
10185SOL    HW131454   4.640   6.137   2.487
10185SOL    HW231455   4.548   6.004   2.468
10186SOL     OW31456   4.675   3.840   5.476
10186SOL    HW131457   4.733   3.821   5.398
10186SOL    HW231458   4.604   3.770   5.484
10187SOL     OW31459   2.102   3.892   5.565
10187SOL    HW131460   2.126   3.923   5.473
10187SOL    HW231461   2.151   3.807   5.585
10188SOL     OW31462   2.683   6.192   6.991
10188SOL    HW131463   2.765   6.145   7.025
10188SOL    HW231464   2.678   6.184   6.892
10189SOL     OW31465   1.706   0.801   0.076
10189SOL    HW131466   1.724   0.803   0.175
10189SOL    HW231467   1.620   0.848   0.057
10190SOL     OW31468   3.296   3.921   1.384
10190SOL    HW131469   3.339   3.878   1.305
10190SOL    HW231470   3.197   3.929   1.369
10191SOL     OW31471   6.139   5.383   1.101
10191SOL    HW131472   6.159   5.447   1.027
10191SOL    HW231473   6.092   5.302   1.065
10192SOL     OW31474   2.103   1.516   4.726
10192SOL    HW131475   2.086   1.611   4.753
10192SOL    HW231476   2.199   1.505   4.701
10193SOL     OW31477   3.611   3.635   2.251
10193SOL    HW131478   3.651   3.547   2.226
10193SOL    HW231479   3.523   3.619   2.297
10194SOL     OW31480   3.099   0.300   4.963
10194SOL    HW131481   3.110   0.328   5.059
10194SOL    HW231482   3.149   0.215   4.947
10195SOL     OW31483   6.185   0.005   1.586
10195SOL    HW131484   6.098   7.001   1.626
10195SOL    HW231485   6.188   0.105   1.587
10196SOL     OW31486   5.449   2.467   3.301
10196SOL    HW131487   5.422   2.371   3.292
10196SOL    HW231488   5.549   2.472   3.310
10197SOL     OW31489   5.960   0.463   3.464
10197SOL    HW131490   6.010   0.409   3.531
10197SOL    HW231491   5.992   0.558   3.467
10198SOL     OW31492   3.816   6.410   0.759
10198SOL    HW131493   3.741   6.477   0.760
10198SOL    HW231494   3.893   6.446   0.811
10199SOL     OW31495   1.126   1.390   0.005
10199SOL    HW131496   1.099   1.486   0.014
10199SOL    HW231497   1.094   1.355   6.944
10200SOL     OW31498   5.329   3.468   5.686
10200SOL    HW131499   5.410   3.417   5.715
10200SOL    HW231500   5.258   3.460   5.755
10201SOL     OW31501   0.113   5.621   1.790
10201SOL    HW131502   0.066   5.636   1.877
10201SOL    HW231503   0.173   5.542   1.797
10202SOL     OW31504   0.957   3.774   1.244
10202SOL    HW131505   0.945   3.766   1.343
10202SOL    HW231506   0.973   3.870   1.220
10203SOL     OW31507   1.423   2.553   2.582
10203SOL    HW131508   1.349   2.501   2.624
10203SOL    HW231509   1.491   2.575   2.652
10204SOL     OW31510   3.406   4.563   6.194
10204SOL    HW131511   3.329   4.508   6.226
10204SOL    HW231512   3.406   4.651   6.241
10205SOL     OW31513   4.240   1.216   3.359
10205SOL    HW131514   4.171   1.251   3.423
10205SOL    HW231515   4.196   1.194   3.272
10206SOL     OW31516   5.183   5.752   6.059
10206SOL    HW131517   5.227   5.675   6.013
10206SOL    HW231518   5.127   5.803   5.993
10207SOL     OW31519   1.887   0.316   1.274
10207SOL    HW131520   1.887   0.277   1.366
10207SOL    HW231521   1.977   0.302   1.232
10208SOL     OW31522   6.470   5.542   5.434
10208SOL    HW131523   6.475   5.610   5.507
10208SOL    HW231524   6.543   5.475   5.446
10209SOL     OW31525   0.258   1.075   5.956
10209SOL    HW131526   0.246   1.171   5.978
10209SOL    HW231527   0.185   1.021   5.999
10210SOL     OW31528   5.333   6.525   1.535
10210SOL    HW131529   5.315   6.623   1.532
10210SOL    HW231530   5.408   6.507   1.600
10211SOL     OW31531   3.668   6.765   5.814
10211SOL    HW131532   3.719   6.820   5.747
10211SOL    HW231533   3.692   6.669   5.804
10212SOL     OW31534   0.683   1.141   4.233
10212SOL    HW131535   0.644   1.050   4.221
10212SOL    HW231536   0.625   1.209   4.188
10213SOL     OW31537   6.198   1.535   2.371
10213SOL    HW131538   6.124   1.468   2.377
10213SOL    HW231539   6.259   1.510   2.296
10214SOL     OW31540   0.508   0.772   2.598
10214SOL    HW131541   0.434   0.803   2.658
10214SOL    HW231542   0.474   0.701   2.537
10215SOL     OW31543   3.205   2.765   5.215
10215SOL    HW131544   3.255   2.827   5.154
10215SOL    HW231545   3.144   2.707   5.161
10216SOL     OW31546   0.183   6.964   0.923
10216SOL    HW131547   0.216   6.870   0.924
10216SOL    HW231548   0.120   6.977   0.847
10217SOL     OW31549   2.577   1.264   4.190
10217SOL    HW131550   2.499   1.326   4.178
10217SOL    HW231551   2.589   1.244   4.287
10218SOL     OW31552   0.741   1.087   1.354
10218SOL    HW131553   0.785   1.072   1.265
10218SOL    HW231554   0.809   1.120   1.420
10219SOL     OW31555   0.181   2.820   2.692
10219SOL    HW131556   0.112   2.827   2.764
10219SOL    HW231557   0.153   2.749   2.627
10220SOL     OW31558   4.274   1.704   1.740
10220SOL    HW131559   4.345   1.691   1.809
10220SOL    HW231560   4.315   1.706   1.649
10221SOL     OW31561   1.327   2.091   4.086
10221SOL    HW131562   1.326   2.006   4.034
10221SOL    HW231563   1.398   2.152   4.050
10222SOL     OW31564   1.264   3.885   5.501
10222SOL    HW131565   1.269   3.946   5.422
10222SOL    HW231566   1.170   3.851   5.510
10223SOL     OW31567   2.225   5.410   6.441
10223SOL    HW131568   2.225   5.337   6.509
10223SOL    HW231569   2.282   5.383   6.363
10224SOL     OW31570   1.042   1.057   4.418
10224SOL    HW131571   1.026   1.007   4.333
10224SOL    HW231572   0.973   1.031   4.486
10225SOL     OW31573   1.216   6.231   5.278
10225SOL    HW131574   1.299   6.226   5.334
10225SOL    HW231575   1.230   6.297   5.205
10226SOL     OW31576   2.838   0.362   0.020
10226SOL    HW131577   2.792   0.284   7.004
10226SOL    HW231578   2.886   0.332   0.102
10227SOL     OW31579   4.599   4.921   1.194
10227SOL    HW131580   4.669   4.851   1.180
10227SOL    HW231581   4.640   5.012   1.181
10228SOL     OW31582   0.663   4.834   1.977
10228SOL    HW131583   0.584   4.796   1.928
10228SOL    HW231584   0.670   4.932   1.957
10229SOL     OW31585   1.244   1.036   4.016
10229SOL    HW131586   1.186   1.082   4.083
10229SOL    HW231587   1.317   0.987   4.064
10230SOL     OW31588   6.913   0.734   3.516
10230SOL    HW131589   6.882   0.825   3.543
10230SOL    HW231590   6.985   0.742   3.447
10231SOL     OW31591   6.630   6.870   5.770
10231SOL    HW131592   6.644   6.959   5.727
10231SOL    HW231593   6.653   6.797   5.705
10232SOL     OW31594   3.962   0.888   4.388
10232SOL    HW131595   3.918   0.925   4.469
10232SOL    HW231596   3.892   0.859   4.322
10233SOL     OW31597   5.260   2.870   5.392
10233SOL    HW131598   5.165   2.887   5.416
10233SOL    HW231599   5.320   2.898   5.467
10234SOL     OW31600   5.472   0.380   0.998
10234SOL    HW131601   5.566   0.344   0.998
10234SOL    HW231602   5.435   0.374   1.090
10235SOL     OW31603   4.951   1.359   0.397
10235SOL    HW131604   4.978   1.312   0.313
10235SOL    HW231605   4.862   1.325   0.428
10236SOL     OW31606   1.644   6.216   2.137
10236SOL    HW131607   1.552   6.252   2.156
10236SOL    HW231608   1.705   6.243   2.212
10237SOL     OW31609   6.339   4.415   0.864
10237SOL    HW131610   6.436   4.426   0.839
10237SOL    HW231611   6.332   4.356   0.944
10238SOL     OW31612   3.359   3.926   4.546
10238SOL    HW131613   3.348   4.001   4.612
10238SOL    HW231614   3.417   3.855   4.586
10239SOL     OW31615   1.219   4.256   4.666
10239SOL    HW131616   1.282   4.333   4.674
10239SOL    HW231617   1.267   4.170   4.684
10240SOL     OW31618   1.515   4.621   2.623
10240SOL    HW131619   1.500   4.681   2.702
10240SOL    HW231620   1.603   4.575   2.632
10241SOL     OW31621   0.188   0.917   1.687
10241SOL    HW131622   0.121   0.851   1.655
10241SOL    HW231623   0.279   0.876   1.687
10242SOL     OW31624   0.030   2.248   6.557
10242SOL    HW131625   0.089   2.323   6.527
10242SOL    HW231626   6.988   2.282   6.621
10243SOL     OW31627   0.246   5.292   1.309
10243SOL    HW131628   0.257   5.388   1.285
10243SOL    HW231629   0.220   5.240   1.227
10244SOL     OW31630   1.377   5.066   0.225
10244SOL    HW131631   1.387   5.165   0.237
10244SOL    HW231632   1.460   5.020   0.257
10245SOL     OW31633   1.885   4.073   0.029
10245SOL    HW131634   1.913   4.156   7.007
10245SOL    HW231635   1.967   4.020   0.051
10246SOL     OW31636   3.114   3.561   4.669
10246SOL    HW131637   3.055   3.519   4.601
10246SOL    HW231638   3.161   3.490   4.722
10247SOL     OW31639   0.592   5.515   4.852
10247SOL    HW131640   0.591   5.493   4.950
10247SOL    HW231641   0.687   5.517   4.820
10248SOL     OW31642   3.035   0.181   2.144
10248SOL    HW131643   3.021   0.082   2.148
10248SOL    HW231644   3.123   0.204   2.187
10249SOL     OW31645   2.588   0.737   6.523
10249SOL    HW131646   2.535   0.746   6.607
10249SOL    HW231647   2.561   0.653   6.476
10250SOL     OW31648   0.233   1.894   1.025
10250SOL    HW131649   0.170   1.961   0.986
10250SOL    HW231650   0.235   1.904   1.124
10251SOL     OW31651   1.922   2.365   5.437
10251SOL    HW131652   1.830   2.388   5.467
10251SOL    HW231653   1.922   2.348   5.339
10252SOL     OW31654   6.687   6.381   0.682
10252SOL    HW131655   6.655   6.316   0.613
10252SOL    HW231656   6.771   6.346   0.725
10253SOL     OW31657   5.078   5.817   0.023
10253SOL    HW131658   5.060   5.916   0.029
10253SOL    HW231659   5.066   5.776   0.113
10254SOL     OW31660   3.808   1.876   4.944
10254SOL    HW131661   3.798   1.906   4.849
10254SOL    HW231662   3.720   1.882   4.990
10255SOL     OW31663   2.492   5.316   1.569
10255SOL    HW131664   2.499   5.338   1.471
10255SOL    HW231665   2.495   5.217   1.581
10256SOL     OW31666   5.732   6.802   1.594
10256SOL    HW131667   5.636   6.783   1.616
10256SOL    HW231668   5.738   6.835   1.500
10257SOL     OW31669   1.379   4.544   5.048
10257SOL    HW131670   1.380   4.639   5.080
10257SOL    HW231671   1.300   4.530   4.988
10258SOL     OW31672   5.000   0.201   3.773
10258SOL    HW131673   5.092   0.165   3.792
10258SOL    HW231674   4.979   0.188   3.676
10259SOL     OW31675   0.601   5.939   3.073
10259SOL    HW131676   0.606   5.877   2.995
10259SOL    HW231677   0.592   5.887   3.157
10260SOL     OW31678   6.813   0.336   3.346
10260SOL    HW131679   6.780   0.359   3.254
10260SOL    HW231680   6.908   0.363   3.355
10261SOL     OW31681   0.061   6.426   1.682
10261SOL    HW131682   0.075   6.406   1.779
10261SOL    HW231683   0.150   6.438   1.638
10262SOL     OW31684   2.771   5.547   4.706
10262SOL    HW131685   2.690   5.603   4.689
10262SOL    HW231686   2.829   5.592   4.775
10263SOL     OW31687   4.638   1.280   6.465
10263SOL    HW131688   4.651   1.225   6.382
10263SOL    HW231689   4.661   1.226   6.545
10264SOL     OW31690   6.038   1.473   6.678
10264SOL    HW131691   5.984   1.392   6.700
10264SOL    HW231692   6.083   1.460   6.590
10265SOL     OW31693   3.348   2.110   3.118
10265SOL    HW131694   3.340   2.015   3.150
10265SOL    HW231695   3.445   2.137   3.121
10266SOL     OW31696   3.576   2.812   5.242
10266SOL    HW131697   3.479   2.822   5.220
10266SOL    HW231698   3.603   2.881   5.309
10267SOL     OW31699   6.539   1.972   6.617
10267SOL    HW131700   6.524   2.070   6.604
10267SOL    HW231701   6.469   1.936   6.679
10268SOL     OW31702   4.483   6.649   1.857
10268SOL    HW131703   4.400   6.705   1.853
10268SOL    HW231704   4.554   6.697   1.908
10269SOL     OW31705   2.075   1.905   5.611
10269SOL    HW131706   2.164   1.862   5.628
10269SOL    HW231707   2.003   1.836   5.622
10270SOL     OW31708   1.982   5.757   2.499
10270SOL    HW131709   2.047   5.819   2.453
10270SOL    HW231710   1.944   5.694   2.432
10271SOL     OW31711   3.581   2.947   0.733
10271SOL    HW131712   3.621   2.867   0.688
10271SOL    HW231713   3.596   3.028   0.676
10272SOL     OW31714   1.480   1.077   4.698
10272SOL    HW131715   1.463   1.057   4.601
10272SOL    HW231716   1.445   1.002   4.754
10273SOL     OW31717   4.117   5.587   3.454
10273SOL    HW131718   4.092   5.521   3.524
10273SOL    HW231719   4.211   5.570   3.423
10274SOL     OW31720   1.578   4.483   5.752
10274SOL    HW131721   1.579   4.580   5.728
10274SOL    HW231722   1.672   4.452   5.767
10275SOL     OW31723   1.541   0.334   1.926
10275SOL    HW131724   1.505   0.315   2.017
10275SOL    HW231725   1.599   0.257   1.896
10276SOL     OW31726   6.535   5.798   6.098
10276SOL    HW131727   6.463   5.788   6.167
10276SOL    HW231728   6.601   5.867   6.128
10277SOL     OW31729   2.500   6.478   3.614
10277SOL    HW131730   2.488   6.529   3.529
10277SOL    HW231731   2.411   6.448   3.648
10278SOL     OW31732   5.707   0.934   5.436
10278SOL    HW131733   5.735   1.017   5.485
10278SOL    HW231734   5.779   0.865   5.445
10279SOL     OW31735   3.090   6.876   4.164
10279SOL    HW131736   3.168   6.922   4.207
10279SOL    HW231737   3.046   6.815   4.230
10280SOL     OW31738   2.636   4.356   1.021
10280SOL    HW131739   2.538   4.357   1.040
10280SOL    HW231740   2.650   4.359   0.922
10281SOL     OW31741   5.797   2.678   2.434
10281SOL    HW131742   5.868   2.748   2.429
10281SOL    HW231743   5.770   2.665   2.529
10282SOL     OW31744   6.551   3.539   4.442
10282SOL    HW131745   6.494   3.492   4.374
10282SOL    HW231746   6.541   3.638   4.432
10283SOL     OW31747   1.045   2.938   1.059
10283SOL    HW131748   1.137   2.973   1.075
10283SOL    HW231749   0.978   3.008   1.083
10284SOL     OW31750   4.887   4.770   5.958
10284SOL    HW131751   4.958   4.829   5.994
10284SOL    HW231752   4.813   4.826   5.921
10285SOL     OW31753   4.632   0.116   0.838
10285SOL    HW131754   4.593   0.114   0.930
10285SOL    HW231755   4.634   0.023   0.801
10286SOL     OW31756   3.403   1.829   3.952
10286SOL    HW131757   3.337   1.754   3.961
10286SOL    HW231758   3.475   1.818   4.020
10287SOL     OW31759   1.683   6.635   1.977
10287SOL    HW131760   1.777   6.669   1.985
10287SOL    HW231761   1.649   6.652   1.885
10288SOL     OW31762   4.944   6.537   2.509
10288SOL    HW131763   4.986   6.446   2.510
10288SOL    HW231764   4.865   6.536   2.448
10289SOL     OW31765   3.668   0.820   1.939
10289SOL    HW131766   3.608   0.741   1.931
10289SOL    HW231767   3.760   0.789   1.964
10290SOL     OW31768   3.842   4.016   2.739
10290SOL    HW131769   3.838   4.112   2.709
10290SOL    HW231770   3.758   3.993   2.788
10291SOL     OW31771   4.147   0.283   4.094
10291SOL    HW131772   4.229   0.296   4.038
10291SOL    HW231773   4.170   0.294   4.190
10292SOL     OW31774   1.133   1.729   4.624
10292SOL    HW131775   1.133   1.661   4.697
10292SOL    HW231776   1.064   1.704   4.556
10293SOL     OW31777   1.906   6.144   2.662
10293SOL    HW131778   1.866   6.053   2.667
10293SOL    HW231779   1.989   6.148   2.717
10294SOL     OW31780   4.927   3.480   3.327
10294SOL    HW131781   5.016   3.517   3.355
10294SOL    HW231782   4.906   3.399   3.382
10295SOL     OW31783   6.123   4.702   6.282
10295SOL    HW131784   6.062   4.667   6.353
10295SOL    HW231785   6.114   4.645   6.200
10296SOL     OW31786   5.108   4.582   6.598
10296SOL    HW131787   5.045   4.537   6.534
10296SOL    HW231788   5.139   4.669   6.558
10297SOL     OW31789   2.654   6.669   4.629
10297SOL    HW131790   2.611   6.599   4.572
10297SOL    HW231791   2.631   6.653   4.725
10298SOL     OW31792   4.332   4.629   3.036
10298SOL    HW131793   4.380   4.637   2.949
10298SOL    HW231794   4.374   4.558   3.092
10299SOL     OW31795   4.332   4.640   2.749
10299SOL    HW131796   4.328   4.651   2.649
10299SOL    HW231797   4.239   4.645   2.786
10300SOL     OW31798   1.689   4.591   2.050
10300SOL    HW131799   1.629   4.647   1.993
10300SOL    HW231800   1.634   4.528   2.105
10301SOL     OW31801   5.585   1.966   2.542
10301SOL    HW131802   5.606   1.877   2.582
10301SOL    HW231803   5.610   1.966   2.445
10302SOL     OW31804   1.217   6.289   3.583
10302SOL    HW131805   1.302   6.319   3.540
10302SOL    HW231806   1.180   6.210   3.533
10303SOL     OW31807   3.499   5.108   1.318
10303SOL    HW131808   3.447   5.125   1.401
10303SOL    HW231809   3.596   5.118   1.337
10304SOL     OW31810   5.820   0.956   3.129
10304SOL    HW131811   5.895   1.009   3.090
10304SOL    HW231812   5.733   0.995   3.100
10305SOL     OW31813   0.660   5.446   6.106
10305SOL    HW131814   0.741   5.504   6.108
10305SOL    HW231815   0.687   5.350   6.115
10306SOL     OW31816   4.405   6.102   6.263
10306SOL    HW131817   4.373   6.052   6.343
10306SOL    HW231818   4.350   6.078   6.183
10307SOL     OW31819   2.350   1.681   4.851
10307SOL    HW131820   2.281   1.713   4.915
10307SOL    HW231821   2.429   1.647   4.901
10308SOL     OW31822   3.051   4.858   4.199
10308SOL    HW131823   3.017   4.883   4.290
10308SOL    HW231824   3.006   4.774   4.168
10309SOL     OW31825   6.265   0.326   4.063
10309SOL    HW131826   6.284   0.344   3.966
10309SOL    HW231827   6.351   0.301   4.109
10310SOL     OW31828   3.301   3.263   1.355
10310SOL    HW131829   3.291   3.330   1.282
10310SOL    HW231830   3.234   3.190   1.343
10311SOL     OW31831   0.650   5.559   1.201
10311SOL    HW131832   0.601   5.472   1.206
10311SOL    HW231833   0.731   5.555   1.259
10312SOL     OW31834   3.788   5.881   1.436
10312SOL    HW131835   3.787   5.787   1.401
10312SOL    HW231836   3.759   5.881   1.532
10313SOL     OW31837   4.031   6.716   2.459
10313SOL    HW131838   4.046   6.625   2.419
10313SOL    HW231839   3.974   6.706   2.541
10314SOL     OW31840   5.820   0.718   1.522
10314SOL    HW131841   5.788   0.768   1.603
10314SOL    HW231842   5.837   0.782   1.448
10315SOL     OW31843   6.487   6.557   4.457
10315SOL    HW131844   6.558   6.497   4.494
10315SOL    HW231845   6.463   6.527   4.365
10316SOL     OW31846   6.804   3.041   4.417
10316SOL    HW131847   6.720   3.062   4.367
10316SOL    HW231848   6.881   3.038   4.353
10317SOL     OW31849   3.730   5.059   6.526
10317SOL    HW131850   3.725   5.139   6.586
10317SOL    HW231851   3.817   5.059   6.477
10318SOL     OW31852   6.315   5.688   1.346
10318SOL    HW131853   6.293   5.780   1.376
10318SOL    HW231854   6.377   5.692   1.268
10319SOL     OW31855   0.969   4.449   4.934
10319SOL    HW131856   1.003   4.356   4.924
10319SOL    HW231857   0.874   4.454   4.903
10320SOL     OW31858   0.754   0.793   0.757
10320SOL    HW131859   0.818   0.836   0.821
10320SOL    HW231860   0.785   0.700   0.736
10321SOL     OW31861   4.036   6.729   4.675
10321SOL    HW131862   3.961   6.735   4.609
10321SOL    HW231863   4.011   6.779   4.758
10322SOL     OW31864   6.418   5.352   0.510
10322SOL    HW131865   6.498   5.354   0.571
10322SOL    HW231866   6.362   5.433   0.526
10323SOL     OW31867   6.387   3.456   6.602
10323SOL    HW131868   6.476   3.411   6.594
10323SOL    HW231869   6.315   3.393   6.572
10324SOL     OW31870   3.293   3.163   3.385
10324SOL    HW131871   3.298   3.221   3.304
10324SOL    HW231872   3.309   3.218   3.467
10325SOL     OW31873   6.609   4.729   4.449
10325SOL    HW131874   6.542   4.801   4.470
10325SOL    HW231875   6.609   4.710   4.351
10326SOL     OW31876   4.735   2.793   6.851
10326SOL    HW131877   4.776   2.854   6.782
10326SOL    HW231878   4.659   2.743   6.810
10327SOL     OW31879   2.458   1.479   2.782
10327SOL    HW131880   2.552   1.503   2.809
10327SOL    HW231881   2.394   1.523   2.846
10328SOL     OW31882   5.832   3.688   1.780
10328SOL    HW131883   5.897   3.667   1.707
10328SOL    HW231884   5.875   3.671   1.869
10329SOL     OW31885   2.753   0.222   4.375
10329SOL    HW131886   2.707   0.232   4.287
10329SOL    HW231887   2.834   0.280   4.378
10330SOL     OW31888   3.318   4.973   2.913
10330SOL    HW131889   3.324   5.068   2.883
10330SOL    HW231890   3.392   4.920   2.871
10331SOL     OW31891   5.822   0.713   2.658
10331SOL    HW131892   5.734   0.679   2.690
10331SOL    HW231893   5.828   0.812   2.672
10332SOL     OW31894   6.910   1.937   0.397
10332SOL    HW131895   6.972   1.964   0.471
10332SOL    HW231896   6.949   1.963   0.309
10333SOL     OW31897   5.891   4.241   4.083
10333SOL    HW131898   5.927   4.216   3.993
10333SOL    HW231899   5.805   4.192   4.100
10334SOL     OW31900   2.293   5.699   3.801
10334SOL    HW131901   2.261   5.655   3.717
10334SOL    HW231902   2.342   5.632   3.856
10335SOL     OW31903   1.707   4.649   6.807
10335SOL    HW131904   1.661   4.705   6.876
10335SOL    HW231905   1.644   4.628   6.733
10336SOL     OW31906   4.684   6.471   3.127
10336SOL    HW131907   4.748   6.422   3.068
10336SOL    HW231908   4.592   6.434   3.115
10337SOL     OW31909   6.637   5.305   5.154
10337SOL    HW131910   6.736   5.309   5.170
10337SOL    HW231911   6.601   5.398   5.143
10338SOL     OW31912   3.474   6.505   0.991
10338SOL    HW131913   3.378   6.483   0.975
10338SOL    HW231914   3.521   6.517   0.904
10339SOL     OW31915   3.623   4.917   0.890
10339SOL    HW131916   3.701   4.901   0.951
10339SOL    HW231917   3.538   4.892   0.936
10340SOL     OW31918   1.501   5.628   0.063
10340SOL    HW131919   1.554   5.666   7.013
10340SOL    HW231920   1.404   5.652   0.050
10341SOL     OW31921   2.068   2.805   2.040
10341SOL    HW131922   2.076   2.731   1.973
10341SOL    HW231923   2.093   2.892   1.998
10342SOL     OW31924   1.975   5.915   6.158
10342SOL    HW131925   1.896   5.904   6.217
10342SOL    HW231926   1.975   5.843   6.089
10343SOL     OW31927   2.015   3.588   6.904
10343SOL    HW131928   2.035   3.645   6.824
10343SOL    HW231929   1.917   3.586   6.920
10344SOL     OW31930   4.107   3.736   3.642
10344SOL    HW131931   4.162   3.809   3.682
10344SOL    HW231932   4.073   3.766   3.552
10345SOL     OW31933   2.061   1.061   6.613
10345SOL    HW131934   1.971   1.103   6.625
10345SOL    HW231935   2.130   1.119   6.656
10346SOL     OW31936   5.861   0.109   0.966
10346SOL    HW131937   5.938   0.114   0.904
10346SOL    HW231938   5.886   0.055   1.047
10347SOL     OW31939   4.979   1.740   1.158
10347SOL    HW131940   5.060   1.720   1.102
10347SOL    HW231941   4.942   1.829   1.133
10348SOL     OW31942   6.808   0.667   6.399
10348SOL    HW131943   6.771   0.636   6.311
10348SOL    HW231944   6.787   0.599   6.469
10349SOL     OW31945   6.093   0.388   1.043
10349SOL    HW131946   6.046   0.341   1.118
10349SOL    HW231947   6.188   0.358   1.039
10350SOL     OW31948   3.718   6.081   4.496
10350SOL    HW131949   3.653   6.112   4.566
10350SOL    HW231950   3.810   6.080   4.535
10351SOL     OW31951   6.145   4.794   5.893
10351SOL    HW131952   6.056   4.812   5.852
10351SOL    HW231953   6.142   4.705   5.940
10352SOL     OW31954   5.259   2.300   6.412
10352SOL    HW131955   5.289   2.356   6.335
10352SOL    HW231956   5.179   2.343   6.455
10353SOL     OW31957   6.954   2.942   3.613
10353SOL    HW131958   7.007   2.862   3.642
10353SOL    HW231959   6.925   2.929   3.518
10354SOL     OW31960   0.516   4.056   1.628
10354SOL    HW131961   0.432   4.018   1.591
10354SOL    HW231962   0.511   4.058   1.728
10355SOL     OW31963   1.223   0.978   1.249
10355SOL    HW131964   1.266   0.989   1.339
10355SOL    HW231965   1.289   0.998   1.177
10356SOL     OW31966   0.683   3.299   6.991
10356SOL    HW131967   0.619   3.224   7.008
10356SOL    HW231968   0.634   3.377   6.952
10357SOL     OW31969   2.169   2.429   5.953
10357SOL    HW131970   2.087   2.433   5.896
10357SOL    HW231971   2.217   2.517   5.949
10358SOL     OW31972   1.739   3.332   2.723
10358SOL    HW131973   1.757   3.364   2.816
10358SOL    HW231974   1.656   3.275   2.724
10359SOL     OW31975   4.738   2.632   1.959
10359SOL    HW131976   4.826   2.621   1.913
10359SOL    HW231977   4.743   2.711   2.020
10360SOL     OW31978   5.193   4.822   2.519
10360SOL    HW131979   5.244   4.737   2.530
10360SOL    HW231980   5.169   4.859   2.609
10361SOL     OW31981   2.411   0.926   2.324
10361SOL    HW131982   2.450   0.969   2.243
10361SOL    HW231983   2.403   0.995   2.397
10362SOL     OW31984   0.597   4.576   2.571
10362SOL    HW131985   0.581   4.477   2.571
10362SOL    HW231986   0.665   4.599   2.502
10363SOL     OW31987   4.390   2.622   0.483
10363SOL    HW131988   4.468   2.559   0.483
10363SOL    HW231989   4.361   2.639   0.389
10364SOL     OW31990   5.723   5.120   1.380
10364SOL    HW131991   5.785   5.042   1.387
10364SOL    HW231992   5.772   5.200   1.345
10365SOL     OW31993   5.548   4.870   0.422
10365SOL    HW131994   5.515   4.845   0.514
10365SOL    HW231995   5.645   4.845   0.414
10366SOL     OW31996   4.249   6.834   3.594
10366SOL    HW131997   4.150   6.826   3.600
10366SOL    HW231998   4.275   6.884   3.512
10367SOL     OW31999   6.852   2.056   2.091
10367SOL    HW132000   6.754   2.037   2.096
10367SOL    HW232001   6.868   2.155   2.097
10368SOL     OW32002   2.666   0.947   2.603
10368SOL    HW132003   2.584   0.994   2.571
10368SOL    HW232004   2.672   0.857   2.562
10369SOL     OW32005   2.717   6.547   5.870
10369SOL    HW132006   2.694   6.644   5.865
10369SOL    HW232007   2.635   6.494   5.889
10370SOL     OW32008   6.262   1.460   4.846
10370SOL    HW132009   6.245   1.367   4.879
10370SOL    HW232010   6.309   1.455   4.757
10371SOL     OW32011   3.124   6.779   3.420
10371SOL    HW132012   3.118   6.820   3.329
10371SOL    HW232013   3.098   6.847   3.489
10372SOL     OW32014   2.829   0.712   1.835
10372SOL    HW132015   2.805   0.794   1.784
10372SOL    HW232016   2.924   0.717   1.864
10373SOL     OW32017   0.317   6.955   4.612
10373SOL    HW132018   0.247   7.015   4.572
10373SOL    HW232019   0.405   7.001   4.610
10374SOL     OW32020   2.829   6.444   4.817
10374SOL    HW132021   2.900   6.495   4.866
10374SOL    HW232022   2.870   6.397   4.739
10375SOL     OW32023   3.299   2.030   6.401
10375SOL    HW132024   3.249   1.960   6.349
10375SOL    HW232025   3.397   2.016   6.390
10376SOL     OW32026   1.575   6.431   3.595
10376SOL    HW132027   1.650   6.478   3.642
10376SOL    HW232028   1.546   6.485   3.516
10377SOL     OW32029   0.742   2.348   1.556
10377SOL    HW132030   0.661   2.318   1.505
10377SOL    HW232031   0.714   2.414   1.626
10378SOL     OW32032   0.033   5.633   5.758
10378SOL    HW132033   0.058   5.729   5.748
10378SOL    HW232034   0.110   5.582   5.796
10379SOL     OW32035   2.695   5.759   3.784
10379SOL    HW132036   2.770   5.764   3.719
10379SOL    HW232037   2.669   5.663   3.799
10380SOL     OW32038   1.290   2.173   4.718
10380SOL    HW132039   1.352   2.133   4.785
10380SOL    HW232040   1.280   2.111   4.641
10381SOL     OW32041   3.865   4.278   0.222
10381SOL    HW132042   3.886   4.363   0.272
10381SOL    HW232043   3.921   4.204   0.259
10382SOL     OW32044   3.154   6.424   2.021
10382SOL    HW132045   3.069   6.453   2.066
10382SOL    HW232046   3.147   6.328   1.996
10383SOL     OW32047   1.708   3.646   0.693
10383SOL    HW132048   1.639   3.644   0.621
10383SOL    HW232049   1.721   3.554   0.729
10384SOL     OW32050   6.458   6.267   0.915
10384SOL    HW132051   6.439   6.280   0.818
10384SOL    HW232052   6.519   6.189   0.928
10385SOL     OW32053   3.644   5.948   6.050
10385SOL    HW132054   3.547   5.960   6.072
10385SOL    HW232055   3.659   5.965   5.953
10386SOL     OW32056   0.765   0.853   5.733
10386SOL    HW132057   0.761   0.756   5.710
10386SOL    HW232058   0.678   0.896   5.710
10387SOL     OW32059   5.173   2.952   3.082
10387SOL    HW132060   5.267   2.952   3.048
10387SOL    HW232061   5.170   2.904   3.170
10388SOL     OW32062   2.754   6.713   0.823
10388SOL    HW132063   2.770   6.619   0.790
10388SOL    HW232064   2.688   6.758   0.764
10389SOL     OW32065   5.542   3.524   0.112
10389SOL    HW132066   5.551   3.425   0.111
10389SOL    HW232067   5.525   3.556   0.205
10390SOL     OW32068   1.441   2.654   0.366
10390SOL    HW132069   1.475   2.566   0.333
10390SOL    HW232070   1.357   2.677   0.318
10391SOL     OW32071   1.843   6.028   3.826
10391SOL    HW132072   1.744   6.043   3.820
10391SOL    HW232073   1.861   5.939   3.867
10392SOL     OW32074   5.982   5.061   5.247
10392SOL    HW132075   6.054   5.061   5.178
10392SOL    HW232076   5.954   5.155   5.266
10393SOL     OW32077   1.639   3.608   3.563
10393SOL    HW132078   1.669   3.641   3.653
10393SOL    HW232079   1.557   3.658   3.535
10394SOL     OW32080   2.431   5.512   4.409
10394SOL    HW132081   2.417   5.527   4.507
10394SOL    HW232082   2.453   5.599   4.365
10395SOL     OW32083   0.673   6.798   1.442
10395SOL    HW132084   0.742   6.858   1.402
10395SOL    HW232085   0.586   6.810   1.394
10396SOL     OW32086   4.083   1.590   3.690
10396SOL    HW132087   4.169   1.613   3.734
10396SOL    HW232088   4.058   1.661   3.624
10397SOL     OW32089   3.508   1.609   4.090
10397SOL    HW132090   3.603   1.613   4.059
10397SOL    HW232091   3.486   1.515   4.119
10398SOL     OW32092   6.079   2.365   0.920
10398SOL    HW132093   6.177   2.376   0.936
10398SOL    HW232094   6.036   2.327   1.003
10399SOL     OW32095   5.723   1.902   2.888
10399SOL    HW132096   5.745   1.884   2.984
10399SOL    HW232097   5.717   2.001   2.874
10400SOL     OW32098   4.762   6.043   0.311
10400SOL    HW132099   4.687   6.097   0.350
10400SOL    HW232100   4.751   5.947   0.338
10401SOL     OW32101   6.765   6.348   2.606
10401SOL    HW132102   6.828   6.425   2.619
10401SOL    HW232103   6.677   6.382   2.572
10402SOL     OW32104   6.486   2.139   5.159
10402SOL    HW132105   6.453   2.076   5.229
10402SOL    HW232106   6.501   2.229   5.200
10403SOL     OW32107   5.362   1.645   3.697
10403SOL    HW132108   5.455   1.609   3.697
10403SOL    HW232109   5.333   1.662   3.602
10404SOL     OW32110   6.397   6.123   4.518
10404SOL    HW132111   6.389   6.204   4.460
10404SOL    HW232112   6.444   6.050   4.468
10405SOL     OW32113   0.927   0.192   5.077
10405SOL    HW132114   0.931   0.258   5.151
10405SOL    HW232115   1.011   0.198   5.023
10406SOL     OW32116   2.590   4.634   3.294
10406SOL    HW132117   2.675   4.678   3.324
10406SOL    HW232118   2.565   4.563   3.359
10407SOL     OW32119   2.443   6.759   6.224
10407SOL    HW132120   2.359   6.747   6.171
10407SOL    HW232121   2.428   6.729   6.318
10408SOL     OW32122   4.553   0.264   1.380
10408SOL    HW132123   4.595   0.206   1.449
10408SOL    HW232124   4.468   0.304   1.415
10409SOL     OW32125   0.529   4.961   1.126
10409SOL    HW132126   0.587   4.964   1.207
10409SOL    HW232127   0.491   4.868   1.116
10410SOL     OW32128   5.655   1.770   1.802
10410SOL    HW132129   5.622   1.703   1.735
10410SOL    HW232130   5.649   1.862   1.764
10411SOL     OW32131   3.590   6.384   3.237
10411SOL    HW132132   3.553   6.348   3.323
10411SOL    HW232133   3.647   6.315   3.194
10412SOL     OW32134   0.660   1.002   6.957
10412SOL    HW132135   0.751   1.042   6.955
10412SOL    HW232136   0.667   0.906   6.986
10413SOL     OW32137   6.969   2.813   0.226
10413SOL    HW132138   7.008   2.870   0.154
10413SOL    HW232139   6.874   2.839   0.241
10414SOL     OW32140   3.942   4.893   5.880
10414SOL    HW132141   3.871   4.886   5.810
10414SOL    HW232142   3.909   4.852   5.965
10415SOL     OW32143   1.692   3.697   4.627
10415SOL    HW132144   1.751   3.670   4.550
10415SOL    HW232145   1.726   3.654   4.711
10416SOL     OW32146   6.172   0.444   4.923
10416SOL    HW132147   6.121   0.452   5.008
10416SOL    HW232148   6.109   0.451   4.846
10417SOL     OW32149   3.090   5.088   4.598
10417SOL    HW132150   3.109   5.012   4.659
10417SOL    HW232151   3.176   5.130   4.569
10418SOL     OW32152   7.010   3.427   6.641
10418SOL    HW132153   0.023   3.470   6.560
10418SOL    HW232154   7.000   3.329   6.624
10419SOL     OW32155   2.136   6.934   6.046
10419SOL    HW132156   2.146   6.971   6.138
10419SOL    HW232157   2.097   7.003   5.986
10420SOL     OW32158   0.567   3.611   3.434
10420SOL    HW132159   0.571   3.682   3.365
10420SOL    HW232160   0.641   3.545   3.421
10421SOL     OW32161   0.581   1.890   3.972
10421SOL    HW132162   0.646   1.814   3.972
10421SOL    HW232163   0.519   1.882   4.050
10422SOL     OW32164   6.122   3.515   4.799
10422SOL    HW132165   6.139   3.451   4.874
10422SOL    HW232166   6.079   3.466   4.723
10423SOL     OW32167   6.265   5.993   5.334
10423SOL    HW132168   6.276   6.083   5.378
10423SOL    HW232169   6.276   6.002   5.235
10424SOL     OW32170   4.920   3.135   0.047
10424SOL    HW132171   4.827   3.103   0.028
10424SOL    HW232172   4.948   3.199   7.003
10425SOL     OW32173   1.134   0.457   1.807
10425SOL    HW132174   1.154   0.513   1.726
10425SOL    HW232175   1.090   0.372   1.779
10426SOL     OW32176   5.643   4.863   0.860
10426SOL    HW132177   5.668   4.861   0.763
10426SOL    HW232178   5.630   4.958   0.889
10427SOL     OW32179   3.705   0.773   6.472
10427SOL    HW132180   3.750   0.845   6.419
10427SOL    HW232181   3.684   0.807   6.563
10428SOL     OW32182   3.590   1.175   3.774
10428SOL    HW132183   3.596   1.106   3.702
10428SOL    HW232184   3.646   1.147   3.852
10429SOL     OW32185   6.577   4.635   1.077
10429SOL    HW132186   6.653   4.620   1.140
10429SOL    HW232187   6.491   4.628   1.127
10430SOL     OW32188   4.777   7.008   4.535
10430SOL    HW132189   4.824   0.024   4.612
10430SOL    HW232190   4.730   0.051   4.481
10431SOL     OW32191   3.152   6.022   4.511
10431SOL    HW132192   3.214   5.944   4.519
10431SOL    HW232193   3.092   6.009   4.433
10432SOL     OW32194   5.275   6.490   4.946
10432SOL    HW132195   5.292   6.392   4.937
10432SOL    HW232196   5.176   6.508   4.939
10433SOL     OW32197   1.408   6.176   1.769
10433SOL    HW132198   1.326   6.131   1.805
10433SOL    HW232199   1.435   6.251   1.830
10434SOL     OW32200   3.948   6.640   3.308
10434SOL    HW132201   3.945   6.541   3.319
10434SOL    HW232202   3.857   6.675   3.287
10435SOL     OW32203   6.742   0.615   4.774
10435SOL    HW132204   6.646   0.629   4.797
10435SOL    HW232205   6.783   0.702   4.748
10436SOL     OW32206   0.972   5.012   5.687
10436SOL    HW132207   0.886   5.060   5.671
10436SOL    HW232208   0.973   4.928   5.632
10437SOL     OW32209   5.098   4.733   5.476
10437SOL    HW132210   5.117   4.668   5.550
10437SOL    HW232211   5.184   4.761   5.434
10438SOL     OW32212   6.192   6.535   0.275
10438SOL    HW132213   6.144   6.481   0.206
10438SOL    HW232214   6.181   6.632   0.256
10439SOL     OW32215   4.285   1.000   5.793
10439SOL    HW132216   4.229   1.034   5.868
10439SOL    HW232217   4.363   0.949   5.830
10440SOL     OW32218   1.360   0.064   0.483
10440SOL    HW132219   1.379   0.075   0.386
10440SOL    HW232220   1.261   0.061   0.498
10441SOL     OW32221   3.091   0.141   1.489
10441SOL    HW132222   3.188   0.140   1.513
10441SOL    HW232223   3.082   0.147   1.389
10442SOL     OW32224   3.076   6.657   5.619
10442SOL    HW132225   3.031   6.598   5.552
10442SOL    HW232226   3.138   6.603   5.676
10443SOL     OW32227   4.877   3.864   4.906
10443SOL    HW132228   4.863   3.774   4.947
10443SOL    HW232229   4.879   3.934   4.978
10444SOL     OW32230   3.721   6.410   4.680
10444SOL    HW132231   3.667   6.456   4.608
10444SOL    HW232232   3.676   6.325   4.706
10445SOL     OW32233   0.558   4.946   4.929
10445SOL    HW132234   0.494   5.019   4.906
10445SOL    HW232235   0.522   4.893   5.006
10446SOL     OW32236   1.519   3.165   5.094
10446SOL    HW132237   1.588   3.197   5.160
10446SOL    HW232238   1.561   3.158   5.003
10447SOL     OW32239   0.007   0.861   2.432
10447SOL    HW132240   0.080   0.809   2.388
10447SOL    HW232241   6.956   0.871   2.369
10448SOL     OW32242   3.369   1.276   2.225
10448SOL    HW132243   3.293   1.252   2.285
10448SOL    HW232244   3.424   1.194   2.207
10449SOL     OW32245   2.242   5.227   4.841
10449SOL    HW132246   2.259   5.133   4.868
10449SOL    HW232247   2.149   5.236   4.804
10450SOL     OW32248   0.576   1.614   0.853
10450SOL    HW132249   0.565   1.558   0.936
10450SOL    HW232250   0.629   1.564   0.786
10451SOL     OW32251   1.614   5.895   2.608
10451SOL    HW132252   1.595   5.799   2.589
10451SOL    HW232253   1.609   5.947   2.523
10452SOL     OW32254   6.337   4.092   2.391
10452SOL    HW132255   6.326   4.119   2.295
10452SOL    HW232256   6.434   4.085   2.413
10453SOL     OW32257   4.147   5.940   1.844
10453SOL    HW132258   4.148   5.841   1.834
10453SOL    HW232259   4.090   5.980   1.773
10454SOL     OW32260   4.652   3.912   0.790
10454SOL    HW132261   4.725   3.852   0.758
10454SOL    HW232262   4.585   3.858   0.842
10455SOL     OW32263   6.133   6.004   3.251
10455SOL    HW132264   6.061   6.000   3.321
10455SOL    HW232265   6.220   6.028   3.294
10456SOL     OW32266   3.232   6.576   1.329
10456SOL    HW132267   3.324   6.592   1.362
10456SOL    HW232268   3.169   6.569   1.406
10457SOL     OW32269   3.154   3.507   2.005
10457SOL    HW132270   3.183   3.557   1.923
10457SOL    HW232271   3.149   3.409   1.985
10458SOL     OW32272   0.488   1.604   5.890
10458SOL    HW132273   0.527   1.678   5.946
10458SOL    HW232274   0.393   1.588   5.918
10459SOL     OW32275   4.864   5.802   2.141
10459SOL    HW132276   4.953   5.771   2.108
10459SOL    HW232277   4.791   5.751   2.095
10460SOL     OW32278   1.442   4.958   1.366
10460SOL    HW132279   1.380   5.029   1.401
10460SOL    HW232280   1.438   4.878   1.426
10461SOL     OW32281   1.612   5.007   5.542
10461SOL    HW132282   1.594   5.098   5.504
10461SOL    HW232283   1.617   5.013   5.641
10462SOL     OW32284   5.886   2.380   3.459
10462SOL    HW132285   5.816   2.396   3.528
10462SOL    HW232286   5.929   2.467   3.435
10463SOL     OW32287   3.796   2.917   5.548
10463SOL    HW132288   3.859   2.867   5.608
10463SOL    HW232289   3.836   2.924   5.457
10464SOL     OW32290   6.329   6.754   1.308
10464SOL    HW132291   6.380   6.773   1.392
10464SOL    HW232292   6.374   6.680   1.258
10465SOL     OW32293   6.523   6.144   1.560
10465SOL    HW132294   6.544   6.047   1.572
10465SOL    HW232295   6.428   6.161   1.586
10466SOL     OW32296   4.646   4.987   5.547
10466SOL    HW132297   4.598   5.070   5.519
10466SOL    HW232298   4.734   4.982   5.501
10467SOL     OW32299   1.357   2.292   5.712
10467SOL    HW132300   1.329   2.363   5.778
10467SOL    HW232301   1.432   2.238   5.751
10468SOL     OW32302   4.050   4.770   3.006
10468SOL    HW132303   3.976   4.804   2.949
10468SOL    HW232304   4.019   4.690   3.057
10469SOL     OW32305   4.005   3.041   6.474
10469SOL    HW132306   4.094   3.087   6.463
10469SOL    HW232307   3.932   3.103   6.447
10470SOL     OW32308   2.869   2.268   3.746
10470SOL    HW132309   2.826   2.318   3.821
10470SOL    HW232310   2.944   2.211   3.781
10471SOL     OW32311   2.497   2.488   1.477
10471SOL    HW132312   2.588   2.461   1.445
10471SOL    HW232313   2.434   2.412   1.466
10472SOL     OW32314   2.551   5.581   0.993
10472SOL    HW132315   2.575   5.542   0.904
10472SOL    HW232316   2.578   5.678   0.996
10473SOL     OW32317   6.322   0.818   0.260
10473SOL    HW132318   6.316   0.869   0.346
10473SOL    HW232319   6.409   0.839   0.215
10474SOL     OW32320   4.426   1.541   4.909
10474SOL    HW132321   4.393   1.612   4.971
10474SOL    HW232322   4.479   1.583   4.835
10475SOL     OW32323   4.958   6.760   3.001
10475SOL    HW132324   4.943   6.767   2.902
10475SOL    HW232325   5.054   6.737   3.019
10476SOL     OW32326   6.837   6.346   6.790
10476SOL    HW132327   6.920   6.390   6.755
10476SOL    HW232328   6.773   6.415   6.822
10477SOL     OW32329   6.173   1.751   4.409
10477SOL    HW132330   6.245   1.818   4.426
10477SOL    HW232331   6.176   1.721   4.314
10478SOL     OW32332   0.475   0.624   1.183
10478SOL    HW132333   0.510   0.538   1.221
10478SOL    HW232334   0.410   0.665   1.248
10479SOL     OW32335   0.277   2.645   1.964
10479SOL    HW132336   0.206   2.704   2.002
10479SOL    HW232337   0.353   2.701   1.932
10480SOL     OW32338   5.927   0.456   1.438
10480SOL    HW132339   5.909   0.536   1.381
10480SOL    HW232340   5.916   0.479   1.534
10481SOL     OW32341   2.353   6.965   4.421
10481SOL    HW132342   2.263   7.008   4.414
10481SOL    HW232343   2.387   6.945   4.329
10482SOL     OW32344   0.284   5.532   4.908
10482SOL    HW132345   0.334   5.483   4.838
10482SOL    HW232346   0.333   5.616   4.933
10483SOL     OW32347   0.128   6.211   0.585
10483SOL    HW132348   0.073   6.211   0.501
10483SOL    HW232349   0.106   6.293   0.639
10484SOL     OW32350   6.269   0.892   1.561
10484SOL    HW132351   6.299   0.892   1.656
10484SOL    HW232352   6.289   0.980   1.519
10485SOL     OW32353   3.106   3.273   2.237
10485SOL    HW132354   3.030   3.328   2.202
10485SOL    HW232355   3.124   3.299   2.332
10486SOL     OW32356   6.391   0.793   6.195
10486SOL    HW132357   6.455   0.798   6.117
10486SOL    HW232358   6.440   0.812   6.279
10487SOL     OW32359   4.818   2.259   1.558
10487SOL    HW132360   4.773   2.198   1.493
10487SOL    HW232361   4.914   2.270   1.533
10488SOL     OW32362   2.097   2.019   6.167
10488SOL    HW132363   2.013   1.967   6.175
10488SOL    HW232364   2.108   2.050   6.072
10489SOL     OW32365   6.512   6.577   3.912
10489SOL    HW132366   6.451   6.506   3.878
10489SOL    HW232367   6.604   6.560   3.877
10490SOL     OW32368   6.073   1.948   0.479
10490SOL    HW132369   6.053   1.851   0.465
10490SOL    HW232370   6.020   1.982   0.556
10491SOL     OW32371   2.154   2.060   5.398
10491SOL    HW132372   2.168   2.155   5.426
10491SOL    HW232373   2.110   2.009   5.472
10492SOL     OW32374   4.855   6.240   1.329
10492SOL    HW132375   4.794   6.259   1.406
10492SOL    HW232376   4.850   6.143   1.306
10493SOL     OW32377   2.983   6.260   1.704
10493SOL    HW132378   3.000   6.232   1.798
10493SOL    HW232379   2.902   6.214   1.669
10494SOL     OW32380   6.161   4.292   5.486
10494SOL    HW132381   6.069   4.275   5.521
10494SOL    HW232382   6.225   4.302   5.562
10495SOL     OW32383   6.902   0.258   0.402
10495SOL    HW132384   6.910   0.251   0.502
10495SOL    HW232385   6.992   0.249   0.360
10496SOL     OW32386   6.423   4.914   5.190
10496SOL    HW132387   6.384   4.991   5.140
10496SOL    HW232388   6.510   4.941   5.232
10497SOL     OW32389   1.272   6.877   2.524
10497SOL    HW132390   1.228   6.934   2.454
10497SOL    HW232391   1.216   6.795   2.540
10498SOL     OW32392   5.958   5.764   0.804
10498SOL    HW132393   5.946   5.859   0.834
10498SOL    HW232394   5.991   5.763   0.710
10499SOL     OW32395   4.584   6.870   1.454
10499SOL    HW132396   4.635   6.831   1.377
10499SOL    HW232397   4.614   6.963   1.471
10500SOL     OW32398   6.078   2.198   5.843
10500SOL    HW132399   6.009   2.181   5.772
10500SOL    HW232400   6.043   2.269   5.905
10501SOL     OW32401   2.170   5.891   2.382
10501SOL    HW132402   2.224   5.834   2.321
10501SOL    HW232403   2.189   5.987   2.364
10502SOL     OW32404   2.570   4.089   0.825
10502SOL    HW132405   2.613   4.178   0.837
10502SOL    HW232406   2.471   4.100   0.817
10503SOL     OW32407   5.606   3.854   0.515
10503SOL    HW132408   5.706   3.860   0.518
10503SOL    HW232409   5.572   3.824   0.604
10504SOL     OW32410   0.366   2.531   5.332
10504SOL    HW132411   0.269   2.555   5.327
10504SOL    HW232412   0.380   2.442   5.288
10505SOL     OW32413   5.562   6.623   1.388
10505SOL    HW132414   5.588   6.632   1.291
10505SOL    HW232415   5.495   6.550   1.397
10506SOL     OW32416   0.563   3.562   0.282
10506SOL    HW132417   0.625   3.585   0.207
10506SOL    HW232418   0.616   3.541   0.364
10507SOL     OW32419   2.361   5.367   7.013
10507SOL    HW132420   2.454   5.396   0.009
10507SOL    HW232421   2.314   5.442   6.966
10508SOL     OW32422   0.726   5.458   3.981
10508SOL    HW132423   0.753   5.532   4.042
10508SOL    HW232424   0.799   5.389   3.978
10509SOL     OW32425   6.193   4.728   4.745
10509SOL    HW132426   6.151   4.651   4.792
10509SOL    HW232427   6.282   4.748   4.786
10510SOL     OW32428   4.664   6.227   0.586
10510SOL    HW132429   4.666   6.319   0.626
10510SOL    HW232430   4.570   6.195   0.582
10511SOL     OW32431   3.028   1.473   2.205
10511SOL    HW132432   3.052   1.429   2.292
10511SOL    HW232433   2.938   1.516   2.214
10512SOL     OW32434   3.343   0.087   6.308
10512SOL    HW132435   3.254   0.053   6.278
10512SOL    HW232436   3.408   0.011   6.312
10513SOL     OW32437   6.413   2.800   3.316
10513SOL    HW132438   6.497   2.819   3.367
10513SOL    HW232439   6.381   2.884   3.273
10514SOL     OW32440   1.523   1.868   1.678
10514SOL    HW132441   1.621   1.884   1.688
10514SOL    HW232442   1.489   1.919   1.598
10515SOL     OW32443   1.779   3.069   4.177
10515SOL    HW132444   1.862   3.018   4.200
10515SOL    HW232445   1.714   3.061   4.252
10516SOL     OW32446   2.589   1.936   0.133
10516SOL    HW132447   2.593   1.860   0.198
10516SOL    HW232448   2.635   1.910   0.048
10517SOL     OW32449   1.265   4.221   1.451
10517SOL    HW132450   1.191   4.203   1.385
10517SOL    HW232451   1.253   4.161   1.531
10518SOL     OW32452   6.960   5.944   1.727
10518SOL    HW132453   6.883   5.882   1.741
10518SOL    HW232454   7.006   5.962   1.814
10519SOL     OW32455   2.767   4.843   0.190
10519SOL    HW132456   2.718   4.765   0.153
10519SOL    HW232457   2.744   4.925   0.138
10520SOL     OW32458   7.022   2.229   6.045
10520SOL    HW132459   0.066   2.194   6.107
10520SOL    HW232460   7.005   2.326   6.064
10521SOL     OW32461   6.727   5.683   1.336
10521SOL    HW132462   6.676   5.664   1.252
10521SOL    HW232463   6.821   5.650   1.326
10522SOL     OW32464   0.303   2.715   3.242
10522SOL    HW132465   0.222   2.683   3.191
10522SOL    HW232466   0.357   2.774   3.183
10523SOL     OW32467   0.615   3.959   3.584
10523SOL    HW132468   0.638   4.027   3.654
10523SOL    HW232469   0.655   3.871   3.608
10524SOL     OW32470   0.880   6.215   4.145
10524SOL    HW132471   0.796   6.185   4.190
10524SOL    HW232472   0.862   6.300   4.095
10525SOL     OW32473   3.848   0.142   5.130
10525SOL    HW132474   3.908   0.146   5.210
10525SOL    HW232475   3.893   0.091   5.056
10526SOL     OW32476   0.688   6.554   1.863
10526SOL    HW132477   0.594   6.535   1.893
10526SOL    HW232478   0.689   6.639   1.810
10527SOL     OW32479   1.076   0.703   5.898
10527SOL    HW132480   1.083   0.696   5.798
10527SOL    HW232481   1.159   0.665   5.939
10528SOL     OW32482   1.117   4.048   6.449
10528SOL    HW132483   1.051   4.067   6.522
10528SOL    HW232484   1.106   4.114   6.376
10529SOL     OW32485   2.188   5.629   4.554
10529SOL    HW132486   2.224   5.705   4.501
10529SOL    HW232487   2.221   5.636   4.648
10530SOL     OW32488   1.022   6.484   5.604
10530SOL    HW132489   0.967   6.404   5.631
10530SOL    HW232490   1.119   6.460   5.608
10531SOL     OW32491   2.514   2.105   4.483
10531SOL    HW132492   2.523   2.016   4.527
10531SOL    HW232493   2.497   2.093   4.385
10532SOL     OW32494   6.851   0.125   6.477
10532SOL    HW132495   6.762   0.163   6.450
10532SOL    HW232496   6.890   0.181   6.550
10533SOL     OW32497   2.909   5.957   3.960
10533SOL    HW132498   2.822   5.979   3.916
10533SOL    HW232499   2.955   5.883   3.910
10534SOL     OW32500   6.435   5.335   1.904
10534SOL    HW132501   6.390   5.377   1.982
10534SOL    HW232502   6.511   5.278   1.936
10535SOL     OW32503   1.920   1.849   2.382
10535SOL    HW132504   1.863   1.814   2.307
10535SOL    HW232505   1.874   1.832   2.469
10536SOL     OW32506   4.842   0.310   3.951
10536SOL    HW132507   4.748   0.281   3.934
10536SOL    HW232508   4.900   0.286   3.874
10537SOL     OW32509   4.759   6.420   4.003
10537SOL    HW132510   4.746   6.514   4.036
10537SOL    HW232511   4.826   6.373   4.061
10538SOL     OW32512   6.593   3.486   0.869
10538SOL    HW132513   6.657   3.461   0.796
10538SOL    HW232514   6.596   3.417   0.941
10539SOL     OW32515   6.382   5.287   1.141
10539SOL    HW132516   6.300   5.345   1.139
10539SOL    HW232517   6.387   5.234   1.056
10540SOL     OW32518   2.156   3.071   5.272
10540SOL    HW132519   2.130   3.148   5.214
10540SOL    HW232520   2.227   3.017   5.226
10541SOL     OW32521   3.890   3.203   3.715
10541SOL    HW132522   3.986   3.233   3.711
10541SOL    HW232523   3.878   3.141   3.793
10542SOL     OW32524   6.204   0.285   4.613
10542SOL    HW132525   6.207   0.242   4.703
10542SOL    HW232526   6.283   0.255   4.560
10543SOL     OW32527   0.931   1.681   4.401
10543SOL    HW132528   0.950   1.765   4.350
10543SOL    HW232529   0.931   1.603   4.338
10544SOL     OW32530   2.167   6.117   2.767
10544SOL    HW132531   2.196   6.027   2.734
10544SOL    HW232532   2.235   6.152   2.831
10545SOL     OW32533   1.779   1.994   1.633
10545SOL    HW132534   1.750   2.073   1.579
10545SOL    HW232535   1.874   2.006   1.661
10546SOL     OW32536   3.163   6.331   1.224
10546SOL    HW132537   3.121   6.279   1.298
10546SOL    HW232538   3.187   6.422   1.258
10547SOL     OW32539   5.173   2.195   4.014
10547SOL    HW132540   5.225   2.139   3.949
10547SOL    HW232541   5.084   2.154   4.029
10548SOL     OW32542   0.576   3.843   3.986
10548SOL    HW132543   0.556   3.799   4.074
10548SOL    HW232544   0.526   3.929   3.979
10549SOL     OW32545   0.228   1.659   0.461
10549SOL    HW132546   0.137   1.619   0.462
10549SOL    HW232547   0.236   1.727   0.534
10550SOL     OW32548   4.127   6.324   3.718
10550SOL    HW132549   4.191   6.333   3.642
10550SOL    HW232550   4.110   6.228   3.738
10551SOL     OW32551   2.184   2.155   6.368
10551SOL    HW132552   2.271   2.129   6.409
10551SOL    HW232553   2.153   2.084   6.305
10552SOL     OW32554   1.945   0.605   5.180
10552SOL    HW132555   1.949   0.688   5.235
10552SOL    HW232556   1.979   0.528   5.235
10553SOL     OW32557   0.255   4.330   0.925
10553SOL    HW132558   0.245   4.245   0.873
10553SOL    HW232559   0.314   4.394   0.875
10554SOL     OW32560   5.027   5.605   1.985
10554SOL    HW132561   5.097   5.667   1.948
10554SOL    HW232562   5.057   5.511   1.973
10555SOL     OW32563   2.800   2.318   0.984
10555SOL    HW132564   2.789   2.272   0.896
10555SOL    HW232565   2.714   2.360   1.011
10556SOL     OW32566   2.812   0.833   3.533
10556SOL    HW132567   2.886   0.800   3.473
10556SOL    HW232568   2.814   0.933   3.535
10557SOL     OW32569   1.458   3.380   3.453
10557SOL    HW132570   1.369   3.336   3.445
10557SOL    HW232571   1.476   3.402   3.548
10558SOL     OW32572   3.858   5.995   6.243
10558SOL    HW132573   3.885   5.900   6.258
10558SOL    HW232574   3.781   5.999   6.180
10559SOL     OW32575   4.019   0.568   2.078
10559SOL    HW132576   4.008   0.491   2.141
10559SOL    HW232577   3.950   0.561   2.005
10560SOL     OW32578   4.864   6.988   2.524
10560SOL    HW132579   4.929   6.978   2.600
10560SOL    HW232580   4.845   0.059   2.510
10561SOL     OW32581   3.802   4.294   1.645
10561SOL    HW132582   3.897   4.299   1.615
10561SOL    HW232583   3.761   4.385   1.638
10562SOL     OW32584   4.266   5.649   0.501
10562SOL    HW132585   4.238   5.600   0.584
10562SOL    HW232586   4.185   5.679   0.451
10563SOL     OW32587   1.016   0.724   1.709
10563SOL    HW132588   0.954   0.674   1.769
10563SOL    HW232589   0.970   0.805   1.673
10564SOL     OW32590   5.936   6.634   3.813
10564SOL    HW132591   5.861   6.568   3.812
10564SOL    HW232592   6.012   6.598   3.759
10565SOL     OW32593   6.412   6.352   5.636
10565SOL    HW132594   6.423   6.447   5.663
10565SOL    HW232595   6.488   6.298   5.673
10566SOL     OW32596   3.099   1.851   6.701
10566SOL    HW132597   3.136   1.936   6.663
10566SOL    HW232598   3.148   1.773   6.661
10567SOL     OW32599   2.534   2.574   6.087
10567SOL    HW132600   2.514   2.493   6.032
10567SOL    HW232601   2.449   2.611   6.124
10568SOL     OW32602   5.849   2.535   0.681
10568SOL    HW132603   5.902   2.466   0.631
10568SOL    HW232604   5.791   2.489   0.749
10569SOL     OW32605   5.616   0.642   1.993
10569SOL    HW132606   5.692   0.681   1.940
10569SOL    HW232607   5.651   0.609   2.081
10570SOL     OW32608   1.449   4.483   3.286
10570SOL    HW132609   1.432   4.579   3.307
10570SOL    HW232610   1.486   4.438   3.368
10571SOL     OW32611   0.078   4.096   5.269
10571SOL    HW132612   0.019   4.144   5.203
10571SOL    HW232613   0.143   4.039   5.220
10572SOL     OW32614   0.235   5.208   3.010
10572SOL    HW132615   0.250   5.212   3.109
10572SOL    HW232616   0.239   5.113   2.979
10573SOL     OW32617   5.137   0.446   4.806
10573SOL    HW132618   5.056   0.387   4.803
10573SOL    HW232619   5.110   0.542   4.800
10574SOL     OW32620   6.820   1.352   4.070
10574SOL    HW132621   6.781   1.328   4.159
10574SOL    HW232622   6.861   1.443   4.074
10575SOL     OW32623   6.637   1.230   3.642
10575SOL    HW132624   6.653   1.232   3.543
10575SOL    HW232625   6.541   1.211   3.660
10576SOL     OW32626   1.047   5.831   3.024
10576SOL    HW132627   1.094   5.751   2.986
10576SOL    HW232628   1.010   5.886   2.950
10577SOL     OW32629   1.851   4.528   0.232
10577SOL    HW132630   1.949   4.523   0.213
10577SOL    HW232631   1.836   4.549   0.329
10578SOL     OW32632   4.725   1.211   3.548
10578SOL    HW132633   4.793   1.264   3.599
10578SOL    HW232634   4.770   1.162   3.473
10579SOL     OW32635   3.486   3.041   1.442
10579SOL    HW132636   3.447   2.973   1.379
10579SOL    HW232637   3.429   3.123   1.441
10580SOL     OW32638   6.080   6.140   5.769
10580SOL    HW132639   6.025   6.074   5.819
10580SOL    HW232640   6.174   6.140   5.805
10581SOL     OW32641   5.886   0.407   2.304
10581SOL    HW132642   5.830   0.422   2.386
10581SOL    HW232643   5.969   0.357   2.329
10582SOL     OW32644   4.861   4.684   6.378
10582SOL    HW132645   4.904   4.762   6.423
10582SOL    HW232646   4.837   4.709   6.284
10583SOL     OW32647   4.483   0.155   4.156
10583SOL    HW132648   4.394   0.112   4.139
10583SOL    HW232649   4.485   0.246   4.114
10584SOL     OW32650   6.147   6.788   6.827
10584SOL    HW132651   6.057   6.785   6.871
10584SOL    HW232652   6.135   6.779   6.728
10585SOL     OW32653   2.162   2.164   5.927
10585SOL    HW132654   2.129   2.157   5.832
10585SOL    HW232655   2.160   2.259   5.955
10586SOL     OW32656   4.912   5.064   5.693
10586SOL    HW132657   4.824   5.042   5.735
10586SOL    HW232658   4.905   5.058   5.594
10587SOL     OW32659   6.461   5.365   6.943
10587SOL    HW132660   6.387   5.432   6.949
10587SOL    HW232661   6.422   5.274   6.930
10588SOL     OW32662   1.981   1.803   4.775
10588SOL    HW132663   2.008   1.838   4.686
10588SOL    HW232664   1.884   1.781   4.775
10589SOL     OW32665   5.077   0.388   4.387
10589SOL    HW132666   5.070   0.344   4.297
10589SOL    HW232667   4.999   0.450   4.400
10590SOL     OW32668   0.331   6.683   1.484
10590SOL    HW132669   0.329   6.754   1.414
10590SOL    HW232670   0.309   6.594   1.443
10591SOL     OW32671   2.566   1.625   1.156
10591SOL    HW132672   2.581   1.528   1.137
10591SOL    HW232673   2.543   1.636   1.253
10592SOL     OW32674   5.487   3.618   4.650
10592SOL    HW132675   5.545   3.700   4.654
10592SOL    HW232676   5.413   3.633   4.584
10593SOL     OW32677   2.486   5.833   0.594
10593SOL    HW132678   2.504   5.928   0.569
10593SOL    HW232679   2.457   5.828   0.689
10594SOL     OW32680   4.882   1.760   2.839
10594SOL    HW132681   4.885   1.740   2.741
10594SOL    HW232682   4.787   1.767   2.869
10595SOL     OW32683   5.921   0.351   6.625
10595SOL    HW132684   5.903   0.323   6.719
10595SOL    HW232685   5.941   0.448   6.621
10596SOL     OW32686   4.646   0.512   0.141
10596SOL    HW132687   4.675   0.426   0.099
10596SOL    HW232688   4.711   0.538   0.212
10597SOL     OW32689   3.002   1.215   6.042
10597SOL    HW132690   3.059   1.186   5.965
10597SOL    HW232691   2.952   1.298   6.018
10598SOL     OW32692   3.465   2.210   6.611
10598SOL    HW132693   3.375   2.247   6.589
10598SOL    HW232694   3.455   2.134   6.675
10599SOL     OW32695   5.987   3.667   6.880
10599SOL    HW132696   5.964   3.692   6.786
10599SOL    HW232697   5.992   3.567   6.888
10600SOL     OW32698   3.238   2.565   1.360
10600SOL    HW132699   3.198   2.474   1.359
10600SOL    HW232700   3.315   2.567   1.423
10601SOL     OW32701   1.562   4.739   5.649
10601SOL    HW132702   1.642   4.745   5.707
10601SOL    HW232703   1.568   4.808   5.576
10602SOL     OW32704   0.956   0.984   1.167
10602SOL    HW132705   1.050   0.987   1.203
10602SOL    HW232706   0.935   1.071   1.122
10603SOL     OW32707   5.027   0.128   3.195
10603SOL    HW132708   5.024   0.045   3.251
10603SOL    HW232709   5.107   0.182   3.220
10604SOL     OW32710   7.001   6.058   5.306
10604SOL    HW132711   6.986   6.121   5.230
10604SOL    HW232712   6.917   6.006   5.322
10605SOL     OW32713   1.681   6.423   0.129
10605SOL    HW132714   1.675   6.396   0.032
10605SOL    HW232715   1.659   6.344   0.186
10606SOL     OW32716   6.729   1.241   1.503
10606SOL    HW132717   6.678   1.180   1.442
10606SOL    HW232718   6.667   1.280   1.570
10607SOL     OW32719   3.818   4.649   0.210
10607SOL    HW132720   3.780   4.711   0.279
10607SOL    HW232721   3.865   4.702   0.140
10608SOL     OW32722   6.855   3.431   4.166
10608SOL    HW132723   6.889   3.516   4.207
10608SOL    HW232724   6.912   3.354   4.198
10609SOL     OW32725   3.155   6.642   0.010
10609SOL    HW132726   3.109   6.699   6.969
10609SOL    HW232727   3.210   6.699   0.070
10610SOL     OW32728   0.338   1.730   4.127
10610SOL    HW132729   0.335   1.716   4.028
10610SOL    HW232730   0.329   1.827   4.148
10611SOL     OW32731   2.747   5.017   6.397
10611SOL    HW132732   2.810   4.968   6.337
10611SOL    HW232733   2.737   4.967   6.483
10612SOL     OW32734   5.229   2.280   4.252
10612SOL    HW132735   5.148   2.333   4.279
10612SOL    HW232736   5.218   2.250   4.157
10613SOL     OW32737   6.122   5.774   5.285
10613SOL    HW132738   6.084   5.820   5.204
10613SOL    HW232739   6.181   5.838   5.334
10614SOL     OW32740   5.344   1.074   4.606
10614SOL    HW132741   5.248   1.093   4.590
10614SOL    HW232742   5.353   0.990   4.660
10615SOL     OW32743   3.391   0.875   6.095
10615SOL    HW132744   3.343   0.909   6.176
10615SOL    HW232745   3.479   0.836   6.123
10616SOL     OW32746   3.166   6.154   7.004
10616SOL    HW132747   3.181   6.223   6.933
10616SOL    HW232748   3.237   6.160   0.047
10617SOL     OW32749   3.155   4.306   1.298
10617SOL    HW132750   3.158   4.240   1.223
10617SOL    HW232751   3.234   4.292   1.358
10618SOL     OW32752   1.804   4.751   5.766
10618SOL    HW132753   1.868   4.690   5.720
10618SOL    HW232754   1.824   4.753   5.864
10619SOL     OW32755   0.437   2.557   2.959
10619SOL    HW132756   0.486   2.634   3.000
10619SOL    HW232757   0.422   2.575   2.861
10620SOL     OW32758   0.889   0.340   5.429
10620SOL    HW132759   0.850   0.269   5.371
10620SOL    HW232760   0.903   0.423   5.374
10621SOL     OW32761   6.875   3.974   2.020
10621SOL    HW132762   6.974   3.986   2.026
10621SOL    HW232763   6.854   3.893   1.965
10622SOL     OW32764   4.422   2.336   1.649
10622SOL    HW132765   4.392   2.243   1.668
10622SOL    HW232766   4.520   2.344   1.669
10623SOL     OW32767   6.780   5.738   5.903
10623SOL    HW132768   6.764   5.658   5.845
10623SOL    HW232769   6.838   5.712   5.980
10624SOL     OW32770   0.326   2.711   5.754
10624SOL    HW132771   0.358   2.617   5.747
10624SOL    HW232772   0.226   2.712   5.759
10625SOL     OW32773   0.346   3.856   1.417
10625SOL    HW132774   0.351   3.881   1.320
10625SOL    HW232775   0.286   3.919   1.465
10626SOL     OW32776   3.381   3.329   0.863
10626SOL    HW132777   3.467   3.322   0.912
10626SOL    HW232778   3.381   3.266   0.785
10627SOL     OW32779   5.876   1.265   6.781
10627SOL    HW132780   5.812   1.216   6.723
10627SOL    HW232781   5.871   1.229   6.874
10628SOL     OW32782   4.506   0.136   1.112
10628SOL    HW132783   4.547   0.162   1.200
10628SOL    HW232784   4.416   0.096   1.128
10629SOL     OW32785   3.122   4.876   4.754
10629SOL    HW132786   3.106   4.801   4.690
10629SOL    HW232787   3.070   4.860   4.838
10630SOL     OW32788   6.368   1.470   2.140
10630SOL    HW132789   6.435   1.528   2.093
10630SOL    HW232790   6.288   1.458   2.082
10631SOL     OW32791   3.808   4.440   5.775
10631SOL    HW132792   3.807   4.344   5.747
10631SOL    HW232793   3.758   4.451   5.861
10632SOL     OW32794   5.656   6.321   3.780
10632SOL    HW132795   5.617   6.391   3.839
10632SOL    HW232796   5.684   6.243   3.834
10633SOL     OW32797   2.364   2.706   1.604
10633SOL    HW132798   2.301   2.721   1.527
10633SOL    HW232799   2.410   2.618   1.592
10634SOL     OW32800   1.949   4.852   0.505
10634SOL    HW132801   2.017   4.889   0.568
10634SOL    HW232802   1.981   4.865   0.411
10635SOL     OW32803   2.004   2.872   6.294
10635SOL    HW132804   1.907   2.891   6.308
10635SOL    HW232805   2.016   2.828   6.205
10636SOL     OW32806   0.447   2.404   1.740
10636SOL    HW132807   0.493   2.361   1.817
10636SOL    HW232808   0.470   2.501   1.736
10637SOL     OW32809   1.422   4.877   6.536
10637SOL    HW132810   1.373   4.964   6.538
10637SOL    HW232811   1.516   4.891   6.567
10638SOL     OW32812   5.389   6.319   2.850
10638SOL    HW132813   5.437   6.308   2.763
10638SOL    HW232814   5.322   6.393   2.842
10639SOL     OW32815   1.073   3.666   2.288
10639SOL    HW132816   1.146   3.715   2.242
10639SOL    HW232817   1.018   3.730   2.342
10640SOL     OW32818   4.892   0.672   3.606
10640SOL    HW132819   4.881   0.641   3.701
10640SOL    HW232820   4.955   0.611   3.559
10641SOL     OW32821   2.708   1.634   3.118
10641SOL    HW132822   2.715   1.734   3.125
10641SOL    HW232823   2.743   1.604   3.029
10642SOL     OW32824   6.144   1.450   0.654
10642SOL    HW132825   6.090   1.371   0.683
10642SOL    HW232826   6.192   1.428   0.569
10643SOL     OW32827   2.470   5.955   5.516
10643SOL    HW132828   2.425   5.925   5.432
10643SOL    HW232829   2.453   5.889   5.589
10644SOL     OW32830   5.197   3.355   0.906
10644SOL    HW132831   5.271   3.408   0.865
10644SOL    HW232832   5.235   3.295   0.977
10645SOL     OW32833   1.336   3.306   4.475
10645SOL    HW132834   1.264   3.238   4.485
10645SOL    HW232835   1.339   3.338   4.381
10646SOL     OW32836   6.758   0.569   6.126
10646SOL    HW132837   6.806   0.541   6.043
10646SOL    HW232838   6.706   0.492   6.163
10647SOL     OW32839   3.166   5.524   4.841
10647SOL    HW132840   3.201   5.617   4.840
10647SOL    HW232841   3.108   5.511   4.922
10648SOL     OW32842   6.041   4.966   6.986
10648SOL    HW132843   6.090   5.023   6.921
10648SOL    HW232844   5.974   5.022   0.009
10649SOL     OW32845   0.268   3.488   3.296
10649SOL    HW132846   0.304   3.581   3.301
10649SOL    HW232847   0.178   3.484   3.338
10650SOL     OW32848   0.723   0.653   3.950
10650SOL    HW132849   0.664   0.584   3.908
10650SOL    HW232850   0.773   0.702   3.879
10651SOL     OW32851   6.319   6.115   6.188
10651SOL    HW132852   6.280   6.182   6.251
10651SOL    HW232853   6.320   6.025   6.231
10652SOL     OW32854   2.412   6.704   6.512
10652SOL    HW132855   2.448   6.781   6.564
10652SOL    HW232856   2.316   6.688   6.536
10653SOL     OW32857   4.246   5.797   4.770
10653SOL    HW132858   4.270   5.765   4.678
10653SOL    HW232859   4.255   5.897   4.774
10654SOL     OW32860   5.012   0.051   6.682
10654SOL    HW132861   5.102   0.044   6.639
10654SOL    HW232862   4.961   0.127   6.641
10655SOL     OW32863   1.795   5.575   0.212
10655SOL    HW132864   1.773   5.477   0.219
10655SOL    HW232865   1.723   5.628   0.257
10656SOL     OW32866   0.101   1.576   2.286
10656SOL    HW132867   0.156   1.646   2.240
10656SOL    HW232868   0.138   1.486   2.267
10657SOL     OW32869   5.952   0.919   4.767
10657SOL    HW132870   5.951   0.853   4.843
10657SOL    HW232871   6.034   0.976   4.774
10658SOL     OW32872   6.666   4.641   4.705
10658SOL    HW132873   6.574   4.615   4.734
10658SOL    HW232874   6.662   4.683   4.614
10659SOL     OW32875   0.978   5.786   0.418
10659SOL    HW132876   0.926   5.765   0.335
10659SOL    HW232877   0.948   5.874   0.455
10660SOL     OW32878   5.737   3.807   6.500
10660SOL    HW132879   5.677   3.815   6.579
10660SOL    HW232880   5.689   3.761   6.426
10661SOL     OW32881   1.347   6.271   1.031
10661SOL    HW132882   1.375   6.293   0.937
10661SOL    HW232883   1.370   6.176   1.052
10662SOL     OW32884   4.797   0.701   2.378
10662SOL    HW132885   4.841   0.726   2.464
10662SOL    HW232886   4.751   0.781   2.340
10663SOL     OW32887   1.014   1.179   2.529
10663SOL    HW132888   0.996   1.175   2.627
10663SOL    HW232889   0.986   1.268   2.494
10664SOL     OW32890   6.451   4.207   5.378
10664SOL    HW132891   6.409   4.288   5.419
10664SOL    HW232892   6.422   4.126   5.428
10665SOL     OW32893   1.291   1.838   0.492
10665SOL    HW132894   1.222   1.881   0.434
10665SOL    HW232895   1.377   1.831   0.442
10666SOL     OW32896   3.291   3.890   1.657
10666SOL    HW132897   3.295   3.872   1.559
10666SOL    HW232898   3.363   3.955   1.682
10667SOL     OW32899   4.772   2.290   3.567
10667SOL    HW132900   4.727   2.369   3.607
10667SOL    HW232901   4.770   2.297   3.467
10668SOL     OW32902   2.986   1.693   5.286
10668SOL    HW132903   2.960   1.712   5.381
10668SOL    HW232904   2.969   1.774   5.230
10669SOL     OW32905   5.498   0.493   1.492
10669SOL    HW132906   5.441   0.494   1.574
10669SOL    HW232907   5.583   0.445   1.512
10670SOL     OW32908   5.825   4.889   4.831
10670SOL    HW132909   5.903   4.881   4.768
10670SOL    HW232910   5.753   4.824   4.803
10671SOL     OW32911   2.131   1.855   4.216
10671SOL    HW132912   2.176   1.868   4.304
10671SOL    HW232913   2.034   1.877   4.225
10672SOL     OW32914   6.493   4.346   1.809
10672SOL    HW132915   6.535   4.305   1.890
10672SOL    HW232916   6.541   4.430   1.786
10673SOL     OW32917   0.546   1.131   6.747
10673SOL    HW132918   0.475   1.069   6.715
10673SOL    HW232919   0.599   1.087   6.820
10674SOL     OW32920   4.070   3.513   3.447
10674SOL    HW132921   4.156   3.479   3.409
10674SOL    HW232922   4.082   3.607   3.478
10675SOL     OW32923   1.492   6.725   0.038
10675SOL    HW132924   1.534   6.635   0.025
10675SOL    HW232925   1.526   6.788   6.995
10676SOL     OW32926   6.555   6.277   5.246
10676SOL    HW132927   6.570   6.295   5.149
10676SOL    HW232928   6.580   6.358   5.300
10677SOL     OW32929   1.955   0.772   1.608
10677SOL    HW132930   2.010   0.803   1.686
10677SOL    HW232931   1.930   0.676   1.622
10678SOL     OW32932   4.793   5.711   3.958
10678SOL    HW132933   4.874   5.656   3.977
10678SOL    HW232934   4.738   5.720   4.041
10679SOL     OW32935   4.297   5.462   6.873
10679SOL    HW132936   4.302   5.418   6.784
10679SOL    HW232937   4.380   5.443   6.925
10680SOL     OW32938   3.762   2.140   4.173
10680SOL    HW132939   3.666   2.170   4.173
10680SOL    HW232940   3.766   2.043   4.197
10681SOL     OW32941   0.584   3.547   0.854
10681SOL    HW132942   0.539   3.519   0.939
10681SOL    HW232943   0.530   3.517   0.776
10682SOL     OW32944   0.580   1.462   5.265
10682SOL    HW132945   0.645   1.463   5.340
10682SOL    HW232946   0.581   1.551   5.218
10683SOL     OW32947   4.946   1.733   3.911
10683SOL    HW132948   4.849   1.744   3.889
10683SOL    HW232949   4.958   1.652   3.969
10684SOL     OW32950   5.044   5.021   3.005
10684SOL    HW132951   5.112   5.036   3.076
10684SOL    HW232952   4.964   4.977   3.044
10685SOL     OW32953   0.451   5.585   1.785
10685SOL    HW132954   0.466   5.493   1.751
10685SOL    HW232955   0.451   5.649   1.708
10686SOL     OW32956   0.708   4.389   5.532
10686SOL    HW132957   0.785   4.355   5.587
10686SOL    HW232958   0.707   4.342   5.444
10687SOL     OW32959   5.754   5.760   4.011
10687SOL    HW132960   5.789   5.667   4.009
10687SOL    HW232961   5.655   5.759   4.023
10688SOL     OW32962   6.249   4.010   2.684
10688SOL    HW132963   6.193   4.092   2.684
10688SOL    HW232964   6.304   4.007   2.601
10689SOL     OW32965   7.013   0.103   3.635
10689SOL    HW132966   6.975   0.085   3.545
10689SOL    HW232967   0.061   0.169   3.627
10690SOL     OW32968   0.256   5.713   4.153
10690SOL    HW132969   0.260   5.656   4.235
10690SOL    HW232970   0.260   5.655   4.072
10691SOL     OW32971   0.934   2.032   2.561
10691SOL    HW132972   0.906   1.940   2.532
10691SOL    HW232973   0.861   2.097   2.541
10692SOL     OW32974   2.812   6.472   4.081
10692SOL    HW132975   2.810   6.401   4.011
10692SOL    HW232976   2.800   6.562   4.038
10693SOL     OW32977   1.910   5.926   0.866
10693SOL    HW132978   1.983   5.858   0.868
10693SOL    HW232979   1.845   5.903   0.794
10694SOL     OW32980   5.302   6.418   0.595
10694SOL    HW132981   5.318   6.439   0.499
10694SOL    HW232982   5.233   6.480   0.632
10695SOL     OW32983   0.190   2.447   3.077
10695SOL    HW132984   0.273   2.498   3.056
10695SOL    HW232985   0.177   2.444   3.176
10696SOL     OW32986   7.014   4.180   3.445
10696SOL    HW132987   6.969   4.130   3.520
10696SOL    HW232988   6.993   4.278   3.453
10697SOL     OW32989   0.177   6.203   5.008
10697SOL    HW132990   0.138   6.252   4.930
10697SOL    HW232991   0.188   6.106   4.984
10698SOL     OW32992   5.312   4.401   6.612
10698SOL    HW132993   5.241   4.471   6.624
10698SOL    HW232994   5.268   4.312   6.598
10699SOL     OW32995   3.682   4.161   1.870
10699SOL    HW132996   3.746   4.124   1.937
10699SOL    HW232997   3.733   4.210   1.799
10700SOL     OW32998   6.065   6.884   0.720
10700SOL    HW132999   6.054   6.983   0.729
10700SOL    HW233000   6.162   6.861   0.717
10701SOL     OW33001   2.938   6.524   6.801
10701SOL    HW133002   2.862   6.488   6.855
10701SOL    HW233003   2.966   6.613   6.838
10702SOL     OW33004   5.309   2.905   1.718
10702SOL    HW133005   5.245   2.961   1.769
10702SOL    HW233006   5.314   2.937   1.623
10703SOL     OW33007   3.154   3.157   4.797
10703SOL    HW133008   3.198   3.071   4.824
10703SOL    HW233009   3.088   3.184   4.867
10704SOL     OW33010   6.101   5.774   1.628
10704SOL    HW133011   6.194   5.787   1.662
10704SOL    HW233012   6.036   5.788   1.702
10705SOL     OW33013   5.920   4.812   1.921
10705SOL    HW133014   5.821   4.803   1.910
10705SOL    HW233015   5.967   4.756   1.852
10706SOL     OW33016   5.238   0.495   2.384
10706SOL    HW133017   5.276   0.413   2.342
10706SOL    HW233018   5.241   0.571   2.319
10707SOL     OW33019   0.146   6.918   4.278
10707SOL    HW133020   0.134   6.971   4.362
10707SOL    HW233021   0.137   6.821   4.298
10708SOL     OW33022   4.220   0.914   2.013
10708SOL    HW133023   4.146   0.882   2.072
10708SOL    HW233024   4.286   0.967   2.066
10709SOL     OW33025   5.851   5.381   5.573
10709SOL    HW133026   5.892   5.386   5.665
10709SOL    HW233027   5.811   5.470   5.550
10710SOL     OW33028   0.054   0.290   4.192
10710SOL    HW133029   0.061   0.203   4.142
10710SOL    HW233030   0.119   0.290   4.267
10711SOL     OW33031   1.648   6.813   4.671
10711SOL    HW133032   1.613   6.862   4.751
10711SOL    HW233033   1.649   6.875   4.592
10712SOL     OW33034   3.094   0.780   1.935
10712SOL    HW133035   3.073   0.729   2.019
10712SOL    HW233036   3.172   0.736   1.890
10713SOL     OW33037   0.623   3.640   1.982
10713SOL    HW133038   0.677   3.565   1.946
10713SOL    HW233039   0.550   3.603   2.041
10714SOL     OW33040   6.007   3.816   4.821
10714SOL    HW133041   5.982   3.779   4.732
10714SOL    HW233042   6.053   3.745   4.874
10715SOL     OW33043   4.854   0.823   2.611
10715SOL    HW133044   4.851   0.774   2.698
10715SOL    HW233045   4.940   0.874   2.604
10716SOL     OW33046   5.673   2.255   3.970
10716SOL    HW133047   5.658   2.166   3.927
10716SOL    HW233048   5.771   2.269   3.984
10717SOL     OW33049   1.406   2.110   1.270
10717SOL    HW133050   1.395   2.090   1.173
10717SOL    HW233051   1.316   2.131   1.310
10718SOL     OW33052   1.336   3.143   6.459
10718SOL    HW133053   1.343   3.075   6.387
10718SOL    HW233054   1.366   3.103   6.546
10719SOL     OW33055   6.481   5.921   2.586
10719SOL    HW133056   6.429   5.850   2.540
10719SOL    HW233057   6.458   5.921   2.684
10720SOL     OW33058   0.646   4.302   4.603
10720SOL    HW133059   0.735   4.327   4.639
10720SOL    HW233060   0.575   4.354   4.649
10721SOL     OW33061   5.701   3.786   5.160
10721SOL    HW133062   5.655   3.875   5.152
10721SOL    HW233063   5.777   3.794   5.224
10722SOL     OW33064   0.773   4.937   0.313
10722SOL    HW133065   0.738   5.027   0.340
10722SOL    HW233066   0.795   4.883   0.394
10723SOL     OW33067   0.341   3.608   5.955
10723SOL    HW133068   0.272   3.680   5.948
10723SOL    HW233069   0.315   3.531   5.897
10724SOL     OW33070   5.945   0.962   6.692
10724SOL    HW133071   5.860   1.010   6.712
10724SOL    HW233072   5.927   0.863   6.685
10725SOL     OW33073   0.796   5.278   4.692
10725SOL    HW133074   0.764   5.217   4.764
10725SOL    HW233075   0.784   5.234   4.603
10726SOL     OW33076   5.318   6.914   5.433
10726SOL    HW133077   5.336   6.846   5.504
10726SOL    HW233078   5.221   6.940   5.436
10727SOL     OW33079   0.457   4.822   5.153
10727SOL    HW133080   0.386   4.751   5.146
10727SOL    HW233081   0.522   4.796   5.224
10728SOL     OW33082   0.048   6.084   0.139
10728SOL    HW133083   7.013   6.076   0.061
10728SOL    HW233084   0.120   6.015   0.132
10729SOL     OW33085   5.565   0.941   1.713
10729SOL    HW133086   5.550   0.882   1.792
10729SOL    HW233087   5.563   1.036   1.742
10730SOL     OW33088   2.408   0.508   1.728
10730SOL    HW133089   2.507   0.499   1.736
10730SOL    HW233090   2.368   0.514   1.820
10731SOL     OW33091   3.065   5.942   0.924
10731SOL    HW133092   3.078   5.883   1.003
10731SOL    HW233093   3.113   6.029   0.939
10732SOL     OW33094   5.736   5.167   3.594
10732SOL    HW133095   5.718   5.112   3.512
10732SOL    HW233096   5.660   5.158   3.658
10733SOL     OW33097   6.444   1.736   1.036
10733SOL    HW133098   6.544   1.735   1.036
10733SOL    HW233099   6.412   1.806   1.100
10734SOL     OW33100   1.063   0.454   0.044
10734SOL    HW133101   1.084   0.536   0.097
10734SOL    HW233102   0.975   0.466   7.024
10735SOL     OW33103   1.518   3.162   3.257
10735SOL    HW133104   1.468   3.089   3.210
10735SOL    HW233105   1.453   3.226   3.297
10736SOL     OW33106   1.316   0.514   2.732
10736SOL    HW133107   1.251   0.471   2.670
10736SOL    HW233108   1.271   0.586   2.784
10737SOL     OW33109   2.116   1.641   0.565
10737SOL    HW133110   2.208   1.661   0.530
10737SOL    HW233111   2.123   1.579   0.643
10738SOL     OW33112   2.938   0.375   3.330
10738SOL    HW133113   3.025   0.392   3.284
10738SOL    HW233114   2.952   0.308   3.404
10739SOL     OW33115   0.631   1.476   1.115
10739SOL    HW133116   0.559   1.409   1.133
10739SOL    HW233117   0.710   1.430   1.075
10740SOL     OW33118   0.284   4.596   5.222
10740SOL    HW133119   0.373   4.563   5.253
10740SOL    HW233120   0.260   4.550   5.136
10741SOL     OW33121   6.508   0.003   1.290
10741SOL    HW133122   6.493   6.978   1.206
10741SOL    HW233123   6.480   6.974   1.368
10742SOL     OW33124   5.467   0.727   1.088
10742SOL    HW133125   5.514   0.690   1.169
10742SOL    HW233126   5.386   0.672   1.069
10743SOL     OW33127   2.809   1.625   4.912
10743SOL    HW133128   2.883   1.691   4.898
10743SOL    HW233129   2.833   1.564   4.987
10744SOL     OW33130   3.841   1.361   1.022
10744SOL    HW133131   3.931   1.399   1.040
10744SOL    HW233132   3.808   1.313   1.104
10745SOL     OW33133   0.456   5.491   0.033
10745SOL    HW133134   0.458   5.545   6.976
10745SOL    HW233135   0.399   5.411   0.020
10746SOL     OW33136   2.188   4.375   0.757
10746SOL    HW133137   2.097   4.357   0.721
10746SOL    HW233138   2.180   4.412   0.850
10747SOL     OW33139   4.639   0.957   3.705
10747SOL    HW133140   4.631   0.869   3.659
10747SOL    HW233141   4.627   1.031   3.639
10748SOL     OW33142   4.601   1.226   1.476
10748SOL    HW133143   4.585   1.295   1.405
10748SOL    HW233144   4.648   1.269   1.553
10749SOL     OW33145   0.476   5.797   3.273
10749SOL    HW133146   0.385   5.816   3.311
10749SOL    HW233147   0.488   5.698   3.265
10750SOL     OW33148   4.454   6.033   5.113
10750SOL    HW133149   4.450   5.948   5.062
10750SOL    HW233150   4.505   6.102   5.061
10751SOL     OW33151   1.758   4.287   3.845
10751SOL    HW133152   1.772   4.232   3.927
10751SOL    HW233153   1.671   4.262   3.802
10752SOL     OW33154   5.662   4.186   6.307
10752SOL    HW133155   5.600   4.153   6.236
10752SOL    HW233156   5.746   4.132   6.307
10753SOL     OW33157   4.511   6.447   4.374
10753SOL    HW133158   4.480   6.504   4.449
10753SOL    HW233159   4.495   6.495   4.287
10754SOL     OW33160   1.043   1.271   3.426
10754SOL    HW133161   1.016   1.196   3.487
10754SOL    HW233162   1.042   1.239   3.331
10755SOL     OW33163   0.187   0.747   6.585
10755SOL    HW133164   0.215   0.655   6.612
10755SOL    HW233165   0.261   0.812   6.606
10756SOL     OW33166   0.101   4.343   0.403
10756SOL    HW133167   0.065   4.294   0.323
10756SOL    HW233168   0.200   4.349   0.396
10757SOL     OW33169   1.258   3.274   0.412
10757SOL    HW133170   1.173   3.258   0.464
10757SOL    HW233171   1.239   3.263   0.315
10758SOL     OW33172   0.425   6.845   4.284
10758SOL    HW133173   0.328   6.865   4.290
10758SOL    HW233174   0.478   6.929   4.297
10759SOL     OW33175   1.719   2.978   1.310
10759SOL    HW133176   1.654   2.972   1.235
10759SOL    HW233177   1.736   3.074   1.332
10760SOL     OW33178   6.611   1.366   1.807
10760SOL    HW133179   6.561   1.382   1.722
10760SOL    HW233180   6.568   1.291   1.858
10761SOL     OW33181   1.201   0.945   6.322
10761SOL    HW133182   1.210   0.978   6.416
10761SOL    HW233183   1.146   0.861   6.321
10762SOL     OW33184   4.349   1.834   4.614
10762SOL    HW133185   4.300   1.809   4.697
10762SOL    HW233186   4.321   1.925   4.584
10763SOL     OW33187   5.130   6.693   2.631
10763SOL    HW133188   5.202   6.673   2.565
10763SOL    HW233189   5.043   6.655   2.600
10764SOL     OW33190   5.452   2.596   5.865
10764SOL    HW133191   5.528   2.653   5.833
10764SOL    HW233192   5.411   2.639   5.946
10765SOL     OW33193   5.417   2.134   0.439
10765SOL    HW133194   5.394   2.074   0.363
10765SOL    HW233195   5.469   2.212   0.405
10766SOL     OW33196   4.870   3.617   1.311
10766SOL    HW133197   4.934   3.685   1.347
10766SOL    HW233198   4.832   3.649   1.224
10767SOL     OW33199   1.116   0.711   0.168
10767SOL    HW133200   1.188   0.712   0.238
10767SOL    HW233201   1.034   0.756   0.204
10768SOL     OW33202   4.946   4.493   1.325
10768SOL    HW133203   4.872   4.468   1.262
10768SOL    HW233204   4.911   4.494   1.418
10769SOL     OW33205   2.624   4.695   4.906
10769SOL    HW133206   2.620   4.783   4.952
10769SOL    HW233207   2.705   4.644   4.938
10770SOL     OW33208   5.408   0.762   5.108
10770SOL    HW133209   5.365   0.822   5.040
10770SOL    HW233210   5.345   0.688   5.132
10771SOL     OW33211   5.402   1.270   3.119
10771SOL    HW133212   5.406   1.294   3.216
10771SOL    HW233213   5.313   1.228   3.099
10772SOL     OW33214   6.795   6.845   4.617
10772SOL    HW133215   6.707   6.856   4.570
10772SOL    HW233216   6.798   6.756   4.663
10773SOL     OW33217   6.739   5.324   0.093
10773SOL    HW133218   6.710   5.419   0.088
10773SOL    HW233219   6.738   5.283   0.002
10774SOL     OW33220   1.878   1.973   6.661
10774SOL    HW133221   1.891   2.053   6.602
10774SOL    HW233222   1.958   1.914   6.654
10775SOL     OW33223   6.967   4.636   1.374
10775SOL    HW133224   6.906   4.697   1.324
10775SOL    HW233225   6.919   4.551   1.396
10776SOL     OW33226   0.426   0.022   6.800
10776SOL    HW133227   0.365   6.977   6.833
10776SOL    HW233228   0.383   0.069   6.723
10777SOL     OW33229   3.480   5.573   3.201
10777SOL    HW133230   3.439   5.657   3.166
10777SOL    HW233231   3.416   5.528   3.263
10778SOL     OW33232   5.739   0.067   4.326
10778SOL    HW133233   5.672   0.031   4.261
10778SOL    HW233234   5.694   0.089   4.412
10779SOL     OW33235   6.451   4.370   3.614
10779SOL    HW133236   6.457   4.274   3.586
10779SOL    HW233237   6.531   4.420   3.582
10780SOL     OW33238   2.076   1.014   3.821
10780SOL    HW133239   1.989   1.062   3.808
10780SOL    HW233240   2.075   0.930   3.765
10781SOL     OW33241   4.301   0.797   3.420
10781SOL    HW133242   4.344   0.713   3.454
10781SOL    HW233243   4.214   0.812   3.468
10782SOL     OW33244   5.630   1.891   2.270
10782SOL    HW133245   5.718   1.930   2.242
10782SOL    HW233246   5.555   1.947   2.232
10783SOL     OW33247   0.607   3.144   3.446
10783SOL    HW133248   0.667   3.131   3.367
10783SOL    HW233249   0.519   3.099   3.429
10784SOL     OW33250   3.696   0.018   4.556
10784SOL    HW133251   3.691   0.050   4.651
10784SOL    HW233252   3.790   0.025   4.523
10785SOL     OW33253   0.408   4.686   1.826
10785SOL    HW133254   0.356   4.771   1.835
10785SOL    HW233255   0.452   4.683   1.737
10786SOL     OW33256   5.431   4.922   2.992
10786SOL    HW133257   5.387   4.993   3.047
10786SOL    HW233258   5.523   4.952   2.966
10787SOL     OW33259   1.906   1.357   4.613
10787SOL    HW133260   1.962   1.288   4.565
10787SOL    HW233261   1.967   1.425   4.655
10788SOL     OW33262   2.009   4.471   6.227
10788SOL    HW133263   2.077   4.406   6.260
10788SOL    HW233264   1.962   4.514   6.304
10789SOL     OW33265   0.229   2.785   6.525
10789SOL    HW133266   0.233   2.848   6.603
10789SOL    HW233267   0.191   2.833   6.446
10790SOL     OW33268   1.206   1.000   1.530
10790SOL    HW133269   1.129   0.943   1.501
10790SOL    HW233270   1.282   0.942   1.558
10791SOL     OW33271   0.677   6.950   1.016
10791SOL    HW133272   0.582   6.941   0.986
10791SOL    HW233273   0.694   0.018   1.045
10792SOL     OW33274   2.995   3.858   3.693
10792SOL    HW133275   3.033   3.944   3.727
10792SOL    HW233276   2.984   3.794   3.768
10793SOL     OW33277   5.750   3.418   4.248
10793SOL    HW133278   5.695   3.335   4.238
10793SOL    HW233279   5.741   3.452   4.342
10794SOL     OW33280   3.011   3.864   3.364
10794SOL    HW133281   3.073   3.917   3.306
10794SOL    HW233282   2.971   3.790   3.310
10795SOL     OW33283   6.607   4.527   2.581
10795SOL    HW133284   6.640   4.610   2.625
10795SOL    HW233285   6.597   4.454   2.650
10796SOL     OW33286   5.502   6.648   0.280
10796SOL    HW133287   5.585   6.680   0.326
10796SOL    HW233288   5.443   6.726   0.260
10797SOL     OW33289   4.260   2.849   1.689
10797SOL    HW133290   4.338   2.787   1.682
10797SOL    HW233291   4.188   2.818   1.626
10798SOL     OW33292   2.735   6.074   0.638
10798SOL    HW133293   2.743   6.171   0.619
10798SOL    HW233294   2.801   6.023   0.583
10799SOL     OW33295   3.757   1.002   1.722
10799SOL    HW133296   3.815   1.084   1.728
10799SOL    HW233297   3.730   0.975   1.815
10800SOL     OW33298   0.741   6.758   6.151
10800SOL    HW133299   0.779   6.678   6.196
10800SOL    HW233300   0.802   6.836   6.164
10801SOL     OW33301   0.572   5.735   5.863
10801SOL    HW133302   0.515   5.814   5.839
10801SOL    HW233303   0.629   5.759   5.942
10802SOL     OW33304   0.518   1.663   3.264
10802SOL    HW133305   0.579   1.736   3.233
10802SOL    HW233306   0.443   1.654   3.198
10803SOL     OW33307   3.060   3.887   6.372
10803SOL    HW133308   2.972   3.878   6.418
10803SOL    HW233309   3.062   3.972   6.320
10804SOL     OW33310   5.929   3.342   1.830
10804SOL    HW133311   5.887   3.259   1.793
10804SOL    HW233312   5.907   3.350   1.927
10805SOL     OW33313   4.255   6.713   6.815
10805SOL    HW133314   4.275   6.615   6.813
10805SOL    HW233315   4.339   6.764   6.834
10806SOL     OW33316   4.800   3.766   5.890
10806SOL    HW133317   4.842   3.835   5.831
10806SOL    HW233318   4.702   3.783   5.896
10807SOL     OW33319   0.971   0.134   2.165
10807SOL    HW133320   0.930   0.106   2.079
10807SOL    HW233321   1.036   0.209   2.149
10808SOL     OW33322   0.204   2.982   5.718
10808SOL    HW133323   0.263   3.020   5.789
10808SOL    HW233324   0.128   2.933   5.761
10809SOL     OW33325   2.824   4.746   3.360
10809SOL    HW133326   2.818   4.778   3.455
10809SOL    HW233327   2.892   4.801   3.311
10810SOL     OW33328   1.406   0.222   4.379
10810SOL    HW133329   1.399   0.137   4.326
10810SOL    HW233330   1.324   0.234   4.434
10811SOL     OW33331   3.978   4.399   6.371
10811SOL    HW133332   3.969   4.495   6.344
10811SOL    HW233333   4.063   4.385   6.421
10812SOL     OW33334   0.572   4.347   0.926
10812SOL    HW133335   0.584   4.370   1.023
10812SOL    HW233336   0.525   4.259   0.918
10813SOL     OW33337   2.199   4.755   6.382
10813SOL    HW133338   2.256   4.674   6.394
10813SOL    HW233339   2.234   4.808   6.304
10814SOL     OW33340   1.318   6.711   6.727
10814SOL    HW133341   1.377   6.762   6.664
10814SOL    HW233342   1.253   6.774   6.769
10815SOL     OW33343   4.331   4.662   3.342
10815SOL    HW133344   4.285   4.697   3.260
10815SOL    HW233345   4.426   4.639   3.319
10816SOL     OW33346   3.160   2.974   2.687
10816SOL    HW133347   3.111   2.895   2.651
10816SOL    HW233348   3.100   3.054   2.686
10817SOL     OW33349   4.632   0.750   3.496
10817SOL    HW133350   4.560   0.680   3.500
10817SOL    HW233351   4.722   0.706   3.502
10818SOL     OW33352   4.374   4.408   5.508
10818SOL    HW133353   4.409   4.343   5.576
10818SOL    HW233354   4.322   4.480   5.555
10819SOL     OW33355   6.602   5.014   6.113
10819SOL    HW133356   6.542   5.093   6.122
10819SOL    HW233357   6.547   4.930   6.116
10820SOL     OW33358   6.806   5.634   3.788
10820SOL    HW133359   6.862   5.556   3.819
10820SOL    HW233360   6.866   5.705   3.752
10821SOL     OW33361   5.528   6.939   2.210
10821SOL    HW133362   5.576   0.000   2.210
10821SOL    HW233363   5.456   6.942   2.280
10822SOL     OW33364   6.965   3.281   3.084
10822SOL    HW133365   6.883   3.288   3.141
10822SOL    HW233366   0.017   3.258   3.142
10823SOL     OW33367   1.793   6.395   1.696
10823SOL    HW133368   1.695   6.396   1.677
10823SOL    HW233369   1.807   6.388   1.795
10824SOL     OW33370   6.547   1.293   2.989
10824SOL    HW133371   6.544   1.295   2.889
10824SOL    HW233372   6.535   1.386   3.025
10825SOL     OW33373   2.405   1.023   6.298
10825SOL    HW133374   2.445   0.933   6.285
10825SOL    HW233375   2.364   1.054   6.212
10826SOL     OW33376   1.236   3.021   3.963
10826SOL    HW133377   1.269   2.933   3.997
10826SOL    HW233378   1.314   3.082   3.947
10827SOL     OW33379   6.828   2.988   4.117
10827SOL    HW133380   6.922   3.021   4.104
10827SOL    HW233381   6.772   3.015   4.039
10828SOL     OW33382   1.228   4.696   0.678
10828SOL    HW133383   1.255   4.790   0.659
10828SOL    HW233384   1.163   4.694   0.754
10829SOL     OW33385   4.348   2.194   0.191
10829SOL    HW133386   4.271   2.168   0.133
10829SOL    HW233387   4.350   2.137   0.273
10830SOL     OW33388   5.234   1.742   2.820
10830SOL    HW133389   5.143   1.782   2.831
10830SOL    HW233390   5.274   1.774   2.734
10831SOL     OW33391   2.715   5.887   2.987
10831SOL    HW133392   2.778   5.886   2.908
10831SOL    HW233393   2.720   5.975   3.032
10832SOL     OW33394   0.873   2.813   6.212
10832SOL    HW133395   0.960   2.766   6.221
10832SOL    HW233396   0.862   2.878   6.288
10833SOL     OW33397   0.902   0.516   2.194
10833SOL    HW133398   0.826   0.548   2.251
10833SOL    HW233399   0.988   0.533   2.242
10834SOL     OW33400   1.088   1.948   0.350
10834SOL    HW133401   1.050   2.015   0.286
10834SOL    HW233402   1.052   1.857   0.328
10835SOL     OW33403   5.402   2.523   0.539
10835SOL    HW133404   5.493   2.559   0.562
10835SOL    HW233405   5.412   2.441   0.483
10836SOL     OW33406   6.587   1.451   4.955
10836SOL    HW133407   6.512   1.499   5.001
10836SOL    HW233408   6.651   1.518   4.918
10837SOL     OW33409   6.901   5.279   1.302
10837SOL    HW133410   6.962   5.354   1.276
10837SOL    HW233411   6.819   5.317   1.345
10838SOL     OW33412   6.129   5.418   4.344
10838SOL    HW133413   6.067   5.340   4.339
10838SOL    HW233414   6.185   5.422   4.261
10839SOL     OW33415   4.372   3.099   1.679
10839SOL    HW133416   4.331   3.008   1.682
10839SOL    HW233417   4.459   3.098   1.728
10840SOL     OW33418   2.477   6.007   2.831
10840SOL    HW133419   2.404   5.962   2.779
10840SOL    HW233420   2.545   5.938   2.858
10841SOL     OW33421   5.849   4.962   6.089
10841SOL    HW133422   5.941   4.984   6.058
10841SOL    HW233423   5.852   4.933   6.185
10842SOL     OW33424   4.993   2.647   1.873
10842SOL    HW133425   5.074   2.662   1.928
10842SOL    HW233426   5.012   2.578   1.803
10843SOL     OW33427   1.118   1.917   1.684
10843SOL    HW133428   1.132   1.854   1.761
10843SOL    HW233429   1.119   1.866   1.598
10844SOL     OW33430   0.302   6.822   3.525
10844SOL    HW133431   0.218   6.828   3.580
10844SOL    HW233432   0.376   6.868   3.572
10845SOL     OW33433   3.200   0.138   5.384
10845SOL    HW133434   3.200   0.198   5.304
10845SOL    HW233435   3.273   0.069   5.373
10846SOL     OW33436   5.428   1.341   0.178
10846SOL    HW133437   5.492   1.334   0.102
10846SOL    HW233438   5.475   1.379   0.258
10847SOL     OW33439   3.686   3.141   6.585
10847SOL    HW133440   3.618   3.211   6.563
10847SOL    HW233441   3.640   3.061   6.622
10848SOL     OW33442   3.051   3.693   6.841
10848SOL    HW133443   3.065   3.757   6.766
10848SOL    HW233444   2.980   3.729   6.903
10849SOL     OW33445   1.991   5.396   3.677
10849SOL    HW133446   2.069   5.455   3.698
10849SOL    HW233447   1.924   5.402   3.751
10850SOL     OW33448   2.593   5.495   0.039
10850SOL    HW133449   2.555   5.582   0.071
10850SOL    HW233450   2.656   5.513   6.991
10851SOL     OW33451   1.671   3.371   6.917
10851SOL    HW133452   1.674   3.304   6.991
10851SOL    HW233453   1.683   3.323   6.829
10852SOL     OW33454   1.453   0.320   6.898
10852SOL    HW133455   1.495   0.230   6.909
10852SOL    HW233456   1.439   0.362   6.987
10853SOL     OW33457   1.605   2.254   5.040
10853SOL    HW133458   1.685   2.224   4.987
10853SOL    HW233459   1.556   2.324   4.989
10854SOL     OW33460   4.531   4.965   5.175
10854SOL    HW133461   4.463   5.038   5.183
10854SOL    HW233462   4.485   4.879   5.151
10855SOL     OW33463   3.631   0.489   0.972
10855SOL    HW133464   3.663   0.398   0.945
10855SOL    HW233465   3.624   0.547   0.892
10856SOL     OW33466   5.491   1.697   0.192
10856SOL    HW133467   5.515   1.629   0.262
10856SOL    HW233468   5.392   1.710   0.191
10857SOL     OW33469   6.381   2.490   2.913
10857SOL    HW133470   6.372   2.400   2.956
10857SOL    HW233471   6.342   2.487   2.821
10858SOL     OW33472   1.114   1.477   6.515
10858SOL    HW133473   1.046   1.415   6.477
10858SOL    HW233474   1.204   1.453   6.478
10859SOL     OW33475   1.416   4.454   4.662
10859SOL    HW133476   1.513   4.458   4.683
10859SOL    HW233477   1.397   4.506   4.579
10860SOL     OW33478   6.944   1.530   5.577
10860SOL    HW133479   6.990   1.442   5.588
10860SOL    HW233480   6.951   1.559   5.481
10861SOL     OW33481   3.566   3.379   3.324
10861SOL    HW133482   3.499   3.311   3.295
10861SOL    HW233483   3.658   3.343   3.308
10862SOL     OW33484   2.358   1.747   6.507
10862SOL    HW133485   2.413   1.810   6.452
10862SOL    HW233486   2.403   1.734   6.596
10863SOL     OW33487   3.717   0.734   3.721
10863SOL    HW133488   3.686   0.779   3.805
10863SOL    HW233489   3.656   0.759   3.646
10864SOL     OW33490   2.326   5.828   1.175
10864SOL    HW133491   2.377   5.779   1.246
10864SOL    HW233492   2.228   5.814   1.188
10865SOL     OW33493   6.953   1.168   2.230
10865SOL    HW133494   6.970   1.197   2.136
10865SOL    HW233495   6.863   1.201   2.259
10866SOL     OW33496   5.326   4.477   0.814
10866SOL    HW133497   5.316   4.498   0.717
10866SOL    HW233498   5.406   4.524   0.851
10867SOL     OW33499   3.507   4.234   6.849
10867SOL    HW133500   3.437   4.259   6.782
10867SOL    HW233501   3.473   4.251   6.941
10868SOL     OW33502   4.190   2.320   4.106
10868SOL    HW133503   4.135   2.347   4.027
10868SOL    HW233504   4.259   2.253   4.078
10869NA      NA33505   6.950   2.185   5.342
10870NA      NA33506   4.421   4.477   5.296
10871NA      NA33507   2.036   3.512   2.172
10872NA      NA33508   4.980   3.973   4.708
10873NA      NA33509   4.347   2.391   5.209
10874NA      NA33510   3.191   4.652   1.573
10875NA      NA33511   0.093   4.367   0.627
10876NA      NA33512   3.137   3.735   3.534
10877NA      NA33513   5.189   5.531   0.350
10878NA      NA33514   2.981   0.086   5.518
10879NA      NA33515   5.968   5.405   1.494
10880NA      NA33516   2.275   0.506   4.420
10881NA      NA33517   3.688   5.109   2.416
10882NA      NA33518   4.024   3.516   2.084
   7.02664   7.02664   7.02664
