Generated by trjconv : CNT in water t= 492.00000
33518
    1C        C    1   2.839   2.763   4.749
    1C        C    2   2.897   2.714   4.868
    1C        C    3   2.843   2.772   4.984
    1C        C    4   2.855   2.778   4.262
    1C        C    5   2.902   2.727   4.385
    1C        C    6   2.850   2.776   4.507
    1C        C    7   3.010   2.636   4.626
    1C        C    8   2.892   2.715   4.627
    1C        C    9   3.076   2.603   4.746
    1C        C   10   3.013   2.634   4.869
    1C        C   11   3.178   2.481   4.975
    1C        C   12   3.061   2.557   4.976
    1C        C   13   2.850   2.767   3.773
    1C        C   14   2.901   2.721   3.896
    1C        C   15   2.849   2.770   4.017
    1C        C   16   3.019   2.644   4.139
    1C        C   17   2.905   2.728   4.139
    1C        C   18   3.077   2.608   4.262
    1C        C   19   3.013   2.641   4.383
    1C        C   20   3.204   2.548   4.506
    1C        C   21   3.072   2.598   4.505
    1C        C   22   3.276   2.528   4.626
    1C        C   23   3.205   2.544   4.748
    1C        C   24   3.411   2.481   4.865
    1C        C   25   3.269   2.497   4.866
    1C        C   26   3.487   2.473   4.983
    1C        C   27   2.848   2.763   3.282
    1C        C   28   2.905   2.724   3.405
    1C        C   29   2.853   2.772   3.528
    1C        C   30   3.012   2.632   3.648
    1C        C   31   2.901   2.720   3.650
    1C        C   32   3.076   2.601   3.770
    1C        C   33   3.017   2.639   3.893
    1C        C   34   3.206   2.549   4.018
    1C        C   35   3.076   2.603   4.016
    1C        C   36   3.276   2.529   4.139
    1C        C   37   3.208   2.553   4.261
    1C        C   38   3.412   2.508   4.382
    1C        C   39   3.273   2.531   4.384
    1C        C   40   3.484   2.504   4.503
    1C        C   41   3.415   2.504   4.626
    1C        C   42   3.630   2.485   4.744
    1C        C   43   3.487   2.484   4.745
    1C        C   44   3.704   2.490   4.864
    1C        C   45   3.626   2.482   4.980
    1C        C   46   2.838   2.750   2.791
    1C        C   47   2.894   2.710   2.914
    1C        C   48   2.848   2.762   3.036
    1C        C   49   3.013   2.631   3.160
    1C        C   50   2.898   2.714   3.159
    1C        C   51   3.073   2.596   3.283
    1C        C   52   3.017   2.638   3.405
    1C        C   53   3.207   2.547   3.528
    1C        C   54   3.075   2.597   3.527
    1C        C   55   3.275   2.528   3.650
    1C        C   56   3.206   2.546   3.772
    1C        C   57   3.412   2.504   3.893
    1C        C   58   3.273   2.526   3.896
    1C        C   59   3.482   2.495   4.016
    1C        C   60   3.414   2.501   4.139
    1C        C   61   3.627   2.505   4.259
    1C        C   62   3.486   2.498   4.261
    1C        C   63   3.699   2.513   4.380
    1C        C   64   3.626   2.509   4.501
    1C        C   65   3.832   2.551   4.620
    1C        C   66   3.698   2.506   4.622
    1C        C   67   3.904   2.568   4.740
    1C        C   68   3.839   2.530   4.860
    1C        C   69   4.050   2.586   4.976
    1C        C   70   3.919   2.536   4.975
    1C        C   71   2.825   2.736   2.305
    1C        C   72   2.883   2.694   2.426
    1C        C   73   2.831   2.746   2.547
    1C        C   74   3.008   2.626   2.670
    1C        C   75   2.889   2.703   2.668
    1C        C   76   3.072   2.593   2.792
    1C        C   77   3.011   2.629   2.914
    1C        C   78   3.205   2.544   3.036
    1C        C   79   3.075   2.599   3.037
    1C        C   80   3.272   2.523   3.159
    1C        C   81   3.204   2.543   3.281
    1C        C   82   3.410   2.498   3.404
    1C        C   83   3.272   2.527   3.404
    1C        C   84   3.482   2.490   3.525
    1C        C   85   3.414   2.504   3.648
    1C        C   86   3.624   2.504   3.770
    1C        C   87   3.483   2.498   3.771
    1C        C   88   3.693   2.518   3.893
    1C        C   89   3.623   2.506   4.016
    1C        C   90   3.833   2.552   4.134
    1C        C   91   3.696   2.515   4.136
    1C        C   92   3.901   2.574   4.256
    1C        C   93   3.836   2.547   4.379
    1C        C   94   4.029   2.636   4.500
    1C        C   95   3.904   2.570   4.500
    1C        C   96   4.091   2.676   4.621
    1C        C   97   4.031   2.631   4.741
    1C        C   98   4.192   2.767   4.861
    1C        C   99   4.101   2.657   4.862
    1C        C  100   4.221   2.838   4.979
    1C        C  101   2.819   2.728   2.067
    1C        C  102   2.985   2.587   2.192
    1C        C  103   2.877   2.680   2.185
    1C        C  104   3.061   2.566   2.311
    1C        C  105   3.002   2.618   2.428
    1C        C  106   3.197   2.528   2.552
    1C        C  107   3.068   2.585   2.549
    1C        C  108   3.269   2.511   2.672
    1C        C  109   3.200   2.535   2.793
    1C        C  110   3.409   2.490   2.916
    1C        C  111   3.270   2.516   2.914
    1C        C  112   3.483   2.489   3.037
    1C        C  113   3.411   2.500   3.158
    1C        C  114   3.622   2.506   3.280
    1C        C  115   3.481   2.496   3.281
    1C        C  116   3.691   2.515   3.403
    1C        C  117   3.623   2.504   3.525
    1C        C  118   3.829   2.556   3.645
    1C        C  119   3.694   2.515   3.647
    1C        C  120   3.893   2.582   3.768
    1C        C  121   3.829   2.556   3.891
    1C        C  122   4.021   2.648   4.012
    1C        C  123   3.896   2.583   4.012
    1C        C  124   4.087   2.678   4.134
    1C        C  125   4.025   2.641   4.255
    1C        C  126   4.195   2.767   4.374
    1C        C  127   4.085   2.679   4.378
    1C        C  128   4.241   2.821   4.496
    1C        C  129   4.196   2.770   4.620
    1C        C  130   4.333   2.935   4.739
    1C        C  131   4.243   2.825   4.742
    1C        C  132   4.364   2.997   4.862
    1C        C  133   4.293   2.957   4.976
    1C        C  134   3.171   2.471   2.081
    1C        C  135   3.036   2.509   2.083
    1C        C  136   3.260   2.482   2.189
    1C        C  137   3.195   2.519   2.309
    1C        C  138   3.404   2.481   2.426
    1C        C  139   3.265   2.503   2.430
    1C        C  140   3.477   2.486   2.547
    1C        C  141   3.409   2.488   2.671
    1C        C  142   3.620   2.496   2.790
    1C        C  143   3.479   2.485   2.793
    1C        C  144   3.692   2.510   2.911
    1C        C  145   3.623   2.503   3.034
    1C        C  146   3.829   2.544   3.155
    1C        C  147   3.692   2.509   3.158
    1C        C  148   3.892   2.574   3.278
    1C        C  149   3.830   2.544   3.401
    1C        C  150   4.021   2.639   3.522
    1C        C  151   3.897   2.571   3.522
    1C        C  152   4.082   2.677   3.644
    1C        C  153   4.018   2.648   3.767
    1C        C  154   4.195   2.768   3.888
    1C        C  155   4.079   2.687   3.889
    1C        C  156   4.251   2.813   4.009
    1C        C  157   4.199   2.764   4.131
    1C        C  158   4.344   2.920   4.252
    1C        C  159   4.249   2.815   4.253
    1C        C  160   4.379   2.983   4.373
    1C        C  161   4.330   2.931   4.495
    1C        C  162   4.441   3.115   4.617
    1C        C  163   4.372   2.991   4.616
    1C        C  164   4.473   3.180   4.738
    1C        C  165   4.441   3.115   4.859
    1C        C  166   4.520   3.317   4.973
    1C        C  167   4.481   3.184   4.975
    1C        C  168   3.476   2.436   2.072
    1C        C  169   3.400   2.461   2.187
    1C        C  170   3.618   2.467   2.306
    1C        C  171   3.476   2.464   2.306
    1C        C  172   3.691   2.488   2.425
    1C        C  173   3.618   2.492   2.546
    1C        C  174   3.825   2.546   2.665
    1C        C  175   3.688   2.510   2.667
    1C        C  176   3.891   2.571   2.787
    1C        C  177   3.828   2.547   2.911
    1C        C  178   4.022   2.630   3.032
    1C        C  179   3.897   2.565   3.033
    1C        C  180   4.082   2.672   3.154
    1C        C  181   4.017   2.640   3.276
    1C        C  182   4.197   2.752   3.398
    1C        C  183   4.079   2.674   3.398
    1C        C  184   4.251   2.804   3.518
    1C        C  185   4.196   2.761   3.641
    1C        C  186   4.342   2.913   3.766
    1C        C  187   4.247   2.809   3.763
    1C        C  188   4.385   2.975   3.886
    1C        C  189   4.344   2.920   4.009
    1C        C  190   4.452   3.104   4.129
    1C        C  191   4.386   2.979   4.130
    1C        C  192   4.476   3.172   4.251
    1C        C  193   4.443   3.109   4.373
    1C        C  194   4.515   3.311   4.492
    1C        C  195   4.473   3.176   4.494
    1C        C  196   4.531   3.383   4.612
    1C        C  197   4.518   3.315   4.735
    1C        C  198   4.555   3.532   4.849
    1C        C  199   4.533   3.391   4.855
    1C        C  200   4.582   3.618   4.959
    1C        C  201   3.615   2.418   2.071
    1C        C  202   3.825   2.513   2.182
    1C        C  203   3.691   2.462   2.184
    1C        C  204   3.898   2.542   2.301
    1C        C  205   3.828   2.523   2.422
    1C        C  206   4.021   2.619   2.542
    1C        C  207   3.893   2.559   2.542
    1C        C  208   4.082   2.662   2.663
    1C        C  209   4.020   2.630   2.786
    1C        C  210   4.195   2.749   2.909
    1C        C  211   4.079   2.667   2.908
    1C        C  212   4.252   2.794   3.029
    1C        C  213   4.200   2.750   3.153
    1C        C  214   4.341   2.907   3.272
    1C        C  215   4.250   2.799   3.275
    1C        C  216   4.380   2.968   3.394
    1C        C  217   4.345   2.909   3.517
    1C        C  218   4.443   3.094   3.640
    1C        C  219   4.383   2.966   3.641
    1C        C  220   4.470   3.163   3.760
    1C        C  221   4.446   3.102   3.885
    1C        C  222   4.512   3.305   4.003
    1C        C  223   4.477   3.169   4.006
    1C        C  224   4.523   3.377   4.124
    1C        C  225   4.512   3.308   4.247
    1C        C  226   4.518   3.521   4.365
    1C        C  227   4.521   3.380   4.368
    1C        C  228   4.514   3.595   4.486
    1C        C  229   4.528   3.524   4.607
    1C        C  230   4.500   3.738   4.724
    1C        C  231   4.537   3.600   4.726
    1C        C  232   4.488   3.815   4.842
    1C        C  233   4.546   3.754   4.954
    1C        C  234   4.017   2.611   2.062
    1C        C  235   3.894   2.545   2.064
    1C        C  236   4.086   2.646   2.178
    1C        C  237   4.023   2.608   2.299
    1C        C  238   4.198   2.736   2.419
    1C        C  239   4.083   2.652   2.419
    1C        C  240   4.252   2.785   2.540
    1C        C  241   4.197   2.743   2.664
    1C        C  242   4.341   2.899   2.785
    1C        C  243   4.249   2.792   2.786
    1C        C  244   4.382   2.959   2.906
    1C        C  245   4.343   2.902   3.030
    1C        C  246   4.450   3.089   3.150
    1C        C  247   4.384   2.964   3.150
    1C        C  248   4.473   3.156   3.272
    1C        C  249   4.442   3.095   3.395
    1C        C  250   4.496   3.300   3.515
    1C        C  251   4.462   3.163   3.518
    1C        C  252   4.510   3.371   3.636
    1C        C  253   4.506   3.300   3.758
    1C        C  254   4.522   3.513   3.876
    1C        C  255   4.521   3.372   3.878
    1C        C  256   4.516   3.587   3.997
    1C        C  257   4.516   3.518   4.120
    1C        C  258   4.485   3.728   4.240
    1C        C  259   4.509   3.589   4.242
    1C        C  260   4.465   3.801   4.360
    1C        C  261   4.479   3.732   4.482
    1C        C  262   4.417   3.935   4.601
    1C        C  263   4.470   3.804   4.603
    1C        C  264   4.394   4.006   4.721
    1C        C  265   4.432   3.944   4.842
    1C        C  266   4.318   4.132   4.959
    1C        C  267   4.387   4.011   4.957
    1C        C  268   4.264   2.771   2.060
    1C        C  269   4.201   2.728   2.178
    1C        C  270   4.352   2.884   2.298
    1C        C  271   4.255   2.780   2.298
    1C        C  272   4.392   2.945   2.419
    1C        C  273   4.347   2.890   2.541
    1C        C  274   4.449   3.079   2.660
    1C        C  275   4.379   2.956   2.661
    1C        C  276   4.479   3.147   2.780
    1C        C  277   4.448   3.084   2.903
    1C        C  278   4.504   3.287   3.026
    1C        C  279   4.475   3.149   3.025
    1C        C  280   4.515   3.360   3.146
    1C        C  281   4.502   3.295   3.271
    1C        C  282   4.516   3.509   3.388
    1C        C  283   4.509   3.368   3.392
    1C        C  284   4.513   3.580   3.510
    1C        C  285   4.517   3.512   3.633
    1C        C  286   4.485   3.723   3.752
    1C        C  287   4.515   3.585   3.755
    1C        C  288   4.467   3.790   3.875
    1C        C  289   4.485   3.725   3.999
    1C        C  290   4.421   3.932   4.116
    1C        C  291   4.464   3.797   4.119
    1C        C  292   4.397   4.002   4.237
    1C        C  293   4.424   3.936   4.359
    1C        C  294   4.322   4.125   4.480
    1C        C  295   4.390   4.001   4.480
    1C        C  296   4.281   4.186   4.600
    1C        C  297   4.324   4.130   4.722
    1C        C  298   4.196   4.311   4.838
    1C        C  299   4.282   4.197   4.841
    1C        C  300   4.170   4.406   4.943
    1C        C  301   4.354   2.877   2.061
    1C        C  302   4.473   3.064   2.176
    1C        C  303   4.404   2.938   2.177
    1C        C  304   4.483   3.139   2.297
    1C        C  305   4.456   3.071   2.417
    1C        C  306   4.511   3.279   2.538
    1C        C  307   4.483   3.140   2.537
    1C        C  308   4.515   3.355   2.657
    1C        C  309   4.506   3.286   2.780
    1C        C  310   4.518   3.497   2.899
    1C        C  311   4.514   3.355   2.902
    1C        C  312   4.511   3.569   3.019
    1C        C  313   4.518   3.501   3.143
    1C        C  314   4.482   3.714   3.264
    1C        C  315   4.510   3.575   3.263
    1C        C  316   4.468   3.786   3.384
    1C        C  317   4.490   3.720   3.507
    1C        C  318   4.421   3.922   3.626
    1C        C  319   4.470   3.789   3.628
    1C        C  320   4.387   3.984   3.749
    1C        C  321   4.418   3.923   3.872
    1C        C  322   4.318   4.113   3.990
    1C        C  323   4.391   3.992   3.992
    1C        C  324   4.276   4.170   4.112
    1C        C  325   4.321   4.121   4.236
    1C        C  326   4.184   4.285   4.354
    1C        C  327   4.281   4.182   4.357
    1C        C  328   4.133   4.337   4.475
    1C        C  329   4.190   4.294   4.597
    1C        C  330   4.025   4.437   4.714
    1C        C  331   4.139   4.353   4.715
    1C        C  332   3.969   4.496   4.830
    1C        C  333   4.052   4.481   4.941
    1C        C  334   4.548   3.265   2.060
    1C        C  335   4.533   3.126   2.062
    1C        C  336   4.537   3.346   2.174
    1C        C  337   4.512   3.278   2.296
    1C        C  338   4.519   3.492   2.410
    1C        C  339   4.517   3.351   2.416
    1C        C  340   4.515   3.564   2.532
    1C        C  341   4.515   3.496   2.656
    1C        C  342   4.485   3.707   2.772
    1C        C  343   4.512   3.568   2.777
    1C        C  344   4.473   3.776   2.895
    1C        C  345   4.484   3.708   3.018
    1C        C  346   4.415   3.911   3.138
    1C        C  347   4.460   3.777   3.139
    1C        C  348   4.381   3.977   3.258
    1C        C  349   4.416   3.917   3.381
    1C        C  350   4.316   4.104   3.503
    1C        C  351   4.390   3.984   3.503
    1C        C  352   4.270   4.161   3.623
    1C        C  353   4.314   4.105   3.745
    1C        C  354   4.175   4.266   3.868
    1C        C  355   4.275   4.166   3.866
    1C        C  356   4.118   4.314   3.988
    1C        C  357   4.174   4.268   4.110
    1C        C  358   4.012   4.406   4.232
    1C        C  359   4.127   4.323   4.231
    1C        C  360   3.953   4.454   4.351
    1C        C  361   4.020   4.422   4.471
    1C        C  362   3.828   4.514   4.593
    1C        C  363   3.961   4.467   4.591
    1C        C  364   3.762   4.549   4.713
    1C        C  365   3.840   4.553   4.831
    1C        C  366   3.627   4.594   4.947
    1C        C  367   3.766   4.578   4.947
    1C        C  368   4.509   3.560   2.051
    1C        C  369   4.525   3.486   2.169
    1C        C  370   4.490   3.701   2.287
    1C        C  371   4.516   3.562   2.288
    1C        C  372   4.475   3.773   2.407
    1C        C  373   4.495   3.704   2.529
    1C        C  374   4.421   3.906   2.646
    1C        C  375   4.471   3.774   2.649
    1C        C  376   4.394   3.972   2.768
    1C        C  377   4.422   3.907   2.890
    1C        C  378   4.320   4.093   3.012
    1C        C  379   4.392   3.972   3.012
    1C        C  380   4.273   4.154   3.131
    1C        C  381   4.309   4.099   3.256
    1C        C  382   4.173   4.257   3.379
    1C        C  383   4.273   4.158   3.379
    1C        C  384   4.123   4.313   3.499
    1C        C  385   4.173   4.264   3.621
    1C        C  386   4.005   4.391   3.743
    1C        C  387   4.122   4.311   3.745
    1C        C  388   3.946   4.435   3.864
    1C        C  389   4.004   4.396   3.987
    1C        C  390   3.819   4.494   4.107
    1C        C  391   3.948   4.436   4.110
    1C        C  392   3.752   4.516   4.229
    1C        C  393   3.823   4.510   4.350
    1C        C  394   3.617   4.552   4.474
    1C        C  395   3.757   4.532   4.473
    1C        C  396   3.544   4.563   4.595
    1C        C  397   3.622   4.566   4.713
    1C        C  398   3.410   4.548   4.837
    1C        C  399   3.548   4.577   4.833
    1C        C  400   3.342   4.509   4.953
    1C        C  401   4.510   3.699   2.053
    1C        C  402   4.458   3.914   2.169
    1C        C  403   4.488   3.776   2.167
    1C        C  404   4.412   3.977   2.287
    1C        C  405   4.434   3.908   2.408
    1C        C  406   4.323   4.097   2.525
    1C        C  407   4.402   3.979   2.526
    1C        C  408   4.273   4.147   2.648
    1C        C  409   4.315   4.090   2.770
    1C        C  410   4.172   4.248   2.889
    1C        C  411   4.271   4.147   2.891
    1C        C  412   4.121   4.301   3.010
    1C        C  413   4.174   4.254   3.132
    1C        C  414   4.004   4.380   3.254
    1C        C  415   4.123   4.303   3.255
    1C        C  416   3.943   4.419   3.375
    1C        C  417   4.006   4.392   3.498
    1C        C  418   3.816   4.485   3.619
    1C        C  419   3.943   4.424   3.621
    1C        C  420   3.748   4.513   3.740
    1C        C  421   3.815   4.488   3.862
    1C        C  422   3.610   4.536   3.987
    1C        C  423   3.750   4.513   3.985
    1C        C  424   3.541   4.539   4.110
    1C        C  425   3.612   4.536   4.232
    1C        C  426   3.402   4.553   4.354
    1C        C  427   3.543   4.557   4.353
    1C        C  428   3.330   4.544   4.476
    1C        C  429   3.403   4.554   4.596
    1C        C  430   3.193   4.518   4.722
    1C        C  431   3.333   4.541   4.718
    1C        C  432   3.123   4.489   4.842
    1C        C  433   3.206   4.482   4.955
    1C        C  434   4.379   4.114   2.049
    1C        C  435   4.446   3.991   2.053
    1C        C  436   4.304   4.163   2.161
    1C        C  437   4.335   4.096   2.283
    1C        C  438   4.182   4.251   2.401
    1C        C  439   4.283   4.152   2.402
    1C        C  440   4.125   4.297   2.521
    1C        C  441   4.174   4.247   2.644
    1C        C  442   4.006   4.377   2.766
    1C        C  443   4.120   4.294   2.766
    1C        C  444   3.944   4.415   2.887
    1C        C  445   4.003   4.379   3.010
    1C        C  446   3.812   4.473   3.130
    1C        C  447   3.940   4.414   3.132
    1C        C  448   3.748   4.500   3.252
    1C        C  449   3.813   4.474   3.375
    1C        C  450   3.609   4.532   3.495
    1C        C  451   3.747   4.500   3.497
    1C        C  452   3.540   4.545   3.618
    1C        C  453   3.609   4.536   3.741
    1C        C  454   3.399   4.542   3.864
    1C        C  455   3.540   4.542   3.864
    1C        C  456   3.329   4.531   3.987
    1C        C  457   3.400   4.536   4.109
    1C        C  458   3.195   4.499   4.236
    1C        C  459   3.332   4.535   4.233
    1C        C  460   3.128   4.483   4.359
    1C        C  461   3.193   4.511   4.481
    1C        C  462   2.995   4.432   4.600
    1C        C  463   3.123   4.491   4.602
    1C        C  464   2.927   4.403   4.720
    1C        C  465   2.988   4.443   4.842
    1C        C  466   2.804   4.333   4.960
    1C        C  467   2.906   4.429   4.959
    1C        C  468   4.122   4.285   2.044
    1C        C  469   4.191   4.251   2.161
    1C        C  470   4.004   4.369   2.278
    1C        C  471   4.126   4.294   2.279
    1C        C  472   3.943   4.409   2.399
    1C        C  473   4.008   4.376   2.520
    1C        C  474   3.816   4.467   2.640
    1C        C  475   3.944   4.407   2.642
    1C        C  476   3.748   4.491   2.761
    1C        C  477   3.814   4.469   2.885
    1C        C  478   3.607   4.519   3.009
    1C        C  479   3.746   4.492   3.006
    1C        C  480   3.535   4.533   3.130
    1C        C  481   3.609   4.530   3.250
    1C        C  482   3.398   4.535   3.375
    1C        C  483   3.539   4.539   3.372
    1C        C  484   3.328   4.527   3.497
    1C        C  485   3.399   4.540   3.619
    1C        C  486   3.192   4.499   3.744
    1C        C  487   3.329   4.535   3.742
    1C        C  488   3.128   4.467   3.866
    1C        C  489   3.192   4.496   3.989
    1C        C  490   3.004   4.411   4.115
    1C        C  491   3.128   4.477   4.113
    1C        C  492   2.941   4.379   4.237
    1C        C  493   3.001   4.420   4.358
    1C        C  494   2.825   4.301   4.483
    1C        C  495   2.939   4.384   4.480
    1C        C  496   2.770   4.253   4.604
    1C        C  497   2.817   4.312   4.724
    1C        C  498   2.667   4.162   4.846
    1C        C  499   2.754   4.273   4.844
    1C        C  500   2.598   4.114   4.958
    1C        C  501   4.001   4.353   2.039
    1C        C  502   3.815   4.464   2.153
    1C        C  503   3.941   4.400   2.156
    1C        C  504   3.744   4.480   2.274
    1C        C  505   3.809   4.454   2.397
    1C        C  506   3.608   4.516   2.519
    1C        C  507   3.746   4.487   2.519
    1C        C  508   3.538   4.524   2.641
    1C        C  509   3.608   4.514   2.763
    1C        C  510   3.397   4.523   2.884
    1C        C  511   3.539   4.523   2.885
    1C        C  512   3.326   4.517   3.005
    1C        C  513   3.394   4.527   3.129
    1C        C  514   3.190   4.490   3.258
    1C        C  515   3.327   4.524   3.253
    1C        C  516   3.124   4.462   3.380
    1C        C  517   3.191   4.493   3.501
    1C        C  518   3.000   4.405   3.627
    1C        C  519   3.124   4.473   3.624
    1C        C  520   2.938   4.369   3.748
    1C        C  521   3.003   4.402   3.869
    1C        C  522   2.830   4.286   3.996
    1C        C  523   2.944   4.369   3.993
    1C        C  524   2.785   4.233   4.119
    1C        C  525   2.834   4.286   4.241
    1C        C  526   2.692   4.133   4.365
    1C        C  527   2.775   4.247   4.363
    1C        C  528   2.646   4.077   4.487
    1C        C  529   2.684   4.141   4.606
    1C        C  530   2.584   3.957   4.731
    1C        C  531   2.638   4.089   4.729
    1C        C  532   2.538   3.898   4.852
    1C        C  533   2.526   3.993   4.958
    1C        C  534   3.617   4.558   2.036
    1C        C  535   3.748   4.509   2.039
    1C        C  536   3.536   4.534   2.151
    1C        C  537   3.605   4.511   2.274
    1C        C  538   3.396   4.521   2.398
    1C        C  539   3.537   4.520   2.397
    1C        C  540   3.323   4.515   2.519
    1C        C  541   3.396   4.518   2.639
    1C        C  542   3.188   4.483   2.765
    1C        C  543   3.327   4.510   2.762
    1C        C  544   3.122   4.465   2.888
    1C        C  545   3.188   4.485   3.011
    1C        C  546   3.000   4.400   3.133
    1C        C  547   3.124   4.466   3.136
    1C        C  548   2.942   4.360   3.255
    1C        C  549   2.999   4.398   3.379
    1C        C  550   2.831   4.277   3.504
    1C        C  551   2.942   4.365   3.504
    1C        C  552   2.775   4.232   3.626
    1C        C  553   2.828   4.281   3.748
    1C        C  554   2.700   4.120   3.875
    1C        C  555   2.783   4.234   3.873
    1C        C  556   2.661   4.061   3.997
    1C        C  557   2.699   4.121   4.118
    1C        C  558   2.596   3.944   4.247
    1C        C  559   2.655   4.072   4.243
    1C        C  560   2.564   3.879   4.368
    1C        C  561   2.584   3.950   4.489
    1C        C  562   2.522   3.749   4.613
    1C        C  563   2.561   3.885   4.612
    1C        C  564   2.513   3.679   4.735
    1C        C  565   2.516   3.756   4.855
    1C        C  566   2.526   3.545   4.976
    1C        C  567   2.521   3.684   4.974
    1C        C  568   3.327   4.479   2.040
    1C        C  569   3.396   4.512   2.158
    1C        C  570   3.182   4.475   2.279
    1C        C  571   3.321   4.508   2.279
    1C        C  572   3.115   4.459   2.402
    1C        C  573   3.186   4.482   2.522
    1C        C  574   2.993   4.394   2.647
    1C        C  575   3.118   4.459   2.644
    1C        C  576   2.935   4.357   2.770
    1C        C  577   2.996   4.400   2.890
    1C        C  578   2.828   4.271   3.014
    1C        C  579   2.937   4.361   3.012
    1C        C  580   2.780   4.220   3.136
    1C        C  581   2.833   4.270   3.257
    1C        C  582   2.697   4.112   3.383
    1C        C  583   2.786   4.222   3.382
    1C        C  584   2.662   4.053   3.507
    1C        C  585   2.693   4.117   3.629
    1C        C  586   2.594   3.935   3.755
    1C        C  587   2.658   4.061   3.753
    1C        C  588   2.567   3.873   3.879
    1C        C  589   2.594   3.936   4.003
    1C        C  590   2.531   3.738   4.126
    1C        C  591   2.571   3.874   4.127
    1C        C  592   2.520   3.672   4.251
    1C        C  593   2.525   3.743   4.373
    1C        C  594   2.508   3.532   4.493
    1C        C  595   2.511   3.673   4.495
    1C        C  596   2.517   3.465   4.617
    1C        C  597   2.518   3.537   4.738
    1C        C  598   2.533   3.325   4.860
    1C        C  599   2.527   3.466   4.860
    1C        C  600   2.530   3.250   4.978
    1C        C  601   3.195   4.439   2.042
    1C        C  602   2.981   4.395   2.158
    1C        C  603   3.115   4.445   2.157
    1C        C  604   2.926   4.355   2.283
    1C        C  605   2.988   4.396   2.403
    1C        C  606   2.817   4.273   2.527
    1C        C  607   2.930   4.359   2.526
    1C        C  608   2.769   4.222   2.650
    1C        C  609   2.824   4.270   2.771
    1C        C  610   2.687   4.108   2.892
    1C        C  611   2.774   4.219   2.894
    1C        C  612   2.656   4.049   3.017
    1C        C  613   2.696   4.107   3.139
    1C        C  614   2.592   3.926   3.264
    1C        C  615   2.651   4.054   3.263
    1C        C  616   2.568   3.864   3.388
    1C        C  617   2.598   3.928   3.511
    1C        C  618   2.533   3.729   3.635
    1C        C  619   2.570   3.866   3.635
    1C        C  620   2.520   3.666   3.761
    1C        C  621   2.526   3.738   3.882
    1C        C  622   2.506   3.527   4.007
    1C        C  623   2.517   3.668   4.004
    1C        C  624   2.507   3.458   4.130
    1C        C  625   2.507   3.532   4.251
    1C        C  626   2.536   3.320   4.377
    1C        C  627   2.512   3.459   4.372
    1C        C  628   2.559   3.254   4.500
    1C        C  629   2.539   3.325   4.620
    1C        C  630   2.595   3.117   4.742
    1C        C  631   2.557   3.254   4.741
    1C        C  632   2.615   3.048   4.865
    1C        C  633   2.560   3.113   4.980
    1C        C  634   2.783   4.299   2.053
    1C        C  635   2.891   4.388   2.047
    1C        C  636   2.751   4.224   2.168
    1C        C  637   2.812   4.269   2.286
    1C        C  638   2.674   4.110   2.407
    1C        C  639   2.760   4.222   2.409
    1C        C  640   2.642   4.047   2.530
    1C        C  641   2.688   4.107   2.650
    1C        C  642   2.588   3.918   2.775
    1C        C  643   2.651   4.045   2.771
    1C        C  644   2.561   3.857   2.899
    1C        C  645   2.590   3.924   3.020
    1C        C  646   2.522   3.724   3.145
    1C        C  647   2.565   3.859   3.143
    1C        C  648   2.510   3.656   3.268
    1C        C  649   2.530   3.727   3.388
    1C        C  650   2.509   3.520   3.517
    1C        C  651   2.519   3.660   3.512
    1C        C  652   2.515   3.453   3.641
    1C        C  653   2.513   3.525   3.763
    1C        C  654   2.534   3.316   3.888
    1C        C  655   2.510   3.455   3.886
    1C        C  656   2.556   3.251   4.011
    1C        C  657   2.537   3.320   4.133
    1C        C  658   2.606   3.120   4.258
    1C        C  659   2.553   3.251   4.255
    1C        C  660   2.634   3.054   4.379
    1C        C  661   2.606   3.121   4.500
    1C        C  662   2.710   2.935   4.626
    1C        C  663   2.635   3.055   4.622
    1C        C  664   2.754   2.876   4.747
    1C        C  665   2.699   2.931   4.866
    1C        C  666   2.744   2.870   4.983
    1C        C  667   2.680   4.019   2.052
    1C        C  668   2.684   4.100   2.166
    1C        C  669   2.593   3.908   2.288
    1C        C  670   2.643   4.042   2.288
    1C        C  671   2.563   3.847   2.411
    1C        C  672   2.582   3.919   2.531
    1C        C  673   2.512   3.719   2.656
    1C        C  674   2.556   3.854   2.653
    1C        C  675   2.507   3.651   2.780
    1C        C  676   2.520   3.722   2.901
    1C        C  677   2.509   3.511   3.028
    1C        C  678   2.511   3.652   3.024
    1C        C  679   2.506   3.442   3.151
    1C        C  680   2.503   3.515   3.273
    1C        C  681   2.534   3.307   3.400
    1C        C  682   2.510   3.446   3.396
    1C        C  683   2.559   3.242   3.523
    1C        C  684   2.542   3.314   3.643
    1C        C  685   2.613   3.118   3.770
    1C        C  686   2.561   3.249   3.766
    1C        C  687   2.648   3.056   3.892
    1C        C  688   2.611   3.120   4.012
    1C        C  689   2.716   2.938   4.137
    1C        C  690   2.640   3.057   4.135
    1C        C  691   2.759   2.882   4.259
    1C        C  692   2.710   2.934   4.381
    1C        C  693   2.755   2.881   4.503
    1C        C  694   2.627   3.889   2.052
    1C        C  695   2.516   3.705   2.173
    1C        C  696   2.575   3.833   2.169
    1C        C  697   2.504   3.638   2.297
    1C        C  698   2.517   3.713   2.415
    1C        C  699   2.487   3.505   2.542
    1C        C  700   2.494   3.646   2.537
    1C        C  701   2.500   3.436   2.665
    1C        C  702   2.501   3.510   2.785
    1C        C  703   2.527   3.299   2.909
    1C        C  704   2.505   3.438   2.907
    1C        C  705   2.549   3.233   3.032
    1C        C  706   2.530   3.303   3.153
    1C        C  707   2.603   3.108   3.279
    1C        C  708   2.551   3.239   3.277
    1C        C  709   2.633   3.044   3.401
    1C        C  710   2.608   3.110   3.523
    1C        C  711   2.717   2.933   3.648
    1C        C  712   2.637   3.050   3.648
    1C        C  713   2.764   2.879   3.770
    1C        C  714   2.723   2.937   3.893
    1C        C  715   2.757   2.878   4.016
    1C        C  716   2.454   3.497   2.060
    1C        C  717   2.487   3.633   2.057
    1C        C  718   2.466   3.421   2.181
    1C        C  719   2.484   3.497   2.299
    1C        C  720   2.515   3.290   2.424
    1C        C  721   2.488   3.428   2.423
    1C        C  722   2.533   3.221   2.546
    1C        C  723   2.523   3.297   2.665
    1C        C  724   2.592   3.096   2.790
    1C        C  725   2.541   3.228   2.787
    1C        C  726   2.625   3.034   2.912
    1C        C  727   2.598   3.100   3.034
    1C        C  728   2.710   2.923   3.158
    1C        C  729   2.630   3.040   3.158
    1C        C  730   2.756   2.871   3.280
    1C        C  731   2.714   2.927   3.403
    1C        C  732   2.753   2.872   3.526
    1C        C  733   2.488   3.198   2.068
    1C        C  734   2.491   3.280   2.181
    1C        C  735   2.581   3.087   2.304
    1C        C  736   2.520   3.215   2.304
    1C        C  737   2.613   3.022   2.425
    1C        C  738   2.585   3.090   2.546
    1C        C  739   2.697   2.910   2.671
    1C        C  740   2.619   3.029   2.669
    1C        C  741   2.744   2.855   2.793
    1C        C  742   2.703   2.916   2.913
    1C        C  743   2.754   2.867   3.036
    1C        C  744   2.544   3.070   2.074
    1C        C  745   2.682   2.894   2.184
    1C        C  746   2.604   3.012   2.186
    1C        C  747   2.730   2.842   2.306
    1C        C  748   2.692   2.905   2.427
    1C        C  749   2.736   2.851   2.549
    1C        C  750   2.738   2.841   2.067
    1C        C  751   3.646   2.301   1.986
    1C        O  752   3.688   2.193   2.036
    1C        O  753   3.678   2.308   1.850
    1C        C  754   4.631   3.045   1.986
    1C        O  755   4.646   3.056   1.861
    1C        O  756   4.724   2.966   2.055
    1C        C  757   4.430   4.203   1.942
    1C        O  758   4.551   4.234   1.931
    1C        O  759   4.374   4.195   1.813
    1C        C  760   3.588   4.673   1.947
    1C        O  761   3.567   4.788   1.992
    1C        O  762   3.614   4.678   1.809
    1C        C  763   2.891   4.488   1.938
    1C        O  764   2.864   4.462   1.818
    1C        O  765   2.892   4.627   1.955
    1C        C  766   2.339   3.470   1.970
    1C        O  767   2.353   3.490   1.846
    1C        O  768   2.209   3.462   2.022
    1C        C  769   4.687   3.594   5.061
    1C        O  770   4.648   3.558   5.176
    1C        O  771   4.812   3.654   5.080
    1C        C  772   4.279   4.464   5.025
    1C        O  773   4.260   4.447   5.149
    1C        O  774   4.333   4.590   4.999
    1C        C  775   4.138   2.527   5.080
    1C        O  776   4.168   2.405   5.080
    1C        O  777   4.181   2.605   5.188
    1C        C  778   2.888   4.546   5.048
    1C        O  779   2.918   4.665   5.021
    1C        O  780   2.925   4.522   5.181
    1C        C  781   2.506   3.047   5.101
    1C        O  782   2.387   3.004   5.103
    1C        O  783   2.559   3.060   5.229
    1C        C  784   2.402   3.998   5.039
    1C        O  785   2.300   4.052   4.989
    1C        O  786   2.399   3.991   5.179
    1C        C  787   2.946   2.436   1.992
    1C        O  788   2.962   2.446   1.867
    1C        O  789   2.902   2.308   2.025
    1C        C  790   3.158   2.342   5.021
    1C        O  791   3.052   2.287   4.981
    1C        O  792   3.186   2.311   5.155
    1C        H  793   4.287   3.023   5.060
    1C        H  794   4.171   2.812   5.070
    1C        H  795   4.491   3.129   5.066
    1C        H  796   4.517   3.367   5.068
    1C        H  797   4.580   3.822   5.029
    1C        H  798   4.370   3.949   5.043
    1C        H  799   4.282   4.164   5.055
    1C        H  800   4.052   4.561   5.013
    1C        H  801   3.818   4.585   5.040
    1C        H  802   3.588   4.647   5.031
    1C        H  803   3.393   4.513   5.047
    1C        H  804   3.156   4.470   5.049
    1C        H  805   3.897   2.467   5.054
    1C        H  806   3.673   2.463   5.074
    1C        H  807   2.992   2.539   5.056
    1C        H  808   3.447   2.410   5.059
    1C        H  809   2.844   2.710   5.071
    1C        H  810   2.750   2.934   5.068
    1C        H  811   2.512   3.298   5.072
    1C        H  812   2.569   3.501   5.064
    1C        H  813   2.542   3.732   5.068
    1C        H  814   2.614   4.152   5.057
    1C        H  815   2.803   4.273   5.049
    1C        H  816   2.698   2.870   1.972
    1C        H  817   2.860   2.702   1.972
    1C        H  818   3.206   2.407   2.003
    1C        H  819   3.432   2.460   1.978
    1C        H  820   3.849   2.515   1.973
    1C        H  821   4.068   2.603   1.968
    1C        H  822   4.245   2.725   1.966
    1C        H  823   4.402   2.898   1.967
    1C        H  824   4.583   3.309   1.969
    1C        H  825   4.469   3.512   1.965
    1C        H  826   4.556   3.749   1.970
    1C        H  827   3.787   4.482   1.943
    1C        H  828   3.967   4.385   1.942
    1C        H  829   4.152   4.235   1.954
    1C        H  830   4.538   3.986   1.998
    1C        H  831   2.666   3.824   1.976
    1C        H  832   2.701   4.060   1.955
    1C        H  833   2.692   4.325   2.002
    1C        H  834   3.382   4.444   1.956
    1C        H  835   3.154   4.406   1.949
    1C        H  836   2.527   3.003   1.993
    1C        H  837   2.456   3.232   1.972
    1C        H  838   2.435   3.692   1.984
    2V3OU   H29  839   2.792   3.549   5.485
    2V3OU   C27  840   2.781   3.503   5.586
    2V3OU   H27  841   2.720   3.572   5.649
    2V3OU   H28  842   2.729   3.404   5.583
    2V3OU   O11  843   2.908   3.470   5.644
    2V3OU   C15  844   2.919   3.390   5.757
    2V3OU   C13  845   3.050   3.377   5.807
    2V3OU   C14  846   3.074   3.271   5.896
    2V3OU   C16  847   2.971   3.189   5.937
    2V3OU    H6  848   2.989   3.103   6.003
    2V3OU   C12  849   3.212   3.233   5.934
    2V3OU    O2  850   3.234   3.125   5.993
    2V3OU   C10  851   3.322   3.309   5.871
    2V3OU    C8  852   3.455   3.272   5.889
    2V3OU   O10  853   3.486   3.153   5.946
    2V3OU   H26  854   3.405   3.110   5.977
    2V3OU    C6  855   3.563   3.352   5.841
    2V3OU    C5  856   3.534   3.465   5.766
    2V3OU    C4  857   3.701   3.295   5.846
    2V3OU    H4  858   3.727   3.231   5.935
    2V3OU    H5  859   3.710   3.225   5.758
    2V3OU    C2  860   3.817   3.395   5.841
    2V3OU    O6  861   3.801   3.471   5.962
    2V3OU   H21  862   3.765   3.556   5.931
    2V3OU    C3  863   3.779   3.492   5.730
    2V3OU    H2  864   3.857   3.569   5.711
    2V3OU    H3  865   3.780   3.434   5.634
    2V3OU   C25  866   3.955   3.332   5.830
    2V3OU    O7  867   4.008   3.294   5.725
    2V3OU   C26  868   4.027   3.292   5.958
    2V3OU   H22  869   4.069   3.384   6.005
    2V3OU   H23  870   4.114   3.226   5.933
    2V3OU    O8  871   3.954   3.211   6.048
    2V3OU   H24  872   3.921   3.271   6.116
    2V3OU    C1  873   3.645   3.563   5.740
    2V3OU    H1  874   3.625   3.619   5.644
    2V3OU    O3  875   3.663   3.656   5.847
    2V3OU   C19  876   3.620   3.791   5.829
    2V3OU    H9  877   3.522   3.812   5.775
    2V3OU    O4  878   3.716   3.853   5.746
    2V3OU   C20  879   3.847   3.876   5.798
    2V3OU   H10  880   3.890   3.774   5.821
    2V3OU   C24  881   3.609   3.854   5.968
    2V3OU   H16  882   3.537   3.792   6.028
    2V3OU   H17  883   3.566   3.956   5.953
    2V3OU   C23  884   3.750   3.870   6.025
    2V3OU   H15  885   3.797   3.770   6.051
    2V3OU    N1  886   3.739   3.950   6.145
    2V3OU   H19  887   3.809   3.921   6.211
    2V3OU   H20  888   3.646   3.929   6.176
    2V3OU   C21  889   3.849   3.948   5.934
    2V3OU   H11  890   3.949   3.930   5.984
    2V3OU    O5  891   3.827   4.088   5.923
    2V3OU   H18  892   3.789   4.102   6.011
    2V3OU   C22  893   3.913   3.951   5.683
    2V3OU   H12  894   3.863   4.050   5.670
    2V3OU   H13  895   3.906   3.889   5.590
    2V3OU   H14  896   4.023   3.963   5.701
    2V3OU   C11  897   3.160   3.467   5.770
    2V3OU    O1  898   3.135   3.581   5.724
    2V3OU    C9  899   3.300   3.428   5.797
    2V3OU    C7  900   3.400   3.512   5.747
    2V3OU    O9  901   3.384   3.608   5.649
    2V3OU   H25  902   3.289   3.626   5.647
    2V3OU   C17  903   2.815   3.312   5.811
    2V3OU    H7  904   2.710   3.339   5.800
    2V3OU   C18  905   2.838   3.208   5.901
    2V3OU    H8  906   2.753   3.149   5.939
    3SOL     OW  907   3.528   3.022   3.993
    3SOL    HW1  908   3.571   2.974   3.917
    3SOL    HW2  909   3.494   3.111   3.963
    4SOL     OW  910   6.518   6.467   0.604
    4SOL    HW1  911   6.452   6.534   0.640
    4SOL    HW2  912   6.468   6.391   0.562
    5SOL     OW  913   5.441   1.421   1.224
    5SOL    HW1  914   5.427   1.325   1.247
    5SOL    HW2  915   5.521   1.430   1.165
    6SOL     OW  916   5.064   1.372   3.069
    6SOL    HW1  917   5.109   1.455   3.035
    6SOL    HW2  918   4.967   1.374   3.045
    7SOL     OW  919   1.827   4.298   4.105
    7SOL    HW1  920   1.913   4.249   4.116
    7SOL    HW2  921   1.752   4.242   4.139
    8SOL     OW  922   0.598   3.400   4.880
    8SOL    HW1  923   0.684   3.357   4.850
    8SOL    HW2  924   0.619   3.472   4.946
    9SOL     OW  925   0.043   0.658   6.561
    9SOL    HW1  926   0.012   0.745   6.524
    9SOL    HW2  927   6.995   0.588   6.545
   10SOL     OW  928   5.383   4.913   1.676
   10SOL    HW1  929   5.305   4.853   1.658
   10SOL    HW2  930   5.447   4.908   1.599
   11SOL     OW  931   1.993   1.974   0.817
   11SOL    HW1  932   2.029   2.017   0.734
   11SOL    HW2  933   1.937   2.040   0.867
   12SOL     OW  934   4.084   5.285   2.653
   12SOL    HW1  935   3.994   5.297   2.695
   12SOL    HW2  936   4.141   5.228   2.712
   13SOL     OW  937   6.063   6.090   1.522
   13SOL    HW1  938   6.160   6.071   1.512
   13SOL    HW2  939   6.010   6.016   1.480
   14SOL     OW  940   4.338   6.611   5.885
   14SOL    HW1  941   4.246   6.575   5.903
   14SOL    HW2  942   4.333   6.710   5.872
   15SOL     OW  943   1.025   6.214   5.999
   15SOL    HW1  944   1.059   6.284   5.936
   15SOL    HW2  945   1.007   6.129   5.949
   16SOL     OW  946   2.322   4.790   4.755
   16SOL    HW1  947   2.284   4.830   4.838
   16SOL    HW2  948   2.260   4.720   4.720
   17SOL     OW  949   6.332   1.229   5.502
   17SOL    HW1  950   6.335   1.269   5.411
   17SOL    HW2  951   6.414   1.173   5.516
   18SOL     OW  952   3.010   1.399   6.019
   18SOL    HW1  953   2.970   1.396   5.927
   18SOL    HW2  954   2.981   1.319   6.071
   19SOL     OW  955   2.884   6.244   2.963
   19SOL    HW1  956   2.899   6.161   2.910
   19SOL    HW2  957   2.866   6.321   2.901
   20SOL     OW  958   5.843   1.568   5.031
   20SOL    HW1  959   5.836   1.492   5.096
   20SOL    HW2  960   5.770   1.560   4.962
   21SOL     OW  961   2.387   4.408   2.476
   21SOL    HW1  962   2.446   4.439   2.401
   21SOL    HW2  963   2.329   4.333   2.444
   22SOL     OW  964   0.822   0.804   6.664
   22SOL    HW1  965   0.872   0.774   6.583
   22SOL    HW2  966   0.809   0.725   6.725
   23SOL     OW  967   5.338   4.822   0.973
   23SOL    HW1  968   5.261   4.824   0.909
   23SOL    HW2  969   5.424   4.824   0.922
   24SOL     OW  970   4.814   1.532   0.645
   24SOL    HW1  971   4.735   1.492   0.599
   24SOL    HW2  972   4.788   1.617   0.690
   25SOL     OW  973   2.009   0.512   4.353
   25SOL    HW1  974   2.005   0.563   4.439
   25SOL    HW2  975   2.104   0.492   4.330
   26SOL     OW  976   0.533   2.218   6.558
   26SOL    HW1  977   0.627   2.202   6.585
   26SOL    HW2  978   0.514   2.168   6.473
   27SOL     OW  979   6.502   0.266   2.442
   27SOL    HW1  980   6.455   0.202   2.503
   27SOL    HW2  981   6.593   0.287   2.479
   28SOL     OW  982   2.216   0.594   4.777
   28SOL    HW1  983   2.166   0.512   4.749
   28SOL    HW2  984   2.292   0.568   4.836
   29SOL     OW  985   6.779   6.959   0.907
   29SOL    HW1  986   6.697   6.973   0.853
   29SOL    HW2  987   6.807   6.863   0.902
   30SOL     OW  988   4.300   0.204   4.979
   30SOL    HW1  989   4.263   0.293   5.002
   30SOL    HW2  990   4.256   0.133   5.034
   31SOL     OW  991   0.732   4.064   4.897
   31SOL    HW1  992   0.639   4.030   4.884
   31SOL    HW2  993   0.765   4.103   4.810
   32SOL     OW  994   3.738   0.670   1.200
   32SOL    HW1  995   3.678   0.695   1.276
   32SOL    HW2  996   3.719   0.729   1.122
   33SOL     OW  997   2.302   5.535   6.260
   33SOL    HW1  998   2.279   5.619   6.211
   33SOL    HW2  999   2.300   5.458   6.197
   34SOL     OW 1000   3.152   5.848   5.206
   34SOL    HW1 1001   3.124   5.820   5.298
   34SOL    HW2 1002   3.245   5.816   5.188
   35SOL     OW 1003   1.639   2.843   6.653
   35SOL    HW1 1004   1.623   2.752   6.692
   35SOL    HW2 1005   1.555   2.896   6.656
   36SOL     OW 1006   4.402   1.167   3.396
   36SOL    HW1 1007   4.447   1.120   3.320
   36SOL    HW2 1008   4.360   1.251   3.362
   37SOL     OW 1009   2.452   0.003   3.795
   37SOL    HW1 1010   2.528   0.060   3.765
   37SOL    HW2 1011   2.367   0.036   3.753
   38SOL     OW 1012   0.650   3.831   2.862
   38SOL    HW1 1013   0.673   3.870   2.773
   38SOL    HW2 1014   0.587   3.893   2.909
   39SOL     OW 1015   6.646   4.470   1.087
   39SOL    HW1 1016   6.564   4.517   1.121
   39SOL    HW2 1017   6.701   4.535   1.034
   40SOL     OW 1018   5.140   1.700   0.942
   40SOL    HW1 1019   5.167   1.634   0.872
   40SOL    HW2 1020   5.110   1.652   1.024
   41SOL     OW 1021   5.024   4.303   1.514
   41SOL    HW1 1022   4.968   4.282   1.434
   41SOL    HW2 1023   4.993   4.247   1.591
   42SOL     OW 1024   2.724   4.601   6.614
   42SOL    HW1 1025   2.645   4.653   6.581
   42SOL    HW2 1026   2.772   4.655   6.684
   43SOL     OW 1027   4.506   0.029   5.166
   43SOL    HW1 1028   4.527   7.013   5.076
   43SOL    HW2 1029   4.589   0.071   5.205
   44SOL     OW 1030   6.561   0.809   6.208
   44SOL    HW1 1031   6.536   0.754   6.128
   44SOL    HW2 1032   6.493   0.881   6.221
   45SOL     OW 1033   2.179   4.755   6.287
   45SOL    HW1 1034   2.169   4.830   6.352
   45SOL    HW2 1035   2.253   4.776   6.223
   46SOL     OW 1036   1.557   3.374   4.863
   46SOL    HW1 1037   1.540   3.449   4.799
   46SOL    HW2 1038   1.577   3.412   4.953
   47SOL     OW 1039   5.420   4.026   0.187
   47SOL    HW1 1040   5.322   4.031   0.208
   47SOL    HW2 1041   5.449   4.113   0.146
   48SOL     OW 1042   6.126   3.856   0.349
   48SOL    HW1 1043   6.031   3.862   0.318
   48SOL    HW2 1044   6.132   3.792   0.425
   49SOL     OW 1045   2.951   3.881   6.934
   49SOL    HW1 1046   2.944   3.783   6.915
   49SOL    HW2 1047   2.934   3.933   6.850
   50SOL     OW 1048   5.904   2.062   0.187
   50SOL    HW1 1049   5.845   1.991   0.227
   50SOL    HW2 1050   5.995   2.024   0.171
   51SOL     OW 1051   0.946   5.607   2.318
   51SOL    HW1 1052   0.847   5.596   2.307
   51SOL    HW2 1053   0.965   5.686   2.376
   52SOL     OW 1054   6.074   2.857   2.259
   52SOL    HW1 1055   6.059   2.778   2.200
   52SOL    HW2 1056   5.992   2.873   2.314
   53SOL     OW 1057   3.441   0.927   1.582
   53SOL    HW1 1058   3.481   0.958   1.668
   53SOL    HW2 1059   3.503   0.863   1.537
   54SOL     OW 1060   5.514   6.957   6.540
   54SOL    HW1 1061   5.493   6.867   6.579
   54SOL    HW2 1062   5.531   6.948   6.442
   55SOL     OW 1063   1.098   3.620   6.171
   55SOL    HW1 1064   1.069   3.692   6.108
   55SOL    HW2 1065   1.194   3.633   6.195
   56SOL     OW 1066   0.313   2.177   6.723
   56SOL    HW1 1067   0.252   2.256   6.729
   56SOL    HW2 1068   0.393   2.200   6.668
   57SOL     OW 1069   4.502   6.524   1.019
   57SOL    HW1 1070   4.534   6.613   0.988
   57SOL    HW2 1071   4.426   6.494   0.962
   58SOL     OW 1072   1.108   0.705   6.980
   58SOL    HW1 1073   1.045   0.741   0.026
   58SOL    HW2 1074   1.172   0.777   6.952
   59SOL     OW 1075   4.407   3.268   5.536
   59SOL    HW1 1076   4.466   3.341   5.500
   59SOL    HW2 1077   4.443   3.179   5.510
   60SOL     OW 1078   6.104   2.628   2.127
   60SOL    HW1 1079   6.080   2.640   2.030
   60SOL    HW2 1080   6.108   2.530   2.147
   61SOL     OW 1081   1.098   6.263   4.460
   61SOL    HW1 1082   1.019   6.245   4.520
   61SOL    HW2 1083   1.149   6.341   4.495
   62SOL     OW 1084   6.095   3.258   3.391
   62SOL    HW1 1085   6.167   3.282   3.325
   62SOL    HW2 1086   6.059   3.168   3.369
   63SOL     OW 1087   3.553   0.776   6.070
   63SOL    HW1 1088   3.600   0.850   6.120
   63SOL    HW2 1089   3.465   0.810   6.036
   64SOL     OW 1090   1.544   3.239   5.538
   64SOL    HW1 1091   1.612   3.284   5.480
   64SOL    HW2 1092   1.466   3.211   5.482
   65SOL     OW 1093   0.690   5.006   4.097
   65SOL    HW1 1094   0.673   5.037   4.003
   65SOL    HW2 1095   0.779   5.039   4.127
   66SOL     OW 1096   4.033   1.090   1.989
   66SOL    HW1 1097   4.130   1.067   1.998
   66SOL    HW2 1098   3.999   1.125   2.077
   67SOL     OW 1099   6.790   3.387   1.538
   67SOL    HW1 1100   6.834   3.404   1.450
   67SOL    HW2 1101   6.691   3.388   1.527
   68SOL     OW 1102   6.901   1.789   6.626
   68SOL    HW1 1103   6.888   1.698   6.665
   68SOL    HW2 1104   6.863   1.857   6.689
   69SOL     OW 1105   1.022   6.125   6.418
   69SOL    HW1 1106   1.012   6.036   6.373
   69SOL    HW2 1107   1.010   6.197   6.350
   70SOL     OW 1108   4.993   4.375   4.230
   70SOL    HW1 1109   4.954   4.415   4.313
   70SOL    HW2 1110   5.093   4.380   4.235
   71SOL     OW 1111   5.280   2.056   4.214
   71SOL    HW1 1112   5.315   2.005   4.135
   71SOL    HW2 1113   5.212   2.123   4.183
   72SOL     OW 1114   0.564   1.752   3.301
   72SOL    HW1 1115   0.618   1.729   3.382
   72SOL    HW2 1116   0.626   1.769   3.223
   73SOL     OW 1117   2.678   0.224   0.410
   73SOL    HW1 1118   2.589   0.236   0.453
   73SOL    HW2 1119   2.748   0.211   0.481
   74SOL     OW 1120   3.294   2.225   0.799
   74SOL    HW1 1121   3.341   2.309   0.825
   74SOL    HW2 1122   3.217   2.246   0.740
   75SOL     OW 1123   2.828   2.986   0.313
   75SOL    HW1 1124   2.924   2.987   0.284
   75SOL    HW2 1125   2.770   2.967   0.234
   76SOL     OW 1126   3.693   5.443   5.296
   76SOL    HW1 1127   3.633   5.433   5.217
   76SOL    HW2 1128   3.776   5.492   5.268
   77SOL     OW 1129   1.049   5.444   4.185
   77SOL    HW1 1130   1.085   5.368   4.131
   77SOL    HW2 1131   1.121   5.480   4.245
   78SOL     OW 1132   4.644   1.540   1.283
   78SOL    HW1 1133   4.719   1.507   1.339
   78SOL    HW2 1134   4.621   1.634   1.310
   79SOL     OW 1135   1.400   4.560   3.728
   79SOL    HW1 1136   1.482   4.514   3.693
   79SOL    HW2 1137   1.342   4.494   3.776
   80SOL     OW 1138   3.715   1.452   4.763
   80SOL    HW1 1139   3.803   1.423   4.800
   80SOL    HW2 1140   3.716   1.443   4.663
   81SOL     OW 1141   3.846   5.272   1.740
   81SOL    HW1 1142   3.834   5.189   1.685
   81SOL    HW2 1143   3.920   5.257   1.805
   82SOL     OW 1144   2.351   6.350   2.069
   82SOL    HW1 1145   2.316   6.266   2.027
   82SOL    HW2 1146   2.377   6.415   1.998
   83SOL     OW 1147   5.095   1.424   3.905
   83SOL    HW1 1148   5.067   1.353   3.970
   83SOL    HW2 1149   5.141   1.381   3.827
   84SOL     OW 1150   5.724   3.060   2.478
   84SOL    HW1 1151   5.791   3.124   2.440
   84SOL    HW2 1152   5.635   3.105   2.487
   85SOL     OW 1153   2.903   6.791   3.399
   85SOL    HW1 1154   2.971   6.864   3.402
   85SOL    HW2 1155   2.884   6.758   3.492
   86SOL     OW 1156   5.008   6.812   0.289
   86SOL    HW1 1157   5.101   6.786   0.317
   86SOL    HW2 1158   5.011   6.858   0.200
   87SOL     OW 1159   2.714   4.102   6.458
   87SOL    HW1 1160   2.724   4.013   6.503
   87SOL    HW2 1161   2.649   4.158   6.509
   88SOL     OW 1162   2.711   3.525   1.439
   88SOL    HW1 1163   2.701   3.480   1.527
   88SOL    HW2 1164   2.622   3.537   1.396
   89SOL     OW 1165   3.036   3.562   3.896
   89SOL    HW1 1166   3.024   3.541   3.993
   89SOL    HW2 1167   3.044   3.477   3.844
   90SOL     OW 1168   5.652   3.935   2.058
   90SOL    HW1 1169   5.623   3.848   2.095
   90SOL    HW2 1170   5.744   3.956   2.090
   91SOL     OW 1171   4.565   5.682   5.997
   91SOL    HW1 1172   4.466   5.671   6.005
   91SOL    HW2 1173   4.593   5.764   6.047
   92SOL     OW 1174   5.060   4.360   0.017
   92SOL    HW1 1175   5.129   4.390   0.083
   92SOL    HW2 1176   5.098   4.363   6.947
   93SOL     OW 1177   3.003   3.678   1.994
   93SOL    HW1 1178   3.092   3.674   1.948
   93SOL    HW2 1179   2.950   3.596   1.971
   94SOL     OW 1180   2.878   2.313   4.148
   94SOL    HW1 1181   2.883   2.284   4.243
   94SOL    HW2 1182   2.789   2.354   4.130
   95SOL     OW 1183   0.559   0.676   4.054
   95SOL    HW1 1184   0.634   0.612   4.042
   95SOL    HW2 1185   0.478   0.643   4.006
   96SOL     OW 1186   6.854   5.085   6.913
   96SOL    HW1 1187   6.890   5.156   6.973
   96SOL    HW2 1188   6.815   5.127   6.831
   97SOL     OW 1189   2.114   4.118   5.845
   97SOL    HW1 1190   2.085   4.185   5.914
   97SOL    HW2 1191   2.180   4.160   5.784
   98SOL     OW 1192   0.844   2.289   3.767
   98SOL    HW1 1193   0.771   2.314   3.703
   98SOL    HW2 1194   0.914   2.361   3.767
   99SOL     OW 1195   3.379   4.229   5.311
   99SOL    HW1 1196   3.397   4.317   5.269
   99SOL    HW2 1197   3.336   4.168   5.244
  100SOL     OW 1198   6.872   0.823   5.017
  100SOL    HW1 1199   6.794   0.768   5.048
  100SOL    HW2 1200   6.956   0.770   5.030
  101SOL     OW 1201   5.184   3.719   2.832
  101SOL    HW1 1202   5.263   3.700   2.890
  101SOL    HW2 1203   5.101   3.686   2.876
  102SOL     OW 1204   3.789   0.591   6.982
  102SOL    HW1 1205   3.747   0.638   0.038
  102SOL    HW2 1206   3.807   0.496   7.007
  103SOL     OW 1207   1.536   1.288   1.987
  103SOL    HW1 1208   1.629   1.289   2.024
  103SOL    HW2 1209   1.529   1.217   1.917
  104SOL     OW 1210   6.550   4.790   1.799
  104SOL    HW1 1211   6.581   4.885   1.795
  104SOL    HW2 1212   6.561   4.747   1.709
  105SOL     OW 1213   6.862   1.198   5.254
  105SOL    HW1 1214   6.806   1.249   5.188
  105SOL    HW2 1215   6.816   1.113   5.278
  106SOL     OW 1216   4.442   2.967   1.402
  106SOL    HW1 1217   4.530   2.999   1.368
  106SOL    HW2 1218   4.408   3.030   1.472
  107SOL     OW 1219   6.053   0.019   1.599
  107SOL    HW1 1220   5.998   0.065   1.530
  107SOL    HW2 1221   6.035   6.943   1.597
  108SOL     OW 1222   3.209   1.600   4.639
  108SOL    HW1 1223   3.238   1.625   4.732
  108SOL    HW2 1224   3.119   1.557   4.643
  109SOL     OW 1225   1.895   1.101   4.637
  109SOL    HW1 1226   1.880   1.007   4.607
  109SOL    HW2 1227   1.898   1.103   4.737
  110SOL     OW 1228   3.620   4.251   5.647
  110SOL    HW1 1229   3.685   4.294   5.709
  110SOL    HW2 1230   3.634   4.288   5.555
  111SOL     OW 1231   6.026   2.615   0.964
  111SOL    HW1 1232   6.096   2.556   1.005
  111SOL    HW2 1233   6.069   2.695   0.924
  112SOL     OW 1234   5.204   0.040   6.582
  112SOL    HW1 1235   5.202   6.963   6.599
  112SOL    HW2 1236   5.285   0.079   6.624
  113SOL     OW 1237   0.648   5.130   2.710
  113SOL    HW1 1238   0.727   5.133   2.648
  113SOL    HW2 1239   0.570   5.176   2.667
  114SOL     OW 1240   6.994   2.330   2.194
  114SOL    HW1 1241   6.908   2.306   2.238
  114SOL    HW2 1242   6.991   2.427   2.168
  115SOL     OW 1243   5.358   6.451   3.769
  115SOL    HW1 1244   5.386   6.474   3.676
  115SOL    HW2 1245   5.329   6.355   3.773
  116SOL     OW 1246   0.010   4.926   0.553
  116SOL    HW1 1247   0.086   4.907   0.491
  116SOL    HW2 1248   0.001   5.024   0.567
  117SOL     OW 1249   2.576   2.531   0.057
  117SOL    HW1 1250   2.658   2.561   0.008
  117SOL    HW2 1251   2.497   2.536   7.018
  118SOL     OW 1252   0.306   2.111   2.612
  118SOL    HW1 1253   0.341   2.077   2.525
  118SOL    HW2 1254   0.255   2.196   2.596
  119SOL     OW 1255   5.980   0.765   5.113
  119SOL    HW1 1256   5.908   0.742   5.047
  119SOL    HW2 1257   6.047   0.825   5.069
  120SOL     OW 1258   4.513   1.004   4.085
  120SOL    HW1 1259   4.572   0.946   4.142
  120SOL    HW2 1260   4.519   1.099   4.117
  121SOL     OW 1261   0.455   4.920   0.151
  121SOL    HW1 1262   0.465   4.902   0.248
  121SOL    HW2 1263   0.409   5.007   0.138
  122SOL     OW 1264   6.693   4.887   6.200
  122SOL    HW1 1265   6.610   4.939   6.222
  122SOL    HW2 1266   6.694   4.866   6.102
  123SOL     OW 1267   0.631   2.514   1.854
  123SOL    HW1 1268   0.643   2.602   1.809
  123SOL    HW2 1269   0.699   2.449   1.819
  124SOL     OW 1270   1.324   3.517   7.011
  124SOL    HW1 1271   1.290   3.609   6.988
  124SOL    HW2 1272   1.420   3.509   6.985
  125SOL     OW 1273   4.866   3.069   0.427
  125SOL    HW1 1274   4.892   2.991   0.485
  125SOL    HW2 1275   4.939   3.087   0.361
  126SOL     OW 1276   3.653   3.211   4.162
  126SOL    HW1 1277   3.611   3.197   4.252
  126SOL    HW2 1278   3.629   3.135   4.102
  127SOL     OW 1279   0.510   5.071   5.098
  127SOL    HW1 1280   0.456   5.026   5.169
  127SOL    HW2 1281   0.475   5.164   5.084
  128SOL     OW 1282   5.012   3.791   6.922
  128SOL    HW1 1283   4.985   3.719   6.986
  128SOL    HW2 1284   5.000   3.880   6.966
  129SOL     OW 1285   0.125   5.600   2.408
  129SOL    HW1 1286   0.082   5.520   2.366
  129SOL    HW2 1287   0.068   5.632   2.484
  130SOL     OW 1288   5.880   2.848   3.863
  130SOL    HW1 1289   5.915   2.880   3.951
  130SOL    HW2 1290   5.815   2.915   3.827
  131SOL     OW 1291   0.965   2.467   3.366
  131SOL    HW1 1292   1.012   2.534   3.309
  131SOL    HW2 1293   0.971   2.494   3.462
  132SOL     OW 1294   3.714   2.612   1.109
  132SOL    HW1 1295   3.795   2.595   1.052
  132SOL    HW2 1296   3.731   2.693   1.166
  133SOL     OW 1297   5.165   6.021   6.299
  133SOL    HW1 1298   5.096   5.997   6.367
  133SOL    HW2 1299   5.142   5.978   6.212
  134SOL     OW 1300   6.006   1.992   1.405
  134SOL    HW1 1301   5.919   1.969   1.362
  134SOL    HW2 1302   5.993   2.071   1.465
  135SOL     OW 1303   4.976   3.834   3.867
  135SOL    HW1 1304   5.002   3.875   3.779
  135SOL    HW2 1305   4.896   3.881   3.903
  136SOL     OW 1306   3.450   0.893   6.638
  136SOL    HW1 1307   3.460   0.841   6.723
  136SOL    HW2 1308   3.540   0.923   6.607
  137SOL     OW 1309   2.724   3.867   6.141
  137SOL    HW1 1310   2.816   3.904   6.154
  137SOL    HW2 1311   2.697   3.880   6.045
  138SOL     OW 1312   1.092   5.117   6.574
  138SOL    HW1 1313   1.032   5.188   6.537
  138SOL    HW2 1314   1.067   5.029   6.534
  139SOL     OW 1315   1.473   0.057   0.918
  139SOL    HW1 1316   1.393   0.061   0.858
  139SOL    HW2 1317   1.496   6.984   0.937
  140SOL     OW 1318   4.339   0.601   1.452
  140SOL    HW1 1319   4.256   0.552   1.479
  140SOL    HW2 1320   4.313   0.691   1.416
  141SOL     OW 1321   0.639   3.094   0.438
  141SOL    HW1 1322   0.733   3.118   0.413
  141SOL    HW2 1323   0.577   3.120   0.363
  142SOL     OW 1324   2.285   3.396   0.716
  142SOL    HW1 1325   2.253   3.302   0.725
  142SOL    HW2 1326   2.363   3.411   0.777
  143SOL     OW 1327   4.330   6.053   2.094
  143SOL    HW1 1328   4.234   6.042   2.069
  143SOL    HW2 1329   4.357   6.149   2.082
  144SOL     OW 1330   3.537   5.790   3.055
  144SOL    HW1 1331   3.495   5.717   3.108
  144SOL    HW2 1332   3.465   5.850   3.018
  145SOL     OW 1333   0.330   4.947   3.493
  145SOL    HW1 1334   0.235   4.973   3.480
  145SOL    HW2 1335   0.358   4.883   3.421
  146SOL     OW 1336   4.941   0.670   6.316
  146SOL    HW1 1337   4.852   0.645   6.279
  146SOL    HW2 1338   5.001   0.589   6.319
  147SOL     OW 1339   4.115   0.767   4.864
  147SOL    HW1 1340   4.046   0.701   4.835
  147SOL    HW2 1341   4.204   0.722   4.870
  148SOL     OW 1342   1.913   6.247   1.331
  148SOL    HW1 1343   1.887   6.280   1.422
  148SOL    HW2 1344   1.843   6.184   1.296
  149SOL     OW 1345   2.134   2.509   4.484
  149SOL    HW1 1346   2.125   2.410   4.483
  149SOL    HW2 1347   2.139   2.544   4.391
  150SOL     OW 1348   4.197   1.450   5.019
  150SOL    HW1 1349   4.258   1.528   5.038
  150SOL    HW2 1350   4.198   1.388   5.097
  151SOL     OW 1351   4.950   2.643   0.860
  151SOL    HW1 1352   5.031   2.655   0.917
  151SOL    HW2 1353   4.891   2.723   0.868
  152SOL     OW 1354   0.937   2.289   1.363
  152SOL    HW1 1355   0.846   2.282   1.323
  152SOL    HW2 1356   0.998   2.224   1.317
  153SOL     OW 1357   2.362   1.227   3.937
  153SOL    HW1 1358   2.369   1.327   3.943
  153SOL    HW2 1359   2.426   1.194   3.868
  154SOL     OW 1360   6.511   2.643   2.471
  154SOL    HW1 1361   6.454   2.691   2.537
  154SOL    HW2 1362   6.470   2.649   2.380
  155SOL     OW 1363   6.955   5.150   3.294
  155SOL    HW1 1364   6.931   5.087   3.220
  155SOL    HW2 1365   6.980   5.239   3.255
  156SOL     OW 1366   5.003   2.554   0.463
  156SOL    HW1 1367   4.994   2.470   0.409
  156SOL    HW2 1368   5.099   2.579   0.471
  157SOL     OW 1369   5.236   6.409   1.013
  157SOL    HW1 1370   5.297   6.487   1.006
  157SOL    HW2 1371   5.145   6.440   1.042
  158SOL     OW 1372   0.848   2.901   4.002
  158SOL    HW1 1373   0.816   2.972   4.065
  158SOL    HW2 1374   0.776   2.833   3.990
  159SOL     OW 1375   5.891   5.245   0.936
  159SOL    HW1 1376   5.822   5.199   0.880
  159SOL    HW2 1377   5.852   5.328   0.975
  160SOL     OW 1378   5.460   0.419   0.998
  160SOL    HW1 1379   5.484   0.332   1.041
  160SOL    HW2 1380   5.479   0.494   1.061
  161SOL     OW 1381   6.476   6.582   1.100
  161SOL    HW1 1382   6.440   6.500   1.055
  161SOL    HW2 1383   6.549   6.556   1.162
  162SOL     OW 1384   4.396   6.887   6.487
  162SOL    HW1 1385   4.427   6.856   6.397
  162SOL    HW2 1386   4.359   6.980   6.478
  163SOL     OW 1387   1.126   3.787   2.379
  163SOL    HW1 1388   1.037   3.831   2.364
  163SOL    HW2 1389   1.126   3.743   2.468
  164SOL     OW 1390   2.708   1.898   3.579
  164SOL    HW1 1391   2.686   1.846   3.496
  164SOL    HW2 1392   2.675   1.848   3.659
  165SOL     OW 1393   6.935   6.999   3.900
  165SOL    HW1 1394   6.875   6.948   3.962
  165SOL    HW2 1395   6.901   6.992   3.807
  166SOL     OW 1396   6.408   4.345   4.046
  166SOL    HW1 1397   6.359   4.304   3.970
  166SOL    HW2 1398   6.420   4.277   4.119
  167SOL     OW 1399   2.258   1.637   5.897
  167SOL    HW1 1400   2.252   1.725   5.943
  167SOL    HW2 1401   2.166   1.607   5.870
  168SOL     OW 1402   3.905   3.440   1.616
  168SOL    HW1 1403   4.001   3.425   1.592
  168SOL    HW2 1404   3.862   3.352   1.639
  169SOL     OW 1405   4.624   1.816   1.283
  169SOL    HW1 1406   4.633   1.905   1.330
  169SOL    HW2 1407   4.679   1.817   1.200
  170SOL     OW 1408   6.304   5.563   1.322
  170SOL    HW1 1409   6.266   5.637   1.266
  170SOL    HW2 1410   6.402   5.557   1.307
  171SOL     OW 1411   3.595   3.029   1.033
  171SOL    HW1 1412   3.526   3.051   0.964
  171SOL    HW2 1413   3.597   3.100   1.102
  172SOL     OW 1414   0.995   1.503   6.303
  172SOL    HW1 1415   1.057   1.484   6.227
  172SOL    HW2 1416   0.951   1.592   6.289
  173SOL     OW 1417   6.193   1.631   4.033
  173SOL    HW1 1418   6.154   1.702   4.091
  173SOL    HW2 1419   6.209   1.668   3.941
  174SOL     OW 1420   5.535   4.385   4.643
  174SOL    HW1 1421   5.575   4.397   4.734
  174SOL    HW2 1422   5.517   4.475   4.603
  175SOL     OW 1423   0.225   0.031   2.946
  175SOL    HW1 1424   0.309   6.999   2.949
  175SOL    HW2 1425   0.248   0.126   2.924
  176SOL     OW 1426   6.102   3.791   1.622
  176SOL    HW1 1427   6.101   3.825   1.528
  176SOL    HW2 1428   6.108   3.691   1.622
  177SOL     OW 1429   5.859   2.046   3.758
  177SOL    HW1 1430   5.871   2.137   3.720
  177SOL    HW2 1431   5.877   2.048   3.857
  178SOL     OW 1432   2.619   5.836   4.648
  178SOL    HW1 1433   2.521   5.853   4.653
  178SOL    HW2 1434   2.639   5.745   4.685
  179SOL     OW 1435   3.336   3.994   1.433
  179SOL    HW1 1436   3.254   4.003   1.375
  179SOL    HW2 1437   3.311   3.947   1.518
  180SOL     OW 1438   4.506   0.955   0.065
  180SOL    HW1 1439   4.490   0.869   0.017
  180SOL    HW2 1440   4.593   0.995   0.034
  181SOL     OW 1441   3.489   2.282   5.927
  181SOL    HW1 1442   3.391   2.262   5.916
  181SOL    HW2 1443   3.502   2.338   6.009
  182SOL     OW 1444   2.956   2.516   6.133
  182SOL    HW1 1445   2.976   2.439   6.074
  182SOL    HW2 1446   2.962   2.601   6.080
  183SOL     OW 1447   2.991   0.501   3.471
  183SOL    HW1 1448   2.893   0.513   3.484
  183SOL    HW2 1449   3.011   0.404   3.453
  184SOL     OW 1450   5.185   5.771   3.844
  184SOL    HW1 1451   5.131   5.774   3.928
  184SOL    HW2 1452   5.186   5.678   3.808
  185SOL     OW 1453   6.853   0.289   4.693
  185SOL    HW1 1454   6.844   0.206   4.638
  185SOL    HW2 1455   6.918   0.351   4.648
  186SOL     OW 1456   3.528   6.154   4.802
  186SOL    HW1 1457   3.598   6.130   4.735
  186SOL    HW2 1458   3.472   6.073   4.821
  187SOL     OW 1459   4.146   5.979   1.742
  187SOL    HW1 1460   4.194   5.941   1.821
  187SOL    HW2 1461   4.180   6.070   1.722
  188SOL     OW 1462   1.174   2.952   2.937
  188SOL    HW1 1463   1.108   2.885   2.969
  188SOL    HW2 1464   1.151   2.981   2.844
  189SOL     OW 1465   5.575   5.162   5.505
  189SOL    HW1 1466   5.486   5.151   5.460
  189SOL    HW2 1467   5.647   5.161   5.437
  190SOL     OW 1468   5.842   0.235   0.517
  190SOL    HW1 1469   5.825   0.149   0.564
  190SOL    HW2 1470   5.782   0.306   0.553
  191SOL     OW 1471   0.225   1.476   5.745
  191SOL    HW1 1472   0.285   1.524   5.809
  191SOL    HW2 1473   0.169   1.543   5.695
  192SOL     OW 1474   0.652   5.641   1.133
  192SOL    HW1 1475   0.646   5.696   1.217
  192SOL    HW2 1476   0.574   5.663   1.074
  193SOL     OW 1477   2.255   6.696   0.498
  193SOL    HW1 1478   2.322   6.687   0.424
  193SOL    HW2 1479   2.184   6.761   0.471
  194SOL     OW 1480   4.052   5.747   2.166
  194SOL    HW1 1481   3.963   5.732   2.209
  194SOL    HW2 1482   4.124   5.740   2.235
  195SOL     OW 1483   3.970   0.962   1.416
  195SOL    HW1 1484   3.938   0.879   1.462
  195SOL    HW2 1485   3.893   1.020   1.393
  196SOL     OW 1486   3.588   2.325   0.534
  196SOL    HW1 1487   3.499   2.302   0.572
  196SOL    HW2 1488   3.661   2.294   0.595
  197SOL     OW 1489   1.888   5.998   0.354
  197SOL    HW1 1490   1.881   6.063   0.279
  197SOL    HW2 1491   1.891   6.047   0.441
  198SOL     OW 1492   3.718   6.998   6.659
  198SOL    HW1 1493   3.757   0.036   6.729
  198SOL    HW2 1494   3.689   0.030   6.581
  199SOL     OW 1495   0.690   0.515   2.904
  199SOL    HW1 1496   0.609   0.519   2.964
  199SOL    HW2 1497   0.737   0.604   2.906
  200SOL     OW 1498   0.984   4.474   3.239
  200SOL    HW1 1499   0.986   4.549   3.305
  200SOL    HW2 1500   0.975   4.387   3.287
  201SOL     OW 1501   5.119   1.400   6.141
  201SOL    HW1 1502   5.136   1.489   6.100
  201SOL    HW2 1503   5.025   1.395   6.173
  202SOL     OW 1504   3.578   1.149   2.429
  202SOL    HW1 1505   3.482   1.166   2.404
  202SOL    HW2 1506   3.628   1.120   2.347
  203SOL     OW 1507   5.797   2.769   0.108
  203SOL    HW1 1508   5.700   2.790   0.114
  203SOL    HW2 1509   5.811   2.695   0.042
  204SOL     OW 1510   2.749   6.444   1.747
  204SOL    HW1 1511   2.710   6.509   1.812
  204SOL    HW2 1512   2.680   6.375   1.724
  205SOL     OW 1513   5.903   1.006   0.726
  205SOL    HW1 1514   5.849   0.954   0.660
  205SOL    HW2 1515   5.878   1.102   0.721
  206SOL     OW 1516   0.559   4.983   1.717
  206SOL    HW1 1517   0.547   4.910   1.783
  206SOL    HW2 1518   0.657   5.001   1.704
  207SOL     OW 1519   4.785   1.522   5.322
  207SOL    HW1 1520   4.725   1.508   5.244
  207SOL    HW2 1521   4.820   1.616   5.321
  208SOL     OW 1522   3.411   4.900   6.070
  208SOL    HW1 1523   3.403   4.918   6.169
  208SOL    HW2 1524   3.505   4.875   6.048
  209SOL     OW 1525   6.961   5.307   5.494
  209SOL    HW1 1526   6.875   5.258   5.485
  209SOL    HW2 1527   7.004   5.317   5.404
  210SOL     OW 1528   3.962   2.142   2.130
  210SOL    HW1 1529   4.048   2.162   2.083
  210SOL    HW2 1530   3.885   2.165   2.070
  211SOL     OW 1531   1.439   2.128   1.882
  211SOL    HW1 1532   1.481   2.148   1.794
  211SOL    HW2 1533   1.376   2.051   1.873
  212SOL     OW 1534   0.792   4.763   4.408
  212SOL    HW1 1535   0.699   4.758   4.445
  212SOL    HW2 1536   0.789   4.751   4.309
  213SOL     OW 1537   4.090   3.070   6.717
  213SOL    HW1 1538   4.108   2.972   6.726
  213SOL    HW2 1539   4.098   3.114   6.807
  214SOL     OW 1540   1.413   6.731   2.944
  214SOL    HW1 1541   1.456   6.652   2.987
  214SOL    HW2 1542   1.345   6.771   3.006
  215SOL     OW 1543   3.599   3.448   2.736
  215SOL    HW1 1544   3.685   3.407   2.765
  215SOL    HW2 1545   3.523   3.397   2.776
  216SOL     OW 1546   1.642   6.185   5.610
  216SOL    HW1 1547   1.603   6.135   5.532
  216SOL    HW2 1548   1.725   6.233   5.581
  217SOL     OW 1549   7.000   2.939   4.024
  217SOL    HW1 1550   6.927   2.877   3.995
  217SOL    HW2 1551   0.066   2.897   4.007
  218SOL     OW 1552   1.884   3.962   5.425
  218SOL    HW1 1553   1.799   4.009   5.451
  218SOL    HW2 1554   1.924   3.919   5.505
  219SOL     OW 1555   4.248   5.310   0.624
  219SOL    HW1 1556   4.208   5.265   0.705
  219SOL    HW2 1557   4.320   5.373   0.653
  220SOL     OW 1558   1.565   4.755   0.799
  220SOL    HW1 1559   1.609   4.730   0.886
  220SOL    HW2 1560   1.629   4.741   0.724
  221SOL     OW 1561   6.506   2.780   3.854
  221SOL    HW1 1562   6.483   2.804   3.948
  221SOL    HW2 1563   6.459   2.696   3.829
  222SOL     OW 1564   1.142   6.327   4.829
  222SOL    HW1 1565   1.079   6.380   4.886
  222SOL    HW2 1566   1.230   6.373   4.824
  223SOL     OW 1567   5.865   4.198   2.741
  223SOL    HW1 1568   5.809   4.233   2.665
  223SOL    HW2 1569   5.894   4.275   2.799
  224SOL     OW 1570   3.660   2.019   2.262
  224SOL    HW1 1571   3.580   1.969   2.228
  224SOL    HW2 1572   3.688   2.087   2.195
  225SOL     OW 1573   0.589   0.214   0.952
  225SOL    HW1 1574   0.668   0.195   1.011
  225SOL    HW2 1575   0.527   0.136   0.955
  226SOL     OW 1576   0.368   5.798   1.142
  226SOL    HW1 1577   0.397   5.800   1.047
  226SOL    HW2 1578   0.432   5.850   1.198
  227SOL     OW 1579   1.753   2.854   3.341
  227SOL    HW1 1580   1.827   2.844   3.274
  227SOL    HW2 1581   1.725   2.950   3.344
  228SOL     OW 1582   4.067   6.964   2.661
  228SOL    HW1 1583   4.076   6.865   2.650
  228SOL    HW2 1584   4.050   6.986   2.757
  229SOL     OW 1585   6.342   5.844   3.339
  229SOL    HW1 1586   6.281   5.765   3.338
  229SOL    HW2 1587   6.346   5.885   3.247
  230SOL     OW 1588   1.186   4.217   5.755
  230SOL    HW1 1589   1.209   4.185   5.847
  230SOL    HW2 1590   1.165   4.314   5.758
  231SOL     OW 1591   0.407   2.077   0.412
  231SOL    HW1 1592   0.316   2.059   0.376
  231SOL    HW2 1593   0.409   2.058   0.510
  232SOL     OW 1594   2.098   4.943   6.489
  232SOL    HW1 1595   2.099   5.041   6.470
  232SOL    HW2 1596   2.014   4.903   6.452
  233SOL     OW 1597   3.179   1.036   6.140
  233SOL    HW1 1598   3.191   0.989   6.228
  233SOL    HW2 1599   3.084   1.066   6.132
  234SOL     OW 1600   3.050   5.730   0.103
  234SOL    HW1 1601   3.051   5.761   0.198
  234SOL    HW2 1602   3.022   5.805   0.043
  235SOL     OW 1603   3.906   3.052   4.238
  235SOL    HW1 1604   3.917   3.142   4.280
  235SOL    HW2 1605   3.841   2.999   4.291
  236SOL     OW 1606   6.577   1.842   5.457
  236SOL    HW1 1607   6.668   1.811   5.486
  236SOL    HW2 1608   6.576   1.851   5.357
  237SOL     OW 1609   0.237   6.732   1.980
  237SOL    HW1 1610   0.157   6.673   1.971
  237SOL    HW2 1611   0.315   6.679   2.012
  238SOL     OW 1612   0.093   2.104   2.369
  238SOL    HW1 1613   0.074   2.148   2.457
  238SOL    HW2 1614   0.098   2.174   2.298
  239SOL     OW 1615   0.594   5.946   0.604
  239SOL    HW1 1616   0.545   5.965   0.519
  239SOL    HW2 1617   0.656   5.869   0.590
  240SOL     OW 1618   6.954   2.880   5.447
  240SOL    HW1 1619   6.866   2.883   5.492
  240SOL    HW2 1620   6.941   2.861   5.349
  241SOL     OW 1621   6.520   1.677   4.282
  241SOL    HW1 1622   6.509   1.612   4.207
  241SOL    HW2 1623   6.437   1.732   4.291
  242SOL     OW 1624   2.060   2.716   3.491
  242SOL    HW1 1625   2.159   2.726   3.499
  242SOL    HW2 1626   2.028   2.766   3.410
  243SOL     OW 1627   3.865   1.152   6.000
  243SOL    HW1 1628   3.792   1.111   5.946
  243SOL    HW2 1629   3.930   1.199   5.940
  244SOL     OW 1630   6.674   0.539   5.833
  244SOL    HW1 1631   6.735   0.487   5.894
  244SOL    HW2 1632   6.728   0.606   5.782
  245SOL     OW 1633   5.534   2.656   3.808
  245SOL    HW1 1634   5.532   2.756   3.820
  245SOL    HW2 1635   5.573   2.634   3.718
  246SOL     OW 1636   4.957   3.343   3.713
  246SOL    HW1 1637   4.935   3.383   3.802
  246SOL    HW2 1638   5.009   3.409   3.659
  247SOL     OW 1639   3.053   0.185   4.041
  247SOL    HW1 1640   3.053   0.226   3.950
  247SOL    HW2 1641   3.095   0.249   4.106
  248SOL     OW 1642   6.276   1.558   1.960
  248SOL    HW1 1643   6.269   1.573   1.861
  248SOL    HW2 1644   6.219   1.480   1.986
  249SOL     OW 1645   2.132   6.296   3.894
  249SOL    HW1 1646   2.212   6.243   3.869
  249SOL    HW2 1647   2.085   6.251   3.970
  250SOL     OW 1648   5.311   3.230   6.477
  250SOL    HW1 1649   5.336   3.319   6.439
  250SOL    HW2 1650   5.261   3.244   6.563
  251SOL     OW 1651   1.777   2.084   0.946
  251SOL    HW1 1652   1.731   1.996   0.939
  251SOL    HW2 1653   1.712   2.157   0.925
  252SOL     OW 1654   0.235   1.201   0.325
  252SOL    HW1 1655   0.282   1.283   0.294
  252SOL    HW2 1656   0.265   1.178   0.417
  253SOL     OW 1657   1.616   4.060   5.429
  253SOL    HW1 1658   1.531   4.008   5.433
  253SOL    HW2 1659   1.623   4.105   5.340
  254SOL     OW 1660   5.250   3.561   5.428
  254SOL    HW1 1661   5.179   3.572   5.358
  254SOL    HW2 1662   5.209   3.523   5.511
  255SOL     OW 1663   3.517   2.120   3.298
  255SOL    HW1 1664   3.543   2.062   3.221
  255SOL    HW2 1665   3.419   2.135   3.297
  256SOL     OW 1666   6.890   5.852   0.714
  256SOL    HW1 1667   6.962   5.901   0.764
  256SOL    HW2 1668   6.912   5.755   0.710
  257SOL     OW 1669   3.315   5.418   6.527
  257SOL    HW1 1670   3.255   5.339   6.539
  257SOL    HW2 1671   3.313   5.474   6.610
  258SOL     OW 1672   4.797   4.000   4.400
  258SOL    HW1 1673   4.813   4.038   4.309
  258SOL    HW2 1674   4.836   3.908   4.405
  259SOL     OW 1675   1.260   2.399   3.454
  259SOL    HW1 1676   1.358   2.406   3.474
  259SOL    HW2 1677   1.233   2.475   3.395
  260SOL     OW 1678   6.447   0.051   5.531
  260SOL    HW1 1679   6.462   0.150   5.533
  260SOL    HW2 1680   6.415   0.020   5.620
  261SOL     OW 1681   0.594   1.448   3.019
  261SOL    HW1 1682   0.550   1.475   3.105
  261SOL    HW2 1683   0.693   1.456   3.027
  262SOL     OW 1684   2.149   4.651   1.934
  262SOL    HW1 1685   2.196   4.639   2.021
  262SOL    HW2 1686   2.126   4.748   1.921
  263SOL     OW 1687   6.418   2.560   4.993
  263SOL    HW1 1688   6.467   2.483   5.033
  263SOL    HW2 1689   6.482   2.617   4.941
  264SOL     OW 1690   3.220   3.749   6.093
  264SOL    HW1 1691   3.188   3.654   6.096
  264SOL    HW2 1692   3.307   3.756   6.140
  265SOL     OW 1693   5.532   5.851   5.073
  265SOL    HW1 1694   5.625   5.874   5.044
  265SOL    HW2 1695   5.468   5.921   5.039
  266SOL     OW 1696   3.215   2.683   6.268
  266SOL    HW1 1697   3.291   2.747   6.261
  266SOL    HW2 1698   3.129   2.729   6.246
  267SOL     OW 1699   1.567   1.303   6.137
  267SOL    HW1 1700   1.574   1.372   6.208
  267SOL    HW2 1701   1.503   1.333   6.066
  268SOL     OW 1702   3.232   5.956   3.712
  268SOL    HW1 1703   3.188   5.873   3.677
  268SOL    HW2 1704   3.316   5.932   3.759
  269SOL     OW 1705   1.641   1.208   4.802
  269SOL    HW1 1706   1.625   1.112   4.825
  269SOL    HW2 1707   1.722   1.241   4.850
  270SOL     OW 1708   5.081   6.786   4.708
  270SOL    HW1 1709   5.078   6.687   4.694
  270SOL    HW2 1710   5.176   6.817   4.707
  271SOL     OW 1711   1.202   1.377   0.286
  271SOL    HW1 1712   1.115   1.333   0.310
  271SOL    HW2 1713   1.266   1.367   0.362
  272SOL     OW 1714   5.134   5.813   1.981
  272SOL    HW1 1715   5.167   5.760   2.058
  272SOL    HW2 1716   5.116   5.753   1.903
  273SOL     OW 1717   2.915   6.763   4.433
  273SOL    HW1 1718   2.966   6.803   4.358
  273SOL    HW2 1719   2.979   6.725   4.501
  274SOL     OW 1720   6.129   1.561   0.951
  274SOL    HW1 1721   6.055   1.602   0.898
  274SOL    HW2 1722   6.096   1.478   0.996
  275SOL     OW 1723   5.490   6.012   6.009
  275SOL    HW1 1724   5.444   6.080   5.952
  275SOL    HW2 1725   5.450   5.921   5.992
  276SOL     OW 1726   0.047   6.525   4.062
  276SOL    HW1 1727   0.119   6.473   4.016
  276SOL    HW2 1728   7.006   6.462   4.106
  277SOL     OW 1729   4.789   2.623   5.195
  277SOL    HW1 1730   4.861   2.592   5.258
  277SOL    HW2 1731   4.827   2.630   5.103
  278SOL     OW 1732   5.644   3.669   3.432
  278SOL    HW1 1733   5.663   3.698   3.339
  278SOL    HW2 1734   5.730   3.652   3.481
  279SOL     OW 1735   0.390   3.514   4.136
  279SOL    HW1 1736   0.342   3.555   4.214
  279SOL    HW2 1737   0.351   3.424   4.117
  280SOL     OW 1738   3.735   0.973   3.469
  280SOL    HW1 1739   3.702   1.031   3.394
  280SOL    HW2 1740   3.657   0.933   3.517
  281SOL     OW 1741   5.270   6.463   4.868
  281SOL    HW1 1742   5.226   6.451   4.779
  281SOL    HW2 1743   5.305   6.556   4.875
  282SOL     OW 1744   1.498   2.319   0.525
  282SOL    HW1 1745   1.487   2.347   0.429
  282SOL    HW2 1746   1.546   2.231   0.528
  283SOL     OW 1747   5.141   3.208   4.773
  283SOL    HW1 1748   5.154   3.156   4.689
  283SOL    HW2 1749   5.228   3.248   4.801
  284SOL     OW 1750   5.318   5.800   2.752
  284SOL    HW1 1751   5.325   5.716   2.698
  284SOL    HW2 1752   5.222   5.820   2.770
  285SOL     OW 1753   4.296   0.982   6.119
  285SOL    HW1 1754   4.352   1.043   6.062
  285SOL    HW2 1755   4.310   0.888   6.089
  286SOL     OW 1756   2.967   4.877   5.593
  286SOL    HW1 1757   3.048   4.913   5.640
  286SOL    HW2 1758   2.987   4.784   5.560
  287SOL     OW 1759   3.642   6.950   0.062
  287SOL    HW1 1760   3.721   6.979   0.007
  287SOL    HW2 1761   3.595   6.874   0.017
  288SOL     OW 1762   4.677   1.312   0.831
  288SOL    HW1 1763   4.727   1.376   0.772
  288SOL    HW2 1764   4.701   1.328   0.927
  289SOL     OW 1765   6.572   5.555   4.269
  289SOL    HW1 1766   6.510   5.550   4.190
  289SOL    HW2 1767   6.660   5.593   4.239
  290SOL     OW 1768   3.720   1.032   6.275
  290SOL    HW1 1769   3.783   1.100   6.237
  290SOL    HW2 1770   3.745   1.013   6.370
  291SOL     OW 1771   3.799   0.395   5.555
  291SOL    HW1 1772   3.829   0.401   5.650
  291SOL    HW2 1773   3.720   0.455   5.541
  292SOL     OW 1774   4.422   0.246   4.003
  292SOL    HW1 1775   4.521   0.236   3.992
  292SOL    HW2 1776   4.403   0.325   4.061
  293SOL     OW 1777   5.550   6.350   2.674
  293SOL    HW1 1778   5.504   6.438   2.684
  293SOL    HW2 1779   5.648   6.362   2.691
  294SOL     OW 1780   6.200   0.924   6.377
  294SOL    HW1 1781   6.109   0.902   6.413
  294SOL    HW2 1782   6.192   0.951   6.281
  295SOL     OW 1783   1.109   0.777   4.646
  295SOL    HW1 1784   1.070   0.864   4.676
  295SOL    HW2 1785   1.041   0.705   4.657
  296SOL     OW 1786   0.875   2.386   1.780
  296SOL    HW1 1787   0.924   2.456   1.727
  296SOL    HW2 1788   0.927   2.366   1.863
  297SOL     OW 1789   5.123   3.378   3.314
  297SOL    HW1 1790   5.165   3.294   3.349
  297SOL    HW2 1791   5.139   3.386   3.216
  298SOL     OW 1792   4.300   0.716   6.047
  298SOL    HW1 1793   4.302   0.636   6.107
  298SOL    HW2 1794   4.284   0.686   5.952
  299SOL     OW 1795   1.042   0.434   6.677
  299SOL    HW1 1796   0.969   0.494   6.711
  299SOL    HW2 1797   1.024   0.340   6.707
  300SOL     OW 1798   3.936   0.147   3.612
  300SOL    HW1 1799   3.984   0.070   3.653
  300SOL    HW2 1800   3.868   0.182   3.676
  301SOL     OW 1801   6.717   5.372   0.254
  301SOL    HW1 1802   6.724   5.429   0.173
  301SOL    HW2 1803   6.641   5.308   0.244
  302SOL     OW 1804   6.716   5.670   2.228
  302SOL    HW1 1805   6.672   5.580   2.221
  302SOL    HW2 1806   6.797   5.672   2.170
  303SOL     OW 1807   5.389   5.364   3.549
  303SOL    HW1 1808   5.295   5.363   3.583
  303SOL    HW2 1809   5.452   5.374   3.627
  304SOL     OW 1810   2.695   6.070   4.786
  304SOL    HW1 1811   2.650   6.065   4.875
  304SOL    HW2 1812   2.679   5.986   4.735
  305SOL     OW 1813   1.163   2.518   1.888
  305SOL    HW1 1814   1.220   2.476   1.958
  305SOL    HW2 1815   1.221   2.554   1.815
  306SOL     OW 1816   0.375   0.214   3.536
  306SOL    HW1 1817   0.373   0.118   3.508
  306SOL    HW2 1818   0.331   0.270   3.465
  307SOL     OW 1819   3.549   3.441   4.041
  307SOL    HW1 1820   3.470   3.389   4.006
  307SOL    HW2 1821   3.612   3.378   4.086
  308SOL     OW 1822   6.202   2.259   2.822
  308SOL    HW1 1823   6.250   2.317   2.756
  308SOL    HW2 1824   6.266   2.231   2.894
  309SOL     OW 1825   1.494   5.802   6.580
  309SOL    HW1 1826   1.418   5.773   6.522
  309SOL    HW2 1827   1.494   5.902   6.586
  310SOL     OW 1828   5.393   6.510   5.289
  310SOL    HW1 1829   5.400   6.610   5.286
  310SOL    HW2 1830   5.341   6.478   5.210
  311SOL     OW 1831   1.566   5.552   2.514
  311SOL    HW1 1832   1.561   5.556   2.414
  311SOL    HW2 1833   1.649   5.597   2.546
  312SOL     OW 1834   3.456   0.278   3.853
  312SOL    HW1 1835   3.428   0.289   3.758
  312SOL    HW2 1836   3.419   0.353   3.908
  313SOL     OW 1837   3.318   3.937   2.788
  313SOL    HW1 1838   3.312   4.019   2.846
  313SOL    HW2 1839   3.319   3.965   2.691
  314SOL     OW 1840   3.179   5.755   6.147
  314SOL    HW1 1841   3.205   5.761   6.244
  314SOL    HW2 1842   3.120   5.832   6.123
  315SOL     OW 1843   6.265   1.198   4.667
  315SOL    HW1 1844   6.316   1.273   4.625
  315SOL    HW2 1845   6.293   1.111   4.627
  316SOL     OW 1846   4.388   1.022   6.367
  316SOL    HW1 1847   4.465   0.959   6.365
  316SOL    HW2 1848   4.352   1.033   6.275
  317SOL     OW 1849   1.207   1.757   1.001
  317SOL    HW1 1850   1.290   1.745   1.056
  317SOL    HW2 1851   1.189   1.673   0.951
  318SOL     OW 1852   0.496   0.010   5.196
  318SOL    HW1 1853   0.510   0.107   5.176
  318SOL    HW2 1854   0.585   6.986   5.203
  319SOL     OW 1855   0.428   1.424   3.464
  319SOL    HW1 1856   0.518   1.443   3.424
  319SOL    HW2 1857   0.435   1.345   3.525
  320SOL     OW 1858   5.644   1.835   6.529
  320SOL    HW1 1859   5.635   1.808   6.434
  320SOL    HW2 1860   5.720   1.786   6.571
  321SOL     OW 1861   4.718   2.812   0.627
  321SOL    HW1 1862   4.707   2.801   0.726
  321SOL    HW2 1863   4.652   2.879   0.593
  322SOL     OW 1864   2.978   3.009   6.578
  322SOL    HW1 1865   3.034   3.016   6.660
  322SOL    HW2 1866   3.032   3.039   6.499
  323SOL     OW 1867   2.052   3.966   2.462
  323SOL    HW1 1868   1.958   3.953   2.492
  323SOL    HW2 1869   2.080   3.888   2.405
  324SOL     OW 1870   0.523   0.239   2.726
  324SOL    HW1 1871   0.566   0.213   2.640
  324SOL    HW2 1872   0.565   0.323   2.760
  325SOL     OW 1873   0.121   4.141   0.975
  325SOL    HW1 1874   0.128   4.099   1.065
  325SOL    HW2 1875   0.068   4.226   0.981
  326SOL     OW 1876   0.930   6.266   6.816
  326SOL    HW1 1877   1.008   6.252   6.756
  326SOL    HW2 1878   0.952   6.336   6.885
  327SOL     OW 1879   5.244   5.438   5.228
  327SOL    HW1 1880   5.168   5.501   5.249
  327SOL    HW2 1881   5.284   5.405   5.314
  328SOL     OW 1882   1.441   4.277   3.235
  328SOL    HW1 1883   1.486   4.199   3.192
  328SOL    HW2 1884   1.360   4.303   3.181
  329SOL     OW 1885   3.322   3.312   1.620
  329SOL    HW1 1886   3.387   3.318   1.696
  329SOL    HW2 1887   3.249   3.249   1.642
  330SOL     OW 1888   2.725   4.440   0.824
  330SOL    HW1 1889   2.704   4.536   0.807
  330SOL    HW2 1890   2.739   4.393   0.737
  331SOL     OW 1891   6.412   4.977   5.868
  331SOL    HW1 1892   6.435   5.036   5.791
  331SOL    HW2 1893   6.335   5.018   5.918
  332SOL     OW 1894   5.845   2.443   3.178
  332SOL    HW1 1895   5.748   2.430   3.199
  332SOL    HW2 1896   5.864   2.407   3.087
  333SOL     OW 1897   3.535   0.927   5.412
  333SOL    HW1 1898   3.519   0.967   5.322
  333SOL    HW2 1899   3.448   0.919   5.461
  334SOL     OW 1900   4.102   3.737   3.417
  334SOL    HW1 1901   4.184   3.681   3.414
  334SOL    HW2 1902   4.073   3.758   3.323
  335SOL     OW 1903   4.313   1.561   0.970
  335SOL    HW1 1904   4.235   1.530   0.915
  335SOL    HW2 1905   4.338   1.654   0.944
  336SOL     OW 1906   2.886   1.547   4.206
  336SOL    HW1 1907   2.858   1.552   4.110
  336SOL    HW2 1908   2.855   1.630   4.253
  337SOL     OW 1909   1.411   0.874   5.179
  337SOL    HW1 1910   1.343   0.895   5.108
  337SOL    HW2 1911   1.488   0.824   5.138
  338SOL     OW 1912   4.262   1.278   1.535
  338SOL    HW1 1913   4.358   1.304   1.547
  338SOL    HW2 1914   4.204   1.359   1.545
  339SOL     OW 1915   4.250   6.107   5.741
  339SOL    HW1 1916   4.167   6.056   5.719
  339SOL    HW2 1917   4.242   6.147   5.832
  340SOL     OW 1918   4.972   2.018   4.198
  340SOL    HW1 1919   5.009   1.975   4.280
  340SOL    HW2 1920   4.982   1.955   4.120
  341SOL     OW 1921   6.790   6.320   3.051
  341SOL    HW1 1922   6.763   6.267   3.132
  341SOL    HW2 1923   6.883   6.355   3.064
  342SOL     OW 1924   5.060   2.090   2.270
  342SOL    HW1 1925   5.042   2.088   2.171
  342SOL    HW2 1926   4.983   2.050   2.319
  343SOL     OW 1927   6.906   6.396   2.794
  343SOL    HW1 1928   6.928   6.394   2.892
  343SOL    HW2 1929   6.831   6.333   2.775
  344SOL     OW 1930   0.836   1.641   0.688
  344SOL    HW1 1931   0.868   1.621   0.781
  344SOL    HW2 1932   0.828   1.740   0.677
  345SOL     OW 1933   6.855   2.988   4.298
  345SOL    HW1 1934   6.796   2.965   4.375
  345SOL    HW2 1935   6.807   3.049   4.235
  346SOL     OW 1936   2.234   6.633   3.688
  346SOL    HW1 1937   2.149   6.590   3.660
  346SOL    HW2 1938   2.228   6.732   3.674
  347SOL     OW 1939   2.249   4.690   0.759
  347SOL    HW1 1940   2.207   4.779   0.737
  347SOL    HW2 1941   2.191   4.617   0.724
  348SOL     OW 1942   4.622   5.505   1.727
  348SOL    HW1 1943   4.610   5.419   1.777
  348SOL    HW2 1944   4.562   5.506   1.647
  349SOL     OW 1945   5.660   4.194   1.042
  349SOL    HW1 1946   5.673   4.145   0.955
  349SOL    HW2 1947   5.734   4.171   1.104
  350SOL     OW 1948   3.649   2.885   0.363
  350SOL    HW1 1949   3.733   2.833   0.376
  350SOL    HW2 1950   3.635   2.904   0.266
  351SOL     OW 1951   3.200   4.670   1.068
  351SOL    HW1 1952   3.237   4.619   1.146
  351SOL    HW2 1953   3.219   4.619   0.984
  352SOL     OW 1954   4.499   0.379   2.490
  352SOL    HW1 1955   4.576   0.441   2.478
  352SOL    HW2 1956   4.453   0.397   2.576
  353SOL     OW 1957   1.639   0.178   6.529
  353SOL    HW1 1958   1.623   0.177   6.430
  353SOL    HW2 1959   1.729   0.218   6.547
  354SOL     OW 1960   0.264   2.121   0.119
  354SOL    HW1 1961   0.222   2.066   0.191
  354SOL    HW2 1962   0.307   2.061   0.052
  355SOL     OW 1963   1.295   2.014   2.892
  355SOL    HW1 1964   1.247   2.096   2.924
  355SOL    HW2 1965   1.239   1.967   2.824
  356SOL     OW 1966   1.997   0.913   5.753
  356SOL    HW1 1967   1.932   0.866   5.694
  356SOL    HW2 1968   2.080   0.857   5.764
  357SOL     OW 1969   5.064   0.438   4.998
  357SOL    HW1 1970   5.124   0.424   5.076
  357SOL    HW2 1971   5.066   0.357   4.939
  358SOL     OW 1972   3.570   5.892   6.614
  358SOL    HW1 1973   3.535   5.884   6.520
  358SOL    HW2 1974   3.494   5.912   6.676
  359SOL     OW 1975   2.109   2.178   2.336
  359SOL    HW1 1976   2.194   2.129   2.316
  359SOL    HW2 1977   2.125   2.244   2.409
  360SOL     OW 1978   0.793   4.715   4.137
  360SOL    HW1 1979   0.709   4.722   4.083
  360SOL    HW2 1980   0.836   4.626   4.120
  361SOL     OW 1981   6.658   2.057   2.945
  361SOL    HW1 1982   6.686   2.146   2.910
  361SOL    HW2 1983   6.736   1.994   2.942
  362SOL     OW 1984   3.823   4.047   0.662
  362SOL    HW1 1985   3.766   3.989   0.605
  362SOL    HW2 1986   3.883   4.103   0.603
  363SOL     OW 1987   5.290   5.499   1.553
  363SOL    HW1 1988   5.347   5.469   1.477
  363SOL    HW2 1989   5.204   5.534   1.518
  364SOL     OW 1990   0.943   6.781   6.340
  364SOL    HW1 1991   0.963   6.858   6.400
  364SOL    HW2 1992   0.847   6.757   6.348
  365SOL     OW 1993   4.771   2.024   3.432
  365SOL    HW1 1994   4.862   1.985   3.448
  365SOL    HW2 1995   4.715   1.959   3.381
  366SOL     OW 1996   5.415   1.330   6.832
  366SOL    HW1 1997   5.319   1.336   6.860
  366SOL    HW2 1998   5.472   1.315   6.913
  367SOL     OW 1999   5.749   1.517   6.215
  367SOL    HW1 2000   5.801   1.470   6.286
  367SOL    HW2 2001   5.724   1.452   6.143
  368SOL     OW 2002   6.949   2.131   5.621
  368SOL    HW1 2003   6.891   2.107   5.698
  368SOL    HW2 2004   0.005   2.185   5.653
  369SOL     OW 2005   6.857   3.656   1.661
  369SOL    HW1 2006   6.821   3.746   1.637
  369SOL    HW2 2007   6.802   3.585   1.617
  370SOL     OW 2008   1.397   3.130   3.936
  370SOL    HW1 2009   1.424   3.034   3.932
  370SOL    HW2 2010   1.298   3.137   3.929
  371SOL     OW 2011   0.834   4.569   6.870
  371SOL    HW1 2012   0.896   4.501   6.908
  371SOL    HW2 2013   0.885   4.653   6.849
  372SOL     OW 2014   3.951   6.085   6.171
  372SOL    HW1 2015   3.981   6.163   6.226
  372SOL    HW2 2016   3.898   6.022   6.229
  373SOL     OW 2017   5.809   5.245   3.781
  373SOL    HW1 2018   5.887   5.291   3.822
  373SOL    HW2 2019   5.833   5.212   3.690
  374SOL     OW 2020   2.760   1.528   2.889
  374SOL    HW1 2021   2.699   1.474   2.831
  374SOL    HW2 2022   2.759   1.623   2.859
  375SOL     OW 2023   1.381   5.155   4.535
  375SOL    HW1 2024   1.312   5.084   4.555
  375SOL    HW2 2025   1.402   5.153   4.437
  376SOL     OW 2026   2.935   1.146   3.703
  376SOL    HW1 2027   3.013   1.161   3.764
  376SOL    HW2 2028   2.968   1.138   3.608
  377SOL     OW 2029   1.265   1.617   6.860
  377SOL    HW1 2030   1.225   1.637   6.949
  377SOL    HW2 2031   1.198   1.637   6.788
  378SOL     OW 2032   4.213   0.865   2.089
  378SOL    HW1 2033   4.262   0.952   2.090
  378SOL    HW2 2034   4.280   0.790   2.085
  379SOL     OW 2035   5.680   1.783   6.251
  379SOL    HW1 2036   5.702   1.830   6.165
  379SOL    HW2 2037   5.699   1.686   6.241
  380SOL     OW 2038   4.218   2.827   0.094
  380SOL    HW1 2039   4.151   2.866   0.031
  380SOL    HW2 2040   4.197   2.858   0.187
  381SOL     OW 2041   1.845   3.628   3.339
  381SOL    HW1 2042   1.938   3.650   3.311
  381SOL    HW2 2043   1.798   3.712   3.366
  382SOL     OW 2044   4.554   0.629   0.054
  382SOL    HW1 2045   4.614   0.649   6.999
  382SOL    HW2 2046   4.597   0.661   0.139
  383SOL     OW 2047   5.377   1.930   0.868
  383SOL    HW1 2048   5.290   1.891   0.896
  383SOL    HW2 2049   5.361   2.015   0.817
  384SOL     OW 2050   6.281   3.811   4.779
  384SOL    HW1 2051   6.296   3.909   4.782
  384SOL    HW2 2052   6.304   3.772   4.869
  385SOL     OW 2053   4.252   3.452   0.107
  385SOL    HW1 2054   4.275   3.442   0.204
  385SOL    HW2 2055   4.327   3.500   0.060
  386SOL     OW 2056   3.869   6.149   3.414
  386SOL    HW1 2057   3.831   6.067   3.372
  386SOL    HW2 2058   3.948   6.180   3.360
  387SOL     OW 2059   3.197   6.553   3.327
  387SOL    HW1 2060   3.193   6.508   3.416
  387SOL    HW2 2061   3.156   6.494   3.258
  388SOL     OW 2062   1.574   4.383   6.982
  388SOL    HW1 2063   1.497   4.396   0.022
  388SOL    HW2 2064   1.593   4.469   6.934
  389SOL     OW 2065   2.934   3.408   3.022
  389SOL    HW1 2066   2.940   3.507   3.012
  389SOL    HW2 2067   3.022   3.367   2.999
  390SOL     OW 2068   2.095   1.169   3.877
  390SOL    HW1 2069   2.194   1.167   3.888
  390SOL    HW2 2070   2.067   1.103   3.807
  391SOL     OW 2071   0.659   2.963   6.903
  391SOL    HW1 2072   0.667   2.866   6.927
  391SOL    HW2 2073   0.704   2.979   6.816
  392SOL     OW 2074   2.957   5.688   2.669
  392SOL    HW1 2075   2.983   5.694   2.573
  392SOL    HW2 2076   2.861   5.716   2.679
  393SOL     OW 2077   5.494   4.413   4.955
  393SOL    HW1 2078   5.447   4.333   4.991
  393SOL    HW2 2079   5.592   4.393   4.947
  394SOL     OW 2080   2.364   0.467   6.687
  394SOL    HW1 2081   2.268   0.486   6.709
  394SOL    HW2 2082   2.400   0.538   6.627
  395SOL     OW 2083   6.317   3.287   0.994
  395SOL    HW1 2084   6.243   3.242   0.943
  395SOL    HW2 2085   6.404   3.270   0.949
  396SOL     OW 2086   2.880   3.513   4.434
  396SOL    HW1 2087   2.899   3.444   4.503
  396SOL    HW2 2088   2.842   3.595   4.477
  397SOL     OW 2089   4.396   2.335   6.415
  397SOL    HW1 2090   4.450   2.322   6.332
  397SOL    HW2 2091   4.454   2.316   6.495
  398SOL     OW 2092   1.023   5.179   1.762
  398SOL    HW1 2093   1.046   5.244   1.689
  398SOL    HW2 2094   0.951   5.219   1.820
  399SOL     OW 2095   5.231   5.145   1.984
  399SOL    HW1 2096   5.154   5.095   1.946
  399SOL    HW2 2097   5.304   5.152   1.916
  400SOL     OW 2098   1.322   5.549   5.664
  400SOL    HW1 2099   1.383   5.627   5.651
  400SOL    HW2 2100   1.342   5.505   5.752
  401SOL     OW 2101   5.383   1.491   6.463
  401SOL    HW1 2102   5.329   1.409   6.487
  401SOL    HW2 2103   5.376   1.557   6.537
  402SOL     OW 2104   5.893   5.055   1.146
  402SOL    HW1 2105   5.917   5.118   1.072
  402SOL    HW2 2106   5.966   5.057   1.215
  403SOL     OW 2107   4.999   3.232   6.302
  403SOL    HW1 2108   4.997   3.209   6.399
  403SOL    HW2 2109   4.921   3.189   6.256
  404SOL     OW 2110   0.183   0.340   4.676
  404SOL    HW1 2111   0.124   0.409   4.636
  404SOL    HW2 2112   0.162   0.250   4.638
  405SOL     OW 2113   0.692   2.483   0.311
  405SOL    HW1 2114   0.606   2.473   0.361
  405SOL    HW2 2115   0.747   2.556   0.354
  406SOL     OW 2116   1.657   3.220   3.921
  406SOL    HW1 2117   1.714   3.138   3.928
  406SOL    HW2 2118   1.561   3.196   3.929
  407SOL     OW 2119   2.533   0.617   4.599
  407SOL    HW1 2120   2.592   0.678   4.546
  407SOL    HW2 2121   2.441   0.617   4.560
  408SOL     OW 2122   1.871   0.243   3.071
  408SOL    HW1 2123   1.913   0.153   3.087
  408SOL    HW2 2124   1.802   0.235   3.000
  409SOL     OW 2125   6.657   3.609   3.774
  409SOL    HW1 2126   6.656   3.567   3.865
  409SOL    HW2 2127   6.605   3.695   3.777
  410SOL     OW 2128   2.568   1.435   6.472
  410SOL    HW1 2129   2.480   1.399   6.441
  410SOL    HW2 2130   2.553   1.498   6.549
  411SOL     OW 2131   6.453   4.361   5.446
  411SOL    HW1 2132   6.354   4.353   5.434
  411SOL    HW2 2133   6.491   4.271   5.468
  412SOL     OW 2134   3.306   0.220   2.718
  412SOL    HW1 2135   3.322   0.316   2.742
  412SOL    HW2 2136   3.266   0.172   2.796
  413SOL     OW 2137   2.508   6.776   0.918
  413SOL    HW1 2138   2.447   6.707   0.958
  413SOL    HW2 2139   2.466   6.812   0.834
  414SOL     OW 2140   4.032   4.125   0.497
  414SOL    HW1 2141   4.044   4.084   0.407
  414SOL    HW2 2142   4.112   4.105   0.554
  415SOL     OW 2143   2.891   6.388   1.538
  415SOL    HW1 2144   2.858   6.436   1.456
  415SOL    HW2 2145   2.831   6.410   1.615
  416SOL     OW 2146   3.873   6.077   4.853
  416SOL    HW1 2147   3.807   6.107   4.922
  416SOL    HW2 2148   3.900   5.983   4.871
  417SOL     OW 2149   4.878   5.810   1.164
  417SOL    HW1 2150   4.870   5.909   1.164
  417SOL    HW2 2151   4.919   5.779   1.250
  418SOL     OW 2152   5.396   5.072   1.126
  418SOL    HW1 2153   5.338   5.121   1.060
  418SOL    HW2 2154   5.413   4.979   1.092
  419SOL     OW 2155   6.238   6.726   1.302
  419SOL    HW1 2156   6.277   6.805   1.256
  419SOL    HW2 2157   6.173   6.680   1.242
  420SOL     OW 2158   4.538   4.855   0.276
  420SOL    HW1 2159   4.473   4.783   0.302
  420SOL    HW2 2160   4.489   4.942   0.266
  421SOL     OW 2161   1.941   6.132   6.242
  421SOL    HW1 2162   1.936   6.170   6.335
  421SOL    HW2 2163   1.851   6.098   6.215
  422SOL     OW 2164   5.619   3.750   6.706
  422SOL    HW1 2165   5.714   3.764   6.678
  422SOL    HW2 2166   5.565   3.719   6.628
  423SOL     OW 2167   0.374   2.839   6.857
  423SOL    HW1 2168   0.443   2.805   6.792
  423SOL    HW2 2169   0.317   2.907   6.810
  424SOL     OW 2170   2.510   3.769   0.142
  424SOL    HW1 2171   2.454   3.686   0.140
  424SOL    HW2 2172   2.604   3.745   0.167
  425SOL     OW 2173   3.098   1.539   0.560
  425SOL    HW1 2174   3.149   1.491   0.489
  425SOL    HW2 2175   3.025   1.480   0.595
  426SOL     OW 2176   5.569   4.075   5.744
  426SOL    HW1 2177   5.557   3.980   5.716
  426SOL    HW2 2178   5.666   4.095   5.755
  427SOL     OW 2179   5.124   3.907   0.776
  427SOL    HW1 2180   5.096   3.968   0.850
  427SOL    HW2 2181   5.083   3.939   0.690
  428SOL     OW 2182   3.744   1.144   5.032
  428SOL    HW1 2183   3.781   1.052   5.036
  428SOL    HW2 2184   3.650   1.141   4.998
  429SOL     OW 2185   1.526   5.160   6.784
  429SOL    HW1 2186   1.463   5.221   6.830
  429SOL    HW2 2187   1.614   5.159   6.832
  430SOL     OW 2188   1.350   0.519   5.210
  430SOL    HW1 2189   1.438   0.529   5.256
  430SOL    HW2 2190   1.357   0.557   5.117
  431SOL     OW 2191   3.850   1.821   0.590
  431SOL    HW1 2192   3.755   1.852   0.596
  431SOL    HW2 2193   3.861   1.738   0.645
  432SOL     OW 2194   0.286   1.760   1.168
  432SOL    HW1 2195   0.354   1.742   1.238
  432SOL    HW2 2196   0.209   1.697   1.178
  433SOL     OW 2197   3.353   6.837   5.287
  433SOL    HW1 2198   3.374   6.793   5.374
  433SOL    HW2 2199   3.370   6.773   5.212
  434SOL     OW 2200   0.127   3.677   1.426
  434SOL    HW1 2201   0.077   3.737   1.488
  434SOL    HW2 2202   0.202   3.727   1.384
  435SOL     OW 2203   3.780   4.373   6.923
  435SOL    HW1 2204   3.723   4.344   6.999
  435SOL    HW2 2205   3.763   4.313   6.844
  436SOL     OW 2206   1.858   1.126   0.035
  436SOL    HW1 2207   1.914   1.149   0.115
  436SOL    HW2 2208   1.776   1.077   0.064
  437SOL     OW 2209   6.637   6.888   6.704
  437SOL    HW1 2210   6.585   6.899   6.789
  437SOL    HW2 2211   6.594   6.941   6.631
  438SOL     OW 2212   1.334   3.066   1.995
  438SOL    HW1 2213   1.260   3.027   2.050
  438SOL    HW2 2214   1.298   3.092   1.905
  439SOL     OW 2215   6.851   5.003   3.076
  439SOL    HW1 2216   6.894   4.918   3.045
  439SOL    HW2 2217   6.782   4.982   3.144
  440SOL     OW 2218   1.211   2.579   4.000
  440SOL    HW1 2219   1.188   2.543   4.091
  440SOL    HW2 2220   1.198   2.507   3.932
  441SOL     OW 2221   0.744   1.686   3.636
  441SOL    HW1 2222   0.714   1.771   3.679
  441SOL    HW2 2223   0.837   1.698   3.600
  442SOL     OW 2224   0.062   3.769   0.100
  442SOL    HW1 2225   0.009   3.697   0.054
  442SOL    HW2 2226   0.015   3.797   0.183
  443SOL     OW 2227   0.377   3.967   5.425
  443SOL    HW1 2228   0.319   4.023   5.366
  443SOL    HW2 2229   0.429   3.903   5.369
  444SOL     OW 2230   4.351   3.132   6.512
  444SOL    HW1 2231   4.307   3.043   6.522
  444SOL    HW2 2232   4.320   3.175   6.427
  445SOL     OW 2233   2.241   4.240   3.089
  445SOL    HW1 2234   2.197   4.221   3.001
  445SOL    HW2 2235   2.324   4.294   3.073
  446SOL     OW 2236   4.641   4.895   4.073
  446SOL    HW1 2237   4.607   4.934   3.987
  446SOL    HW2 2238   4.586   4.929   4.149
  447SOL     OW 2239   6.702   5.270   0.709
  447SOL    HW1 2240   6.665   5.178   0.696
  447SOL    HW2 2241   6.802   5.267   0.700
  448SOL     OW 2242   4.153   0.975   5.074
  448SOL    HW1 2243   4.237   0.960   5.127
  448SOL    HW2 2244   4.164   0.934   4.983
  449SOL     OW 2245   5.225   0.404   4.671
  449SOL    HW1 2246   5.176   0.336   4.726
  449SOL    HW2 2247   5.258   0.477   4.730
  450SOL     OW 2248   0.112   6.335   3.686
  450SOL    HW1 2249   0.167   6.406   3.642
  450SOL    HW2 2250   0.068   6.279   3.617
  451SOL     OW 2251   0.703   2.435   2.907
  451SOL    HW1 2252   0.674   2.343   2.931
  451SOL    HW2 2253   0.667   2.500   2.975
  452SOL     OW 2254   0.005   4.721   6.570
  452SOL    HW1 2255   6.978   4.766   6.495
  452SOL    HW2 2256   7.017   4.775   6.654
  453SOL     OW 2257   2.951   1.285   6.357
  453SOL    HW1 2258   2.882   1.239   6.412
  453SOL    HW2 2259   3.025   1.317   6.416
  454SOL     OW 2260   1.145   6.215   6.628
  454SOL    HW1 2261   1.097   6.175   6.550
  454SOL    HW2 2262   1.182   6.304   6.602
  455SOL     OW 2263   4.986   0.937   5.399
  455SOL    HW1 2264   4.927   1.017   5.409
  455SOL    HW2 2265   4.978   0.900   5.307
  456SOL     OW 2266   4.601   5.945   6.143
  456SOL    HW1 2267   4.624   6.038   6.113
  456SOL    HW2 2268   4.529   5.950   6.212
  457SOL     OW 2269   2.159   4.876   3.109
  457SOL    HW1 2270   2.249   4.906   3.077
  457SOL    HW2 2271   2.092   4.949   3.093
  458SOL     OW 2272   6.276   5.286   5.653
  458SOL    HW1 2273   6.230   5.281   5.565
  458SOL    HW2 2274   6.214   5.254   5.725
  459SOL     OW 2275   1.906   0.778   2.803
  459SOL    HW1 2276   1.980   0.712   2.791
  459SOL    HW2 2277   1.940   0.860   2.848
  460SOL     OW 2278   6.900   1.931   2.944
  460SOL    HW1 2279   6.965   1.968   2.877
  460SOL    HW2 2280   6.951   1.890   3.020
  461SOL     OW 2281   4.535   6.247   5.280
  461SOL    HW1 2282   4.579   6.167   5.238
  461SOL    HW2 2283   4.587   6.276   5.360
  462SOL     OW 2284   3.209   3.009   6.710
  462SOL    HW1 2285   3.278   2.984   6.642
  462SOL    HW2 2286   3.236   3.094   6.754
  463SOL     OW 2287   6.714   5.090   2.230
  463SOL    HW1 2288   6.692   5.062   2.324
  463SOL    HW2 2289   6.673   5.179   2.211
  464SOL     OW 2290   1.882   1.449   5.893
  464SOL    HW1 2291   1.855   1.491   5.807
  464SOL    HW2 2292   1.882   1.518   5.966
  465SOL     OW 2293   6.668   2.578   4.036
  465SOL    HW1 2294   6.642   2.613   3.946
  465SOL    HW2 2295   6.758   2.615   4.062
  466SOL     OW 2296   1.305   6.821   4.069
  466SOL    HW1 2297   1.377   6.883   4.097
  466SOL    HW2 2298   1.338   6.726   4.075
  467SOL     OW 2299   1.495   0.884   5.458
  467SOL    HW1 2300   1.468   0.891   5.362
  467SOL    HW2 2301   1.419   0.846   5.511
  468SOL     OW 2302   3.565   4.561   1.140
  468SOL    HW1 2303   3.557   4.492   1.212
  468SOL    HW2 2304   3.537   4.650   1.176
  469SOL     OW 2305   2.062   5.583   6.826
  469SOL    HW1 2306   2.023   5.498   6.792
  469SOL    HW2 2307   2.035   5.659   6.767
  470SOL     OW 2308   4.168   0.335   2.554
  470SOL    HW1 2309   4.176   0.376   2.463
  470SOL    HW2 2310   4.246   0.363   2.610
  471SOL     OW 2311   2.181   2.787   4.784
  471SOL    HW1 2312   2.197   2.886   4.790
  471SOL    HW2 2313   2.230   2.750   4.705
  472SOL     OW 2314   3.973   5.424   5.847
  472SOL    HW1 2315   3.953   5.470   5.933
  472SOL    HW2 2316   3.958   5.325   5.858
  473SOL     OW 2317   1.549   3.246   2.913
  473SOL    HW1 2318   1.477   3.256   2.982
  473SOL    HW2 2319   1.518   3.283   2.826
  474SOL     OW 2320   4.259   5.041   4.627
  474SOL    HW1 2321   4.350   5.066   4.593
  474SOL    HW2 2322   4.192   5.108   4.596
  475SOL     OW 2323   6.904   6.775   6.268
  475SOL    HW1 2324   6.897   6.767   6.169
  475SOL    HW2 2325   6.898   6.872   6.294
  476SOL     OW 2326   6.656   4.423   2.470
  476SOL    HW1 2327   6.619   4.386   2.555
  476SOL    HW2 2328   6.731   4.365   2.438
  477SOL     OW 2329   2.161   5.211   3.621
  477SOL    HW1 2330   2.227   5.157   3.568
  477SOL    HW2 2331   2.093   5.250   3.559
  478SOL     OW 2332   3.579   5.394   3.873
  478SOL    HW1 2333   3.558   5.394   3.775
  478SOL    HW2 2334   3.627   5.478   3.897
  479SOL     OW 2335   3.588   2.679   0.817
  479SOL    HW1 2336   3.677   2.672   0.771
  479SOL    HW2 2337   3.602   2.685   0.916
  480SOL     OW 2338   0.673   6.864   2.217
  480SOL    HW1 2339   0.683   6.817   2.304
  480SOL    HW2 2340   0.577   6.889   2.203
  481SOL     OW 2341   3.862   0.188   1.435
  481SOL    HW1 2342   3.791   0.258   1.441
  481SOL    HW2 2343   3.850   0.122   1.510
  482SOL     OW 2344   5.763   4.317   2.520
  482SOL    HW1 2345   5.810   4.270   2.446
  482SOL    HW2 2346   5.681   4.361   2.485
  483SOL     OW 2347   5.726   1.983   2.272
  483SOL    HW1 2348   5.785   1.907   2.247
  483SOL    HW2 2349   5.735   2.057   2.205
  484SOL     OW 2350   0.454   2.869   4.534
  484SOL    HW1 2351   0.542   2.912   4.511
  484SOL    HW2 2352   0.423   2.905   4.622
  485SOL     OW 2353   3.332   5.258   2.065
  485SOL    HW1 2354   3.260   5.189   2.068
  485SOL    HW2 2355   3.400   5.232   1.997
  486SOL     OW 2356   0.835   0.124   0.614
  486SOL    HW1 2357   0.760   0.183   0.586
  486SOL    HW2 2358   0.816   0.085   0.704
  487SOL     OW 2359   0.226   2.623   6.936
  487SOL    HW1 2360   0.300   2.581   6.989
  487SOL    HW2 2361   0.253   2.716   6.909
  488SOL     OW 2362   0.194   2.184   2.072
  488SOL    HW1 2363   0.277   2.224   2.111
  488SOL    HW2 2364   0.119   2.250   2.078
  489SOL     OW 2365   3.137   5.780   6.660
  489SOL    HW1 2366   3.051   5.751   6.703
  489SOL    HW2 2367   3.136   5.879   6.648
  490SOL     OW 2368   6.071   6.357   4.272
  490SOL    HW1 2369   6.104   6.362   4.178
  490SOL    HW2 2370   5.975   6.386   4.276
  491SOL     OW 2371   1.105   2.784   2.268
  491SOL    HW1 2372   1.104   2.816   2.173
  491SOL    HW2 2373   1.035   2.713   2.281
  492SOL     OW 2374   2.066   0.290   5.690
  492SOL    HW1 2375   2.144   0.255   5.637
  492SOL    HW2 2376   1.986   0.233   5.673
  493SOL     OW 2377   6.172   4.345   5.359
  493SOL    HW1 2378   6.134   4.438   5.367
  493SOL    HW2 2379   6.233   4.341   5.280
  494SOL     OW 2380   0.303   0.117   0.715
  494SOL    HW1 2381   0.315   0.215   0.694
  494SOL    HW2 2382   0.371   0.064   0.664
  495SOL     OW 2383   4.971   4.573   1.557
  495SOL    HW1 2384   4.992   4.562   1.654
  495SOL    HW2 2385   4.981   4.485   1.510
  496SOL     OW 2386   5.517   3.361   2.893
  496SOL    HW1 2387   5.480   3.271   2.912
  496SOL    HW2 2388   5.553   3.364   2.800
  497SOL     OW 2389   3.698   0.895   4.800
  497SOL    HW1 2390   3.744   0.845   4.873
  497SOL    HW2 2391   3.761   0.963   4.762
  498SOL     OW 2392   0.726   2.937   2.913
  498SOL    HW1 2393   0.661   2.961   2.986
  498SOL    HW2 2394   0.732   3.012   2.848
  499SOL     OW 2395   3.419   0.971   5.159
  499SOL    HW1 2396   3.320   0.959   5.147
  499SOL    HW2 2397   3.460   0.999   5.072
  500SOL     OW 2398   1.077   3.535   2.887
  500SOL    HW1 2399   1.002   3.573   2.940
  500SOL    HW2 2400   1.045   3.456   2.834
  501SOL     OW 2401   1.460   2.845   6.996
  501SOL    HW1 2402   1.529   2.799   0.029
  501SOL    HW2 2403   1.394   2.778   6.963
  502SOL     OW 2404   4.274   5.067   0.013
  502SOL    HW1 2405   4.211   5.144   0.017
  502SOL    HW2 2406   4.257   5.015   6.951
  503SOL     OW 2407   5.812   4.563   5.485
  503SOL    HW1 2408   5.741   4.633   5.486
  503SOL    HW2 2409   5.865   4.568   5.569
  504SOL     OW 2410   2.242   6.568   4.268
  504SOL    HW1 2411   2.243   6.627   4.187
  504SOL    HW2 2412   2.153   6.575   4.313
  505SOL     OW 2413   4.262   0.118   5.638
  505SOL    HW1 2414   4.192   0.061   5.682
  505SOL    HW2 2415   4.230   0.146   5.548
  506SOL     OW 2416   2.018   4.324   5.520
  506SOL    HW1 2417   1.963   4.307   5.602
  506SOL    HW2 2418   2.101   4.268   5.524
  507SOL     OW 2419   3.234   0.441   4.980
  507SOL    HW1 2420   3.175   0.368   4.945
  507SOL    HW2 2421   3.252   0.426   5.077
  508SOL     OW 2422   6.650   3.968   3.345
  508SOL    HW1 2423   6.564   4.015   3.328
  508SOL    HW2 2424   6.634   3.870   3.358
  509SOL     OW 2425   4.810   1.539   1.854
  509SOL    HW1 2426   4.763   1.604   1.794
  509SOL    HW2 2427   4.867   1.478   1.799
  510SOL     OW 2428   6.813   4.640   4.743
  510SOL    HW1 2429   6.783   4.687   4.826
  510SOL    HW2 2430   6.863   4.705   4.685
  511SOL     OW 2431   0.737   6.508   0.156
  511SOL    HW1 2432   0.791   6.426   0.174
  511SOL    HW2 2433   0.658   6.485   0.100
  512SOL     OW 2434   1.157   4.085   6.429
  512SOL    HW1 2435   1.154   4.018   6.355
  512SOL    HW2 2436   1.198   4.170   6.395
  513SOL     OW 2437   6.585   5.951   4.270
  513SOL    HW1 2438   6.674   5.935   4.228
  513SOL    HW2 2439   6.587   5.921   4.365
  514SOL     OW 2440   6.291   2.127   4.264
  514SOL    HW1 2441   6.193   2.144   4.248
  514SOL    HW2 2442   6.316   2.161   4.355
  515SOL     OW 2443   1.811   6.454   6.000
  515SOL    HW1 2444   1.748   6.413   5.934
  515SOL    HW2 2445   1.772   6.539   6.035
  516SOL     OW 2446   2.442   4.934   1.890
  516SOL    HW1 2447   2.371   4.972   1.948
  516SOL    HW2 2448   2.480   5.006   1.832
  517SOL     OW 2449   4.474   6.986   1.354
  517SOL    HW1 2450   4.456   0.056   1.389
  517SOL    HW2 2451   4.419   6.971   1.272
  518SOL     OW 2452   2.422   2.622   1.554
  518SOL    HW1 2453   2.505   2.629   1.609
  518SOL    HW2 2454   2.402   2.526   1.536
  519SOL     OW 2455   0.149   0.034   5.967
  519SOL    HW1 2456   0.125   7.005   5.885
  519SOL    HW2 2457   0.074   0.097   5.991
  520SOL     OW 2458   5.462   4.854   5.823
  520SOL    HW1 2459   5.436   4.764   5.788
  520SOL    HW2 2460   5.406   4.877   5.903
  521SOL     OW 2461   6.852   1.752   0.191
  521SOL    HW1 2462   6.898   1.827   0.143
  521SOL    HW2 2463   6.846   1.672   0.132
  522SOL     OW 2464   4.131   3.385   3.913
  522SOL    HW1 2465   4.092   3.305   3.867
  522SOL    HW2 2466   4.139   3.460   3.848
  523SOL     OW 2467   6.706   6.873   4.625
  523SOL    HW1 2468   6.711   6.783   4.581
  523SOL    HW2 2469   6.709   6.862   4.724
  524SOL     OW 2470   2.647   1.098   6.052
  524SOL    HW1 2471   2.556   1.067   6.078
  524SOL    HW2 2472   2.647   1.126   5.956
  525SOL     OW 2473   2.697   4.219   6.795
  525SOL    HW1 2474   2.650   4.160   6.861
  525SOL    HW2 2475   2.778   4.173   6.761
  526SOL     OW 2476   3.428   5.858   4.761
  526SOL    HW1 2477   3.446   5.843   4.858
  526SOL    HW2 2478   3.512   5.843   4.709
  527SOL     OW 2479   6.991   1.051   0.099
  527SOL    HW1 2480   6.984   0.975   0.034
  527SOL    HW2 2481   0.041   1.113   0.068
  528SOL     OW 2482   2.064   1.502   5.108
  528SOL    HW1 2483   2.140   1.566   5.102
  528SOL    HW2 2484   2.045   1.483   5.205
  529SOL     OW 2485   1.437   5.138   4.254
  529SOL    HW1 2486   1.471   5.055   4.210
  529SOL    HW2 2487   1.356   5.171   4.205
  530SOL     OW 2488   2.304   3.185   5.476
  530SOL    HW1 2489   2.313   3.252   5.402
  530SOL    HW2 2490   2.334   3.095   5.444
  531SOL     OW 2491   1.015   0.234   1.130
  531SOL    HW1 2492   1.039   0.169   1.058
  531SOL    HW2 2493   1.040   0.195   1.219
  532SOL     OW 2494   0.969   1.532   5.464
  532SOL    HW1 2495   1.059   1.561   5.494
  532SOL    HW2 2496   0.975   1.441   5.422
  533SOL     OW 2497   5.335   0.094   4.727
  533SOL    HW1 2498   5.359   0.177   4.676
  533SOL    HW2 2499   5.347   0.014   4.668
  534SOL     OW 2500   4.814   5.185   2.317
  534SOL    HW1 2501   4.752   5.119   2.275
  534SOL    HW2 2502   4.852   5.245   2.247
  535SOL     OW 2503   0.380   3.675   3.537
  535SOL    HW1 2504   0.304   3.621   3.575
  535SOL    HW2 2505   0.397   3.647   3.443
  536SOL     OW 2506   1.914   5.458   1.296
  536SOL    HW1 2507   1.976   5.440   1.220
  536SOL    HW2 2508   1.895   5.556   1.302
  537SOL     OW 2509   2.337   0.120   2.354
  537SOL    HW1 2510   2.360   0.216   2.366
  537SOL    HW2 2511   2.390   0.065   2.418
  538SOL     OW 2512   0.858   6.125   3.149
  538SOL    HW1 2513   0.848   6.214   3.105
  538SOL    HW2 2514   0.863   6.053   3.079
  539SOL     OW 2515   1.859   4.962   1.794
  539SOL    HW1 2516   1.853   5.001   1.702
  539SOL    HW2 2517   1.951   4.924   1.808
  540SOL     OW 2518   2.031   2.330   2.563
  540SOL    HW1 2519   1.937   2.303   2.548
  540SOL    HW2 2520   2.040   2.429   2.552
  541SOL     OW 2521   2.818   5.658   5.747
  541SOL    HW1 2522   2.794   5.652   5.650
  541SOL    HW2 2523   2.901   5.605   5.764
  542SOL     OW 2524   6.108   5.362   6.786
  542SOL    HW1 2525   6.114   5.396   6.692
  542SOL    HW2 2526   6.153   5.426   6.848
  543SOL     OW 2527   1.197   4.858   6.985
  543SOL    HW1 2528   1.200   4.892   6.891
  543SOL    HW2 2529   1.166   4.763   6.986
  544SOL     OW 2530   0.988   4.630   0.718
  544SOL    HW1 2531   0.995   4.530   0.722
  544SOL    HW2 2532   0.893   4.656   0.704
  545SOL     OW 2533   3.816   1.202   2.776
  545SOL    HW1 2534   3.759   1.269   2.727
  545SOL    HW2 2535   3.790   1.110   2.748
  546SOL     OW 2536   1.820   3.551   0.414
  546SOL    HW1 2537   1.828   3.453   0.395
  546SOL    HW2 2538   1.743   3.567   0.476
  547SOL     OW 2539   2.717   3.580   0.244
  547SOL    HW1 2540   2.791   3.638   0.278
  547SOL    HW2 2541   2.752   3.519   0.173
  548SOL     OW 2542   3.378   2.924   4.206
  548SOL    HW1 2543   3.280   2.941   4.200
  548SOL    HW2 2544   3.426   2.976   4.135
  549SOL     OW 2545   5.870   3.616   1.536
  549SOL    HW1 2546   5.858   3.569   1.448
  549SOL    HW2 2547   5.955   3.583   1.579
  550SOL     OW 2548   0.092   4.198   2.191
  550SOL    HW1 2549   0.176   4.163   2.232
  550SOL    HW2 2550   0.062   4.137   2.118
  551SOL     OW 2551   6.725   2.124   0.763
  551SOL    HW1 2552   6.676   2.063   0.825
  551SOL    HW2 2553   6.696   2.218   0.780
  552SOL     OW 2554   3.547   5.906   0.599
  552SOL    HW1 2555   3.636   5.943   0.572
  552SOL    HW2 2556   3.474   5.961   0.559
  553SOL     OW 2557   1.937   1.326   1.596
  553SOL    HW1 2558   1.864   1.340   1.663
  553SOL    HW2 2559   1.954   1.412   1.547
  554SOL     OW 2560   5.551   6.286   5.299
  554SOL    HW1 2561   5.504   6.374   5.308
  554SOL    HW2 2562   5.484   6.212   5.310
  555SOL     OW 2563   1.302   4.651   4.148
  555SOL    HW1 2564   1.295   4.608   4.238
  555SOL    HW2 2565   1.216   4.698   4.127
  556SOL     OW 2566   5.616   2.717   4.067
  556SOL    HW1 2567   5.583   2.663   3.989
  556SOL    HW2 2568   5.607   2.814   4.047
  557SOL     OW 2569   0.385   6.549   5.685
  557SOL    HW1 2570   0.402   6.505   5.772
  557SOL    HW2 2571   0.403   6.485   5.610
  558SOL     OW 2572   4.059   4.062   5.284
  558SOL    HW1 2573   3.969   4.019   5.286
  558SOL    HW2 2574   4.126   3.999   5.244
  559SOL     OW 2575   0.003   5.990   6.040
  559SOL    HW1 2576   6.944   5.932   6.048
  559SOL    HW2 2577   6.998   6.083   6.019
  560SOL     OW 2578   4.061   0.130   0.152
  560SOL    HW1 2579   4.027   0.038   0.172
  560SOL    HW2 2580   4.059   0.185   0.236
  561SOL     OW 2581   5.250   6.730   0.377
  561SOL    HW1 2582   5.305   6.788   0.438
  561SOL    HW2 2583   5.236   6.640   0.419
  562SOL     OW 2584   5.366   1.454   5.818
  562SOL    HW1 2585   5.365   1.465   5.719
  562SOL    HW2 2586   5.295   1.389   5.845
  563SOL     OW 2587   3.177   6.708   4.165
  563SOL    HW1 2588   3.210   6.711   4.260
  563SOL    HW2 2589   3.082   6.678   4.164
  564SOL     OW 2590   0.174   1.211   6.989
  564SOL    HW1 2591   0.269   1.243   6.987
  564SOL    HW2 2592   0.146   1.185   6.896
  565SOL     OW 2593   4.664   3.961   5.364
  565SOL    HW1 2594   4.568   3.988   5.368
  565SOL    HW2 2595   4.714   3.999   5.442
  566SOL     OW 2596   5.057   4.538   2.568
  566SOL    HW1 2597   5.084   4.634   2.569
  566SOL    HW2 2598   4.974   4.527   2.514
  567SOL     OW 2599   3.477   3.136   4.363
  567SOL    HW1 2600   3.380   3.160   4.355
  567SOL    HW2 2601   3.486   3.036   4.362
  568SOL     OW 2602   2.715   1.622   6.930
  568SOL    HW1 2603   2.814   1.639   6.935
  568SOL    HW2 2604   2.684   1.581   7.016
  569SOL     OW 2605   2.213   2.843   1.117
  569SOL    HW1 2606   2.141   2.840   1.187
  569SOL    HW2 2607   2.292   2.790   1.148
  570SOL     OW 2608   6.794   6.233   1.209
  570SOL    HW1 2609   6.701   6.245   1.244
  570SOL    HW2 2610   6.830   6.145   1.241
  571SOL     OW 2611   4.308   5.322   3.075
  571SOL    HW1 2612   4.292   5.396   3.010
  571SOL    HW2 2613   4.302   5.357   3.168
  572SOL     OW 2614   1.599   3.506   5.097
  572SOL    HW1 2615   1.564   3.594   5.067
  572SOL    HW2 2616   1.681   3.520   5.153
  573SOL     OW 2617   3.981   2.511   5.973
  573SOL    HW1 2618   4.054   2.469   6.026
  573SOL    HW2 2619   3.942   2.445   5.909
  574SOL     OW 2620   2.071   1.172   4.258
  574SOL    HW1 2621   2.007   1.109   4.214
  574SOL    HW2 2622   2.130   1.121   4.321
  575SOL     OW 2623   5.528   2.465   0.122
  575SOL    HW1 2624   5.562   2.465   0.216
  575SOL    HW2 2625   5.590   2.517   0.064
  576SOL     OW 2626   1.159   1.572   2.650
  576SOL    HW1 2627   1.088   1.562   2.580
  576SOL    HW2 2628   1.122   1.625   2.727
  577SOL     OW 2629   3.300   2.079   3.479
  577SOL    HW1 2630   3.368   2.144   3.514
  577SOL    HW2 2631   3.233   2.059   3.551
  578SOL     OW 2632   6.966   3.486   3.930
  578SOL    HW1 2633   7.004   3.509   4.019
  578SOL    HW2 2634   0.017   3.454   3.870
  579SOL     OW 2635   4.632   2.901   6.660
  579SOL    HW1 2636   4.665   2.967   6.728
  579SOL    HW2 2637   4.635   2.809   6.699
  580SOL     OW 2638   1.157   5.562   6.551
  580SOL    HW1 2639   1.225   5.586   6.482
  580SOL    HW2 2640   1.111   5.477   6.524
  581SOL     OW 2641   4.053   3.683   2.980
  581SOL    HW1 2642   4.053   3.609   3.047
  581SOL    HW2 2643   4.093   3.765   3.022
  582SOL     OW 2644   6.097   3.766   2.121
  582SOL    HW1 2645   6.085   3.695   2.052
  582SOL    HW2 2646   6.144   3.845   2.079
  583SOL     OW 2647   2.548   4.775   0.036
  583SOL    HW1 2648   2.492   4.805   6.981
  583SOL    HW2 2649   2.634   4.825   0.037
  584SOL     OW 2650   0.353   4.915   4.828
  584SOL    HW1 2651   0.359   4.865   4.741
  584SOL    HW2 2652   0.446   4.934   4.861
  585SOL     OW 2653   0.137   1.474   0.073
  585SOL    HW1 2654   0.154   1.382   0.035
  585SOL    HW2 2655   0.216   1.532   0.055
  586SOL     OW 2656   2.786   6.488   0.660
  586SOL    HW1 2657   2.870   6.480   0.607
  586SOL    HW2 2658   2.787   6.572   0.714
  587SOL     OW 2659   0.924   2.859   5.309
  587SOL    HW1 2660   0.903   2.781   5.368
  587SOL    HW2 2661   0.968   2.931   5.362
  588SOL     OW 2662   3.307   6.763   1.566
  588SOL    HW1 2663   3.313   6.667   1.537
  588SOL    HW2 2664   3.225   6.776   1.621
  589SOL     OW 2665   4.160   5.000   2.710
  589SOL    HW1 2666   4.256   4.978   2.691
  589SOL    HW2 2667   4.131   4.954   2.793
  590SOL     OW 2668   0.149   1.905   2.079
  590SOL    HW1 2669   0.081   1.886   2.150
  590SOL    HW2 2670   0.152   2.004   2.061
  591SOL     OW 2671   3.696   6.619   3.009
  591SOL    HW1 2672   3.634   6.541   3.018
  591SOL    HW2 2673   3.720   6.654   3.099
  592SOL     OW 2674   5.068   1.036   0.406
  592SOL    HW1 2675   5.036   1.131   0.399
  592SOL    HW2 2676   5.032   0.984   0.329
  593SOL     OW 2677   5.124   1.930   3.609
  593SOL    HW1 2678   5.139   1.983   3.692
  593SOL    HW2 2679   5.181   1.966   3.535
  594SOL     OW 2680   3.890   2.453   1.443
  594SOL    HW1 2681   3.799   2.410   1.441
  594SOL    HW2 2682   3.885   2.543   1.401
  595SOL     OW 2683   3.956   6.883   4.123
  595SOL    HW1 2684   4.021   6.937   4.070
  595SOL    HW2 2685   3.863   6.919   4.108
  596SOL     OW 2686   1.555   4.569   2.874
  596SOL    HW1 2687   1.478   4.511   2.850
  596SOL    HW2 2688   1.542   4.660   2.835
  597SOL     OW 2689   3.786   2.042   5.563
  597SOL    HW1 2690   3.704   2.087   5.598
  597SOL    HW2 2691   3.797   2.063   5.466
  598SOL     OW 2692   3.511   4.562   0.537
  598SOL    HW1 2693   3.550   4.558   0.629
  598SOL    HW2 2694   3.426   4.510   0.535
  599SOL     OW 2695   6.613   6.384   2.759
  599SOL    HW1 2696   6.528   6.399   2.709
  599SOL    HW2 2697   6.593   6.381   2.857
  600SOL     OW 2698   2.225   6.921   6.930
  600SOL    HW1 2699   2.217   7.005   6.983
  600SOL    HW2 2700   2.295   6.932   6.859
  601SOL     OW 2701   3.241   5.373   4.188
  601SOL    HW1 2702   3.208   5.279   4.199
  601SOL    HW2 2703   3.216   5.407   4.098
  602SOL     OW 2704   1.927   0.931   0.901
  602SOL    HW1 2705   1.969   0.869   0.834
  602SOL    HW2 2706   1.839   0.895   0.929
  603SOL     OW 2707   3.885   1.960   3.362
  603SOL    HW1 2708   3.826   2.029   3.319
  603SOL    HW2 2709   3.871   1.962   3.461
  604SOL     OW 2710   0.181   4.175   6.207
  604SOL    HW1 2711   0.085   4.157   6.226
  604SOL    HW2 2712   0.204   4.139   6.116
  605SOL     OW 2713   5.799   0.589   4.603
  605SOL    HW1 2714   5.883   0.549   4.566
  605SOL    HW2 2715   5.720   0.539   4.566
  606SOL     OW 2716   3.543   7.017   3.366
  606SOL    HW1 2717   3.642   0.008   3.364
  606SOL    HW2 2718   3.523   6.919   3.367
  607SOL     OW 2719   4.646   1.308   4.163
  607SOL    HW1 2720   4.736   1.298   4.205
  607SOL    HW2 2721   4.654   1.297   4.064
  608SOL     OW 2722   4.448   1.056   1.309
  608SOL    HW1 2723   4.405   1.144   1.290
  608SOL    HW2 2724   4.447   1.000   1.226
  609SOL     OW 2725   3.672   4.113   4.387
  609SOL    HW1 2726   3.741   4.099   4.316
  609SOL    HW2 2727   3.711   4.091   4.476
  610SOL     OW 2728   5.111   2.235   4.111
  610SOL    HW1 2729   5.045   2.171   4.151
  610SOL    HW2 2730   5.070   2.277   4.030
  611SOL     OW 2731   0.643   6.702   0.972
  611SOL    HW1 2732   0.629   6.780   1.032
  611SOL    HW2 2733   0.563   6.690   0.913
  612SOL     OW 2734   3.207   5.493   5.231
  612SOL    HW1 2735   3.146   5.474   5.308
  612SOL    HW2 2736   3.290   5.538   5.264
  613SOL     OW 2737   3.275   2.256   0.128
  613SOL    HW1 2738   3.306   2.216   0.215
  613SOL    HW2 2739   3.192   2.208   0.098
  614SOL     OW 2740   5.095   4.495   1.049
  614SOL    HW1 2741   5.161   4.450   1.110
  614SOL    HW2 2742   5.124   4.589   1.033
  615SOL     OW 2743   6.119   6.746   0.745
  615SOL    HW1 2744   6.174   6.724   0.826
  615SOL    HW2 2745   6.135   6.842   0.720
  616SOL     OW 2746   5.397   1.697   4.558
  616SOL    HW1 2747   5.324   1.752   4.518
  616SOL    HW2 2748   5.470   1.684   4.491
  617SOL     OW 2749   0.148   5.361   5.329
  617SOL    HW1 2750   0.188   5.407   5.409
  617SOL    HW2 2751   0.146   5.423   5.251
  618SOL     OW 2752   6.253   3.643   0.493
  618SOL    HW1 2753   6.319   3.702   0.537
  618SOL    HW2 2754   6.287   3.615   0.403
  619SOL     OW 2755   2.698   0.509   6.083
  619SOL    HW1 2756   2.703   0.591   6.026
  619SOL    HW2 2757   2.602   0.491   6.105
  620SOL     OW 2758   7.018   1.856   2.293
  620SOL    HW1 2759   6.934   1.832   2.341
  620SOL    HW2 2760   0.033   1.941   2.331
  621SOL     OW 2761   3.432   1.306   6.725
  621SOL    HW1 2762   3.398   1.398   6.705
  621SOL    HW2 2763   3.398   1.242   6.656
  622SOL     OW 2764   1.212   1.973   5.082
  622SOL    HW1 2765   1.143   2.044   5.066
  622SOL    HW2 2766   1.303   2.014   5.081
  623SOL     OW 2767   5.891   6.899   4.188
  623SOL    HW1 2768   5.864   6.832   4.257
  623SOL    HW2 2769   5.977   6.942   4.215
  624SOL     OW 2770   6.479   0.503   6.256
  624SOL    HW1 2771   6.415   0.562   6.306
  624SOL    HW2 2772   6.428   0.440   6.197
  625SOL     OW 2773   2.433   1.773   0.779
  625SOL    HW1 2774   2.447   1.701   0.847
  625SOL    HW2 2775   2.375   1.739   0.705
  626SOL     OW 2776   0.193   5.234   3.787
  626SOL    HW1 2777   0.139   5.184   3.854
  626SOL    HW2 2778   0.284   5.254   3.825
  627SOL     OW 2779   6.043   0.328   7.000
  627SOL    HW1 2780   5.975   0.256   6.989
  627SOL    HW2 2781   6.106   0.303   0.052
  628SOL     OW 2782   4.413   4.429   5.844
  628SOL    HW1 2783   4.506   4.421   5.809
  628SOL    HW2 2784   4.416   4.457   5.940
  629SOL     OW 2785   0.849   6.774   5.852
  629SOL    HW1 2786   0.834   6.693   5.794
  629SOL    HW2 2787   0.761   6.807   5.887
  630SOL     OW 2788   6.623   1.218   1.344
  630SOL    HW1 2789   6.617   1.197   1.442
  630SOL    HW2 2790   6.577   1.305   1.326
  631SOL     OW 2791   1.773   2.954   3.908
  631SOL    HW1 2792   1.858   2.999   3.935
  631SOL    HW2 2793   1.774   2.936   3.810
  632SOL     OW 2794   3.160   3.821   6.620
  632SOL    HW1 2795   3.101   3.834   6.700
  632SOL    HW2 2796   3.103   3.819   6.537
  633SOL     OW 2797   1.705   6.102   1.200
  633SOL    HW1 2798   1.713   6.014   1.152
  633SOL    HW2 2799   1.612   6.138   1.188
  634SOL     OW 2800   3.088   3.060   4.606
  634SOL    HW1 2801   3.004   3.006   4.598
  634SOL    HW2 2802   3.083   3.117   4.687
  635SOL     OW 2803   5.328   0.488   6.688
  635SOL    HW1 2804   5.364   0.581   6.675
  635SOL    HW2 2805   5.386   0.424   6.637
  636SOL     OW 2806   2.697   0.699   5.900
  636SOL    HW1 2807   2.795   0.719   5.903
  636SOL    HW2 2808   2.665   0.703   5.805
  637SOL     OW 2809   6.472   0.661   2.671
  637SOL    HW1 2810   6.538   0.586   2.680
  637SOL    HW2 2811   6.389   0.639   2.722
  638SOL     OW 2812   6.306   3.511   4.479
  638SOL    HW1 2813   6.227   3.450   4.484
  638SOL    HW2 2814   6.283   3.592   4.426
  639SOL     OW 2815   5.719   4.631   2.523
  639SOL    HW1 2816   5.638   4.689   2.536
  639SOL    HW2 2817   5.770   4.662   2.443
  640SOL     OW 2818   0.449   2.249   1.911
  640SOL    HW1 2819   0.396   2.308   1.851
  640SOL    HW2 2820   0.420   2.264   2.006
  641SOL     OW 2821   2.412   5.208   4.320
  641SOL    HW1 2822   2.347   5.275   4.283
  641SOL    HW2 2823   2.409   5.210   4.420
  642SOL     OW 2824   0.964   4.154   4.722
  642SOL    HW1 2825   1.059   4.180   4.705
  642SOL    HW2 2826   0.937   4.082   4.659
  643SOL     OW 2827   5.107   5.577   0.593
  643SOL    HW1 2828   5.036   5.570   0.664
  643SOL    HW2 2829   5.079   5.644   0.525
  644SOL     OW 2830   6.560   6.453   5.245
  644SOL    HW1 2831   6.580   6.382   5.312
  644SOL    HW2 2832   6.587   6.542   5.282
  645SOL     OW 2833   3.755   5.133   2.010
  645SOL    HW1 2834   3.769   5.232   2.014
  645SOL    HW2 2835   3.687   5.111   1.940
  646SOL     OW 2836   3.680   1.821   5.178
  646SOL    HW1 2837   3.700   1.768   5.261
  646SOL    HW2 2838   3.735   1.786   5.102
  647SOL     OW 2839   3.905   2.786   6.204
  647SOL    HW1 2840   3.950   2.767   6.117
  647SOL    HW2 2841   3.841   2.862   6.192
  648SOL     OW 2842   6.198   1.264   2.886
  648SOL    HW1 2843   6.148   1.178   2.901
  648SOL    HW2 2844   6.248   1.259   2.800
  649SOL     OW 2845   2.024   5.762   0.479
  649SOL    HW1 2846   2.066   5.789   0.565
  649SOL    HW2 2847   1.967   5.837   0.444
  650SOL     OW 2848   0.392   3.939   1.080
  650SOL    HW1 2849   0.344   3.943   0.993
  650SOL    HW2 2850   0.485   3.904   1.066
  651SOL     OW 2851   1.345   0.361   4.705
  651SOL    HW1 2852   1.312   0.337   4.796
  651SOL    HW2 2853   1.275   0.416   4.658
  652SOL     OW 2854   3.644   6.038   1.904
  652SOL    HW1 2855   3.723   6.003   1.854
  652SOL    HW2 2856   3.673   6.109   1.967
  653SOL     OW 2857   1.104   6.894   1.984
  653SOL    HW1 2858   1.011   6.861   1.995
  653SOL    HW2 2859   1.103   6.993   1.972
  654SOL     OW 2860   0.111   0.091   4.948
  654SOL    HW1 2861   0.171   0.066   4.872
  654SOL    HW2 2862   0.163   0.143   5.015
  655SOL     OW 2863   6.640   3.909   1.815
  655SOL    HW1 2864   6.670   3.924   1.721
  655SOL    HW2 2865   6.634   3.811   1.832
  656SOL     OW 2866   3.308   6.004   0.461
  656SOL    HW1 2867   3.244   5.991   0.537
  656SOL    HW2 2868   3.323   6.101   0.446
  657SOL     OW 2869   3.790   3.329   2.323
  657SOL    HW1 2870   3.734   3.395   2.272
  657SOL    HW2 2871   3.779   3.238   2.284
  658SOL     OW 2872   1.329   2.275   5.061
  658SOL    HW1 2873   1.401   2.205   5.059
  658SOL    HW2 2874   1.363   2.359   5.019
  659SOL     OW 2875   2.106   5.923   6.268
  659SOL    HW1 2876   2.031   5.989   6.257
  659SOL    HW2 2877   2.069   5.834   6.294
  660SOL     OW 2878   4.839   4.536   2.424
  660SOL    HW1 2879   4.819   4.633   2.409
  660SOL    HW2 2880   4.754   4.489   2.450
  661SOL     OW 2881   4.710   4.203   4.536
  661SOL    HW1 2882   4.706   4.185   4.635
  661SOL    HW2 2883   4.732   4.118   4.488
  662SOL     OW 2884   4.932   3.551   0.034
  662SOL    HW1 2885   4.980   3.564   0.121
  662SOL    HW2 2886   4.836   3.527   0.052
  663SOL     OW 2887   0.331   3.757   0.118
  663SOL    HW1 2888   0.231   3.757   0.116
  663SOL    HW2 2889   0.366   3.804   0.037
  664SOL     OW 2890   2.122   6.752   6.746
  664SOL    HW1 2891   2.025   6.770   6.731
  664SOL    HW2 2892   2.161   6.827   6.799
  665SOL     OW 2893   3.924   4.871   1.509
  665SOL    HW1 2894   3.928   4.814   1.591
  665SOL    HW2 2895   4.008   4.860   1.456
  666SOL     OW 2896   3.786   1.526   0.190
  666SOL    HW1 2897   3.828   1.594   0.250
  666SOL    HW2 2898   3.839   1.442   0.192
  667SOL     OW 2899   1.180   3.024   3.605
  667SOL    HW1 2900   1.151   2.994   3.514
  667SOL    HW2 2901   1.276   3.002   3.618
  668SOL     OW 2902   4.917   6.946   0.505
  668SOL    HW1 2903   4.923   6.865   0.447
  668SOL    HW2 2904   4.885   6.920   0.596
  669SOL     OW 2905   1.970   5.753   3.169
  669SOL    HW1 2906   2.007   5.668   3.131
  669SOL    HW2 2907   1.984   5.754   3.268
  670SOL     OW 2908   3.295   2.954   3.362
  670SOL    HW1 2909   3.282   2.893   3.283
  670SOL    HW2 2910   3.241   3.037   3.350
  671SOL     OW 2911   1.168   0.148   6.070
  671SOL    HW1 2912   1.079   0.122   6.109
  671SOL    HW2 2913   1.158   0.164   5.972
  672SOL     OW 2914   2.326   2.274   3.952
  672SOL    HW1 2915   2.262   2.226   3.891
  672SOL    HW2 2916   2.414   2.285   3.905
  673SOL     OW 2917   5.700   6.491   0.991
  673SOL    HW1 2918   5.688   6.444   0.903
  673SOL    HW2 2919   5.761   6.569   0.979
  674SOL     OW 2920   0.094   2.263   3.646
  674SOL    HW1 2921   0.002   2.270   3.608
  674SOL    HW2 2922   0.095   2.305   3.737
  675SOL     OW 2923   6.149   2.512   4.975
  675SOL    HW1 2924   6.082   2.538   4.905
  675SOL    HW2 2925   6.228   2.573   4.970
  676SOL     OW 2926   2.176   4.588   4.578
  676SOL    HW1 2927   2.123   4.522   4.526
  676SOL    HW2 2928   2.179   4.675   4.528
  677SOL     OW 2929   5.434   6.840   0.559
  677SOL    HW1 2930   5.444   6.928   0.512
  677SOL    HW2 2931   5.524   6.795   0.565
  678SOL     OW 2932   2.373   1.823   6.074
  678SOL    HW1 2933   2.443   1.866   6.018
  678SOL    HW2 2934   2.415   1.779   6.153
  679SOL     OW 2935   5.686   6.767   2.727
  679SOL    HW1 2936   5.669   6.857   2.687
  679SOL    HW2 2937   5.605   6.738   2.779
  680SOL     OW 2938   5.262   4.010   5.063
  680SOL    HW1 2939   5.193   3.990   5.132
  680SOL    HW2 2940   5.327   3.934   5.059
  681SOL     OW 2941   1.812   7.012   2.135
  681SOL    HW1 2942   1.909   6.996   2.153
  681SOL    HW2 2943   1.759   6.933   2.166
  682SOL     OW 2944   1.134   5.990   0.615
  682SOL    HW1 2945   1.134   5.981   0.516
  682SOL    HW2 2946   1.216   6.039   0.644
  683SOL     OW 2947   5.360   1.741   0.372
  683SOL    HW1 2948   5.325   1.719   0.280
  683SOL    HW2 2949   5.285   1.740   0.437
  684SOL     OW 2950   0.203   5.902   6.500
  684SOL    HW1 2951   0.127   5.905   6.436
  684SOL    HW2 2952   0.184   5.834   6.571
  685SOL     OW 2953   5.486   1.041   5.856
  685SOL    HW1 2954   5.535   1.104   5.916
  685SOL    HW2 2955   5.482   1.080   5.764
  686SOL     OW 2956   5.513   5.136   3.348
  686SOL    HW1 2957   5.440   5.197   3.378
  686SOL    HW2 2958   5.524   5.143   3.249
  687SOL     OW 2959   6.335   3.099   5.169
  687SOL    HW1 2960   6.423   3.064   5.137
  687SOL    HW2 2961   6.342   3.197   5.187
  688SOL     OW 2962   6.814   3.729   4.997
  688SOL    HW1 2963   6.845   3.638   5.022
  688SOL    HW2 2964   6.778   3.728   4.904
  689SOL     OW 2965   6.091   3.951   6.330
  689SOL    HW1 2966   5.994   3.972   6.318
  689SOL    HW2 2967   6.144   3.995   6.257
  690SOL     OW 2968   1.079   2.213   3.321
  690SOL    HW1 2969   1.157   2.251   3.369
  690SOL    HW2 2970   1.002   2.277   3.325
  691SOL     OW 2971   0.532   3.212   6.939
  691SOL    HW1 2972   0.563   3.266   6.861
  691SOL    HW2 2973   0.582   3.125   6.940
  692SOL     OW 2974   2.016   0.003   3.112
  692SOL    HW1 2975   2.093   6.975   3.152
  692SOL    HW2 2976   2.017   7.015   3.013
  693SOL     OW 2977   6.909   1.303   2.141
  693SOL    HW1 2978   6.897   1.261   2.051
  693SOL    HW2 2979   6.867   1.246   2.211
  694SOL     OW 2980   1.736   0.426   1.750
  694SOL    HW1 2981   1.730   0.386   1.841
  694SOL    HW2 2982   1.697   0.363   1.683
  695SOL     OW 2983   3.901   6.399   6.045
  695SOL    HW1 2984   3.928   6.415   6.140
  695SOL    HW2 2985   3.814   6.350   6.043
  696SOL     OW 2986   4.796   5.592   2.458
  696SOL    HW1 2987   4.787   5.664   2.388
  696SOL    HW2 2988   4.737   5.515   2.434
  697SOL     OW 2989   1.243   4.032   3.882
  697SOL    HW1 2990   1.324   4.090   3.889
  697SOL    HW2 2991   1.161   4.085   3.903
  698SOL     OW 2992   4.246   6.334   3.820
  698SOL    HW1 2993   4.233   6.299   3.727
  698SOL    HW2 2994   4.332   6.384   3.825
  699SOL     OW 2995   1.963   4.542   0.797
  699SOL    HW1 2996   1.988   4.549   0.701
  699SOL    HW2 2997   1.865   4.522   0.805
  700SOL     OW 2998   1.835   1.013   4.157
  700SOL    HW1 2999   1.787   1.004   4.244
  700SOL    HW2 3000   1.805   0.941   4.095
  701SOL     OW 3001   0.410   4.507   5.775
  701SOL    HW1 3002   0.393   4.593   5.822
  701SOL    HW2 3003   0.334   4.486   5.714
  702SOL     OW 3004   5.853   5.439   4.845
  702SOL    HW1 3005   5.754   5.438   4.856
  702SOL    HW2 3006   5.891   5.514   4.899
  703SOL     OW 3007   4.002   4.087   6.853
  703SOL    HW1 3008   4.045   4.102   6.942
  703SOL    HW2 3009   4.029   4.159   6.790
  704SOL     OW 3010   2.520   0.110   0.735
  704SOL    HW1 3011   2.486   0.017   0.722
  704SOL    HW2 3012   2.475   0.171   0.670
  705SOL     OW 3013   5.930   2.614   2.789
  705SOL    HW1 3014   5.959   2.700   2.749
  705SOL    HW2 3015   5.875   2.562   2.723
  706SOL     OW 3016   4.100   1.958   3.815
  706SOL    HW1 3017   4.085   1.862   3.835
  706SOL    HW2 3018   4.165   1.967   3.740
  707SOL     OW 3019   5.144   1.162   1.470
  707SOL    HW1 3020   5.220   1.178   1.407
  707SOL    HW2 3021   5.121   1.246   1.518
  708SOL     OW 3022   4.141   0.826   1.671
  708SOL    HW1 3023   4.182   0.830   1.580
  708SOL    HW2 3024   4.180   0.899   1.728
  709SOL     OW 3025   1.103   4.622   0.050
  709SOL    HW1 3026   1.132   4.529   0.027
  709SOL    HW2 3027   1.062   4.623   0.141
  710SOL     OW 3028   3.304   4.048   2.533
  710SOL    HW1 3029   3.204   4.050   2.543
  710SOL    HW2 3030   3.330   4.101   2.452
  711SOL     OW 3031   0.908   0.704   3.841
  711SOL    HW1 3032   0.841   0.673   3.773
  711SOL    HW2 3033   0.905   0.804   3.846
  712SOL     OW 3034   1.512   3.932   1.114
  712SOL    HW1 3035   1.532   4.024   1.082
  712SOL    HW2 3036   1.472   3.936   1.206
  713SOL     OW 3037   4.022   3.110   3.061
  713SOL    HW1 3038   3.966   3.101   2.979
  713SOL    HW2 3039   4.114   3.075   3.042
  714SOL     OW 3040   4.720   5.175   5.297
  714SOL    HW1 3041   4.748   5.214   5.385
  714SOL    HW2 3042   4.784   5.103   5.270
  715SOL     OW 3043   4.234   0.655   6.413
  715SOL    HW1 3044   4.276   0.568   6.388
  715SOL    HW2 3045   4.156   0.673   6.353
  716SOL     OW 3046   0.152   5.044   1.622
  716SOL    HW1 3047   0.143   4.959   1.675
  716SOL    HW2 3048   0.221   5.102   1.665
  717SOL     OW 3049   6.195   2.497   0.649
  717SOL    HW1 3050   6.237   2.474   0.561
  717SOL    HW2 3051   6.099   2.522   0.634
  718SOL     OW 3052   3.568   3.919   6.524
  718SOL    HW1 3053   3.517   3.881   6.601
  718SOL    HW2 3054   3.572   3.853   6.450
  719SOL     OW 3055   5.531   4.330   0.618
  719SOL    HW1 3056   5.461   4.281   0.671
  719SOL    HW2 3057   5.612   4.272   0.609
  720SOL     OW 3058   2.406   0.970   6.161
  720SOL    HW1 3059   2.433   0.893   6.103
  720SOL    HW2 3060   2.335   1.023   6.115
  721SOL     OW 3061   1.391   6.766   6.015
  721SOL    HW1 3062   1.335   6.830   5.962
  721SOL    HW2 3063   1.480   6.807   6.034
  722SOL     OW 3064   4.711   0.122   5.564
  722SOL    HW1 3065   4.649   0.200   5.565
  722SOL    HW2 3066   4.712   0.082   5.472
  723SOL     OW 3067   0.820   3.317   1.806
  723SOL    HW1 3068   0.741   3.359   1.761
  723SOL    HW2 3069   0.825   3.346   1.901
  724SOL     OW 3070   6.742   1.340   5.065
  724SOL    HW1 3071   6.729   1.427   5.112
  724SOL    HW2 3072   6.739   1.354   4.966
  725SOL     OW 3073   2.103   5.469   1.096
  725SOL    HW1 3074   2.068   5.519   1.017
  725SOL    HW2 3075   2.071   5.374   1.092
  726SOL     OW 3076   3.756   0.264   6.754
  726SOL    HW1 3077   3.818   0.285   6.679
  726SOL    HW2 3078   3.698   0.343   6.773
  727SOL     OW 3079   2.950   4.823   4.021
  727SOL    HW1 3080   2.909   4.823   4.113
  727SOL    HW2 3081   3.049   4.827   4.029
  728SOL     OW 3082   6.506   3.617   5.071
  728SOL    HW1 3083   6.556   3.531   5.058
  728SOL    HW2 3084   6.568   3.686   5.108
  729SOL     OW 3085   3.043   0.100   1.249
  729SOL    HW1 3086   3.022   0.087   1.345
  729SOL    HW2 3087   3.054   0.197   1.230
  730SOL     OW 3088   5.901   0.430   4.323
  730SOL    HW1 3089   5.863   0.349   4.367
  730SOL    HW2 3090   6.000   0.421   4.316
  731SOL     OW 3091   5.972   3.707   3.783
  731SOL    HW1 3092   5.907   3.695   3.857
  731SOL    HW2 3093   5.938   3.662   3.700
  732SOL     OW 3094   6.586   2.960   1.728
  732SOL    HW1 3095   6.622   2.914   1.647
  732SOL    HW2 3096   6.496   2.923   1.749
  733SOL     OW 3097   4.669   4.382   3.830
  733SOL    HW1 3098   4.610   4.448   3.782
  733SOL    HW2 3099   4.713   4.322   3.763
  734SOL     OW 3100   6.826   4.266   0.765
  734SOL    HW1 3101   6.855   4.286   0.671
  734SOL    HW2 3102   6.841   4.169   0.785
  735SOL     OW 3103   1.606   4.723   6.461
  735SOL    HW1 3104   1.532   4.723   6.393
  735SOL    HW2 3105   1.614   4.632   6.502
  736SOL     OW 3106   6.067   1.316   3.343
  736SOL    HW1 3107   6.093   1.395   3.288
  736SOL    HW2 3108   6.116   1.235   3.310
  737SOL     OW 3109   5.330   3.217   0.618
  737SOL    HW1 3110   5.365   3.170   0.538
  737SOL    HW2 3111   5.244   3.174   0.646
  738SOL     OW 3112   0.943   3.860   4.150
  738SOL    HW1 3113   0.886   3.803   4.209
  738SOL    HW2 3114   0.917   3.845   4.054
  739SOL     OW 3115   4.883   6.303   6.549
  739SOL    HW1 3116   4.786   6.311   6.575
  739SOL    HW2 3117   4.889   6.255   6.461
  740SOL     OW 3118   5.977   6.741   1.613
  740SOL    HW1 3119   5.946   6.661   1.560
  740SOL    HW2 3120   5.941   6.735   1.706
  741SOL     OW 3121   2.335   0.768   2.365
  741SOL    HW1 3122   2.434   0.780   2.364
  741SOL    HW2 3123   2.297   0.810   2.448
  742SOL     OW 3124   1.388   0.083   3.028
  742SOL    HW1 3125   1.423   0.057   2.938
  742SOL    HW2 3126   1.288   0.078   3.028
  743SOL     OW 3127   2.119   4.398   4.764
  743SOL    HW1 3128   2.059   4.373   4.688
  743SOL    HW2 3129   2.174   4.477   4.738
  744SOL     OW 3130   0.272   5.934   0.545
  744SOL    HW1 3131   0.253   5.837   0.557
  744SOL    HW2 3132   0.282   5.978   0.634
  745SOL     OW 3133   1.502   6.103   2.701
  745SOL    HW1 3134   1.429   6.164   2.670
  745SOL    HW2 3135   1.471   6.050   2.779
  746SOL     OW 3136   1.827   0.851   4.597
  746SOL    HW1 3137   1.800   0.857   4.693
  746SOL    HW2 3138   1.893   0.776   4.585
  747SOL     OW 3139   5.123   4.903   2.763
  747SOL    HW1 3140   5.131   4.872   2.668
  747SOL    HW2 3141   5.042   4.959   2.774
  748SOL     OW 3142   4.670   3.604   1.352
  748SOL    HW1 3143   4.587   3.565   1.312
  748SOL    HW2 3144   4.750   3.557   1.315
  749SOL     OW 3145   6.928   1.482   5.404
  749SOL    HW1 3146   6.849   1.485   5.343
  749SOL    HW2 3147   6.915   1.410   5.472
  750SOL     OW 3148   2.142   4.223   0.586
  750SOL    HW1 3149   2.185   4.137   0.556
  750SOL    HW2 3150   2.166   4.296   0.522
  751SOL     OW 3151   4.732   0.745   0.236
  751SOL    HW1 3152   4.822   0.742   0.280
  751SOL    HW2 3153   4.679   0.821   0.275
  752SOL     OW 3154   4.962   2.095   2.022
  752SOL    HW1 3155   4.937   2.189   1.998
  752SOL    HW2 3156   4.879   2.039   2.025
  753SOL     OW 3157   2.025   2.734   4.011
  753SOL    HW1 3158   1.986   2.826   4.010
  753SOL    HW2 3159   2.039   2.702   3.918
  754SOL     OW 3160   4.495   5.503   6.981
  754SOL    HW1 3161   4.564   5.455   6.927
  754SOL    HW2 3162   4.509   5.485   0.056
  755SOL     OW 3163   0.387   6.044   0.808
  755SOL    HW1 3164   0.443   5.986   0.748
  755SOL    HW2 3165   0.443   6.079   0.883
  756SOL     OW 3166   5.305   0.088   3.583
  756SOL    HW1 3167   5.341   0.038   3.661
  756SOL    HW2 3168   5.342   0.050   3.498
  757SOL     OW 3169   0.362   0.502   3.957
  757SOL    HW1 3170   0.308   0.457   4.028
  757SOL    HW2 3171   0.342   0.460   3.868
  758SOL     OW 3172   4.027   2.404   1.011
  758SOL    HW1 3173   4.126   2.403   1.028
  758SOL    HW2 3174   3.986   2.322   1.051
  759SOL     OW 3175   1.259   1.094   6.735
  759SOL    HW1 3176   1.180   1.154   6.724
  759SOL    HW2 3177   1.342   1.149   6.745
  760SOL     OW 3178   4.549   1.930   5.897
  760SOL    HW1 3179   4.483   1.856   5.909
  760SOL    HW2 3180   4.504   2.007   5.850
  761SOL     OW 3181   5.769   2.307   6.777
  761SOL    HW1 3182   5.786   2.231   6.840
  761SOL    HW2 3183   5.855   2.333   6.733
  762SOL     OW 3184   2.454   6.543   3.812
  762SOL    HW1 3185   2.362   6.560   3.777
  762SOL    HW2 3186   2.452   6.468   3.877
  763SOL     OW 3187   3.946   6.066   6.986
  763SOL    HW1 3188   3.914   5.977   7.018
  763SOL    HW2 3189   4.006   6.107   0.032
  764SOL     OW 3190   4.661   1.518   2.364
  764SOL    HW1 3191   4.699   1.571   2.288
  764SOL    HW2 3192   4.609   1.441   2.327
  765SOL     OW 3193   6.721   0.162   3.500
  765SOL    HW1 3194   6.726   0.095   3.574
  765SOL    HW2 3195   6.813   0.194   3.478
  766SOL     OW 3196   0.067   6.237   6.805
  766SOL    HW1 3197   0.135   6.309   6.790
  766SOL    HW2 3198   0.038   6.200   6.717
  767SOL     OW 3199   5.806   0.015   2.461
  767SOL    HW1 3200   5.813   0.080   2.385
  767SOL    HW2 3201   5.884   0.028   2.523
  768SOL     OW 3202   3.246   6.190   3.381
  768SOL    HW1 3203   3.202   6.260   3.436
  768SOL    HW2 3204   3.184   6.161   3.308
  769SOL     OW 3205   4.032   1.331   5.834
  769SOL    HW1 3206   4.062   1.416   5.790
  769SOL    HW2 3207   4.025   1.259   5.765
  770SOL     OW 3208   3.207   4.898   4.007
  770SOL    HW1 3209   3.196   4.939   3.917
  770SOL    HW2 3210   3.302   4.866   4.018
  771SOL     OW 3211   0.925   5.205   3.596
  771SOL    HW1 3212   0.847   5.213   3.534
  771SOL    HW2 3213   0.920   5.277   3.666
  772SOL     OW 3214   6.735   3.972   6.329
  772SOL    HW1 3215   6.755   3.966   6.231
  772SOL    HW2 3216   6.644   4.012   6.341
  773SOL     OW 3217   0.134   3.927   2.429
  773SOL    HW1 3218   0.140   3.905   2.331
  773SOL    HW2 3219   0.037   3.929   2.456
  774SOL     OW 3220   1.447   1.056   1.490
  774SOL    HW1 3221   1.415   0.972   1.445
  774SOL    HW2 3222   1.527   1.091   1.441
  775SOL     OW 3223   1.821   2.166   4.675
  775SOL    HW1 3224   1.914   2.203   4.679
  775SOL    HW2 3225   1.787   2.171   4.581
  776SOL     OW 3226   2.156   0.407   6.059
  776SOL    HW1 3227   2.226   0.471   6.091
  776SOL    HW2 3228   2.074   0.416   6.115
  777SOL     OW 3229   4.428   1.263   0.844
  777SOL    HW1 3230   4.381   1.305   0.767
  777SOL    HW2 3231   4.521   1.300   0.850
  778SOL     OW 3232   3.944   6.725   4.535
  778SOL    HW1 3233   3.947   6.814   4.489
  778SOL    HW2 3234   3.862   6.676   4.509
  779SOL     OW 3235   1.143   1.435   2.225
  779SOL    HW1 3236   1.217   1.367   2.226
  779SOL    HW2 3237   1.088   1.425   2.309
  780SOL     OW 3238   5.885   3.201   4.933
  780SOL    HW1 3239   5.945   3.143   4.988
  780SOL    HW2 3240   5.878   3.291   4.974
  781SOL     OW 3241   6.982   1.101   5.964
  781SOL    HW1 3242   0.041   1.145   5.925
  781SOL    HW2 3243   6.909   1.169   5.972
  782SOL     OW 3244   6.777   2.909   0.939
  782SOL    HW1 3245   6.700   2.968   0.966
  782SOL    HW2 3246   6.749   2.813   0.943
  783SOL     OW 3247   2.814   4.932   0.670
  783SOL    HW1 3248   2.830   4.992   0.748
  783SOL    HW2 3249   2.769   4.848   0.700
  784SOL     OW 3250   4.385   0.629   4.907
  784SOL    HW1 3251   4.419   0.652   4.816
  784SOL    HW2 3252   4.413   0.537   4.931
  785SOL     OW 3253   6.519   3.049   2.908
  785SOL    HW1 3254   6.489   3.145   2.906
  785SOL    HW2 3255   6.441   2.989   2.894
  786SOL     OW 3256   6.767   6.700   0.137
  786SOL    HW1 3257   6.686   6.758   0.146
  786SOL    HW2 3258   6.843   6.742   0.186
  787SOL     OW 3259   2.982   2.343   6.342
  787SOL    HW1 3260   2.966   2.421   6.282
  787SOL    HW2 3261   3.062   2.292   6.309
  788SOL     OW 3262   1.776   3.688   4.259
  788SOL    HW1 3263   1.784   3.740   4.344
  788SOL    HW2 3264   1.829   3.733   4.187
  789SOL     OW 3265   5.433   4.118   1.141
  789SOL    HW1 3266   5.510   4.145   1.083
  789SOL    HW2 3267   5.356   4.179   1.124
  790SOL     OW 3268   2.995   1.700   3.745
  790SOL    HW1 3269   2.916   1.641   3.732
  790SOL    HW2 3270   3.010   1.755   3.663
  791SOL     OW 3271   3.032   1.827   3.970
  791SOL    HW1 3272   2.971   1.906   3.976
  791SOL    HW2 3273   3.011   1.775   3.887
  792SOL     OW 3274   5.692   0.651   3.892
  792SOL    HW1 3275   5.689   0.749   3.911
  792SOL    HW2 3276   5.728   0.603   3.971
  793SOL     OW 3277   5.421   0.153   6.990
  793SOL    HW1 3278   5.519   0.157   6.970
  793SOL    HW2 3279   5.386   0.246   7.003
  794SOL     OW 3280   2.450   5.188   5.635
  794SOL    HW1 3281   2.372   5.157   5.691
  794SOL    HW2 3282   2.535   5.154   5.675
  795SOL     OW 3283   4.564   4.197   6.278
  795SOL    HW1 3284   4.596   4.103   6.288
  795SOL    HW2 3285   4.538   4.234   6.367
  796SOL     OW 3286   0.142   2.385   6.781
  796SOL    HW1 3287   0.173   2.479   6.798
  796SOL    HW2 3288   0.058   2.387   6.728
  797SOL     OW 3289   5.742   3.074   3.750
  797SOL    HW1 3290   5.765   3.036   3.660
  797SOL    HW2 3291   5.740   3.174   3.745
  798SOL     OW 3292   5.161   0.999   6.039
  798SOL    HW1 3293   5.200   1.076   6.090
  798SOL    HW2 3294   5.234   0.946   5.996
  799SOL     OW 3295   6.842   3.258   3.190
  799SOL    HW1 3296   6.794   3.248   3.277
  799SOL    HW2 3297   6.917   3.324   3.201
  800SOL     OW 3298   6.532   1.541   2.051
  800SOL    HW1 3299   6.593   1.618   2.066
  800SOL    HW2 3300   6.440   1.575   2.032
  801SOL     OW 3301   0.338   2.627   3.074
  801SOL    HW1 3302   0.320   2.535   3.041
  801SOL    HW2 3303   0.266   2.654   3.138
  802SOL     OW 3304   5.316   1.011   0.630
  802SOL    HW1 3305   5.365   1.070   0.694
  802SOL    HW2 3306   5.253   0.952   0.680
  803SOL     OW 3307   6.550   0.037   5.013
  803SOL    HW1 3308   6.625   0.095   5.046
  803SOL    HW2 3309   6.498   0.086   4.943
  804SOL     OW 3310   0.410   6.749   0.282
  804SOL    HW1 3311   0.473   6.698   0.340
  804SOL    HW2 3312   0.318   6.748   0.322
  805SOL     OW 3313   2.787   2.875   6.269
  805SOL    HW1 3314   2.786   2.819   6.352
  805SOL    HW2 3315   2.881   2.906   6.251
  806SOL     OW 3316   5.283   0.801   0.445
  806SOL    HW1 3317   5.301   0.807   0.347
  806SOL    HW2 3318   5.298   0.890   0.487
  807SOL     OW 3319   1.707   0.088   3.361
  807SOL    HW1 3320   1.687   0.070   3.458
  807SOL    HW2 3321   1.656   0.024   3.304
  808SOL     OW 3322   5.145   3.265   5.567
  808SOL    HW1 3323   5.091   3.200   5.620
  808SOL    HW2 3324   5.212   3.216   5.512
  809SOL     OW 3325   0.187   4.525   6.512
  809SOL    HW1 3326   0.178   4.438   6.558
  809SOL    HW2 3327   0.122   4.591   6.551
  810SOL     OW 3328   5.727   4.356   0.110
  810SOL    HW1 3329   5.646   4.309   0.076
  810SOL    HW2 3330   5.806   4.295   0.106
  811SOL     OW 3331   5.017   5.371   3.903
  811SOL    HW1 3332   5.056   5.406   3.988
  811SOL    HW2 3333   4.923   5.340   3.919
  812SOL     OW 3334   0.135   6.714   1.673
  812SOL    HW1 3335   0.126   6.809   1.700
  812SOL    HW2 3336   0.094   6.655   1.743
  813SOL     OW 3337   5.345   5.576   2.599
  813SOL    HW1 3338   5.428   5.588   2.543
  813SOL    HW2 3339   5.264   5.594   2.543
  814SOL     OW 3340   6.020   6.442   1.991
  814SOL    HW1 3341   6.086   6.517   1.984
  814SOL    HW2 3342   5.929   6.479   2.005
  815SOL     OW 3343   7.016   2.355   0.968
  815SOL    HW1 3344   0.065   2.317   1.027
  815SOL    HW2 3345   6.927   2.316   0.993
  816SOL     OW 3346   6.660   6.722   0.754
  816SOL    HW1 3347   6.681   6.633   0.795
  816SOL    HW2 3348   6.566   6.721   0.720
  817SOL     OW 3349   1.850   2.890   2.437
  817SOL    HW1 3350   1.925   2.895   2.503
  817SOL    HW2 3351   1.885   2.907   2.345
  818SOL     OW 3352   6.338   1.683   1.383
  818SOL    HW1 3353   6.357   1.775   1.350
  818SOL    HW2 3354   6.373   1.616   1.316
  819SOL     OW 3355   6.833   3.425   4.247
  819SOL    HW1 3356   6.806   3.344   4.196
  819SOL    HW2 3357   6.757   3.458   4.302
  820SOL     OW 3358   1.180   3.153   4.871
  820SOL    HW1 3359   1.203   3.142   4.774
  820SOL    HW2 3360   1.263   3.172   4.923
  821SOL     OW 3361   1.130   3.459   6.831
  821SOL    HW1 3362   1.190   3.461   6.911
  821SOL    HW2 3363   1.035   3.451   6.860
  822SOL     OW 3364   1.565   3.970   4.579
  822SOL    HW1 3365   1.466   3.958   4.580
  822SOL    HW2 3366   1.610   3.882   4.567
  823SOL     OW 3367   3.924   4.261   0.166
  823SOL    HW1 3368   3.850   4.273   0.231
  823SOL    HW2 3369   3.975   4.177   0.187
  824SOL     OW 3370   5.138   2.352   5.961
  824SOL    HW1 3371   5.216   2.298   5.992
  824SOL    HW2 3372   5.155   2.385   5.868
  825SOL     OW 3373   2.237   4.268   2.069
  825SOL    HW1 3374   2.236   4.352   2.123
  825SOL    HW2 3375   2.300   4.279   1.992
  826SOL     OW 3376   6.978   4.090   6.361
  826SOL    HW1 3377   6.894   4.037   6.354
  826SOL    HW2 3378   6.956   4.184   6.389
  827SOL     OW 3379   3.657   6.025   7.007
  827SOL    HW1 3380   3.713   6.050   0.064
  827SOL    HW2 3381   3.710   6.041   6.923
  828SOL     OW 3382   6.091   0.404   5.694
  828SOL    HW1 3383   6.014   0.404   5.757
  828SOL    HW2 3384   6.167   0.455   5.733
  829SOL     OW 3385   3.305   2.892   4.683
  829SOL    HW1 3386   3.364   2.867   4.607
  829SOL    HW2 3387   3.223   2.939   4.649
  830SOL     OW 3388   4.493   4.238   5.541
  830SOL    HW1 3389   4.505   4.261   5.444
  830SOL    HW2 3390   4.396   4.223   5.560
  831SOL     OW 3391   6.569   1.147   4.466
  831SOL    HW1 3392   6.541   1.051   4.457
  831SOL    HW2 3393   6.558   1.193   4.378
  832SOL     OW 3394   1.982   1.719   5.949
  832SOL    HW1 3395   1.904   1.731   6.011
  832SOL    HW2 3396   2.050   1.790   5.967
  833SOL     OW 3397   6.512   6.946   6.074
  833SOL    HW1 3398   6.430   6.910   6.119
  833SOL    HW2 3399   6.573   6.870   6.051
  834SOL     OW 3400   3.097   4.067   4.903
  834SOL    HW1 3401   3.049   4.153   4.918
  834SOL    HW2 3402   3.040   4.005   4.851
  835SOL     OW 3403   3.763   6.673   3.289
  835SOL    HW1 3404   3.787   6.578   3.311
  835SOL    HW2 3405   3.782   6.731   3.368
  836SOL     OW 3406   2.637   1.096   0.379
  836SOL    HW1 3407   2.573   1.123   0.450
  836SOL    HW2 3408   2.726   1.139   0.397
  837SOL     OW 3409   4.875   1.141   5.991
  837SOL    HW1 3410   4.838   1.214   6.048
  837SOL    HW2 3411   4.865   1.166   5.895
  838SOL     OW 3412   2.311   5.368   3.345
  838SOL    HW1 3413   2.228   5.411   3.308
  838SOL    HW2 3414   2.316   5.273   3.314
  839SOL     OW 3415   2.999   1.922   2.831
  839SOL    HW1 3416   3.069   1.988   2.858
  839SOL    HW2 3417   2.934   1.965   2.768
  840SOL     OW 3418   1.007   1.277   6.746
  840SOL    HW1 3419   0.977   1.367   6.778
  840SOL    HW2 3420   0.982   1.207   6.812
  841SOL     OW 3421   0.891   3.328   6.909
  841SOL    HW1 3422   0.818   3.394   6.924
  841SOL    HW2 3423   0.875   3.248   6.967
  842SOL     OW 3424   3.601   5.253   3.411
  842SOL    HW1 3425   3.677   5.303   3.368
  842SOL    HW2 3426   3.571   5.180   3.350
  843SOL     OW 3427   6.360   2.437   1.944
  843SOL    HW1 3428   6.344   2.359   1.883
  843SOL    HW2 3429   6.297   2.433   2.021
  844SOL     OW 3430   5.286   5.957   0.672
  844SOL    HW1 3431   5.355   5.897   0.713
  844SOL    HW2 3432   5.200   5.906   0.661
  845SOL     OW 3433   0.758   4.908   5.383
  845SOL    HW1 3434   0.857   4.915   5.367
  845SOL    HW2 3435   0.724   4.996   5.417
  846SOL     OW 3436   6.291   1.744   6.735
  846SOL    HW1 3437   6.277   1.740   6.636
  846SOL    HW2 3438   6.312   1.653   6.770
  847SOL     OW 3439   5.135   3.391   2.277
  847SOL    HW1 3440   5.140   3.357   2.183
  847SOL    HW2 3441   5.091   3.481   2.277
  848SOL     OW 3442   5.618   0.796   5.780
  848SOL    HW1 3443   5.659   0.768   5.867
  848SOL    HW2 3444   5.548   0.865   5.797
  849SOL     OW 3445   0.493   5.318   4.374
  849SOL    HW1 3446   0.481   5.219   4.384
  849SOL    HW2 3447   0.493   5.361   4.464
  850SOL     OW 3448   3.599   0.664   2.585
  850SOL    HW1 3449   3.679   0.603   2.588
  850SOL    HW2 3450   3.559   0.662   2.494
  851SOL     OW 3451   1.513   0.409   6.734
  851SOL    HW1 3452   1.510   0.393   6.635
  851SOL    HW2 3453   1.426   0.446   6.765
  852SOL     OW 3454   2.041   3.936   6.612
  852SOL    HW1 3455   2.053   4.018   6.556
  852SOL    HW2 3456   1.955   3.891   6.589
  853SOL     OW 3457   1.733   4.082   1.494
  853SOL    HW1 3458   1.688   4.139   1.425
  853SOL    HW2 3459   1.674   4.073   1.574
  854SOL     OW 3460   5.463   5.140   1.827
  854SOL    HW1 3461   5.520   5.096   1.896
  854SOL    HW2 3462   5.414   5.071   1.774
  855SOL     OW 3463   4.859   0.271   1.687
  855SOL    HW1 3464   4.945   0.322   1.683
  855SOL    HW2 3465   4.873   0.179   1.650
  856SOL     OW 3466   1.869   6.782   5.208
  856SOL    HW1 3467   1.837   6.688   5.205
  856SOL    HW2 3468   1.964   6.787   5.179
  857SOL     OW 3469   6.656   3.682   1.966
  857SOL    HW1 3470   6.643   3.588   1.934
  857SOL    HW2 3471   6.742   3.688   2.016
  858SOL     OW 3472   3.275   4.376   1.168
  858SOL    HW1 3473   3.307   4.309   1.101
  858SOL    HW2 3474   3.352   4.410   1.221
  859SOL     OW 3475   6.726   4.820   6.632
  859SOL    HW1 3476   6.634   4.800   6.600
  859SOL    HW2 3477   6.750   4.759   6.707
  860SOL     OW 3478   1.987   5.021   1.488
  860SOL    HW1 3479   2.021   5.072   1.567
  860SOL    HW2 3480   1.888   5.011   1.495
  861SOL     OW 3481   3.325   6.028   5.470
  861SOL    HW1 3482   3.310   6.098   5.540
  861SOL    HW2 3483   3.421   6.001   5.469
  862SOL     OW 3484   4.616   4.288   4.252
  862SOL    HW1 3485   4.548   4.361   4.256
  862SOL    HW2 3486   4.661   4.278   4.341
  863SOL     OW 3487   5.879   1.073   1.444
  863SOL    HW1 3488   5.932   1.055   1.361
  863SOL    HW2 3489   5.936   1.122   1.510
  864SOL     OW 3490   5.843   4.226   3.040
  864SOL    HW1 3491   5.793   4.141   3.020
  864SOL    HW2 3492   5.779   4.302   3.043
  865SOL     OW 3493   1.771   0.155   4.431
  865SOL    HW1 3494   1.767   0.222   4.357
  865SOL    HW2 3495   1.711   0.078   4.410
  866SOL     OW 3496   3.338   1.777   1.870
  866SOL    HW1 3497   3.438   1.776   1.870
  866SOL    HW2 3498   3.305   1.870   1.852
  867SOL     OW 3499   1.467   2.964   6.331
  867SOL    HW1 3500   1.454   3.008   6.242
  867SOL    HW2 3501   1.536   2.892   6.324
  868SOL     OW 3502   5.109   2.611   3.252
  868SOL    HW1 3503   5.010   2.606   3.264
  868SOL    HW2 3504   5.133   2.695   3.203
  869SOL     OW 3505   6.502   4.868   2.633
  869SOL    HW1 3506   6.441   4.798   2.596
  869SOL    HW2 3507   6.465   4.903   2.719
  870SOL     OW 3508   6.931   1.711   1.016
  870SOL    HW1 3509   6.993   1.662   1.078
  870SOL    HW2 3510   6.854   1.651   0.993
  871SOL     OW 3511   5.979   3.359   0.849
  871SOL    HW1 3512   5.955   3.430   0.783
  871SOL    HW2 3513   6.000   3.275   0.800
  872SOL     OW 3514   5.620   2.122   3.128
  872SOL    HW1 3515   5.557   2.059   3.083
  872SOL    HW2 3516   5.710   2.079   3.135
  873SOL     OW 3517   4.346   6.552   5.405
  873SOL    HW1 3518   4.366   6.629   5.344
  873SOL    HW2 3519   4.426   6.535   5.464
  874SOL     OW 3520   0.594   3.464   6.016
  874SOL    HW1 3521   0.598   3.391   5.949
  874SOL    HW2 3522   0.648   3.440   6.097
  875SOL     OW 3523   6.284   4.461   6.827
  875SOL    HW1 3524   6.346   4.533   6.857
  875SOL    HW2 3525   6.241   4.488   6.740
  876SOL     OW 3526   0.705   3.301   2.090
  876SOL    HW1 3527   0.802   3.322   2.093
  876SOL    HW2 3528   0.662   3.330   2.176
  877SOL     OW 3529   5.871   5.860   0.570
  877SOL    HW1 3530   5.814   5.939   0.591
  877SOL    HW2 3531   5.830   5.777   0.609
  878SOL     OW 3532   3.174   4.327   0.278
  878SOL    HW1 3533   3.211   4.360   0.365
  878SOL    HW2 3534   3.224   4.370   0.203
  879SOL     OW 3535   4.658   2.366   2.084
  879SOL    HW1 3536   4.757   2.357   2.079
  879SOL    HW2 3537   4.626   2.434   2.018
  880SOL     OW 3538   3.780   5.102   1.034
  880SOL    HW1 3539   3.850   5.059   0.978
  880SOL    HW2 3540   3.818   5.180   1.083
  881SOL     OW 3541   4.594   5.183   4.910
  881SOL    HW1 3542   4.546   5.208   4.994
  881SOL    HW2 3543   4.570   5.248   4.838
  882SOL     OW 3544   1.032   1.021   4.753
  882SOL    HW1 3545   0.998   1.065   4.836
  882SOL    HW2 3546   0.958   1.013   4.686
  883SOL     OW 3547   3.093   5.201   6.310
  883SOL    HW1 3548   2.994   5.187   6.308
  883SOL    HW2 3549   3.138   5.136   6.249
  884SOL     OW 3550   4.475   3.874   1.334
  884SOL    HW1 3551   4.567   3.894   1.367
  884SOL    HW2 3552   4.461   3.775   1.332
  885SOL     OW 3553   4.343   6.376   0.252
  885SOL    HW1 3554   4.330   6.298   0.314
  885SOL    HW2 3555   4.367   6.457   0.306
  886SOL     OW 3556   4.499   1.647   6.202
  886SOL    HW1 3557   4.451   1.639   6.115
  886SOL    HW2 3558   4.580   1.705   6.190
  887SOL     OW 3559   4.534   0.691   6.557
  887SOL    HW1 3560   4.538   0.784   6.522
  887SOL    HW2 3561   4.444   0.651   6.536
  888SOL     OW 3562   6.653   5.808   3.355
  888SOL    HW1 3563   6.725   5.782   3.291
  888SOL    HW2 3564   6.576   5.847   3.305
  889SOL     OW 3565   0.570   6.920   4.590
  889SOL    HW1 3566   0.500   6.915   4.520
  889SOL    HW2 3567   0.581   6.831   4.633
  890SOL     OW 3568   2.744   4.679   2.177
  890SOL    HW1 3569   2.808   4.694   2.252
  890SOL    HW2 3570   2.794   4.663   2.092
  891SOL     OW 3571   5.590   3.219   6.558
  891SOL    HW1 3572   5.664   3.277   6.523
  891SOL    HW2 3573   5.512   3.225   6.495
  892SOL     OW 3574   3.000   5.133   1.709
  892SOL    HW1 3575   2.967   5.089   1.792
  892SOL    HW2 3576   3.024   5.064   1.641
  893SOL     OW 3577   2.022   0.283   0.139
  893SOL    HW1 3578   1.926   0.301   0.162
  893SOL    HW2 3579   2.077   0.283   0.222
  894SOL     OW 3580   0.923   5.898   3.599
  894SOL    HW1 3581   0.857   5.898   3.674
  894SOL    HW2 3582   0.997   5.963   3.619
  895SOL     OW 3583   1.938   6.705   4.871
  895SOL    HW1 3584   1.915   6.797   4.903
  895SOL    HW2 3585   1.854   6.655   4.849
  896SOL     OW 3586   5.274   6.774   3.450
  896SOL    HW1 3587   5.236   6.752   3.360
  896SOL    HW2 3588   5.227   6.721   3.521
  897SOL     OW 3589   5.283   2.817   6.046
  897SOL    HW1 3590   5.289   2.759   6.128
  897SOL    HW2 3591   5.332   2.774   5.971
  898SOL     OW 3592   5.885   6.541   3.981
  898SOL    HW1 3593   5.928   6.487   3.910
  898SOL    HW2 3594   5.793   6.568   3.952
  899SOL     OW 3595   0.259   4.962   6.217
  899SOL    HW1 3596   0.354   4.936   6.236
  899SOL    HW2 3597   0.245   4.970   6.118
  900SOL     OW 3598   1.048   6.125   3.674
  900SOL    HW1 3599   1.106   6.172   3.608
  900SOL    HW2 3600   0.967   6.180   3.693
  901SOL     OW 3601   5.979   2.253   3.649
  901SOL    HW1 3602   5.996   2.341   3.694
  901SOL    HW2 3603   6.065   2.217   3.614
  902SOL     OW 3604   6.856   6.199   0.035
  902SOL    HW1 3605   6.955   6.209   0.036
  902SOL    HW2 3606   6.814   6.278   0.080
  903SOL     OW 3607   1.308   4.662   0.484
  903SOL    HW1 3608   1.225   4.639   0.432
  903SOL    HW2 3609   1.282   4.691   0.576
  904SOL     OW 3610   2.057   1.688   3.255
  904SOL    HW1 3611   2.054   1.709   3.157
  904SOL    HW2 3612   2.146   1.646   3.277
  905SOL     OW 3613   5.263   2.151   5.040
  905SOL    HW1 3614   5.336   2.083   5.038
  905SOL    HW2 3615   5.301   2.241   5.018
  906SOL     OW 3616   6.201   4.035   5.507
  906SOL    HW1 3617   6.186   3.985   5.421
  906SOL    HW2 3618   6.282   4.093   5.498
  907SOL     OW 3619   6.880   3.314   1.770
  907SOL    HW1 3620   6.797   3.332   1.822
  907SOL    HW2 3621   6.862   3.327   1.673
  908SOL     OW 3622   2.026   0.682   3.484
  908SOL    HW1 3623   2.065   0.773   3.469
  908SOL    HW2 3624   1.955   0.688   3.555
  909SOL     OW 3625   3.642   0.756   1.448
  909SOL    HW1 3626   3.696   0.725   1.526
  909SOL    HW2 3627   3.670   0.848   1.421
  910SOL     OW 3628   1.908   2.105   1.178
  910SOL    HW1 3629   1.997   2.150   1.183
  910SOL    HW2 3630   1.870   2.116   1.086
  911SOL     OW 3631   0.370   4.238   1.138
  911SOL    HW1 3632   0.415   4.270   1.221
  911SOL    HW2 3633   0.365   4.138   1.138
  912SOL     OW 3634   1.029   0.354   5.617
  912SOL    HW1 3635   0.999   0.316   5.530
  912SOL    HW2 3636   0.977   0.437   5.637
  913SOL     OW 3637   2.709   1.501   2.033
  913SOL    HW1 3638   2.721   1.597   2.060
  913SOL    HW2 3639   2.796   1.466   1.998
  914SOL     OW 3640   3.358   6.627   2.826
  914SOL    HW1 3641   3.312   6.704   2.781
  914SOL    HW2 3642   3.442   6.605   2.775
  915SOL     OW 3643   0.647   2.716   0.039
  915SOL    HW1 3644   0.712   2.643   0.059
  915SOL    HW2 3645   0.557   2.691   0.076
  916SOL     OW 3646   1.905   3.379   2.835
  916SOL    HW1 3647   1.967   3.458   2.847
  916SOL    HW2 3648   1.837   3.378   2.908
  917SOL     OW 3649   3.400   2.328   6.928
  917SOL    HW1 3650   3.353   2.270   6.861
  917SOL    HW2 3651   3.360   2.313   7.019
  918SOL     OW 3652   1.015   0.922   5.708
  918SOL    HW1 3653   1.012   0.833   5.755
  918SOL    HW2 3654   0.942   0.981   5.744
  919SOL     OW 3655   2.618   6.257   1.576
  919SOL    HW1 3656   2.574   6.343   1.551
  919SOL    HW2 3657   2.626   6.199   1.496
  920SOL     OW 3658   2.228   0.375   4.250
  920SOL    HW1 3659   2.224   0.312   4.328
  920SOL    HW2 3660   2.189   0.331   4.169
  921SOL     OW 3661   5.231   4.921   5.949
  921SOL    HW1 3662   5.143   4.942   5.907
  921SOL    HW2 3663   5.270   5.005   5.988
  922SOL     OW 3664   2.285   3.817   6.618
  922SOL    HW1 3665   2.189   3.842   6.627
  922SOL    HW2 3666   2.342   3.891   6.651
  923SOL     OW 3667   3.894   0.751   6.529
  923SOL    HW1 3668   3.969   0.794   6.578
  923SOL    HW2 3669   3.927   0.714   6.442
  924SOL     OW 3670   6.187   3.743   3.335
  924SOL    HW1 3671   6.160   3.661   3.385
  924SOL    HW2 3672   6.262   3.721   3.272
  925SOL     OW 3673   6.728   1.755   3.343
  925SOL    HW1 3674   6.675   1.674   3.370
  925SOL    HW2 3675   6.683   1.837   3.379
  926SOL     OW 3676   5.388   6.383   0.763
  926SOL    HW1 3677   5.377   6.366   0.861
  926SOL    HW2 3678   5.315   6.337   0.713
  927SOL     OW 3679   4.103   5.177   5.065
  927SOL    HW1 3680   4.108   5.079   5.084
  927SOL    HW2 3681   4.027   5.195   5.002
  928SOL     OW 3682   0.676   1.211   1.383
  928SOL    HW1 3683   0.597   1.227   1.324
  928SOL    HW2 3684   0.686   1.113   1.401
  929SOL     OW 3685   0.936   2.797   2.666
  929SOL    HW1 3686   0.945   2.707   2.710
  929SOL    HW2 3687   1.024   2.844   2.669
  930SOL     OW 3688   4.868   5.892   3.609
  930SOL    HW1 3689   4.785   5.837   3.602
  930SOL    HW2 3690   4.880   5.921   3.704
  931SOL     OW 3691   1.695   2.950   1.971
  931SOL    HW1 3692   1.778   2.935   2.024
  931SOL    HW2 3693   1.632   3.007   2.024
  932SOL     OW 3694   4.405   6.206   1.449
  932SOL    HW1 3695   4.363   6.139   1.388
  932SOL    HW2 3696   4.432   6.287   1.397
  933SOL     OW 3697   2.174   6.153   3.008
  933SOL    HW1 3698   2.117   6.132   2.928
  933SOL    HW2 3699   2.211   6.067   3.045
  934SOL     OW 3700   3.160   1.366   5.548
  934SOL    HW1 3701   3.100   1.432   5.502
  934SOL    HW2 3702   3.197   1.408   5.631
  935SOL     OW 3703   2.578   3.248   6.527
  935SOL    HW1 3704   2.608   3.302   6.606
  935SOL    HW2 3705   2.573   3.151   6.553
  936SOL     OW 3706   0.372   1.647   1.620
  936SOL    HW1 3707   0.422   1.734   1.621
  936SOL    HW2 3708   0.399   1.592   1.699
  937SOL     OW 3709   4.545   2.159   3.902
  937SOL    HW1 3710   4.550   2.241   3.958
  937SOL    HW2 3711   4.573   2.181   3.808
  938SOL     OW 3712   0.043   2.220   6.991
  938SOL    HW1 3713   0.115   2.202   0.036
  938SOL    HW2 3714   0.084   2.264   6.910
  939SOL     OW 3715   6.068   1.311   6.012
  939SOL    HW1 3716   6.037   1.277   5.924
  939SOL    HW2 3717   6.012   1.389   6.040
  940SOL     OW 3718   0.501   0.828   4.293
  940SOL    HW1 3719   0.569   0.832   4.366
  940SOL    HW2 3720   0.527   0.757   4.227
  941SOL     OW 3721   5.503   2.821   5.005
  941SOL    HW1 3722   5.556   2.740   5.030
  941SOL    HW2 3723   5.405   2.800   5.011
  942SOL     OW 3724   5.573   0.112   5.205
  942SOL    HW1 3725   5.509   0.171   5.254
  942SOL    HW2 3726   5.523   0.056   5.139
  943SOL     OW 3727   5.779   1.815   0.279
  943SOL    HW1 3728   5.737   1.754   0.211
  943SOL    HW2 3729   5.807   1.763   0.359
  944SOL     OW 3730   6.461   3.961   4.972
  944SOL    HW1 3731   6.385   4.013   5.010
  944SOL    HW2 3732   6.466   3.976   4.873
  945SOL     OW 3733   5.355   4.236   5.109
  945SOL    HW1 3734   5.328   4.141   5.094
  945SOL    HW2 3735   5.431   4.240   5.174
  946SOL     OW 3736   5.743   2.778   5.716
  946SOL    HW1 3737   5.686   2.733   5.785
  946SOL    HW2 3738   5.838   2.748   5.727
  947SOL     OW 3739   1.939   3.174   5.619
  947SOL    HW1 3740   1.858   3.157   5.676
  947SOL    HW2 3741   1.955   3.273   5.613
  948SOL     OW 3742   3.641   1.989   0.205
  948SOL    HW1 3743   3.634   2.081   0.244
  948SOL    HW2 3744   3.689   1.929   0.269
  949SOL     OW 3745   5.413   5.798   6.308
  949SOL    HW1 3746   5.435   5.836   6.398
  949SOL    HW2 3747   5.320   5.824   6.283
  950SOL     OW 3748   4.077   5.295   1.104
  950SOL    HW1 3749   4.126   5.338   1.180
  950SOL    HW2 3750   3.979   5.313   1.114
  951SOL     OW 3751   1.452   2.528   2.822
  951SOL    HW1 3752   1.453   2.601   2.890
  951SOL    HW2 3753   1.437   2.567   2.731
  952SOL     OW 3754   5.176   1.604   1.872
  952SOL    HW1 3755   5.259   1.558   1.840
  952SOL    HW2 3756   5.193   1.703   1.874
  953SOL     OW 3757   3.521   0.018   6.315
  953SOL    HW1 3758   3.618   0.041   6.328
  953SOL    HW2 3759   3.478   0.089   6.258
  954SOL     OW 3760   6.550   6.008   0.429
  954SOL    HW1 3761   6.648   6.031   0.433
  954SOL    HW2 3762   6.534   5.923   0.479
  955SOL     OW 3763   6.379   0.079   2.608
  955SOL    HW1 3764   6.316   0.056   2.534
  955SOL    HW2 3765   6.409   7.018   2.654
  956SOL     OW 3766   0.894   2.314   0.682
  956SOL    HW1 3767   0.822   2.276   0.741
  956SOL    HW2 3768   0.869   2.299   0.586
  957SOL     OW 3769   2.649   6.351   5.224
  957SOL    HW1 3770   2.642   6.328   5.127
  957SOL    HW2 3771   2.585   6.424   5.247
  958SOL     OW 3772   5.075   2.293   0.333
  958SOL    HW1 3773   5.052   2.208   0.382
  958SOL    HW2 3774   5.171   2.291   0.307
  959SOL     OW 3775   1.383   4.386   2.793
  959SOL    HW1 3776   1.352   4.431   2.709
  959SOL    HW2 3777   1.429   4.300   2.770
  960SOL     OW 3778   1.644   5.427   5.516
  960SOL    HW1 3779   1.632   5.331   5.489
  960SOL    HW2 3780   1.723   5.434   5.578
  961SOL     OW 3781   3.789   6.547   1.727
  961SOL    HW1 3782   3.888   6.538   1.718
  961SOL    HW2 3783   3.768   6.613   1.800
  962SOL     OW 3784   1.400   0.003   4.331
  962SOL    HW1 3785   1.402   6.925   4.333
  962SOL    HW2 3786   1.373   0.038   4.421
  963SOL     OW 3787   6.199   0.441   1.372
  963SOL    HW1 3788   6.276   0.412   1.316
  963SOL    HW2 3789   6.191   0.379   1.451
  964SOL     OW 3790   4.920   4.187   1.201
  964SOL    HW1 3791   4.871   4.266   1.164
  964SOL    HW2 3792   4.859   4.133   1.258
  965SOL     OW 3793   0.855   2.197   0.964
  965SOL    HW1 3794   0.938   2.246   0.936
  965SOL    HW2 3795   0.834   2.220   1.059
  966SOL     OW 3796   0.130   1.832   1.680
  966SOL    HW1 3797   0.219   1.875   1.693
  966SOL    HW2 3798   0.129   1.784   1.592
  967SOL     OW 3799   0.772   6.069   2.578
  967SOL    HW1 3800   0.799   6.146   2.520
  967SOL    HW2 3801   0.714   6.104   2.652
  968SOL     OW 3802   6.190   3.475   2.506
  968SOL    HW1 3803   6.204   3.398   2.444
  968SOL    HW2 3804   6.119   3.535   2.469
  969SOL     OW 3805   4.570   5.972   5.648
  969SOL    HW1 3806   4.636   5.959   5.574
  969SOL    HW2 3807   4.519   5.888   5.663
  970SOL     OW 3808   4.461   2.228   5.276
  970SOL    HW1 3809   4.417   2.139   5.277
  970SOL    HW2 3810   4.541   2.225   5.215
  971SOL     OW 3811   6.585   1.992   1.607
  971SOL    HW1 3812   6.616   2.018   1.699
  971SOL    HW2 3813   6.658   1.945   1.559
  972SOL     OW 3814   6.781   5.472   1.161
  972SOL    HW1 3815   6.785   5.559   1.112
  972SOL    HW2 3816   6.711   5.414   1.119
  973SOL     OW 3817   5.995   4.082   5.860
  973SOL    HW1 3818   5.975   4.130   5.774
  973SOL    HW2 3819   6.091   4.057   5.863
  974SOL     OW 3820   2.700   1.282   4.166
  974SOL    HW1 3821   2.756   1.361   4.191
  974SOL    HW2 3822   2.746   1.231   4.093
  975SOL     OW 3823   3.440   6.963   5.810
  975SOL    HW1 3824   3.362   6.951   5.872
  975SOL    HW2 3825   3.465   6.875   5.770
  976SOL     OW 3826   0.488   5.287   3.890
  976SOL    HW1 3827   0.493   5.372   3.838
  976SOL    HW2 3828   0.578   5.244   3.893
  977SOL     OW 3829   1.559   1.127   3.700
  977SOL    HW1 3830   1.461   1.138   3.688
  977SOL    HW2 3831   1.596   1.204   3.752
  978SOL     OW 3832   5.955   3.327   4.693
  978SOL    HW1 3833   6.012   3.402   4.726
  978SOL    HW2 3834   5.924   3.271   4.770
  979SOL     OW 3835   5.489   0.833   3.304
  979SOL    HW1 3836   5.505   0.809   3.208
  979SOL    HW2 3837   5.487   0.932   3.314
  980SOL     OW 3838   5.824   1.081   5.061
  980SOL    HW1 3839   5.753   1.151   5.064
  980SOL    HW2 3840   5.908   1.121   5.023
  981SOL     OW 3841   0.001   2.771   5.908
  981SOL    HW1 3842   0.100   2.781   5.912
  981SOL    HW2 3843   6.979   2.855   5.939
  982SOL     OW 3844   1.404   2.832   1.419
  982SOL    HW1 3845   1.476   2.883   1.373
  982SOL    HW2 3846   1.379   2.752   1.363
  983SOL     OW 3847   5.457   1.397   2.945
  983SOL    HW1 3848   5.422   1.360   2.859
  983SOL    HW2 3849   5.529   1.338   2.981
  984SOL     OW 3850   4.880   1.006   3.957
  984SOL    HW1 3851   4.810   0.949   3.999
  984SOL    HW2 3852   4.913   0.962   3.873
  985SOL     OW 3853   3.313   5.711   7.019
  985SOL    HW1 3854   3.220   5.685   0.024
  985SOL    HW2 3855   3.363   5.745   0.076
  986SOL     OW 3856   4.646   5.098   6.086
  986SOL    HW1 3857   4.596   5.164   6.141
  986SOL    HW2 3858   4.674   5.141   6.000
  987SOL     OW 3859   3.875   0.091   2.539
  987SOL    HW1 3860   3.966   0.051   2.529
  987SOL    HW2 3861   3.877   0.161   2.610
  988SOL     OW 3862   3.384   4.050   1.873
  988SOL    HW1 3863   3.284   4.042   1.875
  988SOL    HW2 3864   3.424   3.965   1.840
  989SOL     OW 3865   0.900   6.746   5.368
  989SOL    HW1 3866   0.916   6.841   5.397
  989SOL    HW2 3867   0.933   6.684   5.439
  990SOL     OW 3868   4.496   5.968   3.676
  990SOL    HW1 3869   4.522   6.064   3.679
  990SOL    HW2 3870   4.447   5.949   3.591
  991SOL     OW 3871   6.177   1.905   5.043
  991SOL    HW1 3872   6.153   1.836   4.975
  991SOL    HW2 3873   6.240   1.971   5.003
  992SOL     OW 3874   0.695   3.159   0.951
  992SOL    HW1 3875   0.743   3.076   0.979
  992SOL    HW2 3876   0.653   3.144   0.861
  993SOL     OW 3877   3.488   4.900   3.807
  993SOL    HW1 3878   3.392   4.925   3.815
  993SOL    HW2 3879   3.529   4.895   3.898
  994SOL     OW 3880   2.916   3.543   2.758
  994SOL    HW1 3881   2.907   3.602   2.839
  994SOL    HW2 3882   2.889   3.450   2.781
  995SOL     OW 3883   1.188   1.408   4.996
  995SOL    HW1 3884   1.146   1.448   4.914
  995SOL    HW2 3885   1.266   1.352   4.969
  996SOL     OW 3886   1.476   3.720   2.683
  996SOL    HW1 3887   1.427   3.664   2.750
  996SOL    HW2 3888   1.460   3.817   2.703
  997SOL     OW 3889   6.700   0.895   1.508
  997SOL    HW1 3890   6.676   0.820   1.568
  997SOL    HW2 3891   6.665   0.981   1.546
  998SOL     OW 3892   5.123   6.824   3.229
  998SOL    HW1 3893   5.163   6.870   3.150
  998SOL    HW2 3894   5.062   6.888   3.277
  999SOL     OW 3895   0.252   5.183   1.132
  999SOL    HW1 3896   0.235   5.139   1.220
  999SOL    HW2 3897   0.293   5.117   1.069
 1000SOL     OW 3898   4.058   1.649   3.767
 1000SOL    HW1 3899   4.126   1.588   3.726
 1000SOL    HW2 3900   3.976   1.651   3.708
 1001SOL     OW 3901   4.657   0.371   5.230
 1001SOL    HW1 3902   4.705   0.419   5.304
 1001SOL    HW2 3903   4.562   0.404   5.225
 1002SOL     OW 3904   6.428   1.894   1.221
 1002SOL    HW1 3905   6.456   1.974   1.169
 1002SOL    HW2 3906   6.486   1.816   1.196
 1003SOL     OW 3907   4.680   5.332   2.507
 1003SOL    HW1 3908   4.608   5.396   2.481
 1003SOL    HW2 3909   4.721   5.293   2.424
 1004SOL     OW 3910   5.945   5.994   6.765
 1004SOL    HW1 3911   6.002   5.956   6.838
 1004SOL    HW2 3912   5.980   5.965   6.676
 1005SOL     OW 3913   6.893   6.612   3.424
 1005SOL    HW1 3914   6.930   6.623   3.516
 1005SOL    HW2 3915   6.957   6.560   3.368
 1006SOL     OW 3916   2.138   4.579   1.301
 1006SOL    HW1 3917   2.216   4.613   1.354
 1006SOL    HW2 3918   2.168   4.559   1.208
 1007SOL     OW 3919   0.438   1.053   3.519
 1007SOL    HW1 3920   0.374   1.103   3.462
 1007SOL    HW2 3921   0.532   1.073   3.491
 1008SOL     OW 3922   2.092   3.365   3.424
 1008SOL    HW1 3923   2.073   3.440   3.487
 1008SOL    HW2 3924   2.069   3.393   3.331
 1009SOL     OW 3925   1.297   6.100   5.119
 1009SOL    HW1 3926   1.205   6.136   5.136
 1009SOL    HW2 3927   1.348   6.165   5.061
 1010SOL     OW 3928   4.968   1.661   0.325
 1010SOL    HW1 3929   4.918   1.728   0.269
 1010SOL    HW2 3930   4.998   1.586   0.267
 1011SOL     OW 3931   3.627   6.212   3.021
 1011SOL    HW1 3932   3.549   6.167   3.065
 1011SOL    HW2 3933   3.672   6.272   3.087
 1012SOL     OW 3934   4.700   5.402   6.826
 1012SOL    HW1 3935   4.705   5.304   6.843
 1012SOL    HW2 3936   4.772   5.449   6.878
 1013SOL     OW 3937   0.754   0.940   1.396
 1013SOL    HW1 3938   0.746   0.912   1.492
 1013SOL    HW2 3939   0.851   0.953   1.374
 1014SOL     OW 3940   4.347   0.326   5.817
 1014SOL    HW1 3941   4.323   0.231   5.798
 1014SOL    HW2 3942   4.416   0.329   5.889
 1015SOL     OW 3943   3.311   6.033   4.111
 1015SOL    HW1 3944   3.275   6.120   4.077
 1015SOL    HW2 3945   3.236   5.969   4.124
 1016SOL     OW 3946   4.490   2.673   1.415
 1016SOL    HW1 3947   4.465   2.766   1.444
 1016SOL    HW2 3948   4.407   2.622   1.392
 1017SOL     OW 3949   4.193   1.569   6.513
 1017SOL    HW1 3950   4.119   1.598   6.573
 1017SOL    HW2 3951   4.233   1.649   6.468
 1018SOL     OW 3952   1.756   3.906   3.123
 1018SOL    HW1 3953   1.743   3.855   3.208
 1018SOL    HW2 3954   1.852   3.897   3.094
 1019SOL     OW 3955   6.347   0.703   0.268
 1019SOL    HW1 3956   6.407   0.727   0.345
 1019SOL    HW2 3957   6.269   0.651   0.302
 1020SOL     OW 3958   2.575   1.753   1.727
 1020SOL    HW1 3959   2.673   1.756   1.749
 1020SOL    HW2 3960   2.542   1.846   1.711
 1021SOL     OW 3961   6.812   1.041   1.245
 1021SOL    HW1 3962   6.807   1.095   1.161
 1021SOL    HW2 3963   6.762   1.087   1.317
 1022SOL     OW 3964   4.116   3.407   6.478
 1022SOL    HW1 3965   4.110   3.307   6.479
 1022SOL    HW2 3966   4.034   3.445   6.521
 1023SOL     OW 3967   5.078   0.933   3.284
 1023SOL    HW1 3968   5.082   0.901   3.189
 1023SOL    HW2 3969   5.083   1.033   3.285
 1024SOL     OW 3970   6.551   1.535   3.342
 1024SOL    HW1 3971   6.498   1.575   3.267
 1024SOL    HW2 3972   6.549   1.435   3.335
 1025SOL     OW 3973   2.997   4.735   1.287
 1025SOL    HW1 3974   2.960   4.700   1.373
 1025SOL    HW2 3975   2.976   4.672   1.213
 1026SOL     OW 3976   1.222   2.114   0.417
 1026SOL    HW1 3977   1.171   2.037   0.378
 1026SOL    HW2 3978   1.245   2.179   0.344
 1027SOL     OW 3979   2.750   4.763   2.473
 1027SOL    HW1 3980   2.795   4.734   2.557
 1027SOL    HW2 3981   2.816   4.814   2.417
 1028SOL     OW 3982   1.468   6.515   0.338
 1028SOL    HW1 3983   1.509   6.430   0.304
 1028SOL    HW2 3984   1.420   6.561   0.263
 1029SOL     OW 3985   2.985   0.482   6.058
 1029SOL    HW1 3986   2.908   0.456   6.117
 1029SOL    HW2 3987   3.004   0.580   6.070
 1030SOL     OW 3988   4.011   3.985   4.837
 1030SOL    HW1 3989   3.935   4.033   4.882
 1030SOL    HW2 3990   4.098   4.018   4.875
 1031SOL     OW 3991   2.120   5.843   1.447
 1031SOL    HW1 3992   2.127   5.938   1.418
 1031SOL    HW2 3993   2.156   5.784   1.375
 1032SOL     OW 3994   1.705   0.674   4.275
 1032SOL    HW1 3995   1.692   0.596   4.337
 1032SOL    HW2 3996   1.724   0.757   4.329
 1033SOL     OW 3997   2.413   6.071   3.394
 1033SOL    HW1 3998   2.385   5.976   3.406
 1033SOL    HW2 3999   2.423   6.091   3.297
 1034SOL     OW 4000   1.160   5.013   3.935
 1034SOL    HW1 4001   1.250   4.979   3.960
 1034SOL    HW2 4002   1.090   4.960   3.983
 1035SOL     OW 4003   2.578   1.377   4.489
 1035SOL    HW1 4004   2.496   1.434   4.484
 1035SOL    HW2 4005   2.568   1.299   4.427
 1036SOL     OW 4006   5.002   2.040   0.417
 1036SOL    HW1 4007   4.960   1.965   0.469
 1036SOL    HW2 4008   5.098   2.047   0.441
 1037SOL     OW 4009   2.399   2.113   6.778
 1037SOL    HW1 4010   2.327   2.064   6.728
 1037SOL    HW2 4011   2.467   2.047   6.810
 1038SOL     OW 4012   2.295   0.759   4.518
 1038SOL    HW1 4013   2.214   0.779   4.573
 1038SOL    HW2 4014   2.267   0.729   4.427
 1039SOL     OW 4015   4.107   1.665   3.444
 1039SOL    HW1 4016   4.027   1.679   3.503
 1039SOL    HW2 4017   4.077   1.665   3.348
 1040SOL     OW 4018   6.417   4.073   3.271
 1040SOL    HW1 4019   6.364   4.155   3.294
 1040SOL    HW2 4020   6.364   4.014   3.211
 1041SOL     OW 4021   0.975   0.313   4.234
 1041SOL    HW1 4022   1.020   0.297   4.146
 1041SOL    HW2 4023   1.010   0.397   4.274
 1042SOL     OW 4024   5.322   4.584   0.781
 1042SOL    HW1 4025   5.246   4.641   0.812
 1042SOL    HW2 4026   5.301   4.546   0.691
 1043SOL     OW 4027   3.093   0.918   6.768
 1043SOL    HW1 4028   3.011   0.949   6.721
 1043SOL    HW2 4029   3.173   0.927   6.708
 1044SOL     OW 4030   4.355   3.322   1.670
 1044SOL    HW1 4031   4.279   3.352   1.612
 1044SOL    HW2 4032   4.418   3.398   1.684
 1045SOL     OW 4033   3.070   1.499   3.224
 1045SOL    HW1 4034   3.058   1.491   3.323
 1045SOL    HW2 4035   3.143   1.565   3.205
 1046SOL     OW 4036   3.981   0.759   1.971
 1046SOL    HW1 4037   4.059   0.809   2.008
 1046SOL    HW2 4038   3.908   0.824   1.948
 1047SOL     OW 4039   1.149   5.039   2.232
 1047SOL    HW1 4040   1.102   4.967   2.284
 1047SOL    HW2 4041   1.225   5.075   2.287
 1048SOL     OW 4042   5.759   4.370   5.802
 1048SOL    HW1 4043   5.706   4.395   5.883
 1048SOL    HW2 4044   5.702   4.318   5.739
 1049SOL     OW 4045   0.478   3.236   5.087
 1049SOL    HW1 4046   0.531   3.237   5.003
 1049SOL    HW2 4047   0.447   3.329   5.108
 1050SOL     OW 4048   3.105   0.583   6.912
 1050SOL    HW1 4049   3.107   0.485   6.932
 1050SOL    HW2 4050   3.078   0.633   6.995
 1051SOL     OW 4051   4.489   4.442   1.489
 1051SOL    HW1 4052   4.394   4.458   1.517
 1051SOL    HW2 4053   4.531   4.375   1.551
 1052SOL     OW 4054   3.583   0.191   4.367
 1052SOL    HW1 4055   3.567   0.200   4.269
 1052SOL    HW2 4056   3.555   0.274   4.414
 1053SOL     OW 4057   4.171   4.874   3.739
 1053SOL    HW1 4058   4.138   4.783   3.714
 1053SOL    HW2 4059   4.243   4.901   3.676
 1054SOL     OW 4060   3.954   6.435   4.406
 1054SOL    HW1 4061   3.996   6.418   4.495
 1054SOL    HW2 4062   3.868   6.484   4.419
 1055SOL     OW 4063   4.729   4.963   5.012
 1055SOL    HW1 4064   4.679   4.878   4.995
 1055SOL    HW2 4065   4.678   5.040   4.974
 1056SOL     OW 4066   1.382   6.789   5.161
 1056SOL    HW1 4067   1.461   6.745   5.120
 1056SOL    HW2 4068   1.408   6.879   5.197
 1057SOL     OW 4069   3.831   3.973   2.141
 1057SOL    HW1 4070   3.778   3.894   2.172
 1057SOL    HW2 4071   3.898   3.943   2.073
 1058SOL     OW 4072   4.017   1.206   1.559
 1058SOL    HW1 4073   4.107   1.233   1.527
 1058SOL    HW2 4074   4.008   1.107   1.554
 1059SOL     OW 4075   3.425   1.592   0.891
 1059SOL    HW1 4076   3.351   1.657   0.908
 1059SOL    HW2 4077   3.394   1.500   0.913
 1060SOL     OW 4078   2.475   2.644   5.234
 1060SOL    HW1 4079   2.412   2.650   5.157
 1060SOL    HW2 4080   2.510   2.735   5.255
 1061SOL     OW 4081   3.268   5.813   1.534
 1061SOL    HW1 4082   3.176   5.820   1.572
 1061SOL    HW2 4083   3.319   5.897   1.554
 1062SOL     OW 4084   5.611   4.629   5.058
 1062SOL    HW1 4085   5.553   4.561   5.014
 1062SOL    HW2 4086   5.554   4.701   5.097
 1063SOL     OW 4087   1.732   2.824   6.350
 1063SOL    HW1 4088   1.725   2.737   6.302
 1063SOL    HW2 4089   1.703   2.812   6.445
 1064SOL     OW 4090   6.987   3.112   1.535
 1064SOL    HW1 4091   7.007   3.083   1.629
 1064SOL    HW2 4092   6.912   3.178   1.536
 1065SOL     OW 4093   6.210   5.959   5.174
 1065SOL    HW1 4094   6.241   5.871   5.211
 1065SOL    HW2 4095   6.162   5.944   5.088
 1066SOL     OW 4096   3.890   0.507   3.414
 1066SOL    HW1 4097   3.931   0.498   3.323
 1066SOL    HW2 4098   3.941   0.452   3.479
 1067SOL     OW 4099   1.607   2.991   1.289
 1067SOL    HW1 4100   1.680   2.976   1.356
 1067SOL    HW2 4101   1.573   3.085   1.297
 1068SOL     OW 4102   0.563   3.456   1.795
 1068SOL    HW1 4103   0.499   3.514   1.744
 1068SOL    HW2 4104   0.514   3.379   1.835
 1069SOL     OW 4105   3.717   3.635   1.606
 1069SOL    HW1 4106   3.784   3.563   1.619
 1069SOL    HW2 4107   3.762   3.716   1.568
 1070SOL     OW 4108   2.046   1.033   6.884
 1070SOL    HW1 4109   1.981   0.970   6.840
 1070SOL    HW2 4110   2.028   1.035   6.983
 1071SOL     OW 4111   3.998   6.532   3.471
 1071SOL    HW1 4112   4.055   6.451   3.455
 1071SOL    HW2 4113   3.976   6.538   3.569
 1072SOL     OW 4114   3.940   5.570   2.921
 1072SOL    HW1 4115   3.911   5.617   3.004
 1072SOL    HW2 4116   3.862   5.526   2.878
 1073SOL     OW 4117   2.524   4.651   2.679
 1073SOL    HW1 4118   2.594   4.628   2.746
 1073SOL    HW2 4119   2.547   4.610   2.591
 1074SOL     OW 4120   1.324   5.216   2.356
 1074SOL    HW1 4121   1.330   5.205   2.455
 1074SOL    HW2 4122   1.297   5.310   2.334
 1075SOL     OW 4123   0.142   4.223   3.703
 1075SOL    HW1 4124   0.150   4.144   3.642
 1075SOL    HW2 4125   0.175   4.305   3.655
 1076SOL     OW 4126   0.495   5.296   3.551
 1076SOL    HW1 4127   0.528   5.284   3.457
 1076SOL    HW2 4128   0.395   5.294   3.551
 1077SOL     OW 4129   4.683   0.152   0.802
 1077SOL    HW1 4130   4.650   0.148   0.896
 1077SOL    HW2 4131   4.657   0.240   0.762
 1078SOL     OW 4132   0.525   2.011   1.165
 1078SOL    HW1 4133   0.530   1.952   1.245
 1078SOL    HW2 4134   0.430   2.020   1.136
 1079SOL     OW 4135   2.300   5.621   2.932
 1079SOL    HW1 4136   2.389   5.574   2.929
 1079SOL    HW2 4137   2.229   5.556   2.958
 1080SOL     OW 4138   1.780   5.138   4.355
 1080SOL    HW1 4139   1.851   5.192   4.399
 1080SOL    HW2 4140   1.712   5.111   4.422
 1081SOL     OW 4141   1.312   0.898   6.915
 1081SOL    HW1 4142   1.323   0.946   7.002
 1081SOL    HW2 4143   1.274   0.961   6.847
 1082SOL     OW 4144   2.069   0.045   6.645
 1082SOL    HW1 4145   2.061   0.032   6.744
 1082SOL    HW2 4146   2.165   0.037   6.617
 1083SOL     OW 4147   4.111   3.146   1.477
 1083SOL    HW1 4148   4.031   3.114   1.427
 1083SOL    HW2 4149   4.118   3.097   1.564
 1084SOL     OW 4150   6.432   3.799   0.628
 1084SOL    HW1 4151   6.490   3.873   0.594
 1084SOL    HW2 4152   6.377   3.832   0.704
 1085SOL     OW 4153   2.193   3.950   3.880
 1085SOL    HW1 4154   2.136   3.991   3.952
 1085SOL    HW2 4155   2.187   3.851   3.886
 1086SOL     OW 4156   4.081   5.279   1.901
 1086SOL    HW1 4157   4.041   5.192   1.931
 1086SOL    HW2 4158   4.082   5.344   1.977
 1087SOL     OW 4159   4.306   3.078   5.332
 1087SOL    HW1 4160   4.236   3.142   5.364
 1087SOL    HW2 4161   4.268   2.985   5.331
 1088SOL     OW 4162   5.235   3.726   3.330
 1088SOL    HW1 4163   5.282   3.638   3.327
 1088SOL    HW2 4164   5.293   3.796   3.286
 1089SOL     OW 4165   5.996   0.302   3.632
 1089SOL    HW1 4166   6.012   0.244   3.712
 1089SOL    HW2 4167   6.042   0.390   3.645
 1090SOL     OW 4168   0.302   2.400   5.524
 1090SOL    HW1 4169   0.323   2.328   5.459
 1090SOL    HW2 4170   0.209   2.433   5.509
 1091SOL     OW 4171   1.195   1.810   4.867
 1091SOL    HW1 4172   1.180   1.879   4.796
 1091SOL    HW2 4173   1.194   1.855   4.957
 1092SOL     OW 4174   2.366   4.670   1.424
 1092SOL    HW1 4175   2.347   4.705   1.516
 1092SOL    HW2 4176   2.457   4.700   1.395
 1093SOL     OW 4177   0.762   1.941   2.493
 1093SOL    HW1 4178   0.748   1.879   2.416
 1093SOL    HW2 4179   0.691   1.925   2.562
 1094SOL     OW 4180   0.959   6.267   1.746
 1094SOL    HW1 4181   0.923   6.333   1.812
 1094SOL    HW2 4182   0.918   6.177   1.764
 1095SOL     OW 4183   6.326   3.508   6.354
 1095SOL    HW1 4184   6.337   3.603   6.324
 1095SOL    HW2 4185   6.372   3.447   6.288
 1096SOL     OW 4186   3.435   4.256   1.685
 1096SOL    HW1 4187   3.418   4.186   1.754
 1096SOL    HW2 4188   3.354   4.266   1.627
 1097SOL     OW 4189   1.935   4.899   5.299
 1097SOL    HW1 4190   1.953   4.907   5.397
 1097SOL    HW2 4191   1.877   4.976   5.269
 1098SOL     OW 4192   4.163   1.400   2.945
 1098SOL    HW1 4193   4.107   1.320   2.966
 1098SOL    HW2 4194   4.254   1.388   2.984
 1099SOL     OW 4195   3.657   1.948   2.757
 1099SOL    HW1 4196   3.585   1.934   2.826
 1099SOL    HW2 4197   3.745   1.920   2.794
 1100SOL     OW 4198   1.025   0.297   0.617
 1100SOL    HW1 4199   0.947   0.235   0.619
 1100SOL    HW2 4200   1.039   0.329   0.523
 1101SOL     OW 4201   5.407   2.829   0.731
 1101SOL    HW1 4202   5.476   2.799   0.797
 1101SOL    HW2 4203   5.437   2.806   0.639
 1102SOL     OW 4204   0.853   4.931   3.292
 1102SOL    HW1 4205   0.951   4.944   3.307
 1102SOL    HW2 4206   0.803   4.954   3.375
 1103SOL     OW 4207   0.601   2.840   1.278
 1103SOL    HW1 4208   0.554   2.784   1.346
 1103SOL    HW2 4209   0.639   2.921   1.322
 1104SOL     OW 4210   2.797   5.038   5.449
 1104SOL    HW1 4211   2.715   4.996   5.409
 1104SOL    HW2 4212   2.872   4.973   5.447
 1105SOL     OW 4213   4.409   5.669   0.373
 1105SOL    HW1 4214   4.479   5.738   0.388
 1105SOL    HW2 4215   4.384   5.667   0.276
 1106SOL     OW 4216   0.299   1.976   6.018
 1106SOL    HW1 4217   0.235   1.954   5.944
 1106SOL    HW2 4218   0.249   2.022   6.092
 1107SOL     OW 4219   1.620   0.178   1.278
 1107SOL    HW1 4220   1.619   0.118   1.357
 1107SOL    HW2 4221   1.527   0.202   1.252
 1108SOL     OW 4222   0.776   2.014   6.041
 1108SOL    HW1 4223   0.793   2.107   6.009
 1108SOL    HW2 4224   0.750   2.016   6.138
 1109SOL     OW 4225   5.023   0.946   4.302
 1109SOL    HW1 4226   4.938   0.967   4.351
 1109SOL    HW2 4227   5.098   0.996   4.344
 1110SOL     OW 4228   3.711   2.827   1.936
 1110SOL    HW1 4229   3.629   2.799   1.886
 1110SOL    HW2 4230   3.788   2.771   1.905
 1111SOL     OW 4231   5.576   6.524   0.117
 1111SOL    HW1 4232   5.558   6.601   0.179
 1111SOL    HW2 4233   5.660   6.478   0.146
 1112SOL     OW 4234   5.940   0.846   2.717
 1112SOL    HW1 4235   6.018   0.884   2.767
 1112SOL    HW2 4236   5.956   0.853   2.619
 1113SOL     OW 4237   6.486   4.066   1.622
 1113SOL    HW1 4238   6.561   4.096   1.681
 1113SOL    HW2 4239   6.439   3.989   1.664
 1114SOL     OW 4240   5.030   1.555   5.066
 1114SOL    HW1 4241   4.979   1.552   4.980
 1114SOL    HW2 4242   5.127   1.572   5.047
 1115SOL     OW 4243   2.368   2.936   0.909
 1115SOL    HW1 4244   2.409   2.861   0.960
 1115SOL    HW2 4245   2.273   2.948   0.937
 1116SOL     OW 4246   4.454   5.810   4.677
 1116SOL    HW1 4247   4.433   5.797   4.774
 1116SOL    HW2 4248   4.417   5.734   4.624
 1117SOL     OW 4249   2.739   3.137   0.536
 1117SOL    HW1 4250   2.780   3.227   0.521
 1117SOL    HW2 4251   2.769   3.074   0.465
 1118SOL     OW 4252   1.985   3.829   3.599
 1118SOL    HW1 4253   2.038   3.827   3.683
 1118SOL    HW2 4254   2.044   3.854   3.522
 1119SOL     OW 4255   3.564   4.076   2.103
 1119SOL    HW1 4256   3.508   4.106   2.026
 1119SOL    HW2 4257   3.651   4.040   2.069
 1120SOL     OW 4258   4.484   0.435   4.214
 1120SOL    HW1 4259   4.445   0.392   4.295
 1120SOL    HW2 4260   4.576   0.468   4.235
 1121SOL     OW 4261   5.434   3.399   2.180
 1121SOL    HW1 4262   5.492   3.417   2.100
 1121SOL    HW2 4263   5.372   3.475   2.194
 1122SOL     OW 4264   4.997   4.589   6.821
 1122SOL    HW1 4265   5.025   4.510   6.767
 1122SOL    HW2 4266   4.897   4.596   6.822
 1123SOL     OW 4267   3.533   0.981   1.826
 1123SOL    HW1 4268   3.528   0.890   1.866
 1123SOL    HW2 4269   3.491   1.047   1.887
 1124SOL     OW 4270   1.121   4.592   4.641
 1124SOL    HW1 4271   1.206   4.595   4.694
 1124SOL    HW2 4272   1.052   4.648   4.685
 1125SOL     OW 4273   3.870   3.403   5.029
 1125SOL    HW1 4274   3.912   3.393   4.939
 1125SOL    HW2 4275   3.887   3.321   5.084
 1126SOL     OW 4276   5.931   6.809   2.321
 1126SOL    HW1 4277   5.881   6.866   2.385
 1126SOL    HW2 4278   5.896   6.824   2.228
 1127SOL     OW 4279   1.503   4.708   0.302
 1127SOL    HW1 4280   1.434   4.691   0.372
 1127SOL    HW2 4281   1.503   4.804   0.276
 1128SOL     OW 4282   2.792   1.758   4.346
 1128SOL    HW1 4283   2.728   1.727   4.416
 1128SOL    HW2 4284   2.790   1.858   4.341
 1129SOL     OW 4285   5.287   6.973   0.086
 1129SOL    HW1 4286   5.257   7.012   0.173
 1129SOL    HW2 4287   5.344   0.018   0.037
 1130SOL     OW 4288   0.016   4.687   5.823
 1130SOL    HW1 4289   7.020   4.785   5.820
 1130SOL    HW2 4290   0.088   4.664   5.757
 1131SOL     OW 4291   0.512   4.911   6.251
 1131SOL    HW1 4292   0.554   4.967   6.322
 1131SOL    HW2 4293   0.567   4.829   6.235
 1132SOL     OW 4294   4.593   0.352   5.952
 1132SOL    HW1 4295   4.666   0.419   5.938
 1132SOL    HW2 4296   4.634   0.264   5.976
 1133SOL     OW 4297   1.038   3.089   1.151
 1133SOL    HW1 4298   1.005   3.008   1.102
 1133SOL    HW2 4299   0.994   3.094   1.240
 1134SOL     OW 4300   6.023   3.219   6.095
 1134SOL    HW1 4301   6.026   3.230   5.995
 1134SOL    HW2 4302   6.111   3.188   6.128
 1135SOL     OW 4303   4.708   1.580   3.166
 1135SOL    HW1 4304   4.712   1.662   3.222
 1135SOL    HW2 4305   4.640   1.516   3.204
 1136SOL     OW 4306   3.636   5.220   4.489
 1136SOL    HW1 4307   3.538   5.221   4.467
 1136SOL    HW2 4308   3.689   5.210   4.405
 1137SOL     OW 4309   1.819   1.233   5.587
 1137SOL    HW1 4310   1.868   1.197   5.508
 1137SOL    HW2 4311   1.848   1.327   5.604
 1138SOL     OW 4312   0.668   4.338   5.387
 1138SOL    HW1 4313   0.670   4.377   5.479
 1138SOL    HW2 4314   0.753   4.287   5.370
 1139SOL     OW 4315   1.411   6.579   1.666
 1139SOL    HW1 4316   1.462   6.527   1.598
 1139SOL    HW2 4317   1.316   6.549   1.668
 1140SOL     OW 4318   3.324   1.879   3.719
 1140SOL    HW1 4319   3.273   1.846   3.640
 1140SOL    HW2 4320   3.371   1.802   3.763
 1141SOL     OW 4321   6.795   5.493   5.819
 1141SOL    HW1 4322   6.840   5.570   5.775
 1141SOL    HW2 4323   6.864   5.428   5.852
 1142SOL     OW 4324   6.016   1.032   3.662
 1142SOL    HW1 4325   5.972   1.108   3.708
 1142SOL    HW2 4326   5.973   1.017   3.573
 1143SOL     OW 4327   4.758   1.851   2.718
 1143SOL    HW1 4328   4.746   1.777   2.784
 1143SOL    HW2 4329   4.822   1.919   2.755
 1144SOL     OW 4330   0.054   6.452   5.061
 1144SOL    HW1 4331   7.015   6.373   5.072
 1144SOL    HW2 4332   0.148   6.419   5.048
 1145SOL     OW 4333   0.865   5.193   5.456
 1145SOL    HW1 4334   0.826   5.284   5.469
 1145SOL    HW2 4335   0.883   5.179   5.358
 1146SOL     OW 4336   5.599   2.342   0.659
 1146SOL    HW1 4337   5.654   2.382   0.733
 1146SOL    HW2 4338   5.632   2.251   0.638
 1147SOL     OW 4339   6.219   2.561   1.643
 1147SOL    HW1 4340   6.309   2.529   1.673
 1147SOL    HW2 4341   6.181   2.496   1.579
 1148SOL     OW 4342   4.012   0.231   0.400
 1148SOL    HW1 4343   3.951   0.217   0.479
 1148SOL    HW2 4344   4.071   0.309   0.416
 1149SOL     OW 4345   6.847   3.407   2.776
 1149SOL    HW1 4346   6.820   3.503   2.784
 1149SOL    HW2 4347   6.891   3.392   2.687
 1150SOL     OW 4348   1.197   4.923   6.725
 1150SOL    HW1 4349   1.293   4.900   6.742
 1150SOL    HW2 4350   1.190   5.013   6.683
 1151SOL     OW 4351   4.825   5.320   0.119
 1151SOL    HW1 4352   4.868   5.397   0.073
 1151SOL    HW2 4353   4.876   5.236   0.099
 1152SOL     OW 4354   0.340   0.666   4.714
 1152SOL    HW1 4355   0.258   0.701   4.668
 1152SOL    HW2 4356   0.323   0.572   4.743
 1153SOL     OW 4357   2.591   5.329   2.508
 1153SOL    HW1 4358   2.592   5.411   2.451
 1153SOL    HW2 4359   2.631   5.253   2.457
 1154SOL     OW 4360   1.681   4.707   1.638
 1154SOL    HW1 4361   1.652   4.700   1.734
 1154SOL    HW2 4362   1.776   4.679   1.630
 1155SOL     OW 4363   3.355   5.696   2.095
 1155SOL    HW1 4364   3.304   5.781   2.107
 1155SOL    HW2 4365   3.292   5.619   2.092
 1156SOL     OW 4366   1.904   0.659   4.068
 1156SOL    HW1 4367   1.870   0.615   4.151
 1156SOL    HW2 4368   1.844   0.736   4.045
 1157SOL     OW 4369   1.329   2.333   4.371
 1157SOL    HW1 4370   1.368   2.414   4.327
 1157SOL    HW2 4371   1.289   2.358   4.459
 1158SOL     OW 4372   4.461   5.284   5.213
 1158SOL    HW1 4373   4.382   5.229   5.241
 1158SOL    HW2 4374   4.542   5.251   5.262
 1159SOL     OW 4375   4.739   4.970   2.991
 1159SOL    HW1 4376   4.655   4.917   2.989
 1159SOL    HW2 4377   4.745   5.020   3.077
 1160SOL     OW 4378   3.011   3.264   0.387
 1160SOL    HW1 4379   3.050   3.197   0.449
 1160SOL    HW2 4380   2.986   3.220   0.301
 1161SOL     OW 4381   4.260   0.170   3.794
 1161SOL    HW1 4382   4.325   0.206   3.861
 1161SOL    HW2 4383   4.309   0.116   3.726
 1162SOL     OW 4384   3.657   4.454   1.673
 1162SOL    HW1 4385   3.607   4.373   1.703
 1162SOL    HW2 4386   3.617   4.535   1.714
 1163SOL     OW 4387   4.952   2.563   2.583
 1163SOL    HW1 4388   4.865   2.538   2.625
 1163SOL    HW2 4389   5.025   2.556   2.651
 1164SOL     OW 4390   6.055   3.252   3.677
 1164SOL    HW1 4391   6.087   3.266   3.583
 1164SOL    HW2 4392   5.967   3.297   3.689
 1165SOL     OW 4393   1.614   4.790   2.205
 1165SOL    HW1 4394   1.548   4.717   2.223
 1165SOL    HW2 4395   1.606   4.860   2.277
 1166SOL     OW 4396   3.726   3.297   6.476
 1166SOL    HW1 4397   3.793   3.223   6.474
 1166SOL    HW2 4398   3.681   3.299   6.565
 1167SOL     OW 4399   4.785   1.579   4.914
 1167SOL    HW1 4400   4.742   1.537   4.994
 1167SOL    HW2 4401   4.802   1.676   4.932
 1168SOL     OW 4402   6.279   6.025   3.722
 1168SOL    HW1 4403   6.284   6.100   3.788
 1168SOL    HW2 4404   6.210   5.959   3.751
 1169SOL     OW 4405   1.120   3.728   1.739
 1169SOL    HW1 4406   1.147   3.685   1.825
 1169SOL    HW2 4407   1.172   3.688   1.664
 1170SOL     OW 4408   3.071   0.456   0.763
 1170SOL    HW1 4409   2.995   0.501   0.716
 1170SOL    HW2 4410   3.115   0.519   0.826
 1171SOL     OW 4411   2.008   6.460   0.341
 1171SOL    HW1 4412   1.945   6.531   0.312
 1171SOL    HW2 4413   2.092   6.466   0.287
 1172SOL     OW 4414   3.195   3.530   5.067
 1172SOL    HW1 4415   3.101   3.506   5.092
 1172SOL    HW2 4416   3.195   3.618   5.019
 1173SOL     OW 4417   4.624   0.875   6.361
 1173SOL    HW1 4418   4.615   0.794   6.303
 1173SOL    HW2 4419   4.710   0.922   6.339
 1174SOL     OW 4420   3.119   6.116   1.025
 1174SOL    HW1 4421   3.056   6.128   1.102
 1174SOL    HW2 4422   3.168   6.029   1.036
 1175SOL     OW 4423   6.159   4.808   5.342
 1175SOL    HW1 4424   6.186   4.772   5.431
 1175SOL    HW2 4425   6.222   4.882   5.316
 1176SOL     OW 4426   5.918   3.925   0.683
 1176SOL    HW1 4427   5.917   4.025   0.680
 1176SOL    HW2 4428   6.012   3.892   0.678
 1177SOL     OW 4429   6.231   2.849   0.043
 1177SOL    HW1 4430   6.239   2.946   0.020
 1177SOL    HW2 4431   6.316   2.818   0.085
 1178SOL     OW 4432   5.413   4.385   1.843
 1178SOL    HW1 4433   5.456   4.474   1.859
 1178SOL    HW2 4434   5.411   4.367   1.744
 1179SOL     OW 4435   2.615   6.231   6.346
 1179SOL    HW1 4436   2.537   6.224   6.408
 1179SOL    HW2 4437   2.661   6.318   6.361
 1180SOL     OW 4438   2.349   1.871   3.968
 1180SOL    HW1 4439   2.427   1.924   3.999
 1180SOL    HW2 4440   2.301   1.832   4.046
 1181SOL     OW 4441   2.329   4.375   2.756
 1181SOL    HW1 4442   2.306   4.284   2.793
 1181SOL    HW2 4443   2.335   4.369   2.657
 1182SOL     OW 4444   1.270   4.320   3.032
 1182SOL    HW1 4445   1.304   4.337   2.940
 1182SOL    HW2 4446   1.179   4.360   3.042
 1183SOL     OW 4447   4.628   5.685   1.254
 1183SOL    HW1 4448   4.665   5.778   1.254
 1183SOL    HW2 4449   4.533   5.687   1.225
 1184SOL     OW 4450   3.041   3.031   5.103
 1184SOL    HW1 4451   2.995   2.966   5.164
 1184SOL    HW2 4452   3.139   3.031   5.124
 1185SOL     OW 4453   1.921   1.749   6.954
 1185SOL    HW1 4454   2.010   1.746   7.000
 1185SOL    HW2 4455   1.904   1.662   6.910
 1186SOL     OW 4456   3.951   1.374   5.408
 1186SOL    HW1 4457   3.869   1.394   5.354
 1186SOL    HW2 4458   4.003   1.302   5.362
 1187SOL     OW 4459   6.526   1.071   5.167
 1187SOL    HW1 4460   6.461   1.141   5.197
 1187SOL    HW2 4461   6.516   1.055   5.069
 1188SOL     OW 4462   1.214   0.310   5.343
 1188SOL    HW1 4463   1.228   0.393   5.289
 1188SOL    HW2 4464   1.247   0.325   5.436
 1189SOL     OW 4465   6.625   0.723   1.706
 1189SOL    HW1 4466   6.671   0.779   1.774
 1189SOL    HW2 4467   6.652   0.627   1.717
 1190SOL     OW 4468   4.326   4.664   2.973
 1190SOL    HW1 4469   4.337   4.704   3.063
 1190SOL    HW2 4470   4.356   4.728   2.903
 1191SOL     OW 4471   3.418   5.118   6.684
 1191SOL    HW1 4472   3.363   5.036   6.698
 1191SOL    HW2 4473   3.395   5.159   6.596
 1192SOL     OW 4474   4.632   5.003   2.210
 1192SOL    HW1 4475   4.626   4.947   2.127
 1192SOL    HW2 4476   4.542   5.043   2.230
 1193SOL     OW 4477   4.199   6.766   3.850
 1193SOL    HW1 4478   4.220   6.703   3.925
 1193SOL    HW2 4479   4.256   6.847   3.858
 1194SOL     OW 4480   6.181   0.186   0.926
 1194SOL    HW1 4481   6.280   0.186   0.935
 1194SOL    HW2 4482   6.139   0.181   1.017
 1195SOL     OW 4483   3.948   0.326   6.558
 1195SOL    HW1 4484   3.971   0.339   6.461
 1195SOL    HW2 4485   3.996   0.394   6.613
 1196SOL     OW 4486   6.954   5.412   2.368
 1196SOL    HW1 4487   6.900   5.342   2.413
 1196SOL    HW2 4488   6.900   5.495   2.357
 1197SOL     OW 4489   3.143   5.189   5.839
 1197SOL    HW1 4490   3.133   5.150   5.931
 1197SOL    HW2 4491   3.235   5.171   5.805
 1198SOL     OW 4492   3.077   1.647   2.813
 1198SOL    HW1 4493   3.003   1.583   2.834
 1198SOL    HW2 4494   3.042   1.741   2.817
 1199SOL     OW 4495   3.860   4.025   3.364
 1199SOL    HW1 4496   3.908   4.003   3.449
 1199SOL    HW2 4497   3.896   3.970   3.290
 1200SOL     OW 4498   3.768   4.585   0.085
 1200SOL    HW1 4499   3.760   4.519   0.011
 1200SOL    HW2 4500   3.736   4.544   0.171
 1201SOL     OW 4501   1.452   0.882   4.734
 1201SOL    HW1 4502   1.408   0.813   4.676
 1201SOL    HW2 4503   1.414   0.972   4.714
 1202SOL     OW 4504   6.063   0.194   4.757
 1202SOL    HW1 4505   6.104   0.285   4.758
 1202SOL    HW2 4506   6.131   0.128   4.790
 1203SOL     OW 4507   5.917   6.753   1.885
 1203SOL    HW1 4508   5.991   6.708   1.934
 1203SOL    HW2 4509   5.830   6.735   1.931
 1204SOL     OW 4510   3.378   0.390   0.436
 1204SOL    HW1 4511   3.459   0.397   0.495
 1204SOL    HW2 4512   3.307   0.338   0.483
 1205SOL     OW 4513   0.259   2.308   5.061
 1205SOL    HW1 4514   0.284   2.359   4.979
 1205SOL    HW2 4515   0.309   2.222   5.063
 1206SOL     OW 4516   1.039   1.527   4.774
 1206SOL    HW1 4517   0.981   1.603   4.802
 1206SOL    HW2 4518   1.094   1.554   4.695
 1207SOL     OW 4519   5.247   6.101   0.087
 1207SOL    HW1 4520   5.255   6.010   0.045
 1207SOL    HW2 4521   5.300   6.167   0.033
 1208SOL     OW 4522   3.996   3.771   3.930
 1208SOL    HW1 4523   4.008   3.752   4.027
 1208SOL    HW2 4524   4.049   3.705   3.877
 1209SOL     OW 4525   6.324   5.139   4.201
 1209SOL    HW1 4526   6.279   5.143   4.112
 1209SOL    HW2 4527   6.305   5.223   4.252
 1210SOL     OW 4528   2.977   0.192   2.639
 1210SOL    HW1 4529   2.881   0.214   2.660
 1210SOL    HW2 4530   3.017   0.265   2.585
 1211SOL     OW 4531   1.515   3.576   4.693
 1211SOL    HW1 4532   1.468   3.572   4.605
 1211SOL    HW2 4533   1.457   3.623   4.759
 1212SOL     OW 4534   2.346   4.209   4.482
 1212SOL    HW1 4535   2.418   4.141   4.492
 1212SOL    HW2 4536   2.370   4.291   4.533
 1213SOL     OW 4537   6.102   2.947   5.724
 1213SOL    HW1 4538   6.065   2.858   5.696
 1213SOL    HW2 4539   6.175   2.933   5.791
 1214SOL     OW 4540   2.130   2.610   3.157
 1214SOL    HW1 4541   2.111   2.630   3.061
 1214SOL    HW2 4542   2.221   2.569   3.165
 1215SOL     OW 4543   0.500   5.004   1.421
 1215SOL    HW1 4544   0.552   5.069   1.366
 1215SOL    HW2 4545   0.555   4.976   1.500
 1216SOL     OW 4546   2.902   6.962   1.887
 1216SOL    HW1 4547   2.807   6.932   1.873
 1216SOL    HW2 4548   2.903   0.034   1.921
 1217SOL     OW 4549   1.363   1.132   2.597
 1217SOL    HW1 4550   1.391   1.090   2.510
 1217SOL    HW2 4551   1.409   1.086   2.673
 1218SOL     OW 4552   0.660   3.587   4.106
 1218SOL    HW1 4553   0.564   3.568   4.126
 1218SOL    HW2 4554   0.667   3.635   4.019
 1219SOL     OW 4555   2.835   6.043   2.789
 1219SOL    HW1 4556   2.854   6.080   2.698
 1219SOL    HW2 4557   2.738   6.055   2.810
 1220SOL     OW 4558   6.675   3.711   2.901
 1220SOL    HW1 4559   6.708   3.675   2.988
 1220SOL    HW2 4560   6.594   3.768   2.916
 1221SOL     OW 4561   5.029   3.133   0.016
 1221SOL    HW1 4562   5.027   3.049   6.984
 1221SOL    HW2 4563   4.936   3.159   0.041
 1222SOL     OW 4564   6.259   6.389   1.096
 1222SOL    HW1 4565   6.225   6.405   1.188
 1222SOL    HW2 4566   6.280   6.292   1.085
 1223SOL     OW 4567   6.155   6.172   5.374
 1223SOL    HW1 4568   6.149   6.258   5.323
 1223SOL    HW2 4569   6.144   6.095   5.312
 1224SOL     OW 4570   5.576   5.024   2.045
 1224SOL    HW1 4571   5.672   4.995   2.046
 1224SOL    HW2 4572   5.553   5.066   2.132
 1225SOL     OW 4573   5.009   1.458   0.128
 1225SOL    HW1 4574   5.086   1.412   0.084
 1225SOL    HW2 4575   4.937   1.475   0.061
 1226SOL     OW 4576   5.257   4.717   0.248
 1226SOL    HW1 4577   5.342   4.768   0.238
 1226SOL    HW2 4578   5.204   4.723   0.164
 1227SOL     OW 4579   5.044   4.355   6.724
 1227SOL    HW1 4580   4.964   4.304   6.691
 1227SOL    HW2 4581   5.117   4.291   6.747
 1228SOL     OW 4582   3.918   3.254   3.733
 1228SOL    HW1 4583   3.834   3.292   3.695
 1228SOL    HW2 4584   3.896   3.181   3.798
 1229SOL     OW 4585   1.813   5.429   3.149
 1229SOL    HW1 4586   1.769   5.506   3.102
 1229SOL    HW2 4587   1.754   5.398   3.224
 1230SOL     OW 4588   5.647   4.647   1.379
 1230SOL    HW1 4589   5.618   4.741   1.395
 1230SOL    HW2 4590   5.641   4.595   1.464
 1231SOL     OW 4591   1.864   1.965   6.775
 1231SOL    HW1 4592   1.909   1.886   6.816
 1231SOL    HW2 4593   1.784   1.935   6.723
 1232SOL     OW 4594   2.538   0.618   5.240
 1232SOL    HW1 4595   2.622   0.603   5.190
 1232SOL    HW2 4596   2.460   0.582   5.188
 1233SOL     OW 4597   0.871   5.529   5.446
 1233SOL    HW1 4598   0.914   5.501   5.360
 1233SOL    HW2 4599   0.941   5.550   5.513
 1234SOL     OW 4600   6.879   3.458   0.531
 1234SOL    HW1 4601   6.890   3.361   0.548
 1234SOL    HW2 4602   6.956   3.491   0.477
 1235SOL     OW 4603   6.229   4.617   1.468
 1235SOL    HW1 4604   6.322   4.643   1.441
 1235SOL    HW2 4605   6.231   4.578   1.560
 1236SOL     OW 4606   1.702   1.398   2.582
 1236SOL    HW1 4607   1.776   1.433   2.525
 1236SOL    HW2 4608   1.614   1.427   2.544
 1237SOL     OW 4609   0.435   6.786   5.094
 1237SOL    HW1 4610   0.440   6.878   5.134
 1237SOL    HW2 4611   0.400   6.722   5.162
 1238SOL     OW 4612   0.511   0.556   4.535
 1238SOL    HW1 4613   0.451   0.609   4.595
 1238SOL    HW2 4614   0.551   0.481   4.587
 1239SOL     OW 4615   5.458   5.242   4.762
 1239SOL    HW1 4616   5.476   5.281   4.853
 1239SOL    HW2 4617   5.362   5.218   4.754
 1240SOL     OW 4618   0.357   4.100   2.330
 1240SOL    HW1 4619   0.322   4.137   2.416
 1240SOL    HW2 4620   0.369   4.001   2.338
 1241SOL     OW 4621   4.451   4.911   4.946
 1241SOL    HW1 4622   4.390   4.917   5.025
 1241SOL    HW2 4623   4.406   4.860   4.873
 1242SOL     OW 4624   1.802   4.912   0.784
 1242SOL    HW1 4625   1.790   4.926   0.882
 1242SOL    HW2 4626   1.727   4.955   0.734
 1243SOL     OW 4627   1.236   4.244   5.195
 1243SOL    HW1 4628   1.302   4.250   5.120
 1243SOL    HW2 4629   1.284   4.229   5.281
 1244SOL     OW 4630   5.928   0.458   5.354
 1244SOL    HW1 4631   6.025   0.440   5.370
 1244SOL    HW2 4632   5.908   0.553   5.375
 1245SOL     OW 4633   4.733   6.438   1.192
 1245SOL    HW1 4634   4.653   6.495   1.176
 1245SOL    HW2 4635   4.718   6.347   1.154
 1246SOL     OW 4636   4.695   0.440   0.572
 1246SOL    HW1 4637   4.791   0.416   0.570
 1246SOL    HW2 4638   4.656   0.430   0.480
 1247SOL     OW 4639   6.467   0.117   3.118
 1247SOL    HW1 4640   6.477   0.081   3.210
 1247SOL    HW2 4641   6.432   0.046   3.057
 1248SOL     OW 4642   1.379   6.434   4.756
 1248SOL    HW1 4643   1.451   6.501   4.771
 1248SOL    HW2 4644   1.397   6.384   4.672
 1249SOL     OW 4645   5.193   5.841   6.820
 1249SOL    HW1 4646   5.272   5.832   6.881
 1249SOL    HW2 4647   5.109   5.838   6.874
 1250SOL     OW 4648   6.615   3.367   5.071
 1250SOL    HW1 4649   6.542   3.371   5.139
 1250SOL    HW2 4650   6.699   3.336   5.114
 1251SOL     OW 4651   2.800   0.612   2.610
 1251SOL    HW1 4652   2.817   0.643   2.517
 1251SOL    HW2 4653   2.868   0.654   2.671
 1252SOL     OW 4654   1.965   6.232   6.497
 1252SOL    HW1 4655   1.995   6.328   6.503
 1252SOL    HW2 4656   2.016   6.178   6.564
 1253SOL     OW 4657   3.162   0.216   0.154
 1253SOL    HW1 4658   3.173   0.250   0.247
 1253SOL    HW2 4659   3.250   0.184   0.120
 1254SOL     OW 4660   6.002   0.232   2.880
 1254SOL    HW1 4661   5.926   0.172   2.904
 1254SOL    HW2 4662   6.043   0.269   2.963
 1255SOL     OW 4663   5.605   1.730   5.357
 1255SOL    HW1 4664   5.559   1.803   5.407
 1255SOL    HW2 4665   5.540   1.656   5.339
 1256SOL     OW 4666   0.759   5.184   4.329
 1256SOL    HW1 4667   0.705   5.243   4.268
 1256SOL    HW2 4668   0.725   5.194   4.423
 1257SOL     OW 4669   0.884   6.453   3.936
 1257SOL    HW1 4670   0.973   6.496   3.945
 1257SOL    HW2 4671   0.873   6.385   4.008
 1258SOL     OW 4672   4.345   6.042   5.395
 1258SOL    HW1 4673   4.350   6.001   5.486
 1258SOL    HW2 4674   4.360   6.141   5.403
 1259SOL     OW 4675   5.783   0.159   4.715
 1259SOL    HW1 4676   5.880   0.143   4.729
 1259SOL    HW2 4677   5.741   0.191   4.800
 1260SOL     OW 4678   2.810   1.330   1.489
 1260SOL    HW1 4679   2.730   1.313   1.432
 1260SOL    HW2 4680   2.816   1.428   1.510
 1261SOL     OW 4681   6.337   4.347   6.054
 1261SOL    HW1 4682   6.257   4.403   6.075
 1261SOL    HW2 4683   6.418   4.387   6.098
 1262SOL     OW 4684   3.963   4.989   0.857
 1262SOL    HW1 4685   3.970   4.900   0.903
 1262SOL    HW2 4686   3.995   4.980   0.762
 1263SOL     OW 4687   6.864   2.020   1.380
 1263SOL    HW1 4688   6.960   2.036   1.400
 1263SOL    HW2 4689   6.810   2.100   1.405
 1264SOL     OW 4690   0.272   3.268   4.068
 1264SOL    HW1 4691   0.185   3.244   4.110
 1264SOL    HW2 4692   0.345   3.212   4.109
 1265SOL     OW 4693   6.842   5.354   4.774
 1265SOL    HW1 4694   6.801   5.264   4.788
 1265SOL    HW2 4695   6.887   5.357   4.685
 1266SOL     OW 4696   1.919   1.604   4.417
 1266SOL    HW1 4697   1.985   1.586   4.491
 1266SOL    HW2 4698   1.859   1.679   4.443
 1267SOL     OW 4699   6.898   4.813   2.369
 1267SOL    HW1 4700   6.808   4.776   2.391
 1267SOL    HW2 4701   6.888   4.898   2.317
 1268SOL     OW 4702   6.829   3.320   0.173
 1268SOL    HW1 4703   6.756   3.362   0.226
 1268SOL    HW2 4704   6.868   3.243   0.225
 1269SOL     OW 4705   6.979   5.359   6.304
 1269SOL    HW1 4706   6.905   5.396   6.249
 1269SOL    HW2 4707   6.996   5.419   6.382
 1270SOL     OW 4708   1.437   3.164   4.998
 1270SOL    HW1 4709   1.479   3.078   5.026
 1270SOL    HW2 4710   1.506   3.224   4.957
 1271SOL     OW 4711   5.069   1.872   2.667
 1271SOL    HW1 4712   5.032   1.963   2.683
 1271SOL    HW2 4713   5.133   1.874   2.590
 1272SOL     OW 4714   0.479   6.250   1.627
 1272SOL    HW1 4715   0.382   6.261   1.608
 1272SOL    HW2 4716   0.510   6.160   1.595
 1273SOL     OW 4717   2.805   6.690   6.139
 1273SOL    HW1 4718   2.883   6.719   6.194
 1273SOL    HW2 4719   2.724   6.743   6.164
 1274SOL     OW 4720   6.304   3.200   1.776
 1274SOL    HW1 4721   6.264   3.216   1.685
 1274SOL    HW2 4722   6.290   3.280   1.833
 1275SOL     OW 4723   3.632   1.809   4.087
 1275SOL    HW1 4724   3.533   1.791   4.082
 1275SOL    HW2 4725   3.677   1.763   4.010
 1276SOL     OW 4726   6.258   0.277   3.816
 1276SOL    HW1 4727   6.349   0.319   3.813
 1276SOL    HW2 4728   6.197   0.334   3.872
 1277SOL     OW 4729   0.398   1.039   5.221
 1277SOL    HW1 4730   0.328   1.107   5.199
 1277SOL    HW2 4731   0.391   1.015   5.318
 1278SOL     OW 4732   2.248   1.769   5.542
 1278SOL    HW1 4733   2.342   1.781   5.573
 1278SOL    HW2 4734   2.221   1.673   5.554
 1279SOL     OW 4735   2.516   5.502   6.647
 1279SOL    HW1 4736   2.542   5.409   6.621
 1279SOL    HW2 4737   2.595   5.563   6.637
 1280SOL     OW 4738   2.073   6.847   3.371
 1280SOL    HW1 4739   2.129   6.774   3.332
 1280SOL    HW2 4740   1.979   6.815   3.382
 1281SOL     OW 4741   1.167   6.657   3.782
 1281SOL    HW1 4742   1.113   6.693   3.858
 1281SOL    HW2 4743   1.256   6.625   3.817
 1282SOL     OW 4744   1.236   0.236   2.080
 1282SOL    HW1 4745   1.176   0.311   2.050
 1282SOL    HW2 4746   1.312   0.226   2.015
 1283SOL     OW 4747   5.383   5.532   6.249
 1283SOL    HW1 4748   5.399   5.464   6.320
 1283SOL    HW2 4749   5.409   5.622   6.283
 1284SOL     OW 4750   2.675   2.102   1.746
 1284SOL    HW1 4751   2.713   2.094   1.654
 1284SOL    HW2 4752   2.749   2.096   1.813
 1285SOL     OW 4753   4.645   2.508   5.535
 1285SOL    HW1 4754   4.718   2.473   5.595
 1285SOL    HW2 4755   4.686   2.553   5.456
 1286SOL     OW 4756   6.430   4.997   1.535
 1286SOL    HW1 4757   6.469   5.040   1.453
 1286SOL    HW2 4758   6.414   5.067   1.604
 1287SOL     OW 4759   6.907   4.775   6.335
 1287SOL    HW1 4760   6.948   4.730   6.256
 1287SOL    HW2 4761   6.835   4.837   6.306
 1288SOL     OW 4762   6.235   3.264   2.347
 1288SOL    HW1 4763   6.183   3.228   2.269
 1288SOL    HW2 4764   6.257   3.189   2.409
 1289SOL     OW 4765   0.026   6.414   3.098
 1289SOL    HW1 4766   0.009   6.506   3.065
 1289SOL    HW2 4767   0.027   6.414   3.198
 1290SOL     OW 4768   0.718   6.405   1.606
 1290SOL    HW1 4769   0.654   6.331   1.586
 1290SOL    HW2 4770   0.668   6.489   1.625
 1291SOL     OW 4771   2.260   6.262   0.445
 1291SOL    HW1 4772   2.200   6.301   0.515
 1291SOL    HW2 4773   2.228   6.289   0.354
 1292SOL     OW 4774   1.081   5.599   0.550
 1292SOL    HW1 4775   1.088   5.528   0.480
 1292SOL    HW2 4776   0.986   5.629   0.558
 1293SOL     OW 4777   0.119   2.233   5.787
 1293SOL    HW1 4778   0.208   2.223   5.831
 1293SOL    HW2 4779   0.072   2.313   5.825
 1294SOL     OW 4780   0.586   2.189   2.418
 1294SOL    HW1 4781   0.548   2.099   2.397
 1294SOL    HW2 4782   0.599   2.197   2.517
 1295SOL     OW 4783   6.352   3.220   1.300
 1295SOL    HW1 4784   6.386   3.268   1.219
 1295SOL    HW2 4785   6.401   3.133   1.309
 1296SOL     OW 4786   4.082   2.122   6.109
 1296SOL    HW1 4787   3.994   2.107   6.154
 1296SOL    HW2 4788   4.106   2.219   6.116
 1297SOL     OW 4789   6.383   1.296   6.166
 1297SOL    HW1 4790   6.302   1.336   6.210
 1297SOL    HW2 4791   6.400   1.343   6.079
 1298SOL     OW 4792   5.409   3.093   3.229
 1298SOL    HW1 4793   5.454   3.182   3.226
 1298SOL    HW2 4794   5.476   3.021   3.211
 1299SOL     OW 4795   1.013   4.224   3.895
 1299SOL    HW1 4796   0.979   4.192   3.983
 1299SOL    HW2 4797   0.969   4.173   3.821
 1300SOL     OW 4798   3.091   3.515   1.526
 1300SOL    HW1 4799   3.183   3.482   1.545
 1300SOL    HW2 4800   3.046   3.454   1.461
 1301SOL     OW 4801   0.517   0.018   2.924
 1301SOL    HW1 4802   0.493   0.114   2.909
 1301SOL    HW2 4803   0.616   0.011   2.942
 1302SOL     OW 4804   2.877   6.271   4.840
 1302SOL    HW1 4805   2.800   6.206   4.836
 1302SOL    HW2 4806   2.961   6.224   4.814
 1303SOL     OW 4807   4.019   1.697   1.261
 1303SOL    HW1 4808   4.110   1.714   1.223
 1303SOL    HW2 4809   3.951   1.750   1.210
 1304SOL     OW 4810   2.415   0.733   6.847
 1304SOL    HW1 4811   2.403   0.681   6.762
 1304SOL    HW2 4812   2.370   0.822   6.837
 1305SOL     OW 4813   4.541   6.667   5.065
 1305SOL    HW1 4814   4.491   6.725   5.130
 1305SOL    HW2 4815   4.497   6.672   4.975
 1306SOL     OW 4816   1.251   4.571   4.398
 1306SOL    HW1 4817   1.332   4.512   4.402
 1306SOL    HW2 4818   1.214   4.584   4.490
 1307SOL     OW 4819   1.476   2.085   4.723
 1307SOL    HW1 4820   1.517   1.995   4.738
 1307SOL    HW2 4821   1.537   2.155   4.759
 1308SOL     OW 4822   5.295   6.074   3.006
 1308SOL    HW1 4823   5.361   6.103   2.936
 1308SOL    HW2 4824   5.334   6.090   3.097
 1309SOL     OW 4825   5.560   2.979   4.468
 1309SOL    HW1 4826   5.660   2.977   4.462
 1309SOL    HW2 4827   5.529   2.910   4.533
 1310SOL     OW 4828   4.838   3.698   5.362
 1310SOL    HW1 4829   4.818   3.675   5.458
 1310SOL    HW2 4830   4.783   3.641   5.302
 1311SOL     OW 4831   5.768   5.920   5.347
 1311SOL    HW1 4832   5.717   5.840   5.378
 1311SOL    HW2 4833   5.812   5.964   5.425
 1312SOL     OW 4834   0.860   6.722   0.427
 1312SOL    HW1 4835   0.933   6.780   0.463
 1312SOL    HW2 4836   0.856   6.730   0.328
 1313SOL     OW 4837   3.330   5.196   5.198
 1313SOL    HW1 4838   3.259   5.242   5.252
 1313SOL    HW2 4839   3.294   5.111   5.160
 1314SOL     OW 4840   6.709   1.468   4.800
 1314SOL    HW1 4841   6.792   1.519   4.825
 1314SOL    HW2 4842   6.735   1.388   4.745
 1315SOL     OW 4843   2.032   1.252   2.323
 1315SOL    HW1 4844   2.061   1.167   2.367
 1315SOL    HW2 4845   2.072   1.258   2.231
 1316SOL     OW 4846   3.046   6.944   2.539
 1316SOL    HW1 4847   3.025   0.020   2.543
 1316SOL    HW2 4848   3.115   6.923   2.608
 1317SOL     OW 4849   0.153   5.983   4.140
 1317SOL    HW1 4850   0.233   5.987   4.080
 1317SOL    HW2 4851   0.071   6.006   4.087
 1318SOL     OW 4852   6.942   6.575   0.451
 1318SOL    HW1 4853   6.905   6.647   0.510
 1318SOL    HW2 4854   7.007   6.519   0.502
 1319SOL     OW 4855   6.386   0.654   6.631
 1319SOL    HW1 4856   6.405   0.748   6.658
 1319SOL    HW2 4857   6.392   0.645   6.532
 1320SOL     OW 4858   5.342   5.384   6.694
 1320SOL    HW1 4859   5.336   5.397   6.595
 1320SOL    HW2 4860   5.252   5.358   6.729
 1321SOL     OW 4861   3.983   2.417   6.728
 1321SOL    HW1 4862   4.041   2.362   6.668
 1321SOL    HW2 4863   4.041   2.478   6.783
 1322SOL     OW 4864   6.318   1.734   4.675
 1322SOL    HW1 4865   6.324   1.711   4.578
 1322SOL    HW2 4866   6.232   1.782   4.692
 1323SOL     OW 4867   6.560   1.749   4.854
 1323SOL    HW1 4868   6.576   1.844   4.827
 1323SOL    HW2 4869   6.494   1.708   4.791
 1324SOL     OW 4870   1.739   3.620   0.857
 1324SOL    HW1 4871   1.839   3.619   0.852
 1324SOL    HW2 4872   1.702   3.567   0.781
 1325SOL     OW 4873   3.062   6.047   2.455
 1325SOL    HW1 4874   3.052   6.099   2.370
 1325SOL    HW2 4875   3.145   5.992   2.452
 1326SOL     OW 4876   5.492   3.415   4.059
 1326SOL    HW1 4877   5.493   3.458   3.969
 1326SOL    HW2 4878   5.437   3.331   4.055
 1327SOL     OW 4879   3.520   5.459   3.173
 1327SOL    HW1 4880   3.457   5.512   3.230
 1327SOL    HW2 4881   3.473   5.380   3.134
 1328SOL     OW 4882   1.420   2.559   6.503
 1328SOL    HW1 4883   1.481   2.590   6.576
 1328SOL    HW2 4884   1.443   2.465   6.478
 1329SOL     OW 4885   0.601   0.263   0.497
 1329SOL    HW1 4886   0.540   0.185   0.486
 1329SOL    HW2 4887   0.606   0.314   0.410
 1330SOL     OW 4888   5.653   6.182   1.078
 1330SOL    HW1 4889   5.566   6.135   1.062
 1330SOL    HW2 4890   5.678   6.233   0.995
 1331SOL     OW 4891   5.827   0.292   1.699
 1331SOL    HW1 4892   5.847   0.200   1.733
 1331SOL    HW2 4893   5.737   0.321   1.730
 1332SOL     OW 4894   4.551   1.370   1.568
 1332SOL    HW1 4895   4.523   1.451   1.620
 1332SOL    HW2 4896   4.651   1.365   1.565
 1333SOL     OW 4897   3.646   4.384   5.394
 1333SOL    HW1 4898   3.642   4.314   5.323
 1333SOL    HW2 4899   3.606   4.469   5.360
 1334SOL     OW 4900   0.134   3.941   4.657
 1334SOL    HW1 4901   0.072   3.972   4.729
 1334SOL    HW2 4902   0.198   3.874   4.694
 1335SOL     OW 4903   2.714   4.990   3.163
 1335SOL    HW1 4904   2.625   4.985   3.119
 1335SOL    HW2 4905   2.748   5.084   3.158
 1336SOL     OW 4906   0.088   0.641   5.015
 1336SOL    HW1 4907   0.107   0.617   5.111
 1336SOL    HW2 4908   0.150   0.590   4.956
 1337SOL     OW 4909   2.151   1.953   5.992
 1337SOL    HW1 4910   2.128   2.044   6.025
 1337SOL    HW2 4911   2.230   1.917   6.043
 1338SOL     OW 4912   3.917   5.364   0.771
 1338SOL    HW1 4913   3.900   5.366   0.673
 1338SOL    HW2 4914   3.996   5.306   0.790
 1339SOL     OW 4915   6.998   4.318   5.514
 1339SOL    HW1 4916   6.944   4.253   5.461
 1339SOL    HW2 4917   6.940   4.360   5.584
 1340SOL     OW 4918   1.844   1.836   6.159
 1340SOL    HW1 4919   1.874   1.906   6.095
 1340SOL    HW2 4920   1.879   1.857   6.250
 1341SOL     OW 4921   4.277   1.457   3.456
 1341SOL    HW1 4922   4.262   1.413   3.544
 1341SOL    HW2 4923   4.196   1.512   3.432
 1342SOL     OW 4924   0.303   6.457   0.780
 1342SOL    HW1 4925   0.236   6.400   0.827
 1342SOL    HW2 4926   0.394   6.438   0.815
 1343SOL     OW 4927   4.155   4.946   3.389
 1343SOL    HW1 4928   4.060   4.920   3.372
 1343SOL    HW2 4929   4.159   5.012   3.464
 1344SOL     OW 4930   6.501   1.004   2.776
 1344SOL    HW1 4931   6.428   1.072   2.770
 1344SOL    HW2 4932   6.519   0.968   2.684
 1345SOL     OW 4933   0.605   0.117   3.700
 1345SOL    HW1 4934   0.515   0.141   3.663
 1345SOL    HW2 4935   0.672   0.186   3.673
 1346SOL     OW 4936   0.489   1.107   3.970
 1346SOL    HW1 4937   0.509   1.200   4.000
 1346SOL    HW2 4938   0.408   1.073   4.018
 1347SOL     OW 4939   5.743   0.465   3.219
 1347SOL    HW1 4940   5.795   0.550   3.208
 1347SOL    HW2 4941   5.800   0.398   3.268
 1348SOL     OW 4942   5.146   4.411   5.016
 1348SOL    HW1 4943   5.187   4.479   4.956
 1348SOL    HW2 4944   5.215   4.345   5.044
 1349SOL     OW 4945   4.097   3.198   6.978
 1349SOL    HW1 4946   4.103   3.296   6.998
 1349SOL    HW2 4947   4.012   3.162   7.015
 1350SOL     OW 4948   3.028   0.735   6.124
 1350SOL    HW1 4949   3.102   0.788   6.166
 1350SOL    HW2 4950   2.941   0.780   6.142
 1351SOL     OW 4951   0.621   1.050   4.828
 1351SOL    HW1 4952   0.657   1.079   4.916
 1351SOL    HW2 4953   0.697   1.033   4.765
 1352SOL     OW 4954   0.514   1.033   3.214
 1352SOL    HW1 4955   0.464   1.114   3.242
 1352SOL    HW2 4956   0.585   1.011   3.282
 1353SOL     OW 4957   1.505   4.147   3.841
 1353SOL    HW1 4958   1.578   4.146   3.772
 1353SOL    HW2 4959   1.546   4.155   3.932
 1354SOL     OW 4960   0.631   0.081   1.838
 1354SOL    HW1 4961   0.658   7.007   1.830
 1354SOL    HW2 4962   0.666   0.117   1.924
 1355SOL     OW 4963   4.725   3.097   6.845
 1355SOL    HW1 4964   4.819   3.062   6.855
 1355SOL    HW2 4965   4.724   3.195   6.864
 1356SOL     OW 4966   3.041   3.978   2.517
 1356SOL    HW1 4967   3.017   4.020   2.429
 1356SOL    HW2 4968   2.994   3.890   2.526
 1357SOL     OW 4969   2.938   3.166   5.424
 1357SOL    HW1 4970   2.888   3.086   5.390
 1357SOL    HW2 4971   2.994   3.139   5.502
 1358SOL     OW 4972   1.860   2.438   5.603
 1358SOL    HW1 4973   1.872   2.360   5.543
 1358SOL    HW2 4974   1.763   2.454   5.619
 1359SOL     OW 4975   6.389   0.998   0.177
 1359SOL    HW1 4976   6.319   0.929   0.195
 1359SOL    HW2 4977   6.476   0.953   0.155
 1360SOL     OW 4978   3.422   3.846   4.644
 1360SOL    HW1 4979   3.522   3.835   4.648
 1360SOL    HW2 4980   3.396   3.934   4.683
 1361SOL     OW 4981   0.784   6.093   0.341
 1361SOL    HW1 4982   0.807   6.083   0.244
 1361SOL    HW2 4983   0.849   6.154   0.385
 1362SOL     OW 4984   3.154   3.105   6.372
 1362SOL    HW1 4985   3.119   3.034   6.311
 1362SOL    HW2 4986   3.219   3.163   6.323
 1363SOL     OW 4987   5.698   6.577   2.271
 1363SOL    HW1 4988   5.719   6.558   2.175
 1363SOL    HW2 4989   5.643   6.502   2.309
 1364SOL     OW 4990   0.592   3.266   1.362
 1364SOL    HW1 4991   0.568   3.286   1.267
 1364SOL    HW2 4992   0.647   3.341   1.398
 1365SOL     OW 4993   1.069   3.809   5.923
 1365SOL    HW1 4994   1.040   3.736   5.862
 1365SOL    HW2 4995   0.988   3.853   5.963
 1366SOL     OW 4996   5.553   0.749   0.803
 1366SOL    HW1 4997   5.472   0.692   0.818
 1366SOL    HW2 4998   5.568   0.762   0.705
 1367SOL     OW 4999   0.889   5.785   4.206
 1367SOL    HW1 5000   0.980   5.742   4.207
 1367SOL    HW2 5001   0.830   5.736   4.142
 1368SOL     OW 5002   0.900   6.179   5.670
 1368SOL    HW1 5003   0.851   6.265   5.689
 1368SOL    HW2 5004   0.997   6.199   5.658
 1369SOL     OW 5005   3.005   6.408   3.138
 1369SOL    HW1 5006   2.954   6.354   3.070
 1369SOL    HW2 5007   2.941   6.464   3.190
 1370SOL     OW 5008   6.201   2.601   2.879
 1370SOL    HW1 5009   6.107   2.619   2.848
 1370SOL    HW2 5010   6.210   2.628   2.975
 1371SOL     OW 5011   5.901   1.725   5.396
 1371SOL    HW1 5012   5.818   1.678   5.425
 1371SOL    HW2 5013   5.885   1.772   5.309
 1372SOL     OW 5014   6.235   2.671   0.307
 1372SOL    HW1 5015   6.297   2.651   0.382
 1372SOL    HW2 5016   6.237   2.596   0.241
 1373SOL     OW 5017   5.158   2.753   1.856
 1373SOL    HW1 5018   5.086   2.794   1.911
 1373SOL    HW2 5019   5.119   2.686   1.793
 1374SOL     OW 5020   4.096   4.363   7.006
 1374SOL    HW1 5021   4.028   4.363   6.933
 1374SOL    HW2 5022   4.051   4.339   0.070
 1375SOL     OW 5023   5.428   5.765   4.301
 1375SOL    HW1 5024   5.477   5.792   4.384
 1375SOL    HW2 5025   5.439   5.836   4.231
 1376SOL     OW 5026   2.765   4.845   5.770
 1376SOL    HW1 5027   2.800   4.862   5.862
 1376SOL    HW2 5028   2.840   4.849   5.704
 1377SOL     OW 5029   1.778   1.309   3.090
 1377SOL    HW1 5030   1.756   1.353   3.003
 1377SOL    HW2 5031   1.729   1.223   3.098
 1378SOL     OW 5032   4.844   2.415   4.073
 1378SOL    HW1 5033   4.893   2.421   3.986
 1378SOL    HW2 5034   4.791   2.499   4.086
 1379SOL     OW 5035   5.017   5.473   1.145
 1379SOL    HW1 5036   5.115   5.453   1.142
 1379SOL    HW2 5037   4.987   5.483   1.240
 1380SOL     OW 5038   6.932   5.718   2.111
 1380SOL    HW1 5039   6.944   5.626   2.074
 1380SOL    HW2 5040   7.018   5.750   2.151
 1381SOL     OW 5041   6.031   2.256   5.721
 1381SOL    HW1 5042   6.083   2.340   5.708
 1381SOL    HW2 5043   5.945   2.276   5.767
 1382SOL     OW 5044   4.778   2.632   0.340
 1382SOL    HW1 5045   4.846   2.602   0.407
 1382SOL    HW2 5046   4.765   2.731   0.348
 1383SOL     OW 5047   0.509   1.326   2.032
 1383SOL    HW1 5048   0.466   1.270   2.102
 1383SOL    HW2 5049   0.567   1.269   1.974
 1384SOL     OW 5050   6.171   1.292   2.025
 1384SOL    HW1 5051   6.179   1.235   1.943
 1384SOL    HW2 5052   6.082   1.275   2.068
 1385SOL     OW 5053   0.951   5.714   1.875
 1385SOL    HW1 5054   0.960   5.810   1.850
 1385SOL    HW2 5055   0.904   5.665   1.801
 1386SOL     OW 5056   2.554   5.992   4.368
 1386SOL    HW1 5057   2.630   5.933   4.341
 1386SOL    HW2 5058   2.590   6.080   4.399
 1387SOL     OW 5059   3.136   5.661   2.428
 1387SOL    HW1 5060   3.177   5.598   2.362
 1387SOL    HW2 5061   3.189   5.746   2.431
 1388SOL     OW 5062   6.686   0.014   1.659
 1388SOL    HW1 5063   6.774   0.028   1.705
 1388SOL    HW2 5064   6.701   6.991   1.571
 1389SOL     OW 5065   6.355   1.215   2.664
 1389SOL    HW1 5066   6.304   1.203   2.580
 1389SOL    HW2 5067   6.368   1.313   2.683
 1390SOL     OW 5068   6.932   2.082   6.045
 1390SOL    HW1 5069   6.874   2.060   5.966
 1390SOL    HW2 5070   6.876   2.084   6.128
 1391SOL     OW 5071   0.795   3.100   2.678
 1391SOL    HW1 5072   0.757   3.132   2.591
 1391SOL    HW2 5073   0.821   3.004   2.669
 1392SOL     OW 5074   4.804   4.888   5.278
 1392SOL    HW1 5075   4.871   4.815   5.288
 1392SOL    HW2 5076   4.776   4.894   5.182
 1393SOL     OW 5077   3.812   6.570   5.738
 1393SOL    HW1 5078   3.827   6.668   5.755
 1393SOL    HW2 5079   3.788   6.556   5.642
 1394SOL     OW 5080   2.404   6.192   5.576
 1394SOL    HW1 5081   2.431   6.257   5.647
 1394SOL    HW2 5082   2.484   6.166   5.522
 1395SOL     OW 5083   3.692   4.798   5.776
 1395SOL    HW1 5084   3.598   4.766   5.782
 1395SOL    HW2 5085   3.695   4.883   5.722
 1396SOL     OW 5086   5.921   5.926   4.241
 1396SOL    HW1 5087   5.861   5.887   4.171
 1396SOL    HW2 5088   5.865   5.966   4.314
 1397SOL     OW 5089   4.586   5.979   4.864
 1397SOL    HW1 5090   4.559   5.940   4.775
 1397SOL    HW2 5091   4.519   6.048   4.891
 1398SOL     OW 5092   1.427   1.346   4.864
 1398SOL    HW1 5093   1.514   1.300   4.851
 1398SOL    HW2 5094   1.443   1.441   4.891
 1399SOL     OW 5095   3.177   6.492   1.526
 1399SOL    HW1 5096   3.257   6.460   1.576
 1399SOL    HW2 5097   3.101   6.429   1.542
 1400SOL     OW 5098   1.017   0.151   1.421
 1400SOL    HW1 5099   0.957   0.088   1.372
 1400SOL    HW2 5100   0.986   0.161   1.516
 1401SOL     OW 5101   6.858   1.253   4.726
 1401SOL    HW1 5102   6.929   1.299   4.780
 1401SOL    HW2 5103   6.847   1.159   4.759
 1402SOL     OW 5104   6.441   2.559   0.452
 1402SOL    HW1 5105   6.520   2.564   0.514
 1402SOL    HW2 5106   6.422   2.464   0.431
 1403SOL     OW 5107   2.356   0.159   1.898
 1403SOL    HW1 5108   2.296   0.128   1.825
 1403SOL    HW2 5109   2.443   0.189   1.859
 1404SOL     OW 5110   5.632   0.390   0.318
 1404SOL    HW1 5111   5.702   0.446   0.362
 1404SOL    HW2 5112   5.543   0.435   0.324
 1405SOL     OW 5113   2.045   3.529   0.795
 1405SOL    HW1 5114   2.056   3.624   0.764
 1405SOL    HW2 5115   2.134   3.482   0.789
 1406SOL     OW 5116   1.713   4.413   1.147
 1406SOL    HW1 5117   1.750   4.407   1.054
 1406SOL    HW2 5118   1.788   4.426   1.212
 1407SOL     OW 5119   6.550   1.849   2.380
 1407SOL    HW1 5120   6.626   1.795   2.416
 1407SOL    HW2 5121   6.544   1.936   2.429
 1408SOL     OW 5122   5.484   0.419   6.162
 1408SOL    HW1 5123   5.570   0.403   6.210
 1408SOL    HW2 5124   5.410   0.373   6.210
 1409SOL     OW 5125   6.997   0.506   4.567
 1409SOL    HW1 5126   6.951   0.569   4.630
 1409SOL    HW2 5127   0.046   0.556   4.517
 1410SOL     OW 5128   0.269   3.193   0.007
 1410SOL    HW1 5129   0.239   3.103   0.038
 1410SOL    HW2 5130   0.356   3.185   6.982
 1411SOL     OW 5131   1.816   6.751   2.254
 1411SOL    HW1 5132   1.891   6.761   2.319
 1411SOL    HW2 5133   1.769   6.664   2.270
 1412SOL     OW 5134   1.217   2.827   0.844
 1412SOL    HW1 5135   1.295   2.809   0.903
 1412SOL    HW2 5136   1.232   2.912   0.794
 1413SOL     OW 5137   2.481   0.309   4.071
 1413SOL    HW1 5138   2.460   0.365   4.151
 1413SOL    HW2 5139   2.579   0.288   4.070
 1414SOL     OW 5140   2.143   1.624   1.666
 1414SOL    HW1 5141   2.094   1.590   1.586
 1414SOL    HW2 5142   2.082   1.623   1.745
 1415SOL     OW 5143   3.800   6.277   5.732
 1415SOL    HW1 5144   3.828   6.371   5.747
 1415SOL    HW2 5145   3.849   6.239   5.654
 1416SOL     OW 5146   4.380   5.056   2.012
 1416SOL    HW1 5147   4.330   5.054   2.099
 1416SOL    HW2 5148   4.330   5.113   1.947
 1417SOL     OW 5149   2.734   1.761   6.617
 1417SOL    HW1 5150   2.787   1.834   6.661
 1417SOL    HW2 5151   2.644   1.756   6.659
 1418SOL     OW 5152   3.398   4.125   2.964
 1418SOL    HW1 5153   3.342   4.097   3.041
 1418SOL    HW2 5154   3.495   4.115   2.988
 1419SOL     OW 5155   3.897   6.770   4.810
 1419SOL    HW1 5156   3.928   6.757   4.715
 1419SOL    HW2 5157   3.822   6.836   4.812
 1420SOL     OW 5158   1.078   5.587   2.080
 1420SOL    HW1 5159   1.041   5.655   2.017
 1420SOL    HW2 5160   1.033   5.594   2.168
 1421SOL     OW 5161   2.871   2.248   2.297
 1421SOL    HW1 5162   2.874   2.285   2.205
 1421SOL    HW2 5163   2.785   2.277   2.341
 1422SOL     OW 5164   2.103   4.932   0.726
 1422SOL    HW1 5165   2.028   4.895   0.781
 1422SOL    HW2 5166   2.066   4.985   0.650
 1423SOL     OW 5167   5.024   6.769   2.798
 1423SOL    HW1 5168   4.959   6.745   2.870
 1423SOL    HW2 5169   4.978   6.823   2.728
 1424SOL     OW 5170   6.101   5.237   4.732
 1424SOL    HW1 5171   6.172   5.262   4.798
 1424SOL    HW2 5172   6.052   5.319   4.703
 1425SOL     OW 5173   2.125   6.886   3.631
 1425SOL    HW1 5174   2.177   6.967   3.656
 1425SOL    HW2 5175   2.117   6.881   3.531
 1426SOL     OW 5176   1.205   1.539   5.806
 1426SOL    HW1 5177   1.138   1.565   5.875
 1426SOL    HW2 5178   1.173   1.459   5.756
 1427SOL     OW 5179   6.074   0.395   3.970
 1427SOL    HW1 5180   6.054   0.350   4.057
 1427SOL    HW2 5181   6.039   0.489   3.972
 1428SOL     OW 5182   5.569   1.977   6.927
 1428SOL    HW1 5183   5.531   1.947   7.015
 1428SOL    HW2 5184   5.655   2.026   6.943
 1429SOL     OW 5185   0.084   0.557   0.904
 1429SOL    HW1 5186   0.047   0.562   0.997
 1429SOL    HW2 5187   0.163   0.496   0.902
 1430SOL     OW 5188   1.887   4.758   3.257
 1430SOL    HW1 5189   1.792   4.765   3.286
 1430SOL    HW2 5190   1.900   4.673   3.205
 1431SOL     OW 5191   2.883   0.608   1.636
 1431SOL    HW1 5192   2.955   0.666   1.675
 1431SOL    HW2 5193   2.812   0.593   1.705
 1432SOL     OW 5194   2.550   1.281   2.302
 1432SOL    HW1 5195   2.467   1.338   2.307
 1432SOL    HW2 5196   2.540   1.216   2.226
 1433SOL     OW 5197   4.029   0.491   3.947
 1433SOL    HW1 5198   3.929   0.494   3.945
 1433SOL    HW2 5199   4.062   0.540   4.027
 1434SOL     OW 5200   1.122   0.969   5.437
 1434SOL    HW1 5201   1.069   0.956   5.521
 1434SOL    HW2 5202   1.157   1.062   5.433
 1435SOL     OW 5203   6.502   1.902   2.754
 1435SOL    HW1 5204   6.516   1.964   2.831
 1435SOL    HW2 5205   6.586   1.851   2.736
 1436SOL     OW 5206   4.242   3.737   0.211
 1436SOL    HW1 5207   4.160   3.768   0.163
 1436SOL    HW2 5208   4.265   3.644   0.182
 1437SOL     OW 5209   3.230   0.647   2.479
 1437SOL    HW1 5210   3.198   0.734   2.442
 1437SOL    HW2 5211   3.328   0.637   2.462
 1438SOL     OW 5212   3.069   6.427   1.177
 1438SOL    HW1 5213   3.079   6.438   1.078
 1438SOL    HW2 5214   2.976   6.453   1.204
 1439SOL     OW 5215   0.346   6.026   2.437
 1439SOL    HW1 5216   0.269   6.088   2.452
 1439SOL    HW2 5217   0.382   5.997   2.526
 1440SOL     OW 5218   2.768   3.520   0.625
 1440SOL    HW1 5219   2.852   3.561   0.588
 1440SOL    HW2 5220   2.783   3.495   0.721
 1441SOL     OW 5221   6.028   6.558   1.181
 1441SOL    HW1 5222   5.992   6.479   1.230
 1441SOL    HW2 5223   5.952   6.611   1.142
 1442SOL     OW 5224   5.785   5.368   0.509
 1442SOL    HW1 5225   5.734   5.399   0.428
 1442SOL    HW2 5226   5.878   5.343   0.481
 1443SOL     OW 5227   1.767   2.806   2.884
 1443SOL    HW1 5228   1.694   2.875   2.886
 1443SOL    HW2 5229   1.745   2.737   2.816
 1444SOL     OW 5230   6.130   5.613   0.044
 1444SOL    HW1 5231   6.174   5.701   0.063
 1444SOL    HW2 5232   6.060   5.596   0.113
 1445SOL     OW 5233   1.015   3.362   2.547
 1445SOL    HW1 5234   1.089   3.351   2.482
 1445SOL    HW2 5235   1.012   3.283   2.609
 1446SOL     OW 5236   6.484   0.003   6.521
 1446SOL    HW1 5237   6.534   0.087   6.543
 1446SOL    HW2 5238   6.386   0.021   6.522
 1447SOL     OW 5239   5.927   5.104   4.874
 1447SOL    HW1 5240   5.954   5.026   4.930
 1447SOL    HW2 5241   6.009   5.149   4.838
 1448SOL     OW 5242   0.926   2.826   5.667
 1448SOL    HW1 5243   0.871   2.759   5.617
 1448SOL    HW2 5244   0.936   2.909   5.611
 1449SOL     OW 5245   1.477   4.433   4.332
 1449SOL    HW1 5246   1.459   4.399   4.240
 1449SOL    HW2 5247   1.573   4.460   4.339
 1450SOL     OW 5248   2.193   2.345   4.919
 1450SOL    HW1 5249   2.116   2.408   4.929
 1450SOL    HW2 5250   2.226   2.347   4.825
 1451SOL     OW 5251   2.599   6.902   1.800
 1451SOL    HW1 5252   2.524   6.893   1.734
 1451SOL    HW2 5253   2.599   6.995   1.838
 1452SOL     OW 5254   4.898   3.371   6.053
 1452SOL    HW1 5255   4.817   3.314   6.070
 1452SOL    HW2 5256   4.979   3.312   6.047
 1453SOL     OW 5257   0.954   4.217   4.991
 1453SOL    HW1 5258   0.877   4.153   4.983
 1453SOL    HW2 5259   0.996   4.230   4.902
 1454SOL     OW 5260   2.958   1.782   3.310
 1454SOL    HW1 5261   3.015   1.819   3.237
 1454SOL    HW2 5262   2.868   1.826   3.307
 1455SOL     OW 5263   1.244   5.495   2.300
 1455SOL    HW1 5264   1.308   5.572   2.300
 1455SOL    HW2 5265   1.187   5.499   2.218
 1456SOL     OW 5266   6.193   5.461   5.982
 1456SOL    HW1 5267   6.238   5.509   5.907
 1456SOL    HW2 5268   6.134   5.389   5.945
 1457SOL     OW 5269   0.508   3.976   6.094
 1457SOL    HW1 5270   0.511   4.072   6.124
 1457SOL    HW2 5271   0.588   3.928   6.129
 1458SOL     OW 5272   5.458   4.800   5.229
 1458SOL    HW1 5273   5.429   4.893   5.247
 1458SOL    HW2 5274   5.423   4.740   5.301
 1459SOL     OW 5275   4.935   6.696   5.233
 1459SOL    HW1 5276   4.961   6.790   5.255
 1459SOL    HW2 5277   4.880   6.658   5.307
 1460SOL     OW 5278   1.884   6.234   5.165
 1460SOL    HW1 5279   1.892   6.164   5.235
 1460SOL    HW2 5280   1.971   6.243   5.116
 1461SOL     OW 5281   0.267   3.027   3.088
 1461SOL    HW1 5282   0.297   3.063   3.176
 1461SOL    HW2 5283   0.272   3.099   3.019
 1462SOL     OW 5284   0.658   6.839   0.607
 1462SOL    HW1 5285   0.702   6.800   0.525
 1462SOL    HW2 5286   0.721   6.904   0.650
 1463SOL     OW 5287   1.704   5.598   6.563
 1463SOL    HW1 5288   1.749   5.605   6.652
 1463SOL    HW2 5289   1.630   5.666   6.558
 1464SOL     OW 5290   6.828   4.510   4.352
 1464SOL    HW1 5291   6.756   4.487   4.417
 1464SOL    HW2 5292   6.917   4.485   4.391
 1465SOL     OW 5293   1.518   1.673   3.294
 1465SOL    HW1 5294   1.598   1.621   3.264
 1465SOL    HW2 5295   1.513   1.758   3.242
 1466SOL     OW 5296   4.181   2.024   1.902
 1466SOL    HW1 5297   4.214   1.957   1.968
 1466SOL    HW2 5298   4.191   2.116   1.940
 1467SOL     OW 5299   1.463   0.705   4.092
 1467SOL    HW1 5300   1.555   0.714   4.131
 1467SOL    HW2 5301   1.454   0.614   4.050
 1468SOL     OW 5302   1.998   6.173   2.526
 1468SOL    HW1 5303   2.087   6.207   2.497
 1468SOL    HW2 5304   1.956   6.121   2.451
 1469SOL     OW 5305   6.275   5.309   3.317
 1469SOL    HW1 5306   6.335   5.359   3.255
 1469SOL    HW2 5307   6.195   5.275   3.267
 1470SOL     OW 5308   6.390   1.988   0.711
 1470SOL    HW1 5309   6.399   2.034   0.623
 1470SOL    HW2 5310   6.454   1.911   0.715
 1471SOL     OW 5311   5.295   7.019   1.500
 1471SOL    HW1 5312   5.353   0.077   1.514
 1471SOL    HW2 5313   5.273   6.979   1.589
 1472SOL     OW 5314   1.646   6.855   6.034
 1472SOL    HW1 5315   1.680   6.775   6.084
 1472SOL    HW2 5316   1.709   6.931   6.046
 1473SOL     OW 5317   3.142   5.134   4.508
 1473SOL    HW1 5318   3.087   5.215   4.533
 1473SOL    HW2 5319   3.236   5.162   4.492
 1474SOL     OW 5320   4.363   4.904   1.547
 1474SOL    HW1 5321   4.438   4.837   1.549
 1474SOL    HW2 5322   4.324   4.912   1.638
 1475SOL     OW 5323   4.715   0.264   7.018
 1475SOL    HW1 5324   4.665   0.202   0.056
 1475SOL    HW2 5325   4.738   0.216   6.933
 1476SOL     OW 5326   3.810   0.941   1.863
 1476SOL    HW1 5327   3.722   0.963   1.821
 1476SOL    HW2 5328   3.853   1.025   1.896
 1477SOL     OW 5329   4.267   5.212   1.737
 1477SOL    HW1 5330   4.235   5.197   1.644
 1477SOL    HW2 5331   4.189   5.234   1.796
 1478SOL     OW 5332   5.171   5.654   5.714
 1478SOL    HW1 5333   5.157   5.568   5.762
 1478SOL    HW2 5334   5.094   5.671   5.653
 1479SOL     OW 5335   3.595   3.248   1.185
 1479SOL    HW1 5336   3.528   3.246   1.260
 1479SOL    HW2 5337   3.569   3.319   1.119
 1480SOL     OW 5338   2.733   0.499   4.711
 1480SOL    HW1 5339   2.773   0.539   4.794
 1480SOL    HW2 5340   2.651   0.550   4.686
 1481SOL     OW 5341   5.248   2.442   5.713
 1481SOL    HW1 5342   5.284   2.387   5.638
 1481SOL    HW2 5343   5.197   2.519   5.676
 1482SOL     OW 5344   4.480   1.317   0.439
 1482SOL    HW1 5345   4.516   1.390   0.497
 1482SOL    HW2 5346   4.444   1.357   0.354
 1483SOL     OW 5347   4.827   1.371   6.215
 1483SOL    HW1 5348   4.804   1.428   6.136
 1483SOL    HW2 5349   4.789   1.412   6.298
 1484SOL     OW 5350   3.067   6.091   4.777
 1484SOL    HW1 5351   2.981   6.042   4.760
 1484SOL    HW2 5352   3.141   6.045   4.728
 1485SOL     OW 5353   5.167   2.576   2.763
 1485SOL    HW1 5354   5.134   2.602   2.854
 1485SOL    HW2 5355   5.217   2.490   2.769
 1486SOL     OW 5356   4.637   6.750   3.940
 1486SOL    HW1 5357   4.572   6.825   3.945
 1486SOL    HW2 5358   4.593   6.669   3.901
 1487SOL     OW 5359   6.740   0.326   0.547
 1487SOL    HW1 5360   6.731   0.339   0.645
 1487SOL    HW2 5361   6.825   0.367   0.515
 1488SOL     OW 5362   5.924   0.944   3.231
 1488SOL    HW1 5363   5.895   1.005   3.305
 1488SOL    HW2 5364   6.018   0.965   3.205
 1489SOL     OW 5365   4.395   4.510   6.103
 1489SOL    HW1 5366   4.415   4.461   6.187
 1489SOL    HW2 5367   4.433   4.602   6.107
 1490SOL     OW 5368   0.412   2.311   2.172
 1490SOL    HW1 5369   0.375   2.393   2.216
 1490SOL    HW2 5370   0.463   2.258   2.240
 1491SOL     OW 5371   0.001   3.060   2.503
 1491SOL    HW1 5372   0.050   3.039   2.587
 1491SOL    HW2 5373   0.050   3.020   2.425
 1492SOL     OW 5374   6.177   1.424   3.099
 1492SOL    HW1 5375   6.176   1.366   3.018
 1492SOL    HW2 5376   6.254   1.488   3.094
 1493SOL     OW 5377   4.611   2.521   5.835
 1493SOL    HW1 5378   4.703   2.497   5.803
 1493SOL    HW2 5379   4.566   2.578   5.767
 1494SOL     OW 5380   6.181   3.797   5.976
 1494SOL    HW1 5381   6.191   3.875   6.038
 1494SOL    HW2 5382   6.258   3.734   5.988
 1495SOL     OW 5383   6.419   4.196   4.268
 1495SOL    HW1 5384   6.507   4.170   4.308
 1495SOL    HW2 5385   6.368   4.114   4.243
 1496SOL     OW 5386   6.980   5.525   6.778
 1496SOL    HW1 5387   6.943   5.611   6.813
 1496SOL    HW2 5388   6.966   5.453   6.846
 1497SOL     OW 5389   5.460   3.099   2.681
 1497SOL    HW1 5390   5.503   3.020   2.723
 1497SOL    HW2 5391   5.368   3.075   2.649
 1498SOL     OW 5392   3.008   4.867   0.965
 1498SOL    HW1 5393   2.938   4.937   0.977
 1498SOL    HW2 5394   3.084   4.904   0.912
 1499SOL     OW 5395   0.677   3.969   5.802
 1499SOL    HW1 5396   0.598   3.910   5.820
 1499SOL    HW2 5397   0.647   4.054   5.759
 1500SOL     OW 5398   0.732   5.384   1.447
 1500SOL    HW1 5399   0.633   5.374   1.462
 1500SOL    HW2 5400   0.761   5.320   1.376
 1501SOL     OW 5401   5.707   1.438   6.649
 1501SOL    HW1 5402   5.619   1.409   6.611
 1501SOL    HW2 5403   5.763   1.358   6.668
 1502SOL     OW 5404   6.146   0.031   6.602
 1502SOL    HW1 5405   6.168   0.087   6.681
 1502SOL    HW2 5406   6.153   6.956   6.626
 1503SOL     OW 5407   0.402   4.193   1.981
 1503SOL    HW1 5408   0.483   4.232   1.936
 1503SOL    HW2 5409   0.374   4.253   2.056
 1504SOL     OW 5410   0.599   1.006   2.947
 1504SOL    HW1 5411   0.587   0.984   3.043
 1504SOL    HW2 5412   0.686   1.053   2.934
 1505SOL     OW 5413   5.020   5.925   4.820
 1505SOL    HW1 5414   4.986   5.831   4.813
 1505SOL    HW2 5415   5.115   5.928   4.791
 1506SOL     OW 5416   0.877   0.809   0.667
 1506SOL    HW1 5417   0.790   0.767   0.693
 1506SOL    HW2 5418   0.925   0.841   0.748
 1507SOL     OW 5419   1.881   2.521   4.669
 1507SOL    HW1 5420   1.903   2.521   4.766
 1507SOL    HW2 5421   1.966   2.523   4.615
 1508SOL     OW 5422   0.968   0.676   0.434
 1508SOL    HW1 5423   1.048   0.618   0.451
 1508SOL    HW2 5424   0.933   0.711   0.521
 1509SOL     OW 5425   5.340   0.552   4.096
 1509SOL    HW1 5426   5.303   0.645   4.098
 1509SOL    HW2 5427   5.292   0.496   4.163
 1510SOL     OW 5428   3.744   5.832   4.188
 1510SOL    HW1 5429   3.659   5.840   4.240
 1510SOL    HW2 5430   3.746   5.903   4.117
 1511SOL     OW 5431   3.985   3.293   4.376
 1511SOL    HW1 5432   4.017   3.262   4.465
 1511SOL    HW2 5433   4.048   3.361   4.340
 1512SOL     OW 5434   6.552   6.337   1.017
 1512SOL    HW1 5435   6.637   6.386   0.995
 1512SOL    HW2 5436   6.510   6.305   0.933
 1513SOL     OW 5437   3.116   0.184   6.159
 1513SOL    HW1 5438   3.031   0.152   6.116
 1513SOL    HW2 5439   3.130   0.280   6.137
 1514SOL     OW 5440   3.318   2.374   5.574
 1514SOL    HW1 5441   3.305   2.424   5.488
 1514SOL    HW2 5442   3.300   2.436   5.651
 1515SOL     OW 5443   6.150   1.840   2.175
 1515SOL    HW1 5444   6.212   1.818   2.101
 1515SOL    HW2 5445   6.182   1.796   2.260
 1516SOL     OW 5446   6.037   6.464   4.686
 1516SOL    HW1 5447   6.100   6.389   4.666
 1516SOL    HW2 5448   6.024   6.519   4.603
 1517SOL     OW 5449   3.849   6.234   3.764
 1517SOL    HW1 5450   3.903   6.317   3.776
 1517SOL    HW2 5451   3.894   6.174   3.698
 1518SOL     OW 5452   0.437   2.471   0.422
 1518SOL    HW1 5453   0.373   2.394   0.416
 1518SOL    HW2 5454   0.405   2.535   0.492
 1519SOL     OW 5455   6.909   4.173   6.856
 1519SOL    HW1 5456   6.882   4.247   6.795
 1519SOL    HW2 5457   6.830   4.145   6.912
 1520SOL     OW 5458   0.187   5.814   2.236
 1520SOL    HW1 5459   0.169   5.752   2.313
 1520SOL    HW2 5460   0.141   5.901   2.253
 1521SOL     OW 5461   1.954   5.162   6.234
 1521SOL    HW1 5462   2.049   5.187   6.217
 1521SOL    HW2 5463   1.936   5.071   6.196
 1522SOL     OW 5464   5.188   5.444   4.862
 1522SOL    HW1 5465   5.260   5.468   4.928
 1522SOL    HW2 5466   5.109   5.503   4.877
 1523SOL     OW 5467   3.889   6.038   6.557
 1523SOL    HW1 5468   3.962   6.067   6.495
 1523SOL    HW2 5469   3.806   6.018   6.505
 1524SOL     OW 5470   2.279   1.730   2.268
 1524SOL    HW1 5471   2.288   1.671   2.188
 1524SOL    HW2 5472   2.319   1.686   2.348
 1525SOL     OW 5473   5.244   2.707   0.404
 1525SOL    HW1 5474   5.343   2.695   0.397
 1525SOL    HW2 5475   5.210   2.749   0.320
 1526SOL     OW 5476   0.941   1.109   0.619
 1526SOL    HW1 5477   0.888   1.153   0.691
 1526SOL    HW2 5478   0.928   1.010   0.625
 1527SOL     OW 5479   3.570   1.408   4.284
 1527SOL    HW1 5480   3.531   1.318   4.266
 1527SOL    HW2 5481   3.496   1.474   4.300
 1528SOL     OW 5482   4.697   4.039   0.837
 1528SOL    HW1 5483   4.751   3.993   0.908
 1528SOL    HW2 5484   4.704   4.138   0.849
 1529SOL     OW 5485   4.783   1.426   5.937
 1529SOL    HW1 5486   4.852   1.434   5.864
 1529SOL    HW2 5487   4.693   1.412   5.896
 1530SOL     OW 5488   3.827   6.557   1.320
 1530SOL    HW1 5489   3.729   6.541   1.324
 1530SOL    HW2 5490   3.848   6.647   1.359
 1531SOL     OW 5491   3.251   6.514   4.515
 1531SOL    HW1 5492   3.282   6.525   4.609
 1531SOL    HW2 5493   3.310   6.449   4.468
 1532SOL     OW 5494   2.645   5.449   5.833
 1532SOL    HW1 5495   2.655   5.356   5.798
 1532SOL    HW2 5496   2.706   5.510   5.782
 1533SOL     OW 5497   5.464   5.479   1.318
 1533SOL    HW1 5498   5.509   5.406   1.267
 1533SOL    HW2 5499   5.440   5.553   1.256
 1534SOL     OW 5500   3.815   5.759   6.604
 1534SOL    HW1 5501   3.715   5.763   6.612
 1534SOL    HW2 5502   3.850   5.852   6.590
 1535SOL     OW 5503   6.145   6.654   4.485
 1535SOL    HW1 5504   6.170   6.614   4.397
 1535SOL    HW2 5505   6.222   6.709   4.519
 1536SOL     OW 5506   4.218   4.136   6.466
 1536SOL    HW1 5507   4.135   4.124   6.521
 1536SOL    HW2 5508   4.194   4.138   6.369
 1537SOL     OW 5509   3.211   5.334   3.696
 1537SOL    HW1 5510   3.206   5.252   3.640
 1537SOL    HW2 5511   3.258   5.406   3.646
 1538SOL     OW 5512   3.258   1.557   6.889
 1538SOL    HW1 5513   3.330   1.586   6.951
 1538SOL    HW2 5514   3.213   1.476   6.926
 1539SOL     OW 5515   5.726   3.265   0.943
 1539SOL    HW1 5516   5.737   3.244   0.846
 1539SOL    HW2 5517   5.812   3.298   0.980
 1540SOL     OW 5518   2.633   0.377   5.031
 1540SOL    HW1 5519   2.631   0.400   4.933
 1540SOL    HW2 5520   2.547   0.333   5.056
 1541SOL     OW 5521   3.744   2.882   4.465
 1541SOL    HW1 5522   3.772   2.802   4.519
 1541SOL    HW2 5523   3.762   2.965   4.518
 1542SOL     OW 5524   6.659   0.396   2.685
 1542SOL    HW1 5525   6.714   0.315   2.707
 1542SOL    HW2 5526   6.566   0.383   2.717
 1543SOL     OW 5527   2.669   5.224   6.528
 1543SOL    HW1 5528   2.618   5.193   6.608
 1543SOL    HW2 5529   2.750   5.276   6.558
 1544SOL     OW 5530   3.723   2.890   3.563
 1544SOL    HW1 5531   3.664   2.914   3.485
 1544SOL    HW2 5532   3.668   2.850   3.636
 1545SOL     OW 5533   6.205   6.716   2.801
 1545SOL    HW1 5534   6.146   6.701   2.880
 1545SOL    HW2 5535   6.223   6.628   2.756
 1546SOL     OW 5536   4.930   6.445   5.689
 1546SOL    HW1 5537   5.003   6.452   5.621
 1546SOL    HW2 5538   4.881   6.532   5.695
 1547SOL     OW 5539   1.488   3.952   6.347
 1547SOL    HW1 5540   1.578   3.935   6.307
 1547SOL    HW2 5541   1.479   3.900   6.433
 1548SOL     OW 5542   5.829   1.778   6.824
 1548SOL    HW1 5543   5.892   1.763   6.900
 1548SOL    HW2 5544   5.797   1.873   6.825
 1549SOL     OW 5545   4.444   1.196   4.712
 1549SOL    HW1 5546   4.422   1.110   4.666
 1549SOL    HW2 5547   4.390   1.270   4.671
 1550SOL     OW 5548   3.619   2.915   2.852
 1550SOL    HW1 5549   3.666   2.955   2.773
 1550SOL    HW2 5550   3.671   2.934   2.935
 1551SOL     OW 5551   0.199   5.348   6.565
 1551SOL    HW1 5552   0.168   5.257   6.537
 1551SOL    HW2 5553   0.122   5.412   6.559
 1552SOL     OW 5554   2.565   4.203   1.486
 1552SOL    HW1 5555   2.482   4.257   1.472
 1552SOL    HW2 5556   2.618   4.243   1.561
 1553SOL     OW 5557   6.678   1.520   5.776
 1553SOL    HW1 5558   6.654   1.612   5.806
 1553SOL    HW2 5559   6.630   1.499   5.691
 1554SOL     OW 5560   3.182   1.785   3.514
 1554SOL    HW1 5561   3.268   1.789   3.464
 1554SOL    HW2 5562   3.106   1.786   3.449
 1555SOL     OW 5563   6.496   3.279   6.200
 1555SOL    HW1 5564   6.545   3.267   6.286
 1555SOL    HW2 5565   6.549   3.338   6.139
 1556SOL     OW 5566   2.142   1.373   5.860
 1556SOL    HW1 5567   2.043   1.377   5.876
 1556SOL    HW2 5568   2.160   1.315   5.780
 1557SOL     OW 5569   0.756   3.262   6.538
 1557SOL    HW1 5570   0.681   3.297   6.594
 1557SOL    HW2 5571   0.818   3.336   6.515
 1558SOL     OW 5572   6.731   0.666   5.472
 1558SOL    HW1 5573   6.786   0.647   5.391
 1558SOL    HW2 5574   6.782   0.638   5.554
 1559SOL     OW 5575   0.363   2.466   5.779
 1559SOL    HW1 5576   0.323   2.425   5.696
 1559SOL    HW2 5577   0.323   2.423   5.860
 1560SOL     OW 5578   7.016   0.351   6.294
 1560SOL    HW1 5579   6.990   0.408   6.372
 1560SOL    HW2 5580   0.082   0.382   6.257
 1561SOL     OW 5581   5.691   5.778   2.608
 1561SOL    HW1 5582   5.775   5.823   2.641
 1561SOL    HW2 5583   5.622   5.847   2.586
 1562SOL     OW 5584   5.617   0.452   2.966
 1562SOL    HW1 5585   5.679   0.403   3.028
 1562SOL    HW2 5586   5.652   0.445   2.872
 1563SOL     OW 5587   3.700   1.609   5.780
 1563SOL    HW1 5588   3.713   1.693   5.832
 1563SOL    HW2 5589   3.609   1.609   5.739
 1564SOL     OW 5590   2.049   2.188   2.064
 1564SOL    HW1 5591   2.047   2.191   2.164
 1564SOL    HW2 5592   2.130   2.137   2.034
 1565SOL     OW 5593   5.202   3.844   1.757
 1565SOL    HW1 5594   5.150   3.774   1.806
 1565SOL    HW2 5595   5.279   3.801   1.710
 1566SOL     OW 5596   5.375   4.098   3.577
 1566SOL    HW1 5597   5.293   4.063   3.532
 1566SOL    HW2 5598   5.443   4.025   3.585
 1567SOL     OW 5599   0.020   5.359   5.882
 1567SOL    HW1 5600   0.062   5.438   5.837
 1567SOL    HW2 5601   0.089   5.311   5.936
 1568SOL     OW 5602   0.581   0.396   0.734
 1568SOL    HW1 5603   0.578   0.353   0.644
 1568SOL    HW2 5604   0.613   0.330   0.802
 1569SOL     OW 5605   3.980   6.185   5.540
 1569SOL    HW1 5606   3.981   6.097   5.493
 1569SOL    HW2 5607   4.072   6.223   5.543
 1570SOL     OW 5608   2.997   1.854   1.608
 1570SOL    HW1 5609   3.034   1.830   1.518
 1570SOL    HW2 5610   3.068   1.898   1.663
 1571SOL     OW 5611   6.579   3.681   1.470
 1571SOL    HW1 5612   6.487   3.697   1.434
 1571SOL    HW2 5613   6.574   3.623   1.552
 1572SOL     OW 5614   1.477   0.129   1.971
 1572SOL    HW1 5615   1.418   0.102   1.895
 1572SOL    HW2 5616   1.507   0.048   2.021
 1573SOL     OW 5617   4.128   0.348   1.969
 1573SOL    HW1 5618   4.045   0.400   1.947
 1573SOL    HW2 5619   4.206   0.387   1.921
 1574SOL     OW 5620   6.676   2.113   2.146
 1574SOL    HW1 5621   6.671   2.212   2.155
 1574SOL    HW2 5622   6.683   2.072   2.237
 1575SOL     OW 5623   2.144   2.055   0.587
 1575SOL    HW1 5624   2.102   1.997   0.517
 1575SOL    HW2 5625   2.137   2.151   0.560
 1576SOL     OW 5626   5.867   6.222   3.980
 1576SOL    HW1 5627   5.869   6.229   3.880
 1576SOL    HW2 5628   5.862   6.125   4.006
 1577SOL     OW 5629   2.738   0.419   5.732
 1577SOL    HW1 5630   2.680   0.434   5.812
 1577SOL    HW2 5631   2.681   0.404   5.651
 1578SOL     OW 5632   5.926   4.556   5.736
 1578SOL    HW1 5633   5.883   4.474   5.773
 1578SOL    HW2 5634   5.869   4.635   5.756
 1579SOL     OW 5635   0.847   0.905   3.572
 1579SOL    HW1 5636   0.877   0.946   3.658
 1579SOL    HW2 5637   0.923   0.855   3.531
 1580SOL     OW 5638   2.965   4.308   5.324
 1580SOL    HW1 5639   3.058   4.272   5.318
 1580SOL    HW2 5640   2.958   4.390   5.267
 1581SOL     OW 5641   6.637   4.421   4.477
 1581SOL    HW1 5642   6.661   4.332   4.517
 1581SOL    HW2 5643   6.539   4.436   4.485
 1582SOL     OW 5644   0.224   5.400   4.424
 1582SOL    HW1 5645   0.277   5.365   4.346
 1582SOL    HW2 5646   0.272   5.377   4.509
 1583SOL     OW 5647   1.699   3.122   3.315
 1583SOL    HW1 5648   1.712   3.179   3.233
 1583SOL    HW2 5649   1.759   3.155   3.388
 1584SOL     OW 5650   2.198   0.124   6.077
 1584SOL    HW1 5651   2.166   0.213   6.047
 1584SOL    HW2 5652   2.135   0.086   6.145
 1585SOL     OW 5653   5.062   1.577   4.254
 1585SOL    HW1 5654   5.038   1.535   4.341
 1585SOL    HW2 5655   5.001   1.543   4.182
 1586SOL     OW 5656   3.888   3.925   2.695
 1586SOL    HW1 5657   3.862   4.003   2.639
 1586SOL    HW2 5658   3.925   3.852   2.637
 1587SOL     OW 5659   3.503   6.751   6.962
 1587SOL    HW1 5660   3.405   6.767   6.973
 1587SOL    HW2 5661   3.520   6.706   6.874
 1588SOL     OW 5662   5.985   3.037   1.783
 1588SOL    HW1 5663   5.887   3.020   1.791
 1588SOL    HW2 5664   6.008   3.053   1.687
 1589SOL     OW 5665   5.719   4.305   4.380
 1589SOL    HW1 5666   5.814   4.336   4.381
 1589SOL    HW2 5667   5.670   4.347   4.456
 1590SOL     OW 5668   1.628   0.400   6.210
 1590SOL    HW1 5669   1.599   0.406   6.114
 1590SOL    HW2 5670   1.706   0.460   6.225
 1591SOL     OW 5671   1.142   4.655   2.170
 1591SOL    HW1 5672   1.062   4.699   2.131
 1591SOL    HW2 5673   1.198   4.616   2.097
 1592SOL     OW 5674   3.284   3.607   2.714
 1592SOL    HW1 5675   3.223   3.531   2.736
 1592SOL    HW2 5676   3.266   3.638   2.620
 1593SOL     OW 5677   0.895   5.327   4.982
 1593SOL    HW1 5678   0.802   5.336   4.947
 1593SOL    HW2 5679   0.941   5.250   4.937
 1594SOL     OW 5680   6.818   5.080   2.777
 1594SOL    HW1 5681   6.865   5.004   2.732
 1594SOL    HW2 5682   6.824   5.068   2.877
 1595SOL     OW 5683   6.356   4.908   6.461
 1595SOL    HW1 5684   6.399   4.866   6.541
 1595SOL    HW2 5685   6.427   4.944   6.401
 1596SOL     OW 5686   2.732   5.157   5.686
 1596SOL    HW1 5687   2.758   5.099   5.609
 1596SOL    HW2 5688   2.792   5.139   5.763
 1597SOL     OW 5689   3.068   6.188   1.482
 1597SOL    HW1 5690   3.021   6.101   1.500
 1597SOL    HW2 5691   3.002   6.262   1.479
 1598SOL     OW 5692   7.007   5.416   1.339
 1598SOL    HW1 5693   6.941   5.416   1.264
 1598SOL    HW2 5694   0.065   5.469   1.312
 1599SOL     OW 5695   3.568   5.079   0.040
 1599SOL    HW1 5696   3.614   5.100   6.976
 1599SOL    HW2 5697   3.567   4.980   0.054
 1600SOL     OW 5698   4.535   1.143   4.388
 1600SOL    HW1 5699   4.618   1.149   4.444
 1600SOL    HW2 5700   4.548   1.195   4.304
 1601SOL     OW 5701   1.519   5.188   3.951
 1601SOL    HW1 5702   1.532   5.212   3.855
 1601SOL    HW2 5703   1.467   5.260   3.997
 1602SOL     OW 5704   1.147   5.047   3.654
 1602SOL    HW1 5705   1.056   5.087   3.646
 1602SOL    HW2 5706   1.168   5.031   3.751
 1603SOL     OW 5707   0.001   6.611   1.908
 1603SOL    HW1 5708   6.958   6.686   1.891
 1603SOL    HW2 5709   6.979   6.540   1.963
 1604SOL     OW 5710   0.712   5.422   6.523
 1604SOL    HW1 5711   0.708   5.476   6.439
 1604SOL    HW2 5712   0.622   5.381   6.540
 1605SOL     OW 5713   5.612   6.615   3.364
 1605SOL    HW1 5714   5.644   6.700   3.322
 1605SOL    HW2 5715   5.611   6.542   3.296
 1606SOL     OW 5716   5.235   7.008   6.245
 1606SOL    HW1 5717   5.197   6.949   6.316
 1606SOL    HW2 5718   5.161   0.033   6.198
 1607SOL     OW 5719   4.291   2.317   1.111
 1607SOL    HW1 5720   4.359   2.391   1.107
 1607SOL    HW2 5721   4.312   2.257   1.189
 1608SOL     OW 5722   2.340   0.045   0.231
 1608SOL    HW1 5723   2.290   0.108   0.291
 1608SOL    HW2 5724   2.324   0.070   0.135
 1609SOL     OW 5725   4.860   2.222   5.566
 1609SOL    HW1 5726   4.834   2.144   5.623
 1609SOL    HW2 5727   4.879   2.301   5.624
 1610SOL     OW 5728   6.327   5.330   4.410
 1610SOL    HW1 5729   6.404   5.393   4.424
 1610SOL    HW2 5730   6.343   5.246   4.462
 1611SOL     OW 5731   2.993   3.817   1.405
 1611SOL    HW1 5732   3.053   3.737   1.410
 1611SOL    HW2 5733   2.914   3.795   1.348
 1612SOL     OW 5734   2.873   0.934   4.612
 1612SOL    HW1 5735   2.948   0.873   4.585
 1612SOL    HW2 5736   2.787   0.897   4.576
 1613SOL     OW 5737   2.156   5.914   0.659
 1613SOL    HW1 5738   2.252   5.906   0.633
 1613SOL    HW2 5739   2.139   6.006   0.694
 1614SOL     OW 5740   5.834   2.091   6.946
 1614SOL    HW1 5741   5.841   2.071   0.022
 1614SOL    HW2 5742   5.920   2.130   6.914
 1615SOL     OW 5743   6.458   4.659   6.891
 1615SOL    HW1 5744   6.524   4.692   6.958
 1615SOL    HW2 5745   6.366   4.687   6.919
 1616SOL     OW 5746   3.238   2.113   5.948
 1616SOL    HW1 5747   3.197   2.110   5.857
 1616SOL    HW2 5748   3.297   2.033   5.960
 1617SOL     OW 5749   4.920   0.106   3.603
 1617SOL    HW1 5750   4.869   0.031   3.645
 1617SOL    HW2 5751   4.944   0.174   3.673
 1618SOL     OW 5752   5.425   2.797   1.272
 1618SOL    HW1 5753   5.335   2.832   1.295
 1618SOL    HW2 5754   5.463   2.849   1.196
 1619SOL     OW 5755   1.686   3.428   4.499
 1619SOL    HW1 5756   1.671   3.491   4.575
 1619SOL    HW2 5757   1.621   3.447   4.426
 1620SOL     OW 5758   3.025   5.356   1.523
 1620SOL    HW1 5759   3.112   5.314   1.496
 1620SOL    HW2 5760   3.002   5.328   1.616
 1621SOL     OW 5761   1.510   0.887   1.126
 1621SOL    HW1 5762   1.475   0.980   1.136
 1621SOL    HW2 5763   1.579   0.870   1.196
 1622SOL     OW 5764   2.543   1.970   4.956
 1622SOL    HW1 5765   2.508   1.909   5.027
 1622SOL    HW2 5766   2.484   2.051   4.950
 1623SOL     OW 5767   2.819   2.279   5.120
 1623SOL    HW1 5768   2.832   2.302   5.216
 1623SOL    HW2 5769   2.902   2.299   5.069
 1624SOL     OW 5770   2.246   1.304   0.185
 1624SOL    HW1 5771   2.295   1.360   0.117
 1624SOL    HW2 5772   2.263   1.207   0.167
 1625SOL     OW 5773   0.520   5.334   1.902
 1625SOL    HW1 5774   0.527   5.409   1.837
 1625SOL    HW2 5775   0.587   5.346   1.975
 1626SOL     OW 5776   1.770   2.409   6.495
 1626SOL    HW1 5777   1.675   2.378   6.493
 1626SOL    HW2 5778   1.814   2.375   6.578
 1627SOL     OW 5779   5.359   2.978   3.602
 1627SOL    HW1 5780   5.415   2.974   3.684
 1627SOL    HW2 5781   5.395   2.915   3.533
 1628SOL     OW 5782   3.111   4.073   0.397
 1628SOL    HW1 5783   3.070   4.033   0.315
 1628SOL    HW2 5784   3.158   4.158   0.373
 1629SOL     OW 5785   3.941   2.159   3.871
 1629SOL    HW1 5786   4.008   2.086   3.881
 1629SOL    HW2 5787   3.856   2.134   3.918
 1630SOL     OW 5788   0.156   4.875   5.000
 1630SOL    HW1 5789   0.135   4.956   5.056
 1630SOL    HW2 5790   0.226   4.898   4.933
 1631SOL     OW 5791   0.025   6.890   5.758
 1631SOL    HW1 5792   0.062   6.802   5.728
 1631SOL    HW2 5793   6.950   6.880   5.781
 1632SOL     OW 5794   6.191   0.999   1.415
 1632SOL    HW1 5795   6.283   0.997   1.375
 1632SOL    HW2 5796   6.125   0.959   1.352
 1633SOL     OW 5797   6.072   2.446   3.908
 1633SOL    HW1 5798   6.133   2.455   3.987
 1633SOL    HW2 5799   5.978   2.460   3.937
 1634SOL     OW 5800   3.305   1.097   6.545
 1634SOL    HW1 5801   3.344   1.014   6.587
 1634SOL    HW2 5802   3.344   1.109   6.453
 1635SOL     OW 5803   0.445   5.455   4.586
 1635SOL    HW1 5804   0.418   5.531   4.526
 1635SOL    HW2 5805   0.477   5.492   4.673
 1636SOL     OW 5806   2.135   6.055   1.249
 1636SOL    HW1 5807   2.159   6.052   1.152
 1636SOL    HW2 5808   2.064   6.124   1.264
 1637SOL     OW 5809   0.199   3.436   1.549
 1637SOL    HW1 5810   0.148   3.433   1.635
 1637SOL    HW2 5811   0.168   3.513   1.494
 1638SOL     OW 5812   0.976   3.505   5.135
 1638SOL    HW1 5813   1.047   3.449   5.177
 1638SOL    HW2 5814   0.919   3.546   5.206
 1639SOL     OW 5815   5.461   5.088   2.318
 1639SOL    HW1 5816   5.364   5.065   2.305
 1639SOL    HW2 5817   5.472   5.136   2.405
 1640SOL     OW 5818   6.320   0.335   1.140
 1640SOL    HW1 5819   6.417   0.344   1.116
 1640SOL    HW2 5820   6.266   0.404   1.092
 1641SOL     OW 5821   5.846   2.535   5.520
 1641SOL    HW1 5822   5.870   2.611   5.459
 1641SOL    HW2 5823   5.748   2.514   5.510
 1642SOL     OW 5824   6.779   2.235   1.650
 1642SOL    HW1 5825   6.729   2.177   1.714
 1642SOL    HW2 5826   6.876   2.236   1.673
 1643SOL     OW 5827   4.561   0.336   5.591
 1643SOL    HW1 5828   4.566   0.428   5.631
 1643SOL    HW2 5829   4.507   0.276   5.650
 1644SOL     OW 5830   3.157   0.965   1.562
 1644SOL    HW1 5831   3.251   0.991   1.585
 1644SOL    HW2 5832   3.128   0.890   1.621
 1645SOL     OW 5833   2.331   0.052   6.537
 1645SOL    HW1 5834   2.367   0.008   6.619
 1645SOL    HW2 5835   2.320   7.006   6.464
 1646SOL     OW 5836   0.857   3.820   1.253
 1646SOL    HW1 5837   0.855   3.819   1.153
 1646SOL    HW2 5838   0.768   3.790   1.288
 1647SOL     OW 5839   5.593   3.360   3.652
 1647SOL    HW1 5840   5.494   3.351   3.661
 1647SOL    HW2 5841   5.622   3.316   3.567
 1648SOL     OW 5842   4.535   0.090   2.047
 1648SOL    HW1 5843   4.582   0.005   2.069
 1648SOL    HW2 5844   4.581   0.134   1.969
 1649SOL     OW 5845   3.201   0.699   3.489
 1649SOL    HW1 5846   3.193   0.709   3.390
 1649SOL    HW2 5847   3.126   0.642   3.522
 1650SOL     OW 5848   2.930   6.526   3.743
 1650SOL    HW1 5849   3.021   6.541   3.782
 1650SOL    HW2 5850   2.900   6.609   3.696
 1651SOL     OW 5851   1.195   6.927   0.483
 1651SOL    HW1 5852   1.211   6.848   0.424
 1651SOL    HW2 5853   1.116   6.978   0.449
 1652SOL     OW 5854   2.835   2.377   1.623
 1652SOL    HW1 5855   2.856   2.280   1.627
 1652SOL    HW2 5856   2.892   2.426   1.690
 1653SOL     OW 5857   1.196   5.827   1.563
 1653SOL    HW1 5858   1.219   5.901   1.499
 1653SOL    HW2 5859   1.117   5.777   1.528
 1654SOL     OW 5860   0.330   3.234   2.947
 1654SOL    HW1 5861   0.305   3.330   2.954
 1654SOL    HW2 5862   0.426   3.222   2.972
 1655SOL     OW 5863   4.910   4.600   6.316
 1655SOL    HW1 5864   4.928   4.671   6.384
 1655SOL    HW2 5865   4.966   4.520   6.335
 1656SOL     OW 5866   0.718   5.218   3.375
 1656SOL    HW1 5867   0.652   5.149   3.345
 1656SOL    HW2 5868   0.801   5.211   3.320
 1657SOL     OW 5869   1.632   0.728   5.078
 1657SOL    HW1 5870   1.707   0.716   5.143
 1657SOL    HW2 5871   1.596   0.638   5.052
 1658SOL     OW 5872   6.159   6.026   3.051
 1658SOL    HW1 5873   6.221   5.948   3.061
 1658SOL    HW2 5874   6.065   5.994   3.044
 1659SOL     OW 5875   3.978   2.781   5.886
 1659SOL    HW1 5876   3.955   2.779   5.789
 1659SOL    HW2 5877   4.009   2.690   5.915
 1660SOL     OW 5878   2.014   5.704   3.430
 1660SOL    HW1 5879   2.111   5.689   3.448
 1660SOL    HW2 5880   1.962   5.624   3.461
 1661SOL     OW 5881   2.921   0.260   2.227
 1661SOL    HW1 5882   2.998   0.201   2.252
 1661SOL    HW2 5883   2.947   0.355   2.238
 1662SOL     OW 5884   0.733   0.694   3.189
 1662SOL    HW1 5885   0.655   0.637   3.163
 1662SOL    HW2 5886   0.718   0.729   3.282
 1663SOL     OW 5887   2.771   7.021   3.079
 1663SOL    HW1 5888   2.863   6.984   3.073
 1663SOL    HW2 5889   2.774   0.098   3.065
 1664SOL     OW 5890   2.215   5.825   4.062
 1664SOL    HW1 5891   2.172   5.829   3.971
 1664SOL    HW2 5892   2.313   5.842   4.053
 1665SOL     OW 5893   0.091   0.559   4.146
 1665SOL    HW1 5894   0.136   0.596   4.227
 1665SOL    HW2 5895   0.032   0.483   4.171
 1666SOL     OW 5896   5.735   2.749   6.185
 1666SOL    HW1 5897   5.714   2.758   6.283
 1666SOL    HW2 5898   5.791   2.826   6.156
 1667SOL     OW 5899   6.385   0.494   5.759
 1667SOL    HW1 5900   6.339   0.533   5.839
 1667SOL    HW2 5901   6.482   0.517   5.763
 1668SOL     OW 5902   3.543   1.337   5.525
 1668SOL    HW1 5903   3.614   1.345   5.596
 1668SOL    HW2 5904   3.479   1.265   5.552
 1669SOL     OW 5905   5.689   6.646   6.147
 1669SOL    HW1 5906   5.767   6.647   6.085
 1669SOL    HW2 5907   5.703   6.714   6.219
 1670SOL     OW 5908   5.619   4.199   6.018
 1670SOL    HW1 5909   5.525   4.217   6.045
 1670SOL    HW2 5910   5.624   4.113   5.967
 1671SOL     OW 5911   5.233   3.409   0.337
 1671SOL    HW1 5912   5.220   3.421   0.435
 1671SOL    HW2 5913   5.155   3.448   0.288
 1672SOL     OW 5914   1.853   5.191   2.667
 1672SOL    HW1 5915   1.816   5.166   2.757
 1672SOL    HW2 5916   1.921   5.264   2.679
 1673SOL     OW 5917   0.200   2.778   4.003
 1673SOL    HW1 5918   0.209   2.679   3.989
 1673SOL    HW2 5919   0.276   2.810   4.060
 1674SOL     OW 5920   0.656   4.234   6.636
 1674SOL    HW1 5921   0.637   4.169   6.563
 1674SOL    HW2 5922   0.623   4.325   6.610
 1675SOL     OW 5923   4.799   1.799   6.886
 1675SOL    HW1 5924   4.849   1.867   6.832
 1675SOL    HW2 5925   4.701   1.806   6.867
 1676SOL     OW 5926   1.436   6.950   2.806
 1676SOL    HW1 5927   1.420   6.863   2.853
 1676SOL    HW2 5928   1.460   6.932   2.710
 1677SOL     OW 5929   5.904   1.833   5.147
 1677SOL    HW1 5930   5.849   1.758   5.110
 1677SOL    HW2 5931   5.971   1.862   5.078
 1678SOL     OW 5932   5.063   0.244   1.417
 1678SOL    HW1 5933   5.053   0.213   1.322
 1678SOL    HW2 5934   5.031   0.172   1.479
 1679SOL     OW 5935   0.551   3.356   6.646
 1679SOL    HW1 5936   0.525   3.443   6.603
 1679SOL    HW2 5937   0.475   3.292   6.641
 1680SOL     OW 5938   1.095   1.689   4.256
 1680SOL    HW1 5939   1.110   1.646   4.167
 1680SOL    HW2 5940   1.172   1.748   4.278
 1681SOL     OW 5941   6.350   5.344   1.127
 1681SOL    HW1 5942   6.327   5.394   1.211
 1681SOL    HW2 5943   6.282   5.274   1.110
 1682SOL     OW 5944   6.459   3.616   5.625
 1682SOL    HW1 5945   6.541   3.575   5.664
 1682SOL    HW2 5946   6.378   3.575   5.666
 1683SOL     OW 5947   5.468   6.008   0.978
 1683SOL    HW1 5948   5.501   5.983   0.887
 1683SOL    HW2 5949   5.389   5.951   1.001
 1684SOL     OW 5950   1.127   6.057   4.805
 1684SOL    HW1 5951   1.218   6.029   4.774
 1684SOL    HW2 5952   1.120   6.157   4.804
 1685SOL     OW 5953   1.384   1.369   0.068
 1685SOL    HW1 5954   1.474   1.377   0.111
 1685SOL    HW2 5955   1.314   1.377   0.139
 1686SOL     OW 5956   1.578   6.820   0.054
 1686SOL    HW1 5957   1.615   6.900   0.007
 1686SOL    HW2 5958   1.625   6.808   0.142
 1687SOL     OW 5959   1.441   6.782   1.834
 1687SOL    HW1 5960   1.423   6.695   1.790
 1687SOL    HW2 5961   1.540   6.796   1.844
 1688SOL     OW 5962   1.174   2.235   3.062
 1688SOL    HW1 5963   1.146   2.219   3.157
 1688SOL    HW2 5964   1.183   2.333   3.046
 1689SOL     OW 5965   2.016   1.772   3.011
 1689SOL    HW1 5966   2.025   1.872   3.002
 1689SOL    HW2 5967   1.973   1.735   2.929
 1690SOL     OW 5968   1.184   1.120   0.965
 1690SOL    HW1 5969   1.210   1.031   1.002
 1690SOL    HW2 5970   1.227   1.193   1.019
 1691SOL     OW 5971   5.313   4.421   2.569
 1691SOL    HW1 5972   5.384   4.490   2.554
 1691SOL    HW2 5973   5.225   4.467   2.585
 1692SOL     OW 5974   1.397   0.443   2.641
 1692SOL    HW1 5975   1.485   0.437   2.592
 1692SOL    HW2 5976   1.343   0.361   2.622
 1693SOL     OW 5977   2.871   2.115   3.557
 1693SOL    HW1 5978   2.813   2.034   3.551
 1693SOL    HW2 5979   2.945   2.098   3.622
 1694SOL     OW 5980   5.368   6.035   5.008
 1694SOL    HW1 5981   5.402   6.129   4.998
 1694SOL    HW2 5982   5.299   6.018   4.938
 1695SOL     OW 5983   2.811   2.817   5.754
 1695SOL    HW1 5984   2.847   2.739   5.703
 1695SOL    HW2 5985   2.714   2.803   5.772
 1696SOL     OW 5986   4.426   6.144   0.756
 1696SOL    HW1 5987   4.469   6.077   0.818
 1696SOL    HW2 5988   4.334   6.112   0.732
 1697SOL     OW 5989   0.916   1.316   1.795
 1697SOL    HW1 5990   0.908   1.236   1.736
 1697SOL    HW2 5991   0.966   1.388   1.748
 1698SOL     OW 5992   4.701   1.881   1.708
 1698SOL    HW1 5993   4.686   1.965   1.656
 1698SOL    HW2 5994   4.795   1.880   1.742
 1699SOL     OW 5995   2.238   3.331   1.079
 1699SOL    HW1 5996   2.260   3.317   1.175
 1699SOL    HW2 5997   2.177   3.258   1.048
 1700SOL     OW 5998   6.735   3.493   3.546
 1700SOL    HW1 5999   6.748   3.394   3.557
 1700SOL    HW2 6000   6.725   3.535   3.636
 1701SOL     OW 6001   5.661   3.252   4.292
 1701SOL    HW1 6002   5.622   3.344   4.291
 1701SOL    HW2 6003   5.701   3.232   4.202
 1702SOL     OW 6004   4.632   3.415   0.713
 1702SOL    HW1 6005   4.700   3.363   0.663
 1702SOL    HW2 6006   4.655   3.416   0.810
 1703SOL     OW 6007   1.570   3.750   0.218
 1703SOL    HW1 6008   1.640   3.802   0.170
 1703SOL    HW2 6009   1.577   3.654   0.193
 1704SOL     OW 6010   0.820   1.078   2.154
 1704SOL    HW1 6011   0.852   1.172   2.140
 1704SOL    HW2 6012   0.741   1.079   2.214
 1705SOL     OW 6013   4.505   3.097   1.656
 1705SOL    HW1 6014   4.443   3.175   1.674
 1705SOL    HW2 6015   4.560   3.080   1.738
 1706SOL     OW 6016   2.995   0.880   0.363
 1706SOL    HW1 6017   3.023   0.976   0.370
 1706SOL    HW2 6018   3.049   0.825   0.427
 1707SOL     OW 6019   5.284   2.136   3.388
 1707SOL    HW1 6020   5.264   2.198   3.463
 1707SOL    HW2 6021   5.290   2.188   3.303
 1708SOL     OW 6022   0.194   5.009   2.906
 1708SOL    HW1 6023   0.243   5.079   2.958
 1708SOL    HW2 6024   0.197   4.922   2.956
 1709SOL     OW 6025   2.722   6.056   2.421
 1709SOL    HW1 6026   2.775   6.130   2.463
 1709SOL    HW2 6027   2.772   6.018   2.344
 1710SOL     OW 6028   0.640   5.880   4.339
 1710SOL    HW1 6029   0.652   5.794   4.387
 1710SOL    HW2 6030   0.708   5.889   4.267
 1711SOL     OW 6031   1.589   4.738   5.565
 1711SOL    HW1 6032   1.508   4.680   5.552
 1711SOL    HW2 6033   1.664   4.705   5.507
 1712SOL     OW 6034   0.533   4.398   0.663
 1712SOL    HW1 6035   0.501   4.327   0.726
 1712SOL    HW2 6036   0.598   4.358   0.599
 1713SOL     OW 6037   1.023   2.837   1.058
 1713SOL    HW1 6038   1.071   2.851   0.971
 1713SOL    HW2 6039   0.942   2.782   1.043
 1714SOL     OW 6040   3.075   1.816   0.629
 1714SOL    HW1 6041   2.989   1.811   0.680
 1714SOL    HW2 6042   3.108   1.723   0.610
 1715SOL     OW 6043   7.016   3.268   3.563
 1715SOL    HW1 6044   0.058   3.296   3.491
 1715SOL    HW2 6045   0.042   3.211   3.629
 1716SOL     OW 6046   0.008   6.456   0.240
 1716SOL    HW1 6047   7.011   6.490   0.148
 1716SOL    HW2 6048   7.000   6.523   0.307
 1717SOL     OW 6049   2.903   0.686   6.691
 1717SOL    HW1 6050   2.850   0.625   6.749
 1717SOL    HW2 6051   2.987   0.712   6.737
 1718SOL     OW 6052   1.325   4.545   6.482
 1718SOL    HW1 6053   1.400   4.484   6.510
 1718SOL    HW2 6054   1.280   4.582   6.563
 1719SOL     OW 6055   2.069   3.677   1.449
 1719SOL    HW1 6056   1.988   3.672   1.507
 1719SOL    HW2 6057   2.151   3.658   1.503
 1720SOL     OW 6058   6.718   0.405   1.370
 1720SOL    HW1 6059   6.713   0.417   1.271
 1720SOL    HW2 6060   6.628   0.424   1.410
 1721SOL     OW 6061   2.195   6.243   3.456
 1721SOL    HW1 6062   2.227   6.159   3.498
 1721SOL    HW2 6063   2.267   6.281   3.398
 1722SOL     OW 6064   6.064   6.394   2.458
 1722SOL    HW1 6065   6.100   6.423   2.370
 1722SOL    HW2 6066   6.019   6.471   2.504
 1723SOL     OW 6067   6.534   1.491   2.372
 1723SOL    HW1 6068   6.602   1.550   2.416
 1723SOL    HW2 6069   6.543   1.500   2.273
 1724SOL     OW 6070   4.999   0.926   0.160
 1724SOL    HW1 6071   4.952   0.854   0.109
 1724SOL    HW2 6072   5.034   0.995   0.096
 1725SOL     OW 6073   3.935   4.282   1.668
 1725SOL    HW1 6074   3.853   4.241   1.708
 1725SOL    HW2 6075   3.978   4.215   1.607
 1726SOL     OW 6076   0.756   4.240   4.471
 1726SOL    HW1 6077   0.849   4.273   4.490
 1726SOL    HW2 6078   0.716   4.202   4.555
 1727SOL     OW 6079   3.732   3.782   5.466
 1727SOL    HW1 6080   3.639   3.753   5.442
 1727SOL    HW2 6081   3.732   3.820   5.558
 1728SOL     OW 6082   4.488   4.445   3.002
 1728SOL    HW1 6083   4.399   4.490   3.006
 1728SOL    HW2 6084   4.541   4.482   2.927
 1729SOL     OW 6085   2.084   3.864   2.973
 1729SOL    HW1 6086   2.132   3.911   3.047
 1729SOL    HW2 6087   2.117   3.897   2.885
 1730SOL     OW 6088   5.906   2.740   5.338
 1730SOL    HW1 6089   5.926   2.811   5.406
 1730SOL    HW2 6090   5.885   2.782   5.250
 1731SOL     OW 6091   1.779   5.301   0.770
 1731SOL    HW1 6092   1.823   5.359   0.701
 1731SOL    HW2 6093   1.682   5.325   0.777
 1732SOL     OW 6094   0.327   4.417   6.882
 1732SOL    HW1 6095   0.416   4.463   6.882
 1732SOL    HW2 6096   0.256   4.480   6.852
 1733SOL     OW 6097   1.731   3.280   0.586
 1733SOL    HW1 6098   1.670   3.201   0.586
 1733SOL    HW2 6099   1.789   3.278   0.668
 1734SOL     OW 6100   4.966   2.128   1.139
 1734SOL    HW1 6101   4.966   2.061   1.064
 1734SOL    HW2 6102   4.872   2.156   1.158
 1735SOL     OW 6103   6.472   5.154   1.319
 1735SOL    HW1 6104   6.568   5.132   1.302
 1735SOL    HW2 6105   6.432   5.195   1.237
 1736SOL     OW 6106   3.705   3.372   0.430
 1736SOL    HW1 6107   3.697   3.279   0.466
 1736SOL    HW2 6108   3.655   3.435   0.490
 1737SOL     OW 6109   1.974   6.606   3.567
 1737SOL    HW1 6110   2.005   6.513   3.549
 1737SOL    HW2 6111   1.938   6.646   3.482
 1738SOL     OW 6112   2.160   3.014   2.329
 1738SOL    HW1 6113   2.171   3.089   2.265
 1738SOL    HW2 6114   2.201   2.931   2.291
 1739SOL     OW 6115   4.342   1.862   4.965
 1739SOL    HW1 6116   4.261   1.918   4.978
 1739SOL    HW2 6117   4.380   1.878   4.874
 1740SOL     OW 6118   0.535   1.286   5.738
 1740SOL    HW1 6119   0.504   1.308   5.646
 1740SOL    HW2 6120   0.596   1.206   5.735
 1741SOL     OW 6121   1.165   0.030   2.717
 1741SOL    HW1 6122   1.258   0.004   2.741
 1741SOL    HW2 6123   1.167   0.095   2.641
 1742SOL     OW 6124   6.348   0.926   4.579
 1742SOL    HW1 6125   6.343   0.843   4.523
 1742SOL    HW2 6126   6.443   0.942   4.607
 1743SOL     OW 6127   4.061   1.270   1.075
 1743SOL    HW1 6128   4.052   1.298   1.171
 1743SOL    HW2 6129   4.068   1.351   1.017
 1744SOL     OW 6130   3.136   0.390   1.277
 1744SOL    HW1 6131   3.208   0.452   1.308
 1744SOL    HW2 6132   3.050   0.412   1.324
 1745SOL     OW 6133   0.285   2.386   2.922
 1745SOL    HW1 6134   0.197   2.365   2.882
 1745SOL    HW2 6135   0.345   2.427   2.853
 1746SOL     OW 6136   2.675   1.208   5.806
 1746SOL    HW1 6137   2.757   1.259   5.832
 1746SOL    HW2 6138   2.695   1.153   5.725
 1747SOL     OW 6139   3.370   0.340   1.978
 1747SOL    HW1 6140   3.317   0.412   2.023
 1747SOL    HW2 6141   3.308   0.273   1.936
 1748SOL     OW 6142   5.293   2.072   2.475
 1748SOL    HW1 6143   5.253   2.155   2.435
 1748SOL    HW2 6144   5.261   1.992   2.426
 1749SOL     OW 6145   4.151   0.066   6.275
 1749SOL    HW1 6146   4.068   0.120   6.262
 1749SOL    HW2 6147   4.186   0.082   6.368
 1750SOL     OW 6148   4.403   1.335   3.063
 1750SOL    HW1 6149   4.442   1.378   3.144
 1750SOL    HW2 6150   4.471   1.334   2.990
 1751SOL     OW 6151   1.880   5.481   3.505
 1751SOL    HW1 6152   1.908   5.386   3.492
 1751SOL    HW2 6153   1.782   5.489   3.487
 1752SOL     OW 6154   6.128   1.980   0.536
 1752SOL    HW1 6155   6.088   1.889   0.529
 1752SOL    HW2 6156   6.109   2.018   0.627
 1753SOL     OW 6157   1.654   0.164   1.659
 1753SOL    HW1 6158   1.592   0.101   1.707
 1753SOL    HW2 6159   1.714   0.111   1.599
 1754SOL     OW 6160   4.065   3.319   0.551
 1754SOL    HW1 6161   4.136   3.266   0.599
 1754SOL    HW2 6162   4.001   3.356   0.618
 1755SOL     OW 6163   5.352   4.205   0.797
 1755SOL    HW1 6164   5.257   4.174   0.801
 1755SOL    HW2 6165   5.374   4.257   0.879
 1756SOL     OW 6166   6.683   5.577   4.647
 1756SOL    HW1 6167   6.736   5.518   4.587
 1756SOL    HW2 6168   6.693   5.545   4.742
 1757SOL     OW 6169   3.043   6.735   4.742
 1757SOL    HW1 6170   3.072   6.731   4.837
 1757SOL    HW2 6171   3.081   6.816   4.699
 1758SOL     OW 6172   1.926   0.502   3.187
 1758SOL    HW1 6173   1.848   0.560   3.211
 1758SOL    HW2 6174   1.894   0.419   3.143
 1759SOL     OW 6175   0.533   5.832   6.652
 1759SOL    HW1 6176   0.494   5.876   6.571
 1759SOL    HW2 6177   0.631   5.816   6.637
 1760SOL     OW 6178   5.940   0.648   3.203
 1760SOL    HW1 6179   5.940   0.748   3.205
 1760SOL    HW2 6180   6.009   0.617   3.137
 1761SOL     OW 6181   6.775   2.263   1.059
 1761SOL    HW1 6182   6.839   2.205   1.109
 1761SOL    HW2 6183   6.754   2.344   1.114
 1762SOL     OW 6184   6.164   1.559   6.207
 1762SOL    HW1 6185   6.136   1.484   6.267
 1762SOL    HW2 6186   6.112   1.554   6.121
 1763SOL     OW 6187   2.047   4.000   4.103
 1763SOL    HW1 6188   1.982   3.925   4.093
 1763SOL    HW2 6189   2.096   3.992   4.190
 1764SOL     OW 6190   0.269   3.459   3.838
 1764SOL    HW1 6191   0.284   3.522   3.914
 1764SOL    HW2 6192   0.310   3.370   3.858
 1765SOL     OW 6193   2.728   2.255   6.310
 1765SOL    HW1 6194   2.671   2.326   6.350
 1765SOL    HW2 6195   2.824   2.282   6.318
 1766SOL     OW 6196   5.238   2.730   5.014
 1766SOL    HW1 6197   5.196   2.820   5.025
 1766SOL    HW2 6198   5.168   2.664   4.988
 1767SOL     OW 6199   5.490   3.209   2.392
 1767SOL    HW1 6200   5.443   3.246   2.472
 1767SOL    HW2 6201   5.472   3.267   2.312
 1768SOL     OW 6202   5.142   6.575   4.092
 1768SOL    HW1 6203   5.234   6.540   4.075
 1768SOL    HW2 6204   5.146   6.643   4.165
 1769SOL     OW 6205   4.180   1.311   2.383
 1769SOL    HW1 6206   4.198   1.248   2.459
 1769SOL    HW2 6207   4.166   1.403   2.418
 1770SOL     OW 6208   2.333   5.827   5.264
 1770SOL    HW1 6209   2.296   5.919   5.279
 1770SOL    HW2 6210   2.403   5.830   5.193
 1771SOL     OW 6211   4.144   5.652   6.873
 1771SOL    HW1 6212   4.114   5.580   6.810
 1771SOL    HW2 6213   4.138   5.741   6.828
 1772SOL     OW 6214   3.589   6.296   2.768
 1772SOL    HW1 6215   3.598   6.264   2.862
 1772SOL    HW2 6216   3.580   6.395   2.767
 1773SOL     OW 6217   1.607   5.743   6.204
 1773SOL    HW1 6218   1.605   5.723   6.106
 1773SOL    HW2 6219   1.648   5.666   6.253
 1774SOL     OW 6220   4.278   5.640   1.511
 1774SOL    HW1 6221   4.256   5.738   1.504
 1774SOL    HW2 6222   4.322   5.623   1.599
 1775SOL     OW 6223   0.652   3.928   2.173
 1775SOL    HW1 6224   0.559   3.895   2.158
 1775SOL    HW2 6225   0.717   3.854   2.154
 1776SOL     OW 6226   3.753   6.187   5.128
 1776SOL    HW1 6227   3.750   6.212   5.225
 1776SOL    HW2 6228   3.662   6.161   5.097
 1777SOL     OW 6229   4.146   6.278   0.960
 1777SOL    HW1 6230   4.140   6.353   1.026
 1777SOL    HW2 6231   4.070   6.215   0.975
 1778SOL     OW 6232   5.313   3.814   5.609
 1778SOL    HW1 6233   5.290   3.740   5.546
 1778SOL    HW2 6234   5.391   3.787   5.665
 1779SOL     OW 6235   3.752   0.372   4.979
 1779SOL    HW1 6236   3.768   0.315   4.898
 1779SOL    HW2 6237   3.658   0.407   4.976
 1780SOL     OW 6238   3.380   3.294   6.195
 1780SOL    HW1 6239   3.421   3.227   6.257
 1780SOL    HW2 6240   3.452   3.354   6.158
 1781SOL     OW 6241   3.773   5.343   3.208
 1781SOL    HW1 6242   3.841   5.409   3.240
 1781SOL    HW2 6243   3.685   5.390   3.195
 1782SOL     OW 6244   2.889   0.926   3.406
 1782SOL    HW1 6245   2.927   0.950   3.317
 1782SOL    HW2 6246   2.790   0.935   3.404
 1783SOL     OW 6247   1.955   5.845   6.754
 1783SOL    HW1 6248   2.010   5.892   6.684
 1783SOL    HW2 6249   1.990   5.868   6.844
 1784SOL     OW 6250   3.287   7.017   6.066
 1784SOL    HW1 6251   3.214   0.035   6.121
 1784SOL    HW2 6252   3.290   6.918   6.080
 1785SOL     OW 6253   6.317   3.369   2.702
 1785SOL    HW1 6254   6.256   3.411   2.634
 1785SOL    HW2 6255   6.356   3.440   2.760
 1786SOL     OW 6256   2.777   2.260   0.691
 1786SOL    HW1 6257   2.727   2.187   0.643
 1786SOL    HW2 6258   2.864   2.224   0.724
 1787SOL     OW 6259   3.294   1.758   6.203
 1787SOL    HW1 6260   3.320   1.806   6.119
 1787SOL    HW2 6261   3.202   1.786   6.231
 1788SOL     OW 6262   1.937   5.155   5.494
 1788SOL    HW1 6263   1.839   5.149   5.473
 1788SOL    HW2 6264   1.963   5.079   5.554
 1789SOL     OW 6265   6.114   1.526   0.371
 1789SOL    HW1 6266   6.206   1.523   0.411
 1789SOL    HW2 6267   6.122   1.537   0.272
 1790SOL     OW 6268   4.012   6.479   3.750
 1790SOL    HW1 6269   4.108   6.457   3.765
 1790SOL    HW2 6270   3.981   6.541   3.822
 1791SOL     OW 6271   0.008   6.753   2.667
 1791SOL    HW1 6272   0.002   6.820   2.593
 1791SOL    HW2 6273   7.013   6.799   2.754
 1792SOL     OW 6274   1.056   3.612   5.425
 1792SOL    HW1 6275   1.007   3.541   5.475
 1792SOL    HW2 6276   0.996   3.650   5.354
 1793SOL     OW 6277   0.067   0.649   3.903
 1793SOL    HW1 6278   0.095   0.745   3.904
 1793SOL    HW2 6279   0.077   0.611   3.995
 1794SOL     OW 6280   4.951   5.544   6.160
 1794SOL    HW1 6281   5.045   5.554   6.128
 1794SOL    HW2 6282   4.920   5.630   6.202
 1795SOL     OW 6283   0.207   2.864   0.606
 1795SOL    HW1 6284   0.142   2.796   0.640
 1795SOL    HW2 6285   0.200   2.948   0.660
 1796SOL     OW 6286   2.457   0.847   5.940
 1796SOL    HW1 6287   2.544   0.821   5.900
 1796SOL    HW2 6288   2.410   0.912   5.881
 1797SOL     OW 6289   1.190   6.605   0.418
 1797SOL    HW1 6290   1.282   6.640   0.433
 1797SOL    HW2 6291   1.159   6.629   0.327
 1798SOL     OW 6292   4.543   2.590   3.131
 1798SOL    HW1 6293   4.611   2.525   3.096
 1798SOL    HW2 6294   4.541   2.584   3.230
 1799SOL     OW 6295   0.793   2.074   6.314
 1799SOL    HW1 6296   0.728   2.148   6.295
 1799SOL    HW2 6297   0.881   2.114   6.341
 1800SOL     OW 6298   4.253   4.574   1.288
 1800SOL    HW1 6299   4.346   4.560   1.252
 1800SOL    HW2 6300   4.196   4.495   1.264
 1801SOL     OW 6301   0.135   6.903   2.462
 1801SOL    HW1 6302   0.194   6.984   2.451
 1801SOL    HW2 6303   0.173   6.844   2.533
 1802SOL     OW 6304   6.185   5.612   4.597
 1802SOL    HW1 6305   6.101   5.558   4.600
 1802SOL    HW2 6306   6.185   5.668   4.514
 1803SOL     OW 6307   0.126   5.675   0.451
 1803SOL    HW1 6308   0.064   5.598   0.440
 1803SOL    HW2 6309   0.131   5.726   0.364
 1804SOL     OW 6310   3.123   3.877   5.366
 1804SOL    HW1 6311   3.034   3.915   5.339
 1804SOL    HW2 6312   3.111   3.785   5.402
 1805SOL     OW 6313   5.221   3.710   5.908
 1805SOL    HW1 6314   5.145   3.701   5.973
 1805SOL    HW2 6315   5.265   3.622   5.896
 1806SOL     OW 6316   1.896   6.711   1.238
 1806SOL    HW1 6317   1.911   6.778   1.310
 1806SOL    HW2 6318   1.903   6.619   1.277
 1807SOL     OW 6319   6.356   2.007   4.719
 1807SOL    HW1 6320   6.423   2.017   4.793
 1807SOL    HW2 6321   6.321   1.914   4.718
 1808SOL     OW 6322   0.668   4.396   4.262
 1808SOL    HW1 6323   0.704   4.354   4.345
 1808SOL    HW2 6324   0.609   4.331   4.214
 1809SOL     OW 6325   2.815   2.073   5.751
 1809SOL    HW1 6326   2.720   2.087   5.780
 1809SOL    HW2 6327   2.847   1.984   5.783
 1810SOL     OW 6328   3.285   6.481   3.034
 1810SOL    HW1 6329   3.185   6.475   3.033
 1810SOL    HW2 6330   3.317   6.523   2.949
 1811SOL     OW 6331   6.146   5.648   3.335
 1811SOL    HW1 6332   6.055   5.610   3.352
 1811SOL    HW2 6333   6.159   5.662   3.237
 1812SOL     OW 6334   4.115   5.833   5.665
 1812SOL    HW1 6335   4.047   5.864   5.733
 1812SOL    HW2 6336   4.166   5.755   5.702
 1813SOL     OW 6337   6.138   4.449   0.178
 1813SOL    HW1 6338   6.128   4.450   0.278
 1813SOL    HW2 6339   6.100   4.365   0.141
 1814SOL     OW 6340   4.583   6.694   2.428
 1814SOL    HW1 6341   4.503   6.698   2.488
 1814SOL    HW2 6342   4.663   6.729   2.477
 1815SOL     OW 6343   0.159   0.654   3.111
 1815SOL    HW1 6344   0.172   0.604   3.025
 1815SOL    HW2 6345   0.236   0.715   3.127
 1816SOL     OW 6346   1.581   3.799   6.840
 1816SOL    HW1 6347   1.646   3.787   6.915
 1816SOL    HW2 6348   1.541   3.711   6.816
 1817SOL     OW 6349   1.856   5.516   2.335
 1817SOL    HW1 6350   1.896   5.525   2.426
 1817SOL    HW2 6351   1.830   5.420   2.320
 1818SOL     OW 6352   1.587   0.652   3.048
 1818SOL    HW1 6353   1.612   0.596   2.969
 1818SOL    HW2 6354   1.504   0.616   3.089
 1819SOL     OW 6355   1.447   4.525   1.160
 1819SOL    HW1 6356   1.533   4.483   1.130
 1819SOL    HW2 6357   1.380   4.453   1.180
 1820SOL     OW 6358   4.862   0.171   2.756
 1820SOL    HW1 6359   4.895   0.262   2.778
 1820SOL    HW2 6360   4.879   0.151   2.660
 1821SOL     OW 6361   2.349   2.218   3.012
 1821SOL    HW1 6362   2.286   2.142   3.026
 1821SOL    HW2 6363   2.443   2.186   3.020
 1822SOL     OW 6364   3.483   2.720   1.809
 1822SOL    HW1 6365   3.455   2.812   1.837
 1822SOL    HW2 6366   3.419   2.684   1.742
 1823SOL     OW 6367   4.408   6.705   2.015
 1823SOL    HW1 6368   4.391   6.606   2.012
 1823SOL    HW2 6369   4.322   6.754   2.025
 1824SOL     OW 6370   4.837   2.490   1.422
 1824SOL    HW1 6371   4.804   2.455   1.510
 1824SOL    HW2 6372   4.927   2.451   1.402
 1825SOL     OW 6373   1.290   0.337   1.612
 1825SOL    HW1 6374   1.298   0.346   1.513
 1825SOL    HW2 6375   1.218   0.398   1.646
 1826SOL     OW 6376   2.936   0.323   0.039
 1826SOL    HW1 6377   3.014   0.304   0.099
 1826SOL    HW2 6378   2.929   0.251   6.993
 1827SOL     OW 6379   6.926   5.897   1.558
 1827SOL    HW1 6380   6.980   5.813   1.545
 1827SOL    HW2 6381   6.857   5.881   1.629
 1828SOL     OW 6382   0.505   2.508   6.222
 1828SOL    HW1 6383   0.521   2.523   6.319
 1828SOL    HW2 6384   0.444   2.578   6.186
 1829SOL     OW 6385   5.728   5.675   2.881
 1829SOL    HW1 6386   5.727   5.692   2.783
 1829SOL    HW2 6387   5.673   5.744   2.928
 1830SOL     OW 6388   4.550   6.140   3.222
 1830SOL    HW1 6389   4.596   6.212   3.275
 1830SOL    HW2 6390   4.565   6.052   3.267
 1831SOL     OW 6391   5.423   6.495   1.829
 1831SOL    HW1 6392   5.425   6.431   1.752
 1831SOL    HW2 6393   5.482   6.573   1.810
 1832SOL     OW 6394   4.753   2.465   0.957
 1832SOL    HW1 6395   4.823   2.527   0.922
 1832SOL    HW2 6396   4.674   2.518   0.988
 1833SOL     OW 6397   4.514   0.681   4.644
 1833SOL    HW1 6398   4.470   0.694   4.555
 1833SOL    HW2 6399   4.604   0.725   4.643
 1834SOL     OW 6400   3.936   3.559   1.316
 1834SOL    HW1 6401   3.880   3.549   1.398
 1834SOL    HW2 6402   3.977   3.650   1.315
 1835SOL     OW 6403   1.492   5.279   1.022
 1835SOL    HW1 6404   1.566   5.310   1.082
 1835SOL    HW2 6405   1.506   5.182   0.999
 1836SOL     OW 6406   0.433   6.999   0.515
 1836SOL    HW1 6407   0.362   6.956   0.460
 1836SOL    HW2 6408   0.510   6.936   0.526
 1837SOL     OW 6409   0.985   2.235   4.586
 1837SOL    HW1 6410   0.938   2.280   4.662
 1837SOL    HW2 6411   1.064   2.186   4.621
 1838SOL     OW 6412   0.044   2.836   4.324
 1838SOL    HW1 6413   7.022   2.774   4.390
 1838SOL    HW2 6414   7.004   2.912   4.304
 1839SOL     OW 6415   6.711   2.894   5.596
 1839SOL    HW1 6416   6.680   2.989   5.605
 1839SOL    HW2 6417   6.656   2.847   5.527
 1840SOL     OW 6418   2.355   5.611   0.321
 1840SOL    HW1 6419   2.331   5.708   0.318
 1840SOL    HW2 6420   2.423   5.591   0.250
 1841SOL     OW 6421   2.334   2.696   3.500
 1841SOL    HW1 6422   2.378   2.635   3.566
 1841SOL    HW2 6423   2.384   2.692   3.414
 1842SOL     OW 6424   0.980   4.331   0.765
 1842SOL    HW1 6425   0.934   4.323   0.677
 1842SOL    HW2 6426   0.955   4.253   0.823
 1843SOL     OW 6427   2.261   1.612   4.787
 1843SOL    HW1 6428   2.165   1.608   4.760
 1843SOL    HW2 6429   2.269   1.597   4.885
 1844SOL     OW 6430   4.002   2.195   4.162
 1844SOL    HW1 6431   4.016   2.108   4.209
 1844SOL    HW2 6432   3.927   2.186   4.096
 1845SOL     OW 6433   3.519   0.361   7.008
 1845SOL    HW1 6434   3.566   0.366   0.074
 1845SOL    HW2 6435   3.421   0.353   0.001
 1846SOL     OW 6436   2.834   1.994   6.692
 1846SOL    HW1 6437   2.933   2.007   6.693
 1846SOL    HW2 6438   2.794   2.033   6.776
 1847SOL     OW 6439   0.479   0.417   1.103
 1847SOL    HW1 6440   0.531   0.344   1.058
 1847SOL    HW2 6441   0.381   0.395   1.100
 1848SOL     OW 6442   3.051   6.694   2.052
 1848SOL    HW1 6443   2.954   6.672   2.041
 1848SOL    HW2 6444   3.062   6.757   2.129
 1849SOL     OW 6445   3.415   1.926   6.807
 1849SOL    HW1 6446   3.407   1.871   6.724
 1849SOL    HW2 6447   3.345   1.997   6.807
 1850SOL     OW 6448   6.287   2.898   2.908
 1850SOL    HW1 6449   6.231   2.821   2.940
 1850SOL    HW2 6450   6.248   2.984   2.941
 1851SOL     OW 6451   0.603   2.632   2.309
 1851SOL    HW1 6452   0.508   2.602   2.317
 1851SOL    HW2 6453   0.642   2.645   2.400
 1852SOL     OW 6454   4.359   3.172   0.153
 1852SOL    HW1 6455   4.298   3.244   0.118
 1852SOL    HW2 6456   4.388   3.114   0.078
 1853SOL     OW 6457   1.117   4.527   1.599
 1853SOL    HW1 6458   1.040   4.470   1.628
 1853SOL    HW2 6459   1.106   4.553   1.503
 1854SOL     OW 6460   2.656   5.574   4.740
 1854SOL    HW1 6461   2.566   5.532   4.745
 1854SOL    HW2 6462   2.725   5.511   4.776
 1855SOL     OW 6463   5.430   5.130   0.690
 1855SOL    HW1 6464   5.335   5.107   0.709
 1855SOL    HW2 6465   5.490   5.064   0.736
 1856SOL     OW 6466   5.450   2.172   4.722
 1856SOL    HW1 6467   5.388   2.245   4.750
 1856SOL    HW2 6468   5.441   2.156   4.624
 1857SOL     OW 6469   4.009   1.256   3.753
 1857SOL    HW1 6470   3.980   1.248   3.849
 1857SOL    HW2 6471   4.108   1.268   3.749
 1858SOL     OW 6472   5.033   2.760   3.779
 1858SOL    HW1 6473   5.016   2.766   3.878
 1858SOL    HW2 6474   5.060   2.666   3.756
 1859SOL     OW 6475   4.311   2.277   3.273
 1859SOL    HW1 6476   4.340   2.371   3.292
 1859SOL    HW2 6477   4.390   2.217   3.275
 1860SOL     OW 6478   5.999   1.150   4.489
 1860SOL    HW1 6479   6.018   1.247   4.506
 1860SOL    HW2 6480   5.989   1.102   4.576
 1861SOL     OW 6481   5.382   6.352   3.194
 1861SOL    HW1 6482   5.373   6.256   3.223
 1861SOL    HW2 6483   5.298   6.401   3.216
 1862SOL     OW 6484   2.260   1.427   0.593
 1862SOL    HW1 6485   2.182   1.386   0.545
 1862SOL    HW2 6486   2.256   1.526   0.585
 1863SOL     OW 6487   2.843   3.051   1.329
 1863SOL    HW1 6488   2.840   3.011   1.420
 1863SOL    HW2 6489   2.781   3.001   1.268
 1864SOL     OW 6490   0.954   6.762   4.748
 1864SOL    HW1 6491   0.925   6.709   4.668
 1864SOL    HW2 6492   1.031   6.715   4.792
 1865SOL     OW 6493   4.276   2.013   6.292
 1865SOL    HW1 6494   4.363   2.061   6.301
 1865SOL    HW2 6495   4.202   2.079   6.275
 1866SOL     OW 6496   4.612   4.404   2.130
 1866SOL    HW1 6497   4.593   4.330   2.065
 1866SOL    HW2 6498   4.549   4.480   2.113
 1867SOL     OW 6499   0.262   4.245   0.083
 1867SOL    HW1 6500   0.261   4.314   0.010
 1867SOL    HW2 6501   0.198   4.172   0.061
 1868SOL     OW 6502   5.951   4.265   6.059
 1868SOL    HW1 6503   5.872   4.260   6.119
 1868SOL    HW2 6504   5.947   4.190   5.992
 1869SOL     OW 6505   6.196   1.473   4.756
 1869SOL    HW1 6506   6.273   1.410   4.752
 1869SOL    HW2 6507   6.224   1.563   4.723
 1870SOL     OW 6508   1.712   5.403   4.586
 1870SOL    HW1 6509   1.695   5.305   4.592
 1870SOL    HW2 6510   1.705   5.432   4.490
 1871SOL     OW 6511   1.909   0.025   0.348
 1871SOL    HW1 6512   1.813   0.008   0.367
 1871SOL    HW2 6513   1.965   6.981   0.399
 1872SOL     OW 6514   2.088   4.171   0.209
 1872SOL    HW1 6515   2.124   4.078   0.207
 1872SOL    HW2 6516   2.000   4.174   0.160
 1873SOL     OW 6517   4.492   1.315   6.794
 1873SOL    HW1 6518   4.478   1.382   6.722
 1873SOL    HW2 6519   4.460   1.225   6.764
 1874SOL     OW 6520   1.463   1.456   2.367
 1874SOL    HW1 6521   1.442   1.376   2.310
 1874SOL    HW2 6522   1.435   1.438   2.461
 1875SOL     OW 6523   0.648   6.751   6.522
 1875SOL    HW1 6524   0.589   6.671   6.516
 1875SOL    HW2 6525   0.649   6.784   6.617
 1876SOL     OW 6526   2.908   6.997   4.222
 1876SOL    HW1 6527   2.977   0.025   4.170
 1876SOL    HW2 6528   2.886   0.025   4.305
 1877SOL     OW 6529   0.649   6.777   3.118
 1877SOL    HW1 6530   0.733   6.822   3.087
 1877SOL    HW2 6531   0.637   6.792   3.216
 1878SOL     OW 6532   6.625   2.639   4.758
 1878SOL    HW1 6533   6.723   2.621   4.752
 1878SOL    HW2 6534   6.610   2.737   4.770
 1879SOL     OW 6535   1.186   3.968   4.943
 1879SOL    HW1 6536   1.238   3.952   5.027
 1879SOL    HW2 6537   1.208   4.059   4.907
 1880SOL     OW 6538   5.794   1.279   4.815
 1880SOL    HW1 6539   5.699   1.248   4.816
 1880SOL    HW2 6540   5.797   1.375   4.788
 1881SOL     OW 6541   6.896   1.903   0.610
 1881SOL    HW1 6542   6.836   1.974   0.646
 1881SOL    HW2 6543   6.958   1.873   0.683
 1882SOL     OW 6544   1.026   4.026   6.196
 1882SOL    HW1 6545   0.944   3.996   6.146
 1882SOL    HW2 6546   1.047   4.120   6.171
 1883SOL     OW 6547   0.153   2.700   3.271
 1883SOL    HW1 6548   0.124   2.651   3.353
 1883SOL    HW2 6549   0.098   2.783   3.260
 1884SOL     OW 6550   0.107   2.069   1.457
 1884SOL    HW1 6551   0.177   1.999   1.451
 1884SOL    HW2 6552   0.064   2.066   1.547
 1885SOL     OW 6553   2.476   1.807   5.173
 1885SOL    HW1 6554   2.480   1.803   5.273
 1885SOL    HW2 6555   2.381   1.791   5.144
 1886SOL     OW 6556   1.525   6.693   3.429
 1886SOL    HW1 6557   1.611   6.668   3.385
 1886SOL    HW2 6558   1.502   6.788   3.407
 1887SOL     OW 6559   0.952   6.327   6.254
 1887SOL    HW1 6560   1.013   6.402   6.278
 1887SOL    HW2 6561   0.972   6.295   6.162
 1888SOL     OW 6562   2.637   1.131   1.395
 1888SOL    HW1 6563   2.554   1.165   1.439
 1888SOL    HW2 6564   2.694   1.084   1.462
 1889SOL     OW 6565   1.339   3.638   3.578
 1889SOL    HW1 6566   1.399   3.558   3.580
 1889SOL    HW2 6567   1.348   3.689   3.664
 1890SOL     OW 6568   0.655   5.869   3.907
 1890SOL    HW1 6569   0.608   5.790   3.946
 1890SOL    HW2 6570   0.754   5.851   3.906
 1891SOL     OW 6571   4.079   3.660   2.524
 1891SOL    HW1 6572   4.096   3.577   2.470
 1891SOL    HW2 6573   4.059   3.736   2.462
 1892SOL     OW 6574   0.849   0.685   2.106
 1892SOL    HW1 6575   0.879   0.600   2.149
 1892SOL    HW2 6576   0.792   0.664   2.027
 1893SOL     OW 6577   3.656   3.369   3.612
 1893SOL    HW1 6578   3.626   3.453   3.657
 1893SOL    HW2 6579   3.719   3.392   3.538
 1894SOL     OW 6580   3.792   4.119   4.627
 1894SOL    HW1 6581   3.872   4.128   4.686
 1894SOL    HW2 6582   3.714   4.166   4.669
 1895SOL     OW 6583   3.817   6.712   7.009
 1895SOL    HW1 6584   3.912   6.685   7.022
 1895SOL    HW2 6585   3.803   6.745   6.916
 1896SOL     OW 6586   5.511   1.812   1.179
 1896SOL    HW1 6587   5.454   1.893   1.165
 1896SOL    HW2 6588   5.538   1.775   1.090
 1897SOL     OW 6589   2.263   4.983   3.465
 1897SOL    HW1 6590   2.290   4.891   3.438
 1897SOL    HW2 6591   2.168   4.999   3.439
 1898SOL     OW 6592   1.707   6.045   3.582
 1898SOL    HW1 6593   1.721   6.125   3.640
 1898SOL    HW2 6594   1.697   5.964   3.640
 1899SOL     OW 6595   6.878   0.178   2.093
 1899SOL    HW1 6596   6.896   0.104   2.159
 1899SOL    HW2 6597   6.897   0.266   2.136
 1900SOL     OW 6598   2.675   0.056   0.104
 1900SOL    HW1 6599   2.613   0.091   0.174
 1900SOL    HW2 6600   2.770   0.065   0.136
 1901SOL     OW 6601   2.706   3.871   0.542
 1901SOL    HW1 6602   2.753   3.887   0.629
 1901SOL    HW2 6603   2.640   3.797   0.553
 1902SOL     OW 6604   1.610   6.763   4.530
 1902SOL    HW1 6605   1.595   6.849   4.579
 1902SOL    HW2 6606   1.605   6.687   4.594
 1903SOL     OW 6607   1.341   2.735   4.831
 1903SOL    HW1 6608   1.272   2.764   4.764
 1903SOL    HW2 6609   1.425   2.787   4.817
 1904SOL     OW 6610   5.899   5.517   2.391
 1904SOL    HW1 6611   5.899   5.419   2.408
 1904SOL    HW2 6612   5.804   5.550   2.384
 1905SOL     OW 6613   0.423   0.703   3.697
 1905SOL    HW1 6614   0.432   0.629   3.764
 1905SOL    HW2 6615   0.449   0.790   3.739
 1906SOL     OW 6616   2.307   0.140   5.641
 1906SOL    HW1 6617   2.342   0.227   5.676
 1906SOL    HW2 6618   2.377   0.069   5.652
 1907SOL     OW 6619   4.992   2.821   0.145
 1907SOL    HW1 6620   4.990   2.728   0.180
 1907SOL    HW2 6621   4.974   2.821   0.047
 1908SOL     OW 6622   3.699   1.491   1.084
 1908SOL    HW1 6623   3.719   1.435   1.164
 1908SOL    HW2 6624   3.644   1.438   1.019
 1909SOL     OW 6625   6.931   4.675   5.083
 1909SOL    HW1 6626   7.012   4.731   5.106
 1909SOL    HW2 6627   6.958   4.601   5.022
 1910SOL     OW 6628   6.415   6.366   5.626
 1910SOL    HW1 6629   6.325   6.371   5.583
 1910SOL    HW2 6630   6.403   6.353   5.725
 1911SOL     OW 6631   0.061   5.112   4.296
 1911SOL    HW1 6632   0.077   5.211   4.300
 1911SOL    HW2 6633   6.996   5.094   4.251
 1912SOL     OW 6634   2.376   4.863   2.771
 1912SOL    HW1 6635   2.432   4.791   2.732
 1912SOL    HW2 6636   2.365   4.938   2.705
 1913SOL     OW 6637   2.780   4.539   5.403
 1913SOL    HW1 6638   2.837   4.514   5.325
 1913SOL    HW2 6639   2.736   4.627   5.386
 1914SOL     OW 6640   2.310   4.223   6.553
 1914SOL    HW1 6641   2.308   4.159   6.477
 1914SOL    HW2 6642   2.396   4.273   6.553
 1915SOL     OW 6643   4.629   2.292   6.598
 1915SOL    HW1 6644   4.633   2.235   6.680
 1915SOL    HW2 6645   4.698   2.364   6.605
 1916SOL     OW 6646   3.919   0.562   2.247
 1916SOL    HW1 6647   3.985   0.491   2.223
 1916SOL    HW2 6648   3.967   0.648   2.263
 1917SOL     OW 6649   2.787   4.231   1.233
 1917SOL    HW1 6650   2.745   4.167   1.298
 1917SOL    HW2 6651   2.829   4.180   1.158
 1918SOL     OW 6652   6.551   2.229   4.220
 1918SOL    HW1 6653   6.468   2.181   4.248
 1918SOL    HW2 6654   6.536   2.327   4.224
 1919SOL     OW 6655   0.988   1.904   1.154
 1919SOL    HW1 6656   1.054   1.844   1.110
 1919SOL    HW2 6657   0.905   1.909   1.098
 1920SOL     OW 6658   5.170   2.069   0.643
 1920SOL    HW1 6659   5.158   2.163   0.673
 1920SOL    HW2 6660   5.142   2.007   0.716
 1921SOL     OW 6661   1.858   2.989   6.756
 1921SOL    HW1 6662   1.775   2.941   6.729
 1921SOL    HW2 6663   1.837   3.049   6.834
 1922SOL     OW 6664   3.073   3.821   2.222
 1922SOL    HW1 6665   3.061   3.745   2.287
 1922SOL    HW2 6666   3.037   3.794   2.133
 1923SOL     OW 6667   4.016   0.355   5.346
 1923SOL    HW1 6668   4.102   0.360   5.397
 1923SOL    HW2 6669   3.940   0.345   5.410
 1924SOL     OW 6670   4.327   0.171   1.026
 1924SOL    HW1 6671   4.303   0.176   0.929
 1924SOL    HW2 6672   4.426   0.182   1.037
 1925SOL     OW 6673   1.029   4.916   1.466
 1925SOL    HW1 6674   0.981   4.828   1.464
 1925SOL    HW2 6675   1.115   4.906   1.516
 1926SOL     OW 6676   3.299   0.024   2.034
 1926SOL    HW1 6677   3.398   0.024   2.017
 1926SOL    HW2 6678   3.252   0.059   1.953
 1927SOL     OW 6679   2.062   5.238   1.695
 1927SOL    HW1 6680   2.152   5.263   1.659
 1927SOL    HW2 6681   1.993   5.299   1.656
 1928SOL     OW 6682   5.119   4.232   2.957
 1928SOL    HW1 6683   5.069   4.288   2.891
 1928SOL    HW2 6684   5.163   4.156   2.910
 1929SOL     OW 6685   2.800   0.285   3.057
 1929SOL    HW1 6686   2.794   0.343   3.138
 1929SOL    HW2 6687   2.832   0.339   2.979
 1930SOL     OW 6688   4.865   2.965   6.193
 1930SOL    HW1 6689   4.798   3.039   6.187
 1930SOL    HW2 6690   4.956   3.000   6.172
 1931SOL     OW 6691   0.904   1.629   4.474
 1931SOL    HW1 6692   0.889   1.716   4.523
 1931SOL    HW2 6693   0.975   1.642   4.405
 1932SOL     OW 6694   4.537   2.566   2.450
 1932SOL    HW1 6695   4.483   2.635   2.497
 1932SOL    HW2 6696   4.618   2.609   2.410
 1933SOL     OW 6697   1.336   1.333   1.013
 1933SOL    HW1 6698   1.406   1.307   0.946
 1933SOL    HW2 6699   1.299   1.422   0.990
 1934SOL     OW 6700   0.284   0.251   5.912
 1934SOL    HW1 6701   0.210   0.319   5.906
 1934SOL    HW2 6702   0.245   0.159   5.918
 1935SOL     OW 6703   0.045   5.184   4.003
 1935SOL    HW1 6704   0.030   5.086   3.991
 1935SOL    HW2 6705   7.001   5.219   4.070
 1936SOL     OW 6706   4.588   3.116   5.334
 1936SOL    HW1 6707   4.600   3.215   5.339
 1936SOL    HW2 6708   4.498   3.095   5.296
 1937SOL     OW 6709   5.529   5.225   6.801
 1937SOL    HW1 6710   5.535   5.270   6.890
 1937SOL    HW2 6711   5.464   5.275   6.743
 1938SOL     OW 6712   0.610   3.128   6.379
 1938SOL    HW1 6713   0.673   3.170   6.443
 1938SOL    HW2 6714   0.544   3.072   6.428
 1939SOL     OW 6715   1.058   0.396   4.588
 1939SOL    HW1 6716   1.010   0.309   4.580
 1939SOL    HW2 6717   0.998   0.463   4.633
 1940SOL     OW 6718   6.685   4.489   0.648
 1940SOL    HW1 6719   6.767   4.475   0.593
 1940SOL    HW2 6720   6.710   4.499   0.744
 1941SOL     OW 6721   6.876   1.844   4.414
 1941SOL    HW1 6722   6.972   1.858   4.388
 1941SOL    HW2 6723   6.817   1.858   4.334
 1942SOL     OW 6724   5.782   3.778   2.366
 1942SOL    HW1 6725   5.822   3.834   2.294
 1942SOL    HW2 6726   5.807   3.816   2.456
 1943SOL     OW 6727   1.056   1.180   2.550
 1943SOL    HW1 6728   1.124   1.112   2.521
 1943SOL    HW2 6729   1.089   1.226   2.633
 1944SOL     OW 6730   0.038   3.049   2.827
 1944SOL    HW1 6731   0.074   2.965   2.867
 1944SOL    HW2 6732   6.984   3.083   2.882
 1945SOL     OW 6733   5.110   0.662   1.977
 1945SOL    HW1 6734   5.198   0.674   2.024
 1945SOL    HW2 6735   5.041   0.630   2.042
 1946SOL     OW 6736   6.194   5.243   1.391
 1946SOL    HW1 6737   6.288   5.210   1.392
 1946SOL    HW2 6738   6.189   5.332   1.436
 1947SOL     OW 6739   6.014   4.889   3.993
 1947SOL    HW1 6740   5.978   4.821   3.929
 1947SOL    HW2 6741   5.947   4.962   4.006
 1948SOL     OW 6742   4.863   3.565   3.224
 1948SOL    HW1 6743   4.911   3.652   3.216
 1948SOL    HW2 6744   4.822   3.558   3.315
 1949SOL     OW 6745   3.944   4.845   6.461
 1949SOL    HW1 6746   3.944   4.939   6.429
 1949SOL    HW2 6747   3.850   4.816   6.480
 1950SOL     OW 6748   3.213   3.970   3.403
 1950SOL    HW1 6749   3.296   3.914   3.407
 1950SOL    HW2 6750   3.148   3.937   3.471
 1951SOL     OW 6751   6.111   4.505   5.979
 1951SOL    HW1 6752   6.117   4.492   5.880
 1951SOL    HW2 6753   6.053   4.434   6.019
 1952SOL     OW 6754   5.714   5.145   0.162
 1952SOL    HW1 6755   5.638   5.207   0.144
 1952SOL    HW2 6756   5.700   5.060   0.111
 1953SOL     OW 6757   0.526   0.877   6.673
 1953SOL    HW1 6758   0.612   0.923   6.695
 1953SOL    HW2 6759   0.541   0.816   6.595
 1954SOL     OW 6760   4.233   0.109   2.064
 1954SOL    HW1 6761   4.330   0.110   2.086
 1954SOL    HW2 6762   4.197   0.203   2.065
 1955SOL     OW 6763   0.759   2.276   2.680
 1955SOL    HW1 6764   0.752   2.182   2.716
 1955SOL    HW2 6765   0.740   2.341   2.754
 1956SOL     OW 6766   5.632   0.357   1.455
 1956SOL    HW1 6767   5.719   0.371   1.408
 1956SOL    HW2 6768   5.584   0.445   1.464
 1957SOL     OW 6769   5.473   2.110   4.406
 1957SOL    HW1 6770   5.413   2.122   4.327
 1957SOL    HW2 6771   5.522   2.024   4.398
 1958SOL     OW 6772   4.641   1.776   0.962
 1958SOL    HW1 6773   4.676   1.855   0.912
 1958SOL    HW2 6774   4.542   1.779   0.965
 1959SOL     OW 6775   0.530   0.793   4.865
 1959SOL    HW1 6776   0.561   0.883   4.834
 1959SOL    HW2 6777   0.432   0.784   4.847
 1960SOL     OW 6778   6.045   4.047   4.410
 1960SOL    HW1 6779   5.954   4.055   4.370
 1960SOL    HW2 6780   6.044   3.975   4.479
 1961SOL     OW 6781   6.740   4.083   4.860
 1961SOL    HW1 6782   6.787   4.149   4.918
 1961SOL    HW2 6783   6.788   3.995   4.865
 1962SOL     OW 6784   0.973   0.190   2.310
 1962SOL    HW1 6785   0.881   0.190   2.271
 1962SOL    HW2 6786   0.969   0.154   2.403
 1963SOL     OW 6787   0.688   2.123   1.838
 1963SOL    HW1 6788   0.599   2.157   1.870
 1963SOL    HW2 6789   0.760   2.158   1.897
 1964SOL     OW 6790   5.268   3.976   1.314
 1964SOL    HW1 6791   5.288   4.013   1.405
 1964SOL    HW2 6792   5.334   4.013   1.248
 1965SOL     OW 6793   0.428   4.359   4.017
 1965SOL    HW1 6794   0.333   4.391   4.018
 1965SOL    HW2 6795   0.439   4.287   4.086
 1966SOL     OW 6796   1.855   4.883   6.951
 1966SOL    HW1 6797   1.948   4.865   6.982
 1966SOL    HW2 6798   1.853   4.887   6.851
 1967SOL     OW 6799   6.047   3.465   3.074
 1967SOL    HW1 6800   6.117   3.414   3.125
 1967SOL    HW2 6801   6.067   3.459   2.976
 1968SOL     OW 6802   2.810   1.144   5.302
 1968SOL    HW1 6803   2.757   1.225   5.326
 1968SOL    HW2 6804   2.892   1.140   5.361
 1969SOL     OW 6805   2.787   6.121   0.459
 1969SOL    HW1 6806   2.846   6.104   0.538
 1969SOL    HW2 6807   2.806   6.213   0.422
 1970SOL     OW 6808   6.316   5.493   5.412
 1970SOL    HW1 6809   6.252   5.416   5.405
 1970SOL    HW2 6810   6.325   5.518   5.509
 1971SOL     OW 6811   1.953   5.918   4.679
 1971SOL    HW1 6812   2.005   5.832   4.673
 1971SOL    HW2 6813   1.861   5.899   4.715
 1972SOL     OW 6814   6.363   2.785   2.672
 1972SOL    HW1 6815   6.327   2.824   2.757
 1972SOL    HW2 6816   6.289   2.768   2.608
 1973SOL     OW 6817   2.407   3.406   6.839
 1973SOL    HW1 6818   2.341   3.331   6.834
 1973SOL    HW2 6819   2.418   3.445   6.748
 1974SOL     OW 6820   3.341   6.564   4.842
 1974SOL    HW1 6821   3.281   6.598   4.914
 1974SOL    HW2 6822   3.324   6.467   4.828
 1975SOL     OW 6823   1.936   2.483   3.386
 1975SOL    HW1 6824   1.960   2.577   3.410
 1975SOL    HW2 6825   1.924   2.476   3.287
 1976SOL     OW 6826   6.872   0.005   6.366
 1976SOL    HW1 6827   6.895   0.097   6.334
 1976SOL    HW2 6828   6.908   7.015   6.458
 1977SOL     OW 6829   2.058   4.637   5.836
 1977SOL    HW1 6830   2.018   4.549   5.809
 1977SOL    HW2 6831   2.062   4.643   5.936
 1978SOL     OW 6832   2.764   6.949   1.552
 1978SOL    HW1 6833   2.813   6.875   1.598
 1978SOL    HW2 6834   2.667   6.927   1.546
 1979SOL     OW 6835   0.156   5.077   6.470
 1979SOL    HW1 6836   0.204   5.001   6.514
 1979SOL    HW2 6837   0.146   5.057   6.372
 1980SOL     OW 6838   3.506   1.464   0.642
 1980SOL    HW1 6839   3.493   1.511   0.554
 1980SOL    HW2 6840   3.502   1.530   0.716
 1981SOL     OW 6841   4.011   2.151   3.004
 1981SOL    HW1 6842   3.967   2.134   2.916
 1981SOL    HW2 6843   4.069   2.073   3.028
 1982SOL     OW 6844   0.199   2.792   5.529
 1982SOL    HW1 6845   0.196   2.734   5.610
 1982SOL    HW2 6846   0.111   2.837   5.516
 1983SOL     OW 6847   0.283   0.589   2.567
 1983SOL    HW1 6848   0.232   0.675   2.574
 1983SOL    HW2 6849   0.362   0.602   2.506
 1984SOL     OW 6850   5.221   3.028   5.425
 1984SOL    HW1 6851   5.281   3.056   5.350
 1984SOL    HW2 6852   5.150   2.967   5.390
 1985SOL     OW 6853   6.418   3.527   2.252
 1985SOL    HW1 6854   6.470   3.474   2.186
 1985SOL    HW2 6855   6.374   3.465   2.317
 1986SOL     OW 6856   4.203   2.599   1.646
 1986SOL    HW1 6857   4.241   2.524   1.700
 1986SOL    HW2 6858   4.105   2.608   1.664
 1987SOL     OW 6859   2.586   1.143   1.720
 1987SOL    HW1 6860   2.657   1.073   1.716
 1987SOL    HW2 6861   2.601   1.201   1.800
 1988SOL     OW 6862   0.134   2.222   1.181
 1988SOL    HW1 6863   0.097   2.185   1.267
 1988SOL    HW2 6864   0.180   2.149   1.131
 1989SOL     OW 6865   2.795   5.121   4.774
 1989SOL    HW1 6866   2.806   5.045   4.838
 1989SOL    HW2 6867   2.751   5.088   4.690
 1990SOL     OW 6868   3.897   0.269   0.887
 1990SOL    HW1 6869   3.819   0.206   0.885
 1990SOL    HW2 6870   3.924   0.285   0.981
 1991SOL     OW 6871   2.572   5.036   1.107
 1991SOL    HW1 6872   2.517   4.967   1.059
 1991SOL    HW2 6873   2.659   4.996   1.135
 1992SOL     OW 6874   0.564   5.951   1.219
 1992SOL    HW1 6875   0.599   5.992   1.304
 1992SOL    HW2 6876   0.586   6.011   1.142
 1993SOL     OW 6877   2.452   2.629   3.886
 1993SOL    HW1 6878   2.452   2.665   3.980
 1993SOL    HW2 6879   2.407   2.694   3.825
 1994SOL     OW 6880   3.463   2.449   0.876
 1994SOL    HW1 6881   3.513   2.515   0.820
 1994SOL    HW2 6882   3.519   2.424   0.956
 1995SOL     OW 6883   5.668   2.310   4.494
 1995SOL    HW1 6884   5.587   2.255   4.471
 1995SOL    HW2 6885   5.687   2.374   4.420
 1996SOL     OW 6886   4.035   1.767   0.907
 1996SOL    HW1 6887   3.961   1.759   0.974
 1996SOL    HW2 6888   4.027   1.694   0.839
 1997SOL     OW 6889   4.095   0.372   3.569
 1997SOL    HW1 6890   4.041   0.287   3.571
 1997SOL    HW2 6891   4.125   0.395   3.661
 1998SOL     OW 6892   1.844   3.340   1.084
 1998SOL    HW1 6893   1.911   3.345   1.158
 1998SOL    HW2 6894   1.770   3.405   1.100
 1999SOL     OW 6895   1.786   6.647   6.449
 1999SOL    HW1 6896   1.763   6.554   6.477
 1999SOL    HW2 6897   1.732   6.712   6.502
 2000SOL     OW 6898   3.845   4.357   5.848
 2000SOL    HW1 6899   3.829   4.259   5.856
 2000SOL    HW2 6900   3.918   4.385   5.910
 2001SOL     OW 6901   2.251   1.719   0.563
 2001SOL    HW1 6902   2.190   1.719   0.643
 2001SOL    HW2 6903   2.205   1.764   0.486
 2002SOL     OW 6904   7.020   4.501   0.099
 2002SOL    HW1 6905   6.955   4.425   0.106
 2002SOL    HW2 6906   7.003   4.566   0.173
 2003SOL     OW 6907   6.575   5.248   2.770
 2003SOL    HW1 6908   6.611   5.315   2.834
 2003SOL    HW2 6909   6.638   5.171   2.763
 2004SOL     OW 6910   3.456   6.765   3.334
 2004SOL    HW1 6911   3.505   6.760   3.247
 2004SOL    HW2 6912   3.357   6.764   3.317
 2005SOL     OW 6913   1.562   6.215   0.483
 2005SOL    HW1 6914   1.553   6.230   0.385
 2005SOL    HW2 6915   1.514   6.130   0.508
 2006SOL     OW 6916   5.944   6.844   2.785
 2006SOL    HW1 6917   5.857   6.802   2.758
 2006SOL    HW2 6918   6.019   6.799   2.737
 2007SOL     OW 6919   5.825   4.830   6.939
 2007SOL    HW1 6920   5.862   4.738   6.943
 2007SOL    HW2 6921   5.802   4.853   6.845
 2008SOL     OW 6922   1.450   3.894   4.112
 2008SOL    HW1 6923   1.471   3.988   4.139
 2008SOL    HW2 6924   1.533   3.851   4.075
 2009SOL     OW 6925   6.088   0.336   3.199
 2009SOL    HW1 6926   6.010   0.331   3.262
 2009SOL    HW2 6927   6.168   0.369   3.248
 2010SOL     OW 6928   1.290   1.824   1.650
 2010SOL    HW1 6929   1.264   1.861   1.739
 2010SOL    HW2 6930   1.332   1.896   1.595
 2011SOL     OW 6931   0.578   6.973   5.838
 2011SOL    HW1 6932   0.556   0.046   5.816
 2011SOL    HW2 6933   0.534   6.913   5.771
 2012SOL     OW 6934   1.766   3.319   1.697
 2012SOL    HW1 6935   1.684   3.374   1.709
 2012SOL    HW2 6936   1.743   3.222   1.710
 2013SOL     OW 6937   0.556   3.389   2.332
 2013SOL    HW1 6938   0.627   3.432   2.388
 2013SOL    HW2 6939   0.467   3.399   2.378
 2014SOL     OW 6940   3.750   0.867   4.381
 2014SOL    HW1 6941   3.718   0.784   4.426
 2014SOL    HW2 6942   3.694   0.885   4.300
 2015SOL     OW 6943   4.354   0.639   1.766
 2015SOL    HW1 6944   4.417   0.640   1.688
 2015SOL    HW2 6945   4.262   0.660   1.734
 2016SOL     OW 6946   1.414   0.573   5.775
 2016SOL    HW1 6947   1.363   0.593   5.691
 2016SOL    HW2 6948   1.471   0.651   5.799
 2017SOL     OW 6949   4.095   6.304   3.312
 2017SOL    HW1 6950   4.159   6.229   3.294
 2017SOL    HW2 6951   4.103   6.372   3.239
 2018SOL     OW 6952   1.227   1.134   3.856
 2018SOL    HW1 6953   1.290   1.201   3.896
 2018SOL    HW2 6954   1.200   1.067   3.926
 2019SOL     OW 6955   5.599   5.172   6.373
 2019SOL    HW1 6956   5.640   5.146   6.285
 2019SOL    HW2 6957   5.668   5.216   6.430
 2020SOL     OW 6958   2.378   5.941   6.385
 2020SOL    HW1 6959   2.377   5.852   6.432
 2020SOL    HW2 6960   2.300   5.947   6.323
 2021SOL     OW 6961   6.901   6.314   4.156
 2021SOL    HW1 6962   6.978   6.273   4.205
 2021SOL    HW2 6963   6.815   6.276   4.191
 2022SOL     OW 6964   1.619   4.120   5.140
 2022SOL    HW1 6965   1.566   4.186   5.087
 2022SOL    HW2 6966   1.708   4.158   5.163
 2023SOL     OW 6967   6.696   6.449   0.387
 2023SOL    HW1 6968   6.638   6.493   0.455
 2023SOL    HW2 6969   6.791   6.480   0.399
 2024SOL     OW 6970   0.621   6.154   4.467
 2024SOL    HW1 6971   0.627   6.091   4.389
 2024SOL    HW2 6972   0.627   6.102   4.552
 2025SOL     OW 6973   1.414   6.885   4.704
 2025SOL    HW1 6974   1.346   6.947   4.666
 2025SOL    HW2 6975   1.368   6.804   4.741
 2026SOL     OW 6976   6.714   0.193   5.769
 2026SOL    HW1 6977   6.699   0.173   5.866
 2026SOL    HW2 6978   6.653   0.267   5.740
 2027SOL     OW 6979   6.845   6.221   2.487
 2027SOL    HW1 6980   6.933   6.188   2.520
 2027SOL    HW2 6981   6.806   6.285   2.554
 2028SOL     OW 6982   3.365   5.208   4.413
 2028SOL    HW1 6983   3.330   5.273   4.346
 2028SOL    HW2 6984   3.390   5.123   4.368
 2029SOL     OW 6985   6.157   2.641   6.916
 2029SOL    HW1 6986   6.187   2.723   6.965
 2029SOL    HW2 6987   6.093   2.667   6.843
 2030SOL     OW 6988   2.478   6.710   2.295
 2030SOL    HW1 6989   2.556   6.671   2.246
 2030SOL    HW2 6990   2.393   6.671   2.258
 2031SOL     OW 6991   6.924   6.007   4.000
 2031SOL    HW1 6992   6.828   6.019   3.975
 2031SOL    HW2 6993   6.975   5.974   3.921
 2032SOL     OW 6994   2.551   1.698   6.230
 2032SOL    HW1 6995   2.560   1.622   6.166
 2032SOL    HW2 6996   2.642   1.730   6.255
 2033SOL     OW 6997   2.405   2.007   0.658
 2033SOL    HW1 6998   2.317   2.021   0.612
 2033SOL    HW2 6999   2.412   1.913   0.689
 2034SOL     OW 7000   6.928   4.228   5.053
 2034SOL    HW1 7001   6.901   4.263   5.143
 2034SOL    HW2 7002   6.941   4.305   4.990
 2035SOL     OW 7003   5.813   0.038   2.920
 2035SOL    HW1 7004   5.728   7.019   2.953
 2035SOL    HW2 7005   5.858   6.999   2.855
 2036SOL     OW 7006   1.109   4.161   1.521
 2036SOL    HW1 7007   1.038   4.231   1.531
 2036SOL    HW2 7008   1.198   4.201   1.542
 2037SOL     OW 7009   0.418   2.593   0.148
 2037SOL    HW1 7010   0.482   2.533   0.196
 2037SOL    HW2 7011   0.330   2.593   0.196
 2038SOL     OW 7012   1.495   1.100   6.334
 2038SOL    HW1 7013   1.536   1.155   6.261
 2038SOL    HW2 7014   1.403   1.132   6.353
 2039SOL     OW 7015   5.813   6.393   2.722
 2039SOL    HW1 7016   5.862   6.421   2.805
 2039SOL    HW2 7017   5.825   6.462   2.651
 2040SOL     OW 7018   1.706   2.574   0.947
 2040SOL    HW1 7019   1.723   2.646   1.014
 2040SOL    HW2 7020   1.791   2.553   0.898
 2041SOL     OW 7021   2.423   0.413   6.156
 2041SOL    HW1 7022   2.420   0.345   6.083
 2041SOL    HW2 7023   2.424   0.367   6.245
 2042SOL     OW 7024   5.012   1.420   5.798
 2042SOL    HW1 7025   5.049   1.459   5.883
 2042SOL    HW2 7026   5.072   1.347   5.766
 2043SOL     OW 7027   0.264   3.887   1.304
 2043SOL    HW1 7028   0.310   3.887   1.215
 2043SOL    HW2 7029   0.315   3.945   1.368
 2044SOL     OW 7030   4.249   0.553   0.889
 2044SOL    HW1 7031   4.178   0.544   0.818
 2044SOL    HW2 7032   4.254   0.648   0.919
 2045SOL     OW 7033   1.206   6.362   5.252
 2045SOL    HW1 7034   1.115   6.405   5.244
 2045SOL    HW2 7035   1.272   6.417   5.202
 2046SOL     OW 7036   0.840   1.687   4.827
 2046SOL    HW1 7037   0.755   1.662   4.872
 2046SOL    HW2 7038   0.821   1.744   4.747
 2047SOL     OW 7039   0.114   0.601   1.184
 2047SOL    HW1 7040   0.179   0.564   1.250
 2047SOL    HW2 7041   0.025   0.611   1.227
 2048SOL     OW 7042   0.818   1.869   4.627
 2048SOL    HW1 7043   0.721   1.893   4.623
 2048SOL    HW2 7044   0.868   1.942   4.673
 2049SOL     OW 7045   5.000   1.868   5.169
 2049SOL    HW1 7046   4.902   1.879   5.154
 2049SOL    HW2 7047   5.028   1.776   5.140
 2050SOL     OW 7048   0.702   1.470   3.902
 2050SOL    HW1 7049   0.759   1.419   3.968
 2050SOL    HW2 7050   0.709   1.427   3.812
 2051SOL     OW 7051   2.833   6.384   0.398
 2051SOL    HW1 7052   2.919   6.375   0.447
 2051SOL    HW2 7053   2.818   6.481   0.376
 2052SOL     OW 7054   0.920   4.600   6.560
 2052SOL    HW1 7055   0.871   4.528   6.609
 2052SOL    HW2 7056   1.011   4.611   6.598
 2053SOL     OW 7057   7.008   6.163   3.491
 2053SOL    HW1 7058   6.954   6.103   3.551
 2053SOL    HW2 7059   6.972   6.158   3.398
 2054SOL     OW 7060   3.136   3.689   3.202
 2054SOL    HW1 7061   3.235   3.701   3.200
 2054SOL    HW2 7062   3.113   3.621   3.272
 2055SOL     OW 7063   3.122   2.249   5.710
 2055SOL    HW1 7064   3.201   2.268   5.651
 2055SOL    HW2 7065   3.041   2.235   5.653
 2056SOL     OW 7066   3.842   4.371   0.776
 2056SOL    HW1 7067   3.921   4.433   0.776
 2056SOL    HW2 7068   3.826   4.337   0.683
 2057SOL     OW 7069   5.556   2.256   3.957
 2057SOL    HW1 7070   5.525   2.243   3.863
 2057SOL    HW2 7071   5.476   2.269   4.016
 2058SOL     OW 7072   6.906   6.661   3.046
 2058SOL    HW1 7073   6.928   6.745   2.995
 2058SOL    HW2 7074   6.809   6.640   3.035
 2059SOL     OW 7075   0.876   0.614   5.643
 2059SOL    HW1 7076   0.855   0.588   5.737
 2059SOL    HW2 7077   0.830   0.700   5.622
 2060SOL     OW 7078   1.471   2.362   6.908
 2060SOL    HW1 7079   1.372   2.350   6.903
 2060SOL    HW2 7080   1.502   2.342   7.001
 2061SOL     OW 7081   2.062   2.629   2.303
 2061SOL    HW1 7082   2.116   2.695   2.251
 2061SOL    HW2 7083   2.053   2.544   2.250
 2062SOL     OW 7084   0.759   5.279   4.632
 2062SOL    HW1 7085   0.844   5.320   4.598
 2062SOL    HW2 7086   0.717   5.341   4.698
 2063SOL     OW 7087   0.649   1.050   5.151
 2063SOL    HW1 7088   0.554   1.046   5.179
 2063SOL    HW2 7089   0.682   1.144   5.155
 2064SOL     OW 7090   0.756   2.995   3.727
 2064SOL    HW1 7091   0.822   2.991   3.802
 2064SOL    HW2 7092   0.781   3.068   3.664
 2065SOL     OW 7093   4.104   3.700   5.494
 2065SOL    HW1 7094   4.174   3.628   5.499
 2065SOL    HW2 7095   4.145   3.788   5.520
 2066SOL     OW 7096   0.781   3.086   5.729
 2066SOL    HW1 7097   0.744   3.040   5.810
 2066SOL    HW2 7098   0.870   3.126   5.752
 2067SOL     OW 7099   6.816   4.979   1.318
 2067SOL    HW1 7100   6.859   5.036   1.387
 2067SOL    HW2 7101   6.800   5.033   1.235
 2068SOL     OW 7102   4.324   0.774   4.381
 2068SOL    HW1 7103   4.270   0.696   4.348
 2068SOL    HW2 7104   4.417   0.767   4.345
 2069SOL     OW 7105   0.439   2.327   4.043
 2069SOL    HW1 7106   0.530   2.325   4.086
 2069SOL    HW2 7107   0.433   2.255   3.974
 2070SOL     OW 7108   0.754   4.818   0.922
 2070SOL    HW1 7109   0.748   4.740   0.859
 2070SOL    HW2 7110   0.724   4.788   1.013
 2071SOL     OW 7111   0.056   1.640   5.577
 2071SOL    HW1 7112   0.060   1.727   5.528
 2071SOL    HW2 7113   0.018   1.570   5.517
 2072SOL     OW 7114   4.273   4.566   5.433
 2072SOL    HW1 7115   4.331   4.594   5.509
 2072SOL    HW2 7116   4.178   4.562   5.464
 2073SOL     OW 7117   2.944   5.443   6.365
 2073SOL    HW1 7118   2.960   5.526   6.313
 2073SOL    HW2 7119   2.985   5.365   6.318
 2074SOL     OW 7120   1.088   4.248   6.030
 2074SOL    HW1 7121   0.994   4.264   6.000
 2074SOL    HW2 7122   1.136   4.335   6.039
 2075SOL     OW 7123   6.437   2.366   0.998
 2075SOL    HW1 7124   6.509   2.308   1.035
 2075SOL    HW2 7125   6.383   2.404   1.073
 2076SOL     OW 7126   6.366   6.816   4.567
 2076SOL    HW1 7127   6.313   6.900   4.572
 2076SOL    HW2 7128   6.432   6.814   4.643
 2077SOL     OW 7129   6.265   4.794   0.625
 2077SOL    HW1 7130   6.249   4.889   0.599
 2077SOL    HW2 7131   6.178   4.746   0.632
 2078SOL     OW 7132   1.061   3.062   5.492
 2078SOL    HW1 7133   1.038   3.156   5.517
 2078SOL    HW2 7134   1.155   3.042   5.519
 2079SOL     OW 7135   5.374   1.245   2.135
 2079SOL    HW1 7136   5.389   1.318   2.200
 2079SOL    HW2 7137   5.276   1.237   2.115
 2080SOL     OW 7138   2.476   3.012   6.278
 2080SOL    HW1 7139   2.555   2.953   6.297
 2080SOL    HW2 7140   2.508   3.101   6.247
 2081SOL     OW 7141   6.245   5.717   2.286
 2081SOL    HW1 7142   6.173   5.781   2.311
 2081SOL    HW2 7143   6.332   5.765   2.281
 2082SOL     OW 7144   6.299   5.775   4.394
 2082SOL    HW1 7145   6.302   5.745   4.298
 2082SOL    HW2 7146   6.390   5.764   4.435
 2083SOL     OW 7147   0.237   6.717   3.721
 2083SOL    HW1 7148   0.286   6.630   3.708
 2083SOL    HW2 7149   0.302   6.793   3.714
 2084SOL     OW 7150   5.930   2.250   1.076
 2084SOL    HW1 7151   5.922   2.156   1.042
 2084SOL    HW2 7152   6.006   2.296   1.030
 2085SOL     OW 7153   6.091   6.010   0.642
 2085SOL    HW1 7154   6.184   5.980   0.621
 2085SOL    HW2 7155   6.026   5.956   0.588
 2086SOL     OW 7156   5.082   0.936   6.807
 2086SOL    HW1 7157   5.039   0.983   6.730
 2086SOL    HW2 7158   5.147   0.997   6.852
 2087SOL     OW 7159   4.549   1.486   0.015
 2087SOL    HW1 7160   4.485   1.469   0.089
 2087SOL    HW2 7161   4.524   1.431   6.958
 2088SOL     OW 7162   0.858   5.635   6.246
 2088SOL    HW1 7163   0.784   5.701   6.259
 2088SOL    HW2 7164   0.847   5.589   6.158
 2089SOL     OW 7165   2.328   3.946   0.102
 2089SOL    HW1 7166   2.392   3.870   0.109
 2089SOL    HW2 7167   2.245   3.925   0.153
 2090SOL     OW 7168   5.264   2.967   5.796
 2090SOL    HW1 7169   5.311   2.909   5.730
 2090SOL    HW2 7170   5.171   2.933   5.809
 2091SOL     OW 7171   5.477   6.277   1.659
 2091SOL    HW1 7172   5.464   6.181   1.683
 2091SOL    HW2 7173   5.524   6.283   1.571
 2092SOL     OW 7174   3.948   3.436   1.916
 2092SOL    HW1 7175   3.946   3.336   1.910
 2092SOL    HW2 7176   3.920   3.475   1.828
 2093SOL     OW 7177   3.875   1.265   1.809
 2093SOL    HW1 7178   3.916   1.213   1.883
 2093SOL    HW2 7179   3.919   1.240   1.722
 2094SOL     OW 7180   5.391   2.070   6.275
 2094SOL    HW1 7181   5.490   2.066   6.271
 2094SOL    HW2 7182   5.362   2.100   6.366
 2095SOL     OW 7183   5.600   5.593   3.927
 2095SOL    HW1 7184   5.553   5.673   3.964
 2095SOL    HW2 7185   5.625   5.532   4.002
 2096SOL     OW 7186   4.895   0.183   2.068
 2096SOL    HW1 7187   4.946   0.105   2.104
 2096SOL    HW2 7188   4.813   0.151   2.021
 2097SOL     OW 7189   1.026   5.895   6.261
 2097SOL    HW1 7190   1.022   5.825   6.333
 2097SOL    HW2 7191   1.062   5.854   6.177
 2098SOL     OW 7192   3.052   6.167   3.696
 2098SOL    HW1 7193   2.967   6.142   3.651
 2098SOL    HW2 7194   3.108   6.086   3.711
 2099SOL     OW 7195   4.917   1.753   6.146
 2099SOL    HW1 7196   4.952   1.693   6.218
 2099SOL    HW2 7197   4.833   1.798   6.178
 2100SOL     OW 7198   4.919   7.016   1.506
 2100SOL    HW1 7199   4.832   7.019   1.456
 2100SOL    HW2 7200   4.985   6.960   1.454
 2101SOL     OW 7201   0.695   0.127   2.120
 2101SOL    HW1 7202   0.654   0.037   2.138
 2101SOL    HW2 7203   0.631   0.199   2.145
 2102SOL     OW 7204   3.688   2.103   0.960
 2102SOL    HW1 7205   3.771   2.062   0.922
 2102SOL    HW2 7206   3.709   2.141   1.050
 2103SOL     OW 7207   3.005   5.854   0.346
 2103SOL    HW1 7208   2.935   5.870   0.415
 2103SOL    HW2 7209   3.089   5.901   0.372
 2104SOL     OW 7210   1.788   4.259   3.166
 2104SOL    HW1 7211   1.727   4.208   3.107
 2104SOL    HW2 7212   1.795   4.213   3.255
 2105SOL     OW 7213   5.884   5.672   5.219
 2105SOL    HW1 7214   5.827   5.629   5.289
 2105SOL    HW2 7215   5.883   5.771   5.231
 2106SOL     OW 7216   4.250   3.200   0.734
 2106SOL    HW1 7217   4.235   3.271   0.803
 2106SOL    HW2 7218   4.278   3.115   0.779
 2107SOL     OW 7219   5.485   4.563   5.663
 2107SOL    HW1 7220   5.434   4.554   5.578
 2107SOL    HW2 7221   5.581   4.585   5.643
 2108SOL     OW 7222   5.173   0.418   5.241
 2108SOL    HW1 7223   5.147   0.327   5.273
 2108SOL    HW2 7224   5.272   0.424   5.234
 2109SOL     OW 7225   2.873   6.783   2.394
 2109SOL    HW1 7226   2.885   6.830   2.306
 2109SOL    HW2 7227   2.910   6.840   2.467
 2110SOL     OW 7228   3.620   6.718   0.431
 2110SOL    HW1 7229   3.670   6.672   0.504
 2110SOL    HW2 7230   3.630   6.668   0.346
 2111SOL     OW 7231   0.842   2.309   5.923
 2111SOL    HW1 7232   0.925   2.272   5.883
 2111SOL    HW2 7233   0.803   2.378   5.861
 2112SOL     OW 7234   0.820   0.552   6.794
 2112SOL    HW1 7235   0.818   0.565   6.893
 2112SOL    HW2 7236   0.752   0.484   6.768
 2113SOL     OW 7237   0.256   0.887   4.912
 2113SOL    HW1 7238   0.226   0.872   5.006
 2113SOL    HW2 7239   0.276   0.984   4.898
 2114SOL     OW 7240   1.224   1.316   6.094
 2114SOL    HW1 7241   1.297   1.357   6.040
 2114SOL    HW2 7242   1.264   1.265   6.171
 2115SOL     OW 7243   6.638   6.175   3.263
 2115SOL    HW1 7244   6.668   6.235   3.337
 2115SOL    HW2 7245   6.541   6.191   3.244
 2116SOL     OW 7246   0.979   2.094   0.123
 2116SOL    HW1 7247   1.056   2.083   0.186
 2116SOL    HW2 7248   0.924   2.173   0.150
 2117SOL     OW 7249   6.587   1.800   2.121
 2117SOL    HW1 7250   6.585   1.856   2.204
 2117SOL    HW2 7251   6.532   1.844   2.050
 2118SOL     OW 7252   6.833   2.764   2.326
 2118SOL    HW1 7253   6.753   2.817   2.298
 2118SOL    HW2 7254   6.830   2.749   2.425
 2119SOL     OW 7255   1.574   1.188   0.356
 2119SOL    HW1 7256   1.593   1.123   0.430
 2119SOL    HW2 7257   1.497   1.247   0.383
 2120SOL     OW 7258   5.958   1.340   1.042
 2120SOL    HW1 7259   5.887   1.382   0.985
 2120SOL    HW2 7260   5.935   1.355   1.139
 2121SOL     OW 7261   1.334   0.411   0.046
 2121SOL    HW1 7262   1.285   0.435   6.985
 2121SOL    HW2 7263   1.365   0.316   0.041
 2122SOL     OW 7264   6.205   1.378   3.974
 2122SOL    HW1 7265   6.181   1.472   3.998
 2122SOL    HW2 7266   6.130   1.336   3.923
 2123SOL     OW 7267   1.271   5.417   2.885
 2123SOL    HW1 7268   1.187   5.412   2.831
 2123SOL    HW2 7269   1.347   5.443   2.825
 2124SOL     OW 7270   4.038   3.660   6.100
 2124SOL    HW1 7271   4.112   3.721   6.128
 2124SOL    HW2 7272   4.057   3.623   6.009
 2125SOL     OW 7273   1.862   6.351   4.540
 2125SOL    HW1 7274   1.792   6.353   4.468
 2125SOL    HW2 7275   1.921   6.272   4.527
 2126SOL     OW 7276   2.916   4.393   0.189
 2126SOL    HW1 7277   2.921   4.355   0.096
 2126SOL    HW2 7278   3.007   4.391   0.230
 2127SOL     OW 7279   0.805   2.414   4.392
 2127SOL    HW1 7280   0.897   2.376   4.402
 2127SOL    HW2 7281   0.745   2.347   4.349
 2128SOL     OW 7282   5.194   3.139   1.302
 2128SOL    HW1 7283   5.200   3.225   1.353
 2128SOL    HW2 7284   5.176   3.160   1.206
 2129SOL     OW 7285   5.519   3.870   4.424
 2129SOL    HW1 7286   5.502   3.777   4.457
 2129SOL    HW2 7287   5.455   3.892   4.350
 2130SOL     OW 7288   3.003   1.299   1.689
 2130SOL    HW1 7289   3.071   1.372   1.690
 2130SOL    HW2 7290   2.952   1.302   1.604
 2131SOL     OW 7291   5.471   0.444   5.238
 2131SOL    HW1 7292   5.456   0.433   5.140
 2131SOL    HW2 7293   5.531   0.523   5.253
 2132SOL     OW 7294   2.291   2.370   0.887
 2132SOL    HW1 7295   2.306   2.403   0.980
 2132SOL    HW2 7296   2.372   2.321   0.855
 2133SOL     OW 7297   3.316   2.377   1.657
 2133SOL    HW1 7298   3.406   2.335   1.643
 2133SOL    HW2 7299   3.254   2.310   1.696
 2134SOL     OW 7300   1.978   6.581   4.413
 2134SOL    HW1 7301   1.898   6.608   4.360
 2134SOL    HW2 7302   1.958   6.496   4.463
 2135SOL     OW 7303   1.054   0.539   4.346
 2135SOL    HW1 7304   1.130   0.598   4.322
 2135SOL    HW2 7305   1.069   0.502   4.438
 2136SOL     OW 7306   1.072   4.625   3.903
 2136SOL    HW1 7307   1.013   4.564   3.956
 2136SOL    HW2 7308   1.015   4.691   3.854
 2137SOL     OW 7309   1.224   0.849   4.934
 2137SOL    HW1 7310   1.191   0.759   4.960
 2137SOL    HW2 7311   1.256   0.848   4.839
 2138SOL     OW 7312   0.367   2.825   0.370
 2138SOL    HW1 7313   0.321   2.863   0.451
 2138SOL    HW2 7314   0.466   2.833   0.381
 2139SOL     OW 7315   2.384   1.318   4.811
 2139SOL    HW1 7316   2.458   1.384   4.804
 2139SOL    HW2 7317   2.417   1.228   4.782
 2140SOL     OW 7318   2.013   5.946   3.857
 2140SOL    HW1 7319   2.006   5.988   3.766
 2140SOL    HW2 7320   2.003   6.017   3.927
 2141SOL     OW 7321   6.420   1.530   6.902
 2141SOL    HW1 7322   6.411   1.432   6.915
 2141SOL    HW2 7323   6.470   1.570   6.979
 2142SOL     OW 7324   2.800   1.558   3.170
 2142SOL    HW1 7325   2.799   1.550   3.071
 2142SOL    HW2 7326   2.893   1.543   3.204
 2143SOL     OW 7327   3.626   6.615   0.158
 2143SOL    HW1 7328   3.554   6.652   0.100
 2143SOL    HW2 7329   3.715   6.636   0.118
 2144SOL     OW 7330   6.932   0.878   2.992
 2144SOL    HW1 7331   6.843   0.884   3.037
 2144SOL    HW2 7332   7.004   0.864   3.061
 2145SOL     OW 7333   3.831   5.165   2.978
 2145SOL    HW1 7334   3.823   5.217   3.063
 2145SOL    HW2 7335   3.809   5.224   2.901
 2146SOL     OW 7336   3.833   3.099   1.370
 2146SOL    HW1 7337   3.785   3.160   1.306
 2146SOL    HW2 7338   3.767   3.046   1.422
 2147SOL     OW 7339   7.005   1.093   5.054
 2147SOL    HW1 7340   6.955   1.137   5.128
 2147SOL    HW2 7341   6.939   1.053   4.989
 2148SOL     OW 7342   4.950   3.157   3.009
 2148SOL    HW1 7343   4.952   3.192   3.103
 2148SOL    HW2 7344   4.929   3.231   2.946
 2149SOL     OW 7345   3.416   0.998   3.144
 2149SOL    HW1 7346   3.425   0.903   3.175
 2149SOL    HW2 7347   3.386   1.000   3.049
 2150SOL     OW 7348   3.676   1.420   2.715
 2150SOL    HW1 7349   3.668   1.493   2.647
 2150SOL    HW2 7350   3.625   1.445   2.797
 2151SOL     OW 7351   3.602   2.940   5.738
 2151SOL    HW1 7352   3.576   2.849   5.705
 2151SOL    HW2 7353   3.551   3.010   5.688
 2152SOL     OW 7354   6.528   5.926   1.994
 2152SOL    HW1 7355   6.552   5.940   2.091
 2152SOL    HW2 7356   6.431   5.947   1.980
 2153SOL     OW 7357   4.875   2.909   2.892
 2153SOL    HW1 7358   4.890   2.999   2.933
 2153SOL    HW2 7359   4.873   2.917   2.792
 2154SOL     OW 7360   4.651   5.770   5.030
 2154SOL    HW1 7361   4.629   5.833   4.956
 2154SOL    HW2 7362   4.595   5.688   5.022
 2155SOL     OW 7363   6.660   3.469   0.344
 2155SOL    HW1 7364   6.743   3.462   0.401
 2155SOL    HW2 7365   6.652   3.562   0.309
 2156SOL     OW 7366   1.258   1.361   1.437
 2156SOL    HW1 7367   1.301   1.444   1.472
 2156SOL    HW2 7368   1.234   1.301   1.514
 2157SOL     OW 7369   0.835   1.341   4.828
 2157SOL    HW1 7370   0.909   1.408   4.834
 2157SOL    HW2 7371   0.752   1.380   4.869
 2158SOL     OW 7372   4.775   6.235   2.440
 2158SOL    HW1 7373   4.827   6.184   2.371
 2158SOL    HW2 7374   4.684   6.196   2.448
 2159SOL     OW 7375   2.335   5.811   4.495
 2159SOL    HW1 7376   2.395   5.881   4.457
 2159SOL    HW2 7377   2.301   5.840   4.584
 2160SOL     OW 7378   3.004   3.553   0.489
 2160SOL    HW1 7379   3.076   3.566   0.557
 2160SOL    HW2 7380   3.022   3.469   0.438
 2161SOL     OW 7381   5.239   2.386   3.531
 2161SOL    HW1 7382   5.287   2.379   3.618
 2161SOL    HW2 7383   5.261   2.474   3.488
 2162SOL     OW 7384   0.827   1.880   6.855
 2162SOL    HW1 7385   0.780   1.890   6.942
 2162SOL    HW2 7386   0.775   1.819   6.795
 2163SOL     OW 7387   2.494   2.402   0.282
 2163SOL    HW1 7388   2.564   2.414   0.353
 2163SOL    HW2 7389   2.508   2.471   0.210
 2164SOL     OW 7390   1.127   6.770   1.405
 2164SOL    HW1 7391   1.037   6.762   1.362
 2164SOL    HW2 7392   1.123   6.733   1.498
 2165SOL     OW 7393   2.905   6.755   1.680
 2165SOL    HW1 7394   2.930   6.726   1.588
 2165SOL    HW2 7395   2.987   6.784   1.730
 2166SOL     OW 7396   6.465   1.881   6.978
 2166SOL    HW1 7397   6.492   1.932   0.038
 2166SOL    HW2 7398   6.463   1.943   6.900
 2167SOL     OW 7399   2.518   0.640   1.392
 2167SOL    HW1 7400   2.484   0.728   1.358
 2167SOL    HW2 7401   2.499   0.569   1.324
 2168SOL     OW 7402   5.968   5.463   4.601
 2168SOL    HW1 7403   5.914   5.443   4.683
 2168SOL    HW2 7404   5.909   5.504   4.532
 2169SOL     OW 7405   5.356   1.927   4.850
 2169SOL    HW1 7406   5.263   1.894   4.833
 2169SOL    HW2 7407   5.373   2.008   4.794
 2170SOL     OW 7408   5.279   4.994   4.682
 2170SOL    HW1 7409   5.238   4.937   4.611
 2170SOL    HW2 7410   5.238   5.086   4.680
 2171SOL     OW 7411   6.791   1.951   0.351
 2171SOL    HW1 7412   6.808   1.866   0.302
 2171SOL    HW2 7413   6.838   1.949   0.439
 2172SOL     OW 7414   2.843   0.751   0.662
 2172SOL    HW1 7415   2.831   0.766   0.564
 2172SOL    HW2 7416   2.791   0.670   0.690
 2173SOL     OW 7417   5.025   1.298   5.236
 2173SOL    HW1 7418   5.033   1.382   5.181
 2173SOL    HW2 7419   5.003   1.322   5.330
 2174SOL     OW 7420   1.262   5.213   4.842
 2174SOL    HW1 7421   1.172   5.190   4.804
 2174SOL    HW2 7422   1.332   5.155   4.801
 2175SOL     OW 7423   2.339   6.436   4.762
 2175SOL    HW1 7424   2.386   6.492   4.694
 2175SOL    HW2 7425   2.363   6.468   4.854
 2176SOL     OW 7426   2.064   2.458   2.090
 2176SOL    HW1 7427   1.977   2.494   2.055
 2176SOL    HW2 7428   2.075   2.364   2.059
 2177SOL     OW 7429   6.635   1.163   1.604
 2177SOL    HW1 7430   6.715   1.217   1.632
 2177SOL    HW2 7431   6.552   1.204   1.642
 2178SOL     OW 7432   0.619   5.018   0.392
 2178SOL    HW1 7433   0.695   5.023   0.456
 2178SOL    HW2 7434   0.622   5.097   0.330
 2179SOL     OW 7435   0.828   4.717   3.820
 2179SOL    HW1 7436   0.758   4.664   3.868
 2179SOL    HW2 7437   0.806   4.814   3.825
 2180SOL     OW 7438   4.020   3.101   2.072
 2180SOL    HW1 7439   4.108   3.130   2.109
 2180SOL    HW2 7440   4.033   3.060   1.982
 2181SOL     OW 7441   4.576   6.260   6.874
 2181SOL    HW1 7442   4.488   6.278   6.919
 2181SOL    HW2 7443   4.647   6.249   6.943
 2182SOL     OW 7444   6.018   1.732   0.536
 2182SOL    HW1 7445   5.926   1.742   0.573
 2182SOL    HW2 7446   6.027   1.642   0.494
 2183SOL     OW 7447   3.037   2.814   1.165
 2183SOL    HW1 7448   2.983   2.734   1.139
 2183SOL    HW2 7449   2.980   2.896   1.161
 2184SOL     OW 7450   4.179   3.160   6.197
 2184SOL    HW1 7451   4.122   3.168   6.279
 2184SOL    HW2 7452   4.128   3.112   6.126
 2185SOL     OW 7453   1.267   0.889   1.031
 2185SOL    HW1 7454   1.214   0.813   1.067
 2185SOL    HW2 7455   1.365   0.870   1.043
 2186SOL     OW 7456   0.146   5.159   2.661
 2186SOL    HW1 7457   0.054   5.185   2.632
 2186SOL    HW2 7458   0.143   5.122   2.754
 2187SOL     OW 7459   0.622   1.690   6.735
 2187SOL    HW1 7460   0.527   1.661   6.732
 2187SOL    HW2 7461   0.648   1.727   6.646
 2188SOL     OW 7462   5.026   0.882   2.988
 2188SOL    HW1 7463   5.033   0.978   2.958
 2188SOL    HW2 7464   5.073   0.823   2.922
 2189SOL     OW 7465   2.637   0.383   6.771
 2189SOL    HW1 7466   2.664   0.455   6.835
 2189SOL    HW2 7467   2.543   0.399   6.740
 2190SOL     OW 7468   5.370   1.651   1.335
 2190SOL    HW1 7469   5.403   1.559   1.313
 2190SOL    HW2 7470   5.423   1.718   1.283
 2191SOL     OW 7471   2.939   1.475   0.107
 2191SOL    HW1 7472   2.841   1.457   0.117
 2191SOL    HW2 7473   2.991   1.406   0.157
 2192SOL     OW 7474   4.126   5.135   3.588
 2192SOL    HW1 7475   4.114   5.084   3.673
 2192SOL    HW2 7476   4.040   5.182   3.566
 2193SOL     OW 7477   0.395   5.332   5.901
 2193SOL    HW1 7478   0.305   5.305   5.934
 2193SOL    HW2 7479   0.400   5.320   5.802
 2194SOL     OW 7480   3.349   0.259   1.552
 2194SOL    HW1 7481   3.414   0.185   1.538
 2194SOL    HW2 7482   3.256   0.224   1.538
 2195SOL     OW 7483   1.592   4.621   2.504
 2195SOL    HW1 7484   1.515   4.560   2.526
 2195SOL    HW2 7485   1.572   4.671   2.420
 2196SOL     OW 7486   3.999   3.457   0.035
 2196SOL    HW1 7487   4.092   3.456   0.072
 2196SOL    HW2 7488   3.933   3.465   0.109
 2197SOL     OW 7489   4.103   4.406   0.669
 2197SOL    HW1 7490   4.189   4.399   0.719
 2197SOL    HW2 7491   4.117   4.374   0.575
 2198SOL     OW 7492   6.070   4.397   0.440
 2198SOL    HW1 7493   6.098   4.302   0.429
 2198SOL    HW2 7494   5.975   4.407   0.411
 2199SOL     OW 7495   4.531   0.719   2.331
 2199SOL    HW1 7496   4.546   0.767   2.244
 2199SOL    HW2 7497   4.616   0.721   2.384
 2200SOL     OW 7498   2.490   6.922   4.030
 2200SOL    HW1 7499   2.530   6.832   4.047
 2200SOL    HW2 7500   2.471   6.933   3.932
 2201SOL     OW 7501   4.849   4.221   2.150
 2201SOL    HW1 7502   4.772   4.278   2.123
 2201SOL    HW2 7503   4.915   4.276   2.202
 2202SOL     OW 7504   4.596   5.915   3.345
 2202SOL    HW1 7505   4.499   5.907   3.370
 2202SOL    HW2 7506   4.642   5.828   3.364
 2203SOL     OW 7507   3.192   2.117   2.838
 2203SOL    HW1 7508   3.231   2.075   2.920
 2203SOL    HW2 7509   3.257   2.107   2.763
 2204SOL     OW 7510   3.082   2.756   1.428
 2204SOL    HW1 7511   3.074   2.793   1.336
 2204SOL    HW2 7512   3.045   2.664   1.432
 2205SOL     OW 7513   2.707   0.553   0.783
 2205SOL    HW1 7514   2.614   0.541   0.749
 2205SOL    HW2 7515   2.704   0.582   0.879
 2206SOL     OW 7516   1.960   3.157   7.016
 2206SOL    HW1 7517   1.978   3.070   0.041
 2206SOL    HW2 7518   2.028   3.170   6.944
 2207SOL     OW 7519   0.669   4.490   4.795
 2207SOL    HW1 7520   0.639   4.555   4.725
 2207SOL    HW2 7521   0.753   4.445   4.765
 2208SOL     OW 7522   6.859   4.708   2.058
 2208SOL    HW1 7523   6.953   4.702   2.023
 2208SOL    HW2 7524   6.819   4.796   2.032
 2209SOL     OW 7525   1.183   5.998   1.325
 2209SOL    HW1 7526   1.093   6.037   1.342
 2209SOL    HW2 7527   1.177   5.933   1.249
 2210SOL     OW 7528   1.153   5.732   4.085
 2210SOL    HW1 7529   1.166   5.654   4.147
 2210SOL    HW2 7530   1.206   5.716   4.002
 2211SOL     OW 7531   6.984   1.529   5.971
 2211SOL    HW1 7532   0.045   1.532   5.916
 2211SOL    HW2 7533   6.935   1.444   5.954
 2212SOL     OW 7534   1.871   6.866   6.589
 2212SOL    HW1 7535   1.882   6.791   6.524
 2212SOL    HW2 7536   1.954   6.922   6.590
 2213SOL     OW 7537   3.293   1.447   3.408
 2213SOL    HW1 7538   3.205   1.451   3.455
 2213SOL    HW2 7539   3.306   1.356   3.369
 2214SOL     OW 7540   4.303   0.143   5.307
 2214SOL    HW1 7541   4.371   0.106   5.244
 2214SOL    HW2 7542   4.237   0.071   5.329
 2215SOL     OW 7543   5.824   3.035   4.427
 2215SOL    HW1 7544   5.852   2.975   4.353
 2215SOL    HW2 7545   5.794   3.123   4.389
 2216SOL     OW 7546   2.287   0.450   1.521
 2216SOL    HW1 7547   2.339   0.529   1.489
 2216SOL    HW2 7548   2.190   0.469   1.516
 2217SOL     OW 7549   4.802   0.970   2.023
 2217SOL    HW1 7550   4.778   1.067   2.019
 2217SOL    HW2 7551   4.719   0.915   2.014
 2218SOL     OW 7552   1.063   6.557   2.154
 2218SOL    HW1 7553   1.070   6.649   2.115
 2218SOL    HW2 7554   1.053   6.564   2.253
 2219SOL     OW 7555   1.634   2.270   2.764
 2219SOL    HW1 7556   1.602   2.359   2.794
 2219SOL    HW2 7557   1.691   2.229   2.835
 2220SOL     OW 7558   0.947   0.499   1.022
 2220SOL    HW1 7559   0.851   0.519   1.005
 2220SOL    HW2 7560   0.957   0.402   1.044
 2221SOL     OW 7561   6.919   1.540   0.042
 2221SOL    HW1 7562   6.879   1.453   0.070
 2221SOL    HW2 7563   7.019   1.537   0.053
 2222SOL     OW 7564   5.907   5.974   3.022
 2222SOL    HW1 7565   5.832   6.006   2.966
 2222SOL    HW2 7566   5.942   5.888   2.985
 2223SOL     OW 7567   6.033   5.014   1.408
 2223SOL    HW1 7568   6.096   5.090   1.419
 2223SOL    HW2 7569   6.008   4.978   1.498
 2224SOL     OW 7570   0.765   5.112   2.020
 2224SOL    HW1 7571   0.678   5.158   2.004
 2224SOL    HW2 7572   0.774   5.092   2.118
 2225SOL     OW 7573   0.314   4.412   0.937
 2225SOL    HW1 7574   0.215   4.423   0.928
 2225SOL    HW2 7575   0.334   4.351   1.014
 2226SOL     OW 7576   4.217   3.937   1.491
 2226SOL    HW1 7577   4.293   3.968   1.435
 2226SOL    HW2 7578   4.250   3.914   1.583
 2227SOL     OW 7579   1.084   3.313   4.293
 2227SOL    HW1 7580   1.007   3.374   4.313
 2227SOL    HW2 7581   1.135   3.348   4.214
 2228SOL     OW 7582   3.046   4.975   4.691
 2228SOL    HW1 7583   2.994   4.896   4.659
 2228SOL    HW2 7584   3.074   5.032   4.614
 2229SOL     OW 7585   5.350   0.010   3.105
 2229SOL    HW1 7586   5.338   0.104   3.137
 2229SOL    HW2 7587   5.282   7.013   3.034
 2230SOL     OW 7588   2.789   5.462   1.089
 2230SOL    HW1 7589   2.746   5.552   1.096
 2230SOL    HW2 7590   2.855   5.450   1.164
 2231SOL     OW 7591   2.506   5.930   1.230
 2231SOL    HW1 7592   2.456   5.865   1.174
 2231SOL    HW2 7593   2.487   6.023   1.199
 2232SOL     OW 7594   6.190   2.720   3.458
 2232SOL    HW1 7595   6.149   2.720   3.549
 2232SOL    HW2 7596   6.137   2.659   3.398
 2233SOL     OW 7597   3.269   1.803   0.014
 2233SOL    HW1 7598   3.178   1.802   6.995
 2233SOL    HW2 7599   3.327   1.869   6.987
 2234SOL     OW 7600   3.216   2.057   0.992
 2234SOL    HW1 7601   3.230   2.120   0.915
 2234SOL    HW2 7602   3.279   2.081   1.066
 2235SOL     OW 7603   1.976   0.431   1.117
 2235SOL    HW1 7604   1.919   0.499   1.161
 2235SOL    HW2 7605   1.925   0.345   1.109
 2236SOL     OW 7606   6.709   3.732   6.561
 2236SOL    HW1 7607   6.652   3.809   6.592
 2236SOL    HW2 7608   6.739   3.680   6.641
 2237SOL     OW 7609   6.409   2.830   4.129
 2237SOL    HW1 7610   6.318   2.867   4.147
 2237SOL    HW2 7611   6.463   2.833   4.213
 2238SOL     OW 7612   6.858   6.032   1.988
 2238SOL    HW1 7613   6.870   5.941   2.028
 2238SOL    HW2 7614   6.792   6.084   2.042
 2239SOL     OW 7615   5.660   5.505   3.234
 2239SOL    HW1 7616   5.618   5.425   3.192
 2239SOL    HW2 7617   5.600   5.584   3.224
 2240SOL     OW 7618   5.891   3.805   1.806
 2240SOL    HW1 7619   5.952   3.782   1.730
 2240SOL    HW2 7620   5.800   3.825   1.771
 2241SOL     OW 7621   0.845   6.743   2.022
 2241SOL    HW1 7622   0.785   6.783   2.091
 2241SOL    HW2 7623   0.824   6.646   2.012
 2242SOL     OW 7624   4.773   2.269   2.643
 2242SOL    HW1 7625   4.783   2.360   2.684
 2242SOL    HW2 7626   4.781   2.277   2.544
 2243SOL     OW 7627   2.919   6.249   5.501
 2243SOL    HW1 7628   2.825   6.217   5.492
 2243SOL    HW2 7629   2.981   6.187   5.452
 2244SOL     OW 7630   2.420   0.872   5.249
 2244SOL    HW1 7631   2.490   0.800   5.253
 2244SOL    HW2 7632   2.394   0.888   5.154
 2245SOL     OW 7633   0.604   1.809   2.288
 2245SOL    HW1 7634   0.582   1.717   2.256
 2245SOL    HW2 7635   0.522   1.866   2.283
 2246SOL     OW 7636   1.385   4.602   4.716
 2246SOL    HW1 7637   1.427   4.683   4.675
 2246SOL    HW2 7638   1.413   4.594   4.811
 2247SOL     OW 7639   1.929   1.457   5.566
 2247SOL    HW1 7640   2.028   1.454   5.576
 2247SOL    HW2 7641   1.900   1.551   5.545
 2248SOL     OW 7642   4.499   4.288   5.262
 2248SOL    HW1 7643   4.418   4.345   5.254
 2248SOL    HW2 7644   4.540   4.273   5.172
 2249SOL     OW 7645   4.472   5.363   4.696
 2249SOL    HW1 7646   4.379   5.357   4.731
 2249SOL    HW2 7647   4.480   5.443   4.637
 2250SOL     OW 7648   5.370   5.632   0.567
 2250SOL    HW1 7649   5.274   5.606   0.571
 2250SOL    HW2 7650   5.380   5.715   0.513
 2251SOL     OW 7651   0.223   0.527   6.248
 2251SOL    HW1 7652   0.267   0.467   6.182
 2251SOL    HW2 7653   0.282   0.605   6.268
 2252SOL     OW 7654   3.996   1.823   5.582
 2252SOL    HW1 7655   3.943   1.908   5.585
 2252SOL    HW2 7656   3.981   1.772   5.666
 2253SOL     OW 7657   1.298   2.345   5.865
 2253SOL    HW1 7658   1.230   2.409   5.900
 2253SOL    HW2 7659   1.387   2.365   5.905
 2254SOL     OW 7660   1.748   3.613   5.717
 2254SOL    HW1 7661   1.812   3.645   5.787
 2254SOL    HW2 7662   1.702   3.692   5.674
 2255SOL     OW 7663   5.261   2.596   1.045
 2255SOL    HW1 7664   5.352   2.627   1.016
 2255SOL    HW2 7665   5.250   2.499   1.023
 2256SOL     OW 7666   3.310   4.854   2.008
 2256SOL    HW1 7667   3.292   4.929   1.944
 2256SOL    HW2 7668   3.406   4.826   2.000
 2257SOL     OW 7669   2.097   3.455   4.066
 2257SOL    HW1 7670   2.180   3.400   4.078
 2257SOL    HW2 7671   2.046   3.459   4.151
 2258SOL     OW 7672   2.398   5.454   5.541
 2258SOL    HW1 7673   2.394   5.404   5.455
 2258SOL    HW2 7674   2.431   5.393   5.613
 2259SOL     OW 7675   5.844   3.594   6.549
 2259SOL    HW1 7676   5.924   3.647   6.576
 2259SOL    HW2 7677   5.788   3.648   6.486
 2260SOL     OW 7678   4.983   3.974   0.531
 2260SOL    HW1 7679   5.017   4.002   0.441
 2260SOL    HW2 7680   4.889   4.008   0.542
 2261SOL     OW 7681   3.558   6.780   5.085
 2261SOL    HW1 7682   3.575   6.700   5.028
 2261SOL    HW2 7683   3.644   6.811   5.125
 2262SOL     OW 7684   3.401   1.819   3.348
 2262SOL    HW1 7685   3.434   1.748   3.411
 2262SOL    HW2 7686   3.431   1.909   3.381
 2263SOL     OW 7687   0.366   4.123   5.801
 2263SOL    HW1 7688   0.295   4.175   5.754
 2263SOL    HW2 7689   0.327   4.043   5.845
 2264SOL     OW 7690   4.082   3.716   4.184
 2264SOL    HW1 7691   4.123   3.625   4.183
 2264SOL    HW2 7692   3.994   3.712   4.231
 2265SOL     OW 7693   0.261   0.272   2.822
 2265SOL    HW1 7694   0.342   0.252   2.767
 2265SOL    HW2 7695   0.184   0.292   2.762
 2266SOL     OW 7696   5.708   6.999   6.730
 2266SOL    HW1 7697   5.752   6.911   6.713
 2266SOL    HW2 7698   5.637   7.015   6.661
 2267SOL     OW 7699   5.372   1.547   5.247
 2267SOL    HW1 7700   5.296   1.585   5.194
 2267SOL    HW2 7701   5.445   1.520   5.185
 2268SOL     OW 7702   6.277   5.080   6.777
 2268SOL    HW1 7703   6.207   5.151   6.776
 2268SOL    HW2 7704   6.357   5.111   6.726
 2269SOL     OW 7705   0.286   5.596   4.065
 2269SOL    HW1 7706   0.232   5.642   4.135
 2269SOL    HW2 7707   0.293   5.499   4.087
 2270SOL     OW 7708   4.049   3.299   2.637
 2270SOL    HW1 7709   4.081   3.307   2.543
 2270SOL    HW2 7710   4.051   3.389   2.681
 2271SOL     OW 7711   0.183   4.118   3.070
 2271SOL    HW1 7712   0.167   4.169   3.154
 2271SOL    HW2 7713   0.269   4.068   3.076
 2272SOL     OW 7714   4.658   1.878   6.155
 2272SOL    HW1 7715   4.615   1.940   6.221
 2272SOL    HW2 7716   4.626   1.901   6.063
 2273SOL     OW 7717   0.477   1.388   4.054
 2273SOL    HW1 7718   0.538   1.418   3.981
 2273SOL    HW2 7719   0.383   1.417   4.033
 2274SOL     OW 7720   1.346   3.547   2.848
 2274SOL    HW1 7721   1.387   3.576   2.935
 2274SOL    HW2 7722   1.248   3.561   2.851
 2275SOL     OW 7723   4.908   6.147   3.475
 2275SOL    HW1 7724   4.963   6.116   3.398
 2275SOL    HW2 7725   4.857   6.070   3.513
 2276SOL     OW 7726   3.552   5.565   1.589
 2276SOL    HW1 7727   3.520   5.657   1.610
 2276SOL    HW2 7728   3.591   5.523   1.671
 2277SOL     OW 7729   3.428   3.104   0.815
 2277SOL    HW1 7730   3.371   3.179   0.848
 2277SOL    HW2 7731   3.423   3.100   0.715
 2278SOL     OW 7732   5.440   6.609   0.979
 2278SOL    HW1 7733   5.415   6.673   0.907
 2278SOL    HW2 7734   5.537   6.584   0.969
 2279SOL     OW 7735   4.935   4.306   5.156
 2279SOL    HW1 7736   4.843   4.303   5.118
 2279SOL    HW2 7737   4.993   4.364   5.099
 2280SOL     OW 7738   5.536   7.009   5.983
 2280SOL    HW1 7739   5.551   0.058   5.915
 2280SOL    HW2 7740   5.458   6.952   5.955
 2281SOL     OW 7741   3.193   2.516   0.827
 2281SOL    HW1 7742   3.257   2.500   0.903
 2281SOL    HW2 7743   3.208   2.607   0.790
 2282SOL     OW 7744   4.224   5.709   2.385
 2282SOL    HW1 7745   4.184   5.619   2.401
 2282SOL    HW2 7746   4.285   5.732   2.461
 2283SOL     OW 7747   6.784   3.951   2.181
 2283SOL    HW1 7748   6.839   4.018   2.131
 2283SOL    HW2 7749   6.810   3.859   2.153
 2284SOL     OW 7750   2.648   2.384   2.039
 2284SOL    HW1 7751   2.636   2.397   2.137
 2284SOL    HW2 7752   2.743   2.359   2.020
 2285SOL     OW 7753   1.787   3.893   6.338
 2285SOL    HW1 7754   1.867   3.850   6.296
 2285SOL    HW2 7755   1.777   3.860   6.432
 2286SOL     OW 7756   5.351   6.901   4.572
 2286SOL    HW1 7757   5.282   6.916   4.501
 2286SOL    HW2 7758   5.433   6.862   4.531
 2287SOL     OW 7759   2.195   2.775   1.582
 2287SOL    HW1 7760   2.116   2.714   1.585
 2287SOL    HW2 7761   2.279   2.722   1.587
 2288SOL     OW 7762   1.982   6.105   4.084
 2288SOL    HW1 7763   1.919   6.157   4.141
 2288SOL    HW2 7764   2.052   6.062   4.141
 2289SOL     OW 7765   4.417   1.931   0.515
 2289SOL    HW1 7766   4.381   1.953   0.606
 2289SOL    HW2 7767   4.505   1.976   0.502
 2290SOL     OW 7768   3.388   3.545   3.353
 2290SOL    HW1 7769   3.446   3.475   3.312
 2290SOL    HW2 7770   3.444   3.605   3.410
 2291SOL     OW 7771   0.823   2.631   6.527
 2291SOL    HW1 7772   0.763   2.558   6.559
 2291SOL    HW2 7773   0.771   2.695   6.471
 2292SOL     OW 7774   5.277   1.587   2.646
 2292SOL    HW1 7775   5.213   1.615   2.716
 2292SOL    HW2 7776   5.231   1.585   2.557
 2293SOL     OW 7777   0.353   0.293   0.262
 2293SOL    HW1 7778   0.333   0.391   0.250
 2293SOL    HW2 7779   0.277   0.249   0.310
 2294SOL     OW 7780   6.561   1.098   5.549
 2294SOL    HW1 7781   6.659   1.107   5.528
 2294SOL    HW2 7782   6.542   1.006   5.581
 2295SOL     OW 7783   5.798   5.935   1.080
 2295SOL    HW1 7784   5.755   6.023   1.100
 2295SOL    HW2 7785   5.745   5.861   1.123
 2296SOL     OW 7786   3.500   4.926   4.091
 2296SOL    HW1 7787   3.599   4.908   4.094
 2296SOL    HW2 7788   3.484   5.024   4.102
 2297SOL     OW 7789   4.705   3.682   5.641
 2297SOL    HW1 7790   4.707   3.780   5.661
 2297SOL    HW2 7791   4.757   3.633   5.710
 2298SOL     OW 7792   3.699   3.843   4.711
 2298SOL    HW1 7793   3.763   3.774   4.742
 2298SOL    HW2 7794   3.749   3.925   4.682
 2299SOL     OW 7795   5.918   2.883   4.664
 2299SOL    HW1 7796   5.894   2.899   4.760
 2299SOL    HW2 7797   5.880   2.956   4.607
 2300SOL     OW 7798   5.012   6.669   2.383
 2300SOL    HW1 7799   5.063   6.726   2.318
 2300SOL    HW2 7800   5.051   6.577   2.384
 2301SOL     OW 7801   3.849   3.111   4.628
 2301SOL    HW1 7802   3.926   3.174   4.616
 2301SOL    HW2 7803   3.808   3.124   4.718
 2302SOL     OW 7804   5.989   2.842   6.048
 2302SOL    HW1 7805   6.046   2.893   5.983
 2302SOL    HW2 7806   6.042   2.826   6.132
 2303SOL     OW 7807   3.008   2.360   6.869
 2303SOL    HW1 7808   3.030   2.265   6.889
 2303SOL    HW2 7809   2.960   2.401   6.947
 2304SOL     OW 7810   6.530   6.218   2.977
 2304SOL    HW1 7811   6.467   6.222   3.055
 2304SOL    HW2 7812   6.623   6.237   3.009
 2305SOL     OW 7813   3.038   0.202   4.420
 2305SOL    HW1 7814   2.994   0.253   4.346
 2305SOL    HW2 7815   2.971   0.183   4.492
 2306SOL     OW 7816   1.455   4.896   4.840
 2306SOL    HW1 7817   1.380   4.838   4.873
 2306SOL    HW2 7818   1.473   4.874   4.744
 2307SOL     OW 7819   6.412   3.289   5.917
 2307SOL    HW1 7820   6.344   3.246   5.857
 2307SOL    HW2 7821   6.466   3.218   5.963
 2308SOL     OW 7822   1.622   4.799   1.878
 2308SOL    HW1 7823   1.677   4.875   1.845
 2308SOL    HW2 7824   1.630   4.793   1.978
 2309SOL     OW 7825   1.661   0.478   5.265
 2309SOL    HW1 7826   1.728   0.550   5.245
 2309SOL    HW2 7827   1.639   0.479   5.362
 2310SOL     OW 7828   4.162   0.446   1.120
 2310SOL    HW1 7829   4.186   0.499   1.038
 2310SOL    HW2 7830   4.199   0.354   1.112
 2311SOL     OW 7831   2.785   5.338   1.396
 2311SOL    HW1 7832   2.738   5.424   1.416
 2311SOL    HW2 7833   2.879   5.342   1.430
 2312SOL     OW 7834   3.286   5.042   1.811
 2312SOL    HW1 7835   3.367   5.099   1.798
 2312SOL    HW2 7836   3.215   5.069   1.746
 2313SOL     OW 7837   5.160   5.799   1.490
 2313SOL    HW1 7838   5.095   5.825   1.561
 2313SOL    HW2 7839   5.167   5.873   1.422
 2314SOL     OW 7840   1.733   4.697   4.533
 2314SOL    HW1 7841   1.793   4.726   4.458
 2314SOL    HW2 7842   1.766   4.610   4.571
 2315SOL     OW 7843   4.291   2.843   6.517
 2315SOL    HW1 7844   4.301   2.867   6.613
 2315SOL    HW2 7845   4.359   2.773   6.493
 2316SOL     OW 7846   5.990   4.239   2.022
 2316SOL    HW1 7847   6.087   4.258   2.036
 2316SOL    HW2 7848   5.979   4.181   1.941
 2317SOL     OW 7849   0.504   5.780   3.506
 2317SOL    HW1 7850   0.542   5.811   3.419
 2317SOL    HW2 7851   0.563   5.709   3.545
 2318SOL     OW 7852   6.323   1.062   3.964
 2318SOL    HW1 7853   6.250   1.014   4.013
 2318SOL    HW2 7854   6.301   1.064   3.866
 2319SOL     OW 7855   0.657   4.754   3.181
 2319SOL    HW1 7856   0.732   4.807   3.220
 2319SOL    HW2 7857   0.683   4.657   3.178
 2320SOL     OW 7858   6.718   5.178   5.532
 2320SOL    HW1 7859   6.742   5.081   5.526
 2320SOL    HW2 7860   6.672   5.196   5.619
 2321SOL     OW 7861   3.692   5.092   5.244
 2321SOL    HW1 7862   3.656   5.175   5.201
 2321SOL    HW2 7863   3.638   5.013   5.216
 2322SOL     OW 7864   3.246   1.152   5.837
 2322SOL    HW1 7865   3.290   1.133   5.749
 2322SOL    HW2 7866   3.302   1.114   5.911
 2323SOL     OW 7867   5.205   4.132   1.850
 2323SOL    HW1 7868   5.279   4.152   1.914
 2323SOL    HW2 7869   5.206   4.034   1.828
 2324SOL     OW 7870   0.052   4.983   3.512
 2324SOL    HW1 7871   0.026   5.071   3.471
 2324SOL    HW2 7872   0.010   4.976   3.603
 2325SOL     OW 7873   0.268   2.022   1.079
 2325SOL    HW1 7874   0.248   1.924   1.085
 2325SOL    HW2 7875   0.293   2.046   0.986
 2326SOL     OW 7876   1.593   4.455   6.517
 2326SOL    HW1 7877   1.605   4.377   6.456
 2326SOL    HW2 7878   1.591   4.424   6.612
 2327SOL     OW 7879   5.585   1.906   3.806
 2327SOL    HW1 7880   5.552   1.836   3.743
 2327SOL    HW2 7881   5.678   1.884   3.835
 2328SOL     OW 7882   5.811   0.031   3.778
 2328SOL    HW1 7883   5.806   7.010   3.688
 2328SOL    HW2 7884   5.771   6.993   3.846
 2329SOL     OW 7885   0.035   5.582   3.430
 2329SOL    HW1 7886   6.976   5.640   3.433
 2329SOL    HW2 7887   0.061   5.556   3.524
 2330SOL     OW 7888   0.210   3.504   1.989
 2330SOL    HW1 7889   0.163   3.506   1.901
 2330SOL    HW2 7890   0.144   3.517   2.062
 2331SOL     OW 7891   0.493   5.050   5.929
 2331SOL    HW1 7892   0.495   5.069   6.027
 2331SOL    HW2 7893   0.547   5.119   5.881
 2332SOL     OW 7894   5.475   2.624   4.512
 2332SOL    HW1 7895   5.377   2.643   4.518
 2332SOL    HW2 7896   5.522   2.674   4.585
 2333SOL     OW 7897   2.504   4.470   3.543
 2333SOL    HW1 7898   2.486   4.488   3.640
 2333SOL    HW2 7899   2.458   4.386   3.515
 2334SOL     OW 7900   3.317   0.060   0.519
 2334SOL    HW1 7901   3.329   6.988   0.552
 2334SOL    HW2 7902   3.372   0.121   0.576
 2335SOL     OW 7903   4.666   5.164   4.315
 2335SOL    HW1 7904   4.614   5.236   4.268
 2335SOL    HW2 7905   4.614   5.132   4.394
 2336SOL     OW 7906   4.302   2.703   5.925
 2336SOL    HW1 7907   4.253   2.789   5.909
 2336SOL    HW2 7908   4.379   2.719   5.987
 2337SOL     OW 7909   5.766   0.588   4.165
 2337SOL    HW1 7910   5.680   0.612   4.211
 2337SOL    HW2 7911   5.815   0.519   4.219
 2338SOL     OW 7912   1.654   6.985   6.682
 2338SOL    HW1 7913   1.744   6.942   6.672
 2338SOL    HW2 7914   1.644   0.036   6.615
 2339SOL     OW 7915   4.287   4.257   6.104
 2339SOL    HW1 7916   4.323   4.350   6.104
 2339SOL    HW2 7917   4.319   4.208   6.023
 2340SOL     OW 7918   3.530   5.199   4.112
 2340SOL    HW1 7919   3.589   5.181   4.033
 2340SOL    HW2 7920   3.461   5.267   4.088
 2341SOL     OW 7921   6.191   5.410   6.533
 2341SOL    HW1 7922   6.283   5.447   6.548
 2341SOL    HW2 7923   6.198   5.317   6.498
 2342SOL     OW 7924   6.452   0.372   5.131
 2342SOL    HW1 7925   6.485   0.280   5.152
 2342SOL    HW2 7926   6.493   0.437   5.195
 2343SOL     OW 7927   0.767   6.913   0.181
 2343SOL    HW1 7928   0.828   6.872   0.114
 2343SOL    HW2 7929   0.715   6.988   0.138
 2344SOL     OW 7930   2.376   1.600   3.274
 2344SOL    HW1 7931   2.370   1.577   3.371
 2344SOL    HW2 7932   2.385   1.516   3.221
 2345SOL     OW 7933   1.692   1.217   3.430
 2345SOL    HW1 7934   1.676   1.150   3.503
 2345SOL    HW2 7935   1.606   1.258   3.402
 2346SOL     OW 7936   5.324   3.404   5.684
 2346SOL    HW1 7937   5.307   3.419   5.782
 2346SOL    HW2 7938   5.242   3.366   5.642
 2347SOL     OW 7939   1.246   3.644   0.895
 2347SOL    HW1 7940   1.253   3.704   0.815
 2347SOL    HW2 7941   1.243   3.699   0.978
 2348SOL     OW 7942   2.773   5.912   1.770
 2348SOL    HW1 7943   2.851   5.855   1.797
 2348SOL    HW2 7944   2.708   5.857   1.718
 2349SOL     OW 7945   4.427   4.653   5.634
 2349SOL    HW1 7946   4.409   4.617   5.726
 2349SOL    HW2 7947   4.444   4.751   5.640
 2350SOL     OW 7948   1.830   5.704   5.305
 2350SOL    HW1 7949   1.764   5.630   5.311
 2350SOL    HW2 7950   1.922   5.670   5.326
 2351SOL     OW 7951   2.275   5.659   3.500
 2351SOL    HW1 7952   2.353   5.682   3.442
 2351SOL    HW2 7953   2.271   5.561   3.515
 2352SOL     OW 7954   6.250   3.976   2.013
 2352SOL    HW1 7955   6.334   3.939   1.974
 2352SOL    HW2 7956   6.264   4.072   2.038
 2353SOL     OW 7957   2.927   3.765   6.411
 2353SOL    HW1 7958   2.845   3.716   6.379
 2353SOL    HW2 7959   3.002   3.700   6.424
 2354SOL     OW 7960   3.934   2.639   1.692
 2354SOL    HW1 7961   3.859   2.579   1.719
 2354SOL    HW2 7962   3.917   2.676   1.601
 2355SOL     OW 7963   6.474   0.404   1.490
 2355SOL    HW1 7964   6.410   0.480   1.491
 2355SOL    HW2 7965   6.430   0.323   1.530
 2356SOL     OW 7966   2.933   5.048   3.847
 2356SOL    HW1 7967   2.920   5.139   3.887
 2356SOL    HW2 7968   2.957   4.983   3.919
 2357SOL     OW 7969   6.432   4.316   0.383
 2357SOL    HW1 7970   6.353   4.291   0.438
 2357SOL    HW2 7971   6.515   4.308   0.438
 2358SOL     OW 7972   3.530   2.257   5.249
 2358SOL    HW1 7973   3.586   2.180   5.279
 2358SOL    HW2 7974   3.440   2.225   5.221
 2359SOL     OW 7975   1.859   1.667   5.716
 2359SOL    HW1 7976   1.908   1.699   5.797
 2359SOL    HW2 7977   1.858   1.738   5.647
 2360SOL     OW 7978   3.515   4.846   6.786
 2360SOL    HW1 7979   3.541   4.776   6.853
 2360SOL    HW2 7980   3.577   4.924   6.794
 2361SOL     OW 7981   4.778   5.718   1.837
 2361SOL    HW1 7982   4.743   5.627   1.816
 2361SOL    HW2 7983   4.825   5.755   1.757
 2362SOL     OW 7984   4.468   4.984   3.874
 2362SOL    HW1 7985   4.440   4.982   3.778
 2362SOL    HW2 7986   4.447   5.073   3.913
 2363SOL     OW 7987   1.651   3.970   0.418
 2363SOL    HW1 7988   1.587   3.895   0.428
 2363SOL    HW2 7989   1.624   4.028   0.341
 2364SOL     OW 7990   3.404   1.243   2.841
 2364SOL    HW1 7991   3.380   1.332   2.880
 2364SOL    HW2 7992   3.462   1.257   2.761
 2365SOL     OW 7993   4.677   4.212   3.350
 2365SOL    HW1 7994   4.716   4.155   3.277
 2365SOL    HW2 7995   4.577   4.217   3.338
 2366SOL     OW 7996   3.123   4.846   4.966
 2366SOL    HW1 7997   3.101   4.879   4.874
 2366SOL    HW2 7998   3.059   4.774   4.993
 2367SOL     OW 7999   5.692   5.146   6.126
 2367SOL    HW1 8000   5.758   5.214   6.093
 2367SOL    HW2 8001   5.730   5.054   6.114
 2368SOL     OW 8002   5.782   6.912   4.696
 2368SOL    HW1 8003   5.771   7.011   4.707
 2368SOL    HW2 8004   5.880   6.890   4.697
 2369SOL     OW 8005   3.205   2.152   4.372
 2369SOL    HW1 8006   3.203   2.121   4.467
 2369SOL    HW2 8007   3.233   2.248   4.369
 2370SOL     OW 8008   6.074   2.662   1.851
 2370SOL    HW1 8009   6.038   2.749   1.817
 2370SOL    HW2 8010   6.139   2.625   1.784
 2371SOL     OW 8011   0.596   6.142   2.786
 2371SOL    HW1 8012   0.584   6.109   2.880
 2371SOL    HW2 8013   0.552   6.231   2.777
 2372SOL     OW 8014   5.927   6.492   6.908
 2372SOL    HW1 8015   5.951   6.398   6.932
 2372SOL    HW2 8016   5.832   6.495   6.878
 2373SOL     OW 8017   6.472   5.041   6.228
 2373SOL    HW1 8018   6.398   5.059   6.163
 2373SOL    HW2 8019   6.487   5.123   6.284
 2374SOL     OW 8020   6.504   6.089   2.716
 2374SOL    HW1 8021   6.475   6.164   2.658
 2374SOL    HW2 8022   6.508   6.120   2.811
 2375SOL     OW 8023   1.563   0.495   3.926
 2375SOL    HW1 8024   1.517   0.479   3.839
 2375SOL    HW2 8025   1.658   0.465   3.919
 2376SOL     OW 8026   5.373   1.908   3.271
 2376SOL    HW1 8027   5.315   1.987   3.289
 2376SOL    HW2 8028   5.326   1.824   3.300
 2377SOL     OW 8029   4.376   4.168   5.858
 2377SOL    HW1 8030   4.377   4.263   5.828
 2377SOL    HW2 8031   4.282   4.134   5.857
 2378SOL     OW 8032   6.723   0.926   0.171
 2378SOL    HW1 8033   6.808   0.978   0.162
 2378SOL    HW2 8034   6.743   0.835   0.207
 2379SOL     OW 8035   6.472   5.221   2.143
 2379SOL    HW1 8036   6.533   5.296   2.121
 2379SOL    HW2 8037   6.461   5.162   2.062
 2380SOL     OW 8038   4.750   6.110   5.817
 2380SOL    HW1 8039   4.843   6.084   5.790
 2380SOL    HW2 8040   4.686   6.043   5.781
 2381SOL     OW 8041   2.215   4.816   4.422
 2381SOL    HW1 8042   2.202   4.847   4.327
 2381SOL    HW2 8043   2.283   4.875   4.466
 2382SOL     OW 8044   0.071   5.745   3.002
 2382SOL    HW1 8045   0.066   5.730   2.903
 2382SOL    HW2 8046   0.142   5.686   3.040
 2383SOL     OW 8047   5.053   4.720   6.039
 2383SOL    HW1 8048   5.090   4.806   6.002
 2383SOL    HW2 8049   4.975   4.691   5.983
 2384SOL     OW 8050   0.519   2.016   2.793
 2384SOL    HW1 8051   0.538   1.918   2.809
 2384SOL    HW2 8052   0.443   2.025   2.729
 2385SOL     OW 8053   0.651   1.175   0.515
 2385SOL    HW1 8054   0.702   1.232   0.579
 2385SOL    HW2 8055   0.625   1.230   0.435
 2386SOL     OW 8056   6.154   5.809   4.131
 2386SOL    HW1 8057   6.196   5.883   4.078
 2386SOL    HW2 8058   6.068   5.840   4.170
 2387SOL     OW 8059   1.271   1.457   3.364
 2387SOL    HW1 8060   1.282   1.418   3.455
 2387SOL    HW2 8061   1.320   1.545   3.360
 2388SOL     OW 8062   6.746   2.613   5.408
 2388SOL    HW1 8063   6.768   2.614   5.506
 2388SOL    HW2 8064   6.828   2.588   5.355
 2389SOL     OW 8065   4.393   4.683   3.899
 2389SOL    HW1 8066   4.454   4.666   3.977
 2389SOL    HW2 8067   4.406   4.778   3.868
 2390SOL     OW 8068   4.540   3.277   5.794
 2390SOL    HW1 8069   4.468   3.285   5.725
 2390SOL    HW2 8070   4.534   3.188   5.839
 2391SOL     OW 8071   3.160   4.289   5.775
 2391SOL    HW1 8072   3.063   4.305   5.796
 2391SOL    HW2 8073   3.170   4.202   5.727
 2392SOL     OW 8074   4.689   4.594   5.458
 2392SOL    HW1 8075   4.737   4.510   5.482
 2392SOL    HW2 8076   4.613   4.608   5.520
 2393SOL     OW 8077   4.051   4.392   1.186
 2393SOL    HW1 8078   4.068   4.295   1.203
 2393SOL    HW2 8079   3.962   4.403   1.140
 2394SOL     OW 8080   0.619   2.752   3.911
 2394SOL    HW1 8081   0.584   2.788   3.825
 2394SOL    HW2 8082   0.544   2.747   3.978
 2395SOL     OW 8083   0.849   2.613   4.596
 2395SOL    HW1 8084   0.834   2.542   4.528
 2395SOL    HW2 8085   0.867   2.700   4.549
 2396SOL     OW 8086   0.635   0.553   5.242
 2396SOL    HW1 8087   0.574   0.620   5.201
 2396SOL    HW2 8088   0.725   0.595   5.256
 2397SOL     OW 8089   6.936   3.902   5.187
 2397SOL    HW1 8090   6.877   3.982   5.180
 2397SOL    HW2 8091   6.887   3.821   5.154
 2398SOL     OW 8092   3.719   6.568   4.444
 2398SOL    HW1 8093   3.661   6.554   4.363
 2398SOL    HW2 8094   3.664   6.555   4.526
 2399SOL     OW 8095   3.516   2.059   3.784
 2399SOL    HW1 8096   3.482   2.097   3.870
 2399SOL    HW2 8097   3.457   1.982   3.757
 2400SOL     OW 8098   1.617   3.901   0.795
 2400SOL    HW1 8099   1.698   3.960   0.804
 2400SOL    HW2 8100   1.638   3.810   0.831
 2401SOL     OW 8101   1.836   0.040   6.112
 2401SOL    HW1 8102   1.846   0.120   6.051
 2401SOL    HW2 8103   1.921   0.027   6.163
 2402SOL     OW 8104   1.496   4.342   1.875
 2402SOL    HW1 8105   1.483   4.342   1.974
 2402SOL    HW2 8106   1.583   4.298   1.853
 2403SOL     OW 8107   3.979   3.089   3.517
 2403SOL    HW1 8108   3.977   3.147   3.598
 2403SOL    HW2 8109   3.924   3.007   3.533
 2404SOL     OW 8110   6.180   1.197   0.950
 2404SOL    HW1 8111   6.093   1.241   0.972
 2404SOL    HW2 8112   6.167   1.098   0.946
 2405SOL     OW 8113   2.187   3.089   0.429
 2405SOL    HW1 8114   2.139   3.002   0.418
 2405SOL    HW2 8115   2.130   3.163   0.394
 2406SOL     OW 8116   2.613   6.220   4.488
 2406SOL    HW1 8117   2.684   6.290   4.483
 2406SOL    HW2 8118   2.599   6.194   4.583
 2407SOL     OW 8119   2.585   0.974   3.413
 2407SOL    HW1 8120   2.499   1.013   3.447
 2407SOL    HW2 8121   2.565   0.903   3.346
 2408SOL     OW 8122   3.732   6.263   5.395
 2408SOL    HW1 8123   3.796   6.210   5.450
 2408SOL    HW2 8124   3.640   6.253   5.432
 2409SOL     OW 8125   1.338   3.490   0.391
 2409SOL    HW1 8126   1.277   3.569   0.388
 2409SOL    HW2 8127   1.418   3.506   0.333
 2410SOL     OW 8128   0.811   3.249   4.745
 2410SOL    HW1 8129   0.875   3.279   4.674
 2410SOL    HW2 8130   0.862   3.210   4.821
 2411SOL     OW 8131   3.103   2.478   0.114
 2411SOL    HW1 8132   3.078   2.420   0.192
 2411SOL    HW2 8133   3.199   2.465   0.092
 2412SOL     OW 8134   3.579   2.082   6.647
 2412SOL    HW1 8135   3.568   2.020   6.725
 2412SOL    HW2 8136   3.643   2.155   6.672
 2413SOL     OW 8137   0.280   3.621   0.506
 2413SOL    HW1 8138   0.316   3.561   0.434
 2413SOL    HW2 8139   0.326   3.600   0.593
 2414SOL     OW 8140   5.869   2.242   5.052
 2414SOL    HW1 8141   5.968   2.227   5.049
 2414SOL    HW2 8142   5.849   2.326   5.101
 2415SOL     OW 8143   2.559   5.811   6.836
 2415SOL    HW1 8144   2.591   5.797   6.743
 2415SOL    HW2 8145   2.634   5.847   6.892
 2416SOL     OW 8146   0.280   3.148   2.348
 2416SOL    HW1 8147   0.302   3.230   2.401
 2416SOL    HW2 8148   0.303   3.066   2.401
 2417SOL     OW 8149   2.953   2.666   1.717
 2417SOL    HW1 8150   3.023   2.732   1.742
 2417SOL    HW2 8151   2.956   2.588   1.780
 2418SOL     OW 8152   4.669   4.108   6.764
 2418SOL    HW1 8153   4.739   4.038   6.746
 2418SOL    HW2 8154   4.712   4.185   6.812
 2419SOL     OW 8155   3.174   6.809   3.191
 2419SOL    HW1 8156   3.113   6.821   3.112
 2419SOL    HW2 8157   3.177   6.712   3.215
 2420SOL     OW 8158   1.395   4.034   2.681
 2420SOL    HW1 8159   1.385   4.094   2.602
 2420SOL    HW2 8160   1.490   4.038   2.714
 2421SOL     OW 8161   2.852   6.767   3.664
 2421SOL    HW1 8162   2.759   6.778   3.702
 2421SOL    HW2 8163   2.906   6.848   3.686
 2422SOL     OW 8164   4.366   5.429   1.049
 2422SOL    HW1 8165   4.347   5.521   1.082
 2422SOL    HW2 8166   4.425   5.381   1.113
 2423SOL     OW 8167   2.527   5.460   2.871
 2423SOL    HW1 8168   2.598   5.403   2.914
 2423SOL    HW2 8169   2.570   5.524   2.807
 2424SOL     OW 8170   5.504   6.955   6.259
 2424SOL    HW1 8171   5.545   6.982   6.172
 2424SOL    HW2 8172   5.404   6.954   6.251
 2425SOL     OW 8173   5.315   5.645   5.047
 2425SOL    HW1 8174   5.329   5.589   5.129
 2425SOL    HW2 8175   5.351   5.737   5.063
 2426SOL     OW 8176   2.254   3.303   5.707
 2426SOL    HW1 8177   2.340   3.342   5.740
 2426SOL    HW2 8178   2.272   3.248   5.626
 2427SOL     OW 8179   5.397   0.465   6.968
 2427SOL    HW1 8180   5.379   0.558   6.998
 2427SOL    HW2 8181   5.343   0.446   6.886
 2428SOL     OW 8182   0.801   0.774   2.898
 2428SOL    HW1 8183   0.863   0.799   2.971
 2428SOL    HW2 8184   0.715   0.824   2.908
 2429SOL     OW 8185   5.518   4.894   1.434
 2429SOL    HW1 8186   5.572   4.969   1.397
 2429SOL    HW2 8187   5.436   4.881   1.378
 2430SOL     OW 8188   6.013   0.807   6.567
 2430SOL    HW1 8189   6.012   0.897   6.612
 2430SOL    HW2 8190   6.015   0.735   6.637
 2431SOL     OW 8191   0.377   2.826   1.980
 2431SOL    HW1 8192   0.341   2.919   1.977
 2431SOL    HW2 8193   0.466   2.822   1.934
 2432SOL     OW 8194   2.700   5.414   2.138
 2432SOL    HW1 8195   2.673   5.462   2.054
 2432SOL    HW2 8196   2.690   5.315   2.125
 2433SOL     OW 8197   6.587   3.981   5.615
 2433SOL    HW1 8198   6.613   3.905   5.673
 2433SOL    HW2 8199   6.634   4.064   5.645
 2434SOL     OW 8200   4.456   0.676   2.825
 2434SOL    HW1 8201   4.437   0.591   2.775
 2434SOL    HW2 8202   4.372   0.731   2.829
 2435SOL     OW 8203   6.372   6.689   6.928
 2435SOL    HW1 8204   6.431   6.633   6.870
 2435SOL    HW2 8205   6.287   6.640   6.947
 2436SOL     OW 8206   1.623   2.202   1.599
 2436SOL    HW1 8207   1.673   2.177   1.516
 2436SOL    HW2 8208   1.647   2.137   1.672
 2437SOL     OW 8209   0.200   4.227   2.811
 2437SOL    HW1 8210   0.239   4.316   2.831
 2437SOL    HW2 8211   0.179   4.180   2.897
 2438SOL     OW 8212   3.379   1.197   4.652
 2438SOL    HW1 8213   3.452   1.166   4.591
 2438SOL    HW2 8214   3.418   1.245   4.730
 2439SOL     OW 8215   2.098   6.387   1.162
 2439SOL    HW1 8216   2.033   6.342   1.224
 2439SOL    HW2 8217   2.055   6.401   1.073
 2440SOL     OW 8218   5.595   1.325   5.525
 2440SOL    HW1 8219   5.688   1.361   5.517
 2440SOL    HW2 8220   5.533   1.399   5.551
 2441SOL     OW 8221   6.108   0.102   0.475
 2441SOL    HW1 8222   6.030   0.153   0.512
 2441SOL    HW2 8223   6.086   0.072   0.382
 2442SOL     OW 8224   5.116   3.238   2.015
 2442SOL    HW1 8225   5.044   3.193   1.962
 2442SOL    HW2 8226   5.204   3.225   1.969
 2443SOL     OW 8227   1.067   3.038   2.075
 2443SOL    HW1 8228   1.000   2.977   2.032
 2443SOL    HW2 8229   1.033   3.132   2.073
 2444SOL     OW 8230   3.812   5.378   2.092
 2444SOL    HW1 8231   3.799   5.367   2.190
 2444SOL    HW2 8232   3.896   5.430   2.076
 2445SOL     OW 8233   0.538   2.658   1.479
 2445SOL    HW1 8234   0.637   2.675   1.481
 2445SOL    HW2 8235   0.498   2.681   1.568
 2446SOL     OW 8236   1.356   5.183   1.306
 2446SOL    HW1 8237   1.367   5.282   1.293
 2446SOL    HW2 8238   1.393   5.157   1.395
 2447SOL     OW 8239   2.218   6.731   0.119
 2447SOL    HW1 8240   2.125   6.708   0.092
 2447SOL    HW2 8241   2.262   6.783   0.046
 2448SOL     OW 8242   6.572   1.648   4.583
 2448SOL    HW1 8243   6.571   1.720   4.513
 2448SOL    HW2 8244   6.621   1.682   4.664
 2449SOL     OW 8245   1.722   4.196   1.873
 2449SOL    HW1 8246   1.808   4.240   1.900
 2449SOL    HW2 8247   1.742   4.108   1.829
 2450SOL     OW 8248   1.449   0.154   5.815
 2450SOL    HW1 8249   1.533   0.106   5.790
 2450SOL    HW2 8250   1.373   0.088   5.815
 2451SOL     OW 8251   0.817   6.682   4.522
 2451SOL    HW1 8252   0.779   6.718   4.436
 2451SOL    HW2 8253   0.743   6.649   4.580
 2452SOL     OW 8254   2.043   2.165   3.472
 2452SOL    HW1 8255   1.953   2.140   3.505
 2452SOL    HW2 8256   2.092   2.084   3.442
 2453SOL     OW 8257   0.259   0.914   6.664
 2453SOL    HW1 8258   0.358   0.924   6.673
 2453SOL    HW2 8259   0.238   0.868   6.578
 2454SOL     OW 8260   3.393   5.738   1.215
 2454SOL    HW1 8261   3.346   5.665   1.264
 2454SOL    HW2 8262   3.366   5.735   1.118
 2455SOL     OW 8263   4.173   2.745   0.669
 2455SOL    HW1 8264   4.133   2.816   0.611
 2455SOL    HW2 8265   4.106   2.717   0.738
 2456SOL     OW 8266   0.559   4.243   6.143
 2456SOL    HW1 8267   0.489   4.307   6.173
 2456SOL    HW2 8268   0.649   4.287   6.147
 2457SOL     OW 8269   4.692   2.230   5.103
 2457SOL    HW1 8270   4.749   2.265   5.029
 2457SOL    HW2 8271   4.748   2.211   5.183
 2458SOL     OW 8272   1.094   0.688   1.959
 2458SOL    HW1 8273   1.008   0.718   2.000
 2458SOL    HW2 8274   1.170   0.741   1.997
 2459SOL     OW 8275   2.515   6.994   0.443
 2459SOL    HW1 8276   2.606   0.013   0.432
 2459SOL    HW2 8277   2.457   7.020   0.366
 2460SOL     OW 8278   1.726   0.921   4.862
 2460SOL    HW1 8279   1.774   0.877   4.938
 2460SOL    HW2 8280   1.635   0.880   4.852
 2461SOL     OW 8281   4.511   7.005   3.493
 2461SOL    HW1 8282   4.584   0.042   3.459
 2461SOL    HW2 8283   4.423   0.028   3.483
 2462SOL     OW 8284   0.129   3.877   0.507
 2462SOL    HW1 8285   0.114   3.922   0.595
 2462SOL    HW2 8286   0.206   3.813   0.514
 2463SOL     OW 8287   6.902   0.697   0.128
 2463SOL    HW1 8288   6.976   0.659   0.184
 2463SOL    HW2 8289   6.824   0.634   0.129
 2464SOL     OW 8290   0.606   2.647   3.077
 2464SOL    HW1 8291   0.508   2.661   3.062
 2464SOL    HW2 8292   0.646   2.729   3.118
 2465SOL     OW 8293   6.899   5.947   5.478
 2465SOL    HW1 8294   6.982   5.906   5.441
 2465SOL    HW2 8295   6.830   5.953   5.406
 2466SOL     OW 8296   0.685   2.448   2.125
 2466SOL    HW1 8297   0.641   2.449   2.035
 2466SOL    HW2 8298   0.628   2.497   2.190
 2467SOL     OW 8299   6.039   2.023   5.289
 2467SOL    HW1 8300   5.974   1.949   5.274
 2467SOL    HW2 8301   6.109   2.022   5.217
 2468SOL     OW 8302   3.105   6.885   5.391
 2468SOL    HW1 8303   3.197   6.882   5.353
 2468SOL    HW2 8304   3.079   6.979   5.411
 2469SOL     OW 8305   3.506   2.663   6.033
 2469SOL    HW1 8306   3.567   2.736   6.003
 2469SOL    HW2 8307   3.437   2.646   5.962
 2470SOL     OW 8308   3.326   4.606   6.101
 2470SOL    HW1 8309   3.237   4.579   6.065
 2470SOL    HW2 8310   3.346   4.700   6.075
 2471SOL     OW 8311   3.553   5.692   1.891
 2471SOL    HW1 8312   3.479   5.702   1.957
 2471SOL    HW2 8313   3.636   5.659   1.937
 2472SOL     OW 8314   4.459   1.928   4.422
 2472SOL    HW1 8315   4.406   1.886   4.348
 2472SOL    HW2 8316   4.546   1.960   4.387
 2473SOL     OW 8317   0.510   4.377   5.018
 2473SOL    HW1 8318   0.575   4.377   4.942
 2473SOL    HW2 8319   0.506   4.468   5.060
 2474SOL     OW 8320   1.553   5.844   1.342
 2474SOL    HW1 8321   1.545   5.902   1.424
 2474SOL    HW2 8322   1.513   5.754   1.361
 2475SOL     OW 8323   5.072   0.625   0.951
 2475SOL    HW1 8324   5.065   0.725   0.948
 2475SOL    HW2 8325   4.992   0.586   0.906
 2476SOL     OW 8326   5.518   0.423   6.457
 2476SOL    HW1 8327   5.612   0.414   6.426
 2476SOL    HW2 8328   5.462   0.350   6.417
 2477SOL     OW 8329   3.837   0.052   3.359
 2477SOL    HW1 8330   3.798   0.120   3.297
 2477SOL    HW2 8331   3.890   0.099   3.430
 2478SOL     OW 8332   4.569   0.098   3.803
 2478SOL    HW1 8333   4.551   0.176   3.743
 2478SOL    HW2 8334   4.644   0.043   3.765
 2479SOL     OW 8335   0.351   3.523   0.251
 2479SOL    HW1 8336   0.347   3.612   0.205
 2479SOL    HW2 8337   0.313   3.453   0.191
 2480SOL     OW 8338   3.285   2.658   1.622
 2480SOL    HW1 8339   3.289   2.558   1.618
 2480SOL    HW2 8340   3.191   2.688   1.610
 2481SOL     OW 8341   3.223   6.985   1.061
 2481SOL    HW1 8342   3.180   7.008   1.148
 2481SOL    HW2 8343   3.157   6.995   0.987
 2482SOL     OW 8344   5.544   3.285   6.849
 2482SOL    HW1 8345   5.570   3.281   6.753
 2482SOL    HW2 8346   5.445   3.296   6.856
 2483SOL     OW 8347   1.098   2.317   0.897
 2483SOL    HW1 8348   1.083   2.259   0.817
 2483SOL    HW2 8349   1.142   2.402   0.869
 2484SOL     OW 8350   5.622   1.339   1.825
 2484SOL    HW1 8351   5.666   1.278   1.890
 2484SOL    HW2 8352   5.625   1.433   1.861
 2485SOL     OW 8353   5.873   2.467   6.146
 2485SOL    HW1 8354   5.855   2.564   6.164
 2485SOL    HW2 8355   5.786   2.419   6.133
 2486SOL     OW 8356   0.632   4.048   5.164
 2486SOL    HW1 8357   0.666   4.062   5.071
 2486SOL    HW2 8358   0.642   4.132   5.217
 2487SOL     OW 8359   4.607   5.908   0.377
 2487SOL    HW1 8360   4.610   5.931   0.474
 2487SOL    HW2 8361   4.699   5.885   0.345
 2488SOL     OW 8362   0.041   4.013   1.238
 2488SOL    HW1 8363   0.022   4.083   1.307
 2488SOL    HW2 8364   0.121   3.960   1.264
 2489SOL     OW 8365   0.201   6.715   4.440
 2489SOL    HW1 8366   0.122   6.656   4.459
 2489SOL    HW2 8367   0.268   6.664   4.386
 2490SOL     OW 8368   3.171   6.458   2.227
 2490SOL    HW1 8369   3.197   6.440   2.132
 2490SOL    HW2 8370   3.077   6.490   2.231
 2491SOL     OW 8371   4.106   4.619   1.577
 2491SOL    HW1 8372   4.127   4.668   1.492
 2491SOL    HW2 8373   4.177   4.551   1.594
 2492SOL     OW 8374   6.606   4.209   0.975
 2492SOL    HW1 8375   6.606   4.306   1.001
 2492SOL    HW2 8376   6.700   4.180   0.956
 2493SOL     OW 8377   6.852   6.470   2.046
 2493SOL    HW1 8378   6.833   6.538   2.117
 2493SOL    HW2 8379   6.863   6.380   2.089
 2494SOL     OW 8380   5.794   3.343   1.749
 2494SOL    HW1 8381   5.697   3.321   1.738
 2494SOL    HW2 8382   5.828   3.303   1.834
 2495SOL     OW 8383   6.411   4.780   3.799
 2495SOL    HW1 8384   6.499   4.815   3.832
 2495SOL    HW2 8385   6.410   4.782   3.699
 2496SOL     OW 8386   6.190   5.145   6.489
 2496SOL    HW1 8387   6.106   5.141   6.543
 2496SOL    HW2 8388   6.229   5.054   6.481
 2497SOL     OW 8389   0.408   0.213   1.868
 2497SOL    HW1 8390   0.492   0.159   1.865
 2497SOL    HW2 8391   0.330   0.153   1.883
 2498SOL     OW 8392   1.860   3.038   6.008
 2498SOL    HW1 8393   1.875   3.108   6.077
 2498SOL    HW2 8394   1.786   3.066   5.946
 2499SOL     OW 8395   6.715   3.372   1.217
 2499SOL    HW1 8396   6.798   3.405   1.262
 2499SOL    HW2 8397   6.639   3.433   1.237
 2500SOL     OW 8398   3.475   4.046   6.805
 2500SOL    HW1 8399   3.402   4.115   6.807
 2500SOL    HW2 8400   3.561   4.090   6.780
 2501SOL     OW 8401   6.340   5.387   0.675
 2501SOL    HW1 8402   6.339   5.302   0.622
 2501SOL    HW2 8403   6.259   5.392   0.733
 2502SOL     OW 8404   2.790   5.879   4.435
 2502SOL    HW1 8405   2.728   5.865   4.513
 2502SOL    HW2 8406   2.798   5.794   4.383
 2503SOL     OW 8407   2.539   6.804   5.358
 2503SOL    HW1 8408   2.608   6.805   5.286
 2503SOL    HW2 8409   2.554   6.880   5.421
 2504SOL     OW 8410   3.145   5.456   2.631
 2504SOL    HW1 8411   3.130   5.528   2.564
 2504SOL    HW2 8412   3.061   5.402   2.642
 2505SOL     OW 8413   7.016   6.015   3.015
 2505SOL    HW1 8414   0.001   6.055   2.924
 2505SOL    HW2 8415   0.005   5.916   3.009
 2506SOL     OW 8416   5.551   5.119   5.785
 2506SOL    HW1 8417   5.535   5.138   5.688
 2506SOL    HW2 8418   5.504   5.034   5.810
 2507SOL     OW 8419   0.181   3.240   0.621
 2507SOL    HW1 8420   0.205   3.168   0.685
 2507SOL    HW2 8421   0.102   3.292   0.655
 2508SOL     OW 8422   3.825   1.755   4.256
 2508SOL    HW1 8423   3.859   1.662   4.246
 2508SOL    HW2 8424   3.755   1.773   4.187
 2509SOL     OW 8425   6.842   3.925   6.084
 2509SOL    HW1 8426   6.908   3.910   6.010
 2509SOL    HW2 8427   6.827   3.839   6.133
 2510SOL     OW 8428   3.117   4.028   1.849
 2510SOL    HW1 8429   3.077   4.112   1.812
 2510SOL    HW2 8430   3.067   3.949   1.814
 2511SOL     OW 8431   2.704   1.182   4.942
 2511SOL    HW1 8432   2.618   1.187   4.993
 2511SOL    HW2 8433   2.770   1.244   4.983
 2512SOL     OW 8434   4.078   4.839   4.522
 2512SOL    HW1 8435   4.061   4.825   4.620
 2512SOL    HW2 8436   4.118   4.929   4.508
 2513SOL     OW 8437   2.500   6.233   6.080
 2513SOL    HW1 8438   2.567   6.254   6.151
 2513SOL    HW2 8439   2.430   6.305   6.078
 2514SOL     OW 8440   1.091   2.978   3.338
 2514SOL    HW1 8441   1.163   2.915   3.308
 2514SOL    HW2 8442   1.107   3.068   3.298
 2515SOL     OW 8443   2.088   1.349   1.246
 2515SOL    HW1 8444   2.186   1.350   1.267
 2515SOL    HW2 8445   2.071   1.287   1.168
 2516SOL     OW 8446   5.653   1.571   3.492
 2516SOL    HW1 8447   5.741   1.547   3.452
 2516SOL    HW2 8448   5.602   1.488   3.515
 2517SOL     OW 8449   0.817   0.981   4.594
 2517SOL    HW1 8450   0.768   1.053   4.544
 2517SOL    HW2 8451   0.781   0.892   4.569
 2518SOL     OW 8452   2.777   4.566   1.100
 2518SOL    HW1 8453   2.850   4.542   1.037
 2518SOL    HW2 8454   2.727   4.484   1.127
 2519SOL     OW 8455   2.189   1.330   0.837
 2519SOL    HW1 8456   2.182   1.390   0.758
 2519SOL    HW2 8457   2.285   1.303   0.850
 2520SOL     OW 8458   3.480   2.704   1.417
 2520SOL    HW1 8459   3.451   2.666   1.329
 2520SOL    HW2 8460   3.412   2.681   1.487
 2521SOL     OW 8461   4.376   1.650   5.322
 2521SOL    HW1 8462   4.283   1.659   5.359
 2521SOL    HW2 8463   4.423   1.574   5.368
 2522SOL     OW 8464   0.432   1.361   5.499
 2522SOL    HW1 8465   0.349   1.320   5.536
 2522SOL    HW2 8466   0.409   1.415   5.418
 2523SOL     OW 8467   2.157   4.395   0.341
 2523SOL    HW1 8468   2.193   4.467   0.282
 2523SOL    HW2 8469   2.143   4.311   0.288
 2524SOL     OW 8470   1.416   6.553   4.107
 2524SOL    HW1 8471   1.401   6.532   4.010
 2524SOL    HW2 8472   1.482   6.488   4.146
 2525SOL     OW 8473   0.702   2.654   4.261
 2525SOL    HW1 8474   0.783   2.710   4.243
 2525SOL    HW2 8475   0.726   2.581   4.325
 2526SOL     OW 8476   0.716   5.699   0.010
 2526SOL    HW1 8477   0.725   5.638   6.953
 2526SOL    HW2 8478   0.805   5.711   0.053
 2527SOL     OW 8479   5.134   5.467   6.439
 2527SOL    HW1 8480   5.176   5.452   6.349
 2527SOL    HW2 8481   5.136   5.565   6.460
 2528SOL     OW 8482   4.798   5.157   6.304
 2528SOL    HW1 8483   4.776   5.248   6.339
 2528SOL    HW2 8484   4.800   5.158   6.204
 2529SOL     OW 8485   0.467   6.857   6.087
 2529SOL    HW1 8486   0.487   6.902   6.174
 2529SOL    HW2 8487   0.500   6.913   6.012
 2530SOL     OW 8488   2.785   5.660   5.482
 2530SOL    HW1 8489   2.787   5.560   5.495
 2530SOL    HW2 8490   2.693   5.688   5.456
 2531SOL     OW 8491   6.587   5.469   6.068
 2531SOL    HW1 8492   6.537   5.531   6.008
 2531SOL    HW2 8493   6.681   5.500   6.079
 2532SOL     OW 8494   0.556   6.418   1.133
 2532SOL    HW1 8495   0.573   6.443   1.038
 2532SOL    HW2 8496   0.477   6.469   1.168
 2533SOL     OW 8497   5.282   0.552   3.008
 2533SOL    HW1 8498   5.325   0.595   3.087
 2533SOL    HW2 8499   5.334   0.470   2.983
 2534SOL     OW 8500   4.592   1.830   1.934
 2534SOL    HW1 8501   4.552   1.911   1.978
 2534SOL    HW2 8502   4.621   1.852   1.842
 2535SOL     OW 8503   3.476   2.796   6.261
 2535SOL    HW1 8504   3.556   2.786   6.321
 2535SOL    HW2 8505   3.498   2.757   6.171
 2536SOL     OW 8506   1.486   0.941   6.578
 2536SOL    HW1 8507   1.514   1.008   6.509
 2536SOL    HW2 8508   1.390   0.956   6.602
 2537SOL     OW 8509   4.294   1.129   0.070
 2537SOL    HW1 8510   4.211   1.078   0.095
 2537SOL    HW2 8511   4.368   1.065   0.050
 2538SOL     OW 8512   6.859   3.739   3.991
 2538SOL    HW1 8513   6.904   3.653   3.971
 2538SOL    HW2 8514   6.868   3.801   3.913
 2539SOL     OW 8515   5.879   1.636   4.254
 2539SOL    HW1 8516   5.906   1.613   4.348
 2539SOL    HW2 8517   5.842   1.554   4.210
 2540SOL     OW 8518   3.761   1.622   2.985
 2540SOL    HW1 8519   3.823   1.546   3.008
 2540SOL    HW2 8520   3.806   1.683   2.919
 2541SOL     OW 8521   2.862   0.062   5.170
 2541SOL    HW1 8522   2.841   0.151   5.212
 2541SOL    HW2 8523   2.781   0.004   5.174
 2542SOL     OW 8524   1.571   4.624   6.790
 2542SOL    HW1 8525   1.504   4.693   6.762
 2542SOL    HW2 8526   1.603   4.644   6.883
 2543SOL     OW 8527   1.056   2.110   4.330
 2543SOL    HW1 8528   1.056   2.142   4.425
 2543SOL    HW2 8529   1.103   2.177   4.272
 2544SOL     OW 8530   0.871   5.014   0.531
 2544SOL    HW1 8531   0.826   4.927   0.510
 2544SOL    HW2 8532   0.967   4.998   0.553
 2545SOL     OW 8533   1.968   6.420   2.809
 2545SOL    HW1 8534   1.886   6.402   2.864
 2545SOL    HW2 8535   2.023   6.491   2.853
 2546SOL     OW 8536   6.173   1.281   0.671
 2546SOL    HW1 8537   6.178   1.229   0.756
 2546SOL    HW2 8538   6.090   1.337   0.671
 2547SOL     OW 8539   6.999   3.855   5.856
 2547SOL    HW1 8540   0.025   3.919   5.796
 2547SOL    HW2 8541   0.029   3.770   5.863
 2548SOL     OW 8542   0.231   6.742   4.085
 2548SOL    HW1 8543   0.273   6.701   4.166
 2548SOL    HW2 8544   0.164   6.679   4.047
 2549SOL     OW 8545   0.806   0.376   1.778
 2549SOL    HW1 8546   0.872   0.319   1.729
 2549SOL    HW2 8547   0.714   0.358   1.743
 2550SOL     OW 8548   5.864   6.297   0.461
 2550SOL    HW1 8549   5.893   6.330   0.551
 2550SOL    HW2 8550   5.809   6.214   0.473
 2551SOL     OW 8551   1.920   4.333   6.684
 2551SOL    HW1 8552   1.965   4.334   6.773
 2551SOL    HW2 8553   1.980   4.290   6.617
 2552SOL     OW 8554   3.239   5.009   3.761
 2552SOL    HW1 8555   3.175   5.085   3.758
 2552SOL    HW2 8556   3.220   4.946   3.685
 2553SOL     OW 8557   4.164   3.616   5.846
 2553SOL    HW1 8558   4.167   3.564   5.761
 2553SOL    HW2 8559   4.207   3.705   5.832
 2554SOL     OW 8560   1.434   1.627   0.773
 2554SOL    HW1 8561   1.520   1.581   0.753
 2554SOL    HW2 8562   1.420   1.701   0.707
 2555SOL     OW 8563   5.139   2.473   5.154
 2555SOL    HW1 8564   5.103   2.537   5.222
 2555SOL    HW2 8565   5.107   2.381   5.176
 2556SOL     OW 8566   3.682   5.911   1.086
 2556SOL    HW1 8567   3.734   5.882   1.167
 2556SOL    HW2 8568   3.679   5.836   1.020
 2557SOL     OW 8569   2.034   4.241   6.458
 2557SOL    HW1 8570   2.094   4.197   6.391
 2557SOL    HW2 8571   1.958   4.285   6.411
 2558SOL     OW 8572   4.676   1.138   5.707
 2558SOL    HW1 8573   4.722   1.159   5.621
 2558SOL    HW2 8574   4.615   1.214   5.732
 2559SOL     OW 8575   0.106   5.125   5.602
 2559SOL    HW1 8576   0.095   5.060   5.527
 2559SOL    HW2 8577   0.049   5.206   5.584
 2560SOL     OW 8578   6.052   1.787   5.887
 2560SOL    HW1 8579   6.106   1.754   5.810
 2560SOL    HW2 8580   6.082   1.879   5.912
 2561SOL     OW 8581   2.997   5.372   4.558
 2561SOL    HW1 8582   2.946   5.346   4.640
 2561SOL    HW2 8583   3.061   5.446   4.582
 2562SOL     OW 8584   1.895   3.577   0.145
 2562SOL    HW1 8585   1.875   3.674   0.130
 2562SOL    HW2 8586   1.855   3.548   0.232
 2563SOL     OW 8587   2.346   1.389   6.949
 2563SOL    HW1 8588   2.424   1.328   6.966
 2563SOL    HW2 8589   2.280   1.343   6.891
 2564SOL     OW 8590   2.327   5.328   1.597
 2564SOL    HW1 8591   2.316   5.423   1.623
 2564SOL    HW2 8592   2.344   5.322   1.499
 2565SOL     OW 8593   1.275   0.618   1.270
 2565SOL    HW1 8594   1.282   0.530   1.317
 2565SOL    HW2 8595   1.313   0.690   1.328
 2566SOL     OW 8596   2.150   6.456   6.951
 2566SOL    HW1 8597   2.087   6.508   6.893
 2566SOL    HW2 8598   2.232   6.511   6.969
 2567SOL     OW 8599   1.845   6.740   0.665
 2567SOL    HW1 8600   1.763   6.707   0.618
 2567SOL    HW2 8601   1.818   6.785   0.750
 2568SOL     OW 8602   4.538   2.107   0.285
 2568SOL    HW1 8603   4.484   2.172   0.339
 2568SOL    HW2 8604   4.477   2.057   0.224
 2569SOL     OW 8605   3.608   0.530   4.164
 2569SOL    HW1 8606   3.536   0.510   4.098
 2569SOL    HW2 8607   3.581   0.498   4.254
 2570SOL     OW 8608   5.794   1.937   6.047
 2570SOL    HW1 8609   5.854   1.878   5.993
 2570SOL    HW2 8610   5.735   1.989   5.985
 2571SOL     OW 8611   1.348   4.827   3.696
 2571SOL    HW1 8612   1.354   4.732   3.725
 2571SOL    HW2 8613   1.253   4.858   3.702
 2572SOL     OW 8614   3.275   5.066   3.088
 2572SOL    HW1 8615   3.212   5.134   3.127
 2572SOL    HW2 8616   3.356   5.058   3.146
 2573SOL     OW 8617   0.142   0.726   1.563
 2573SOL    HW1 8618   0.127   0.810   1.615
 2573SOL    HW2 8619   0.075   0.719   1.489
 2574SOL     OW 8620   5.771   3.463   0.601
 2574SOL    HW1 8621   5.806   3.524   0.672
 2574SOL    HW2 8622   5.805   3.493   0.512
 2575SOL     OW 8623   6.858   5.743   6.887
 2575SOL    HW1 8624   6.785   5.744   6.819
 2575SOL    HW2 8625   6.916   5.824   6.875
 2576SOL     OW 8626   5.363   5.966   3.761
 2576SOL    HW1 8627   5.308   5.884   3.777
 2576SOL    HW2 8628   5.310   6.047   3.784
 2577SOL     OW 8629   2.915   4.924   2.351
 2577SOL    HW1 8630   2.914   4.922   2.251
 2577SOL    HW2 8631   2.993   4.978   2.383
 2578SOL     OW 8632   3.770   1.676   3.895
 2578SOL    HW1 8633   3.863   1.656   3.864
 2578SOL    HW2 8634   3.705   1.630   3.835
 2579SOL     OW 8635   0.844   6.685   3.784
 2579SOL    HW1 8636   0.840   6.752   3.859
 2579SOL    HW2 8637   0.840   6.593   3.822
 2580SOL     OW 8638   2.702   3.081   6.921
 2580SOL    HW1 8639   2.649   3.068   6.837
 2580SOL    HW2 8640   2.651   3.045   6.999
 2581SOL     OW 8641   2.565   0.046   5.744
 2581SOL    HW1 8642   2.608   7.017   5.819
 2581SOL    HW2 8643   2.564   0.143   5.766
 2582SOL     OW 8644   6.945   3.487   1.289
 2582SOL    HW1 8645   6.992   3.569   1.323
 2582SOL    HW2 8646   7.008   3.432   1.235
 2583SOL     OW 8647   6.198   6.948   1.073
 2583SOL    HW1 8648   6.244   6.866   1.039
 2583SOL    HW2 8649   6.216   0.003   1.011
 2584SOL     OW 8650   4.508   4.758   5.295
 2584SOL    HW1 8651   4.554   4.705   5.366
 2584SOL    HW2 8652   4.543   4.852   5.294
 2585SOL     OW 8653   3.340   5.596   6.753
 2585SOL    HW1 8654   3.302   5.670   6.699
 2585SOL    HW2 8655   3.322   5.612   6.850
 2586SOL     OW 8656   1.877   0.661   5.241
 2586SOL    HW1 8657   1.886   0.672   5.340
 2586SOL    HW2 8658   1.966   0.642   5.201
 2587SOL     OW 8659   0.214   1.754   2.870
 2587SOL    HW1 8660   0.175   1.667   2.901
 2587SOL    HW2 8661   0.267   1.796   2.944
 2588SOL     OW 8662   4.426   1.633   5.054
 2588SOL    HW1 8663   4.406   1.721   5.009
 2588SOL    HW2 8664   4.423   1.645   5.153
 2589SOL     OW 8665   1.336   6.841   6.944
 2589SOL    HW1 8666   1.430   6.818   6.966
 2589SOL    HW2 8667   1.283   6.758   6.930
 2590SOL     OW 8668   2.367   5.350   0.097
 2590SOL    HW1 8669   2.431   5.417   0.133
 2590SOL    HW2 8670   2.346   5.371   0.002
 2591SOL     OW 8671   5.630   5.374   4.601
 2591SOL    HW1 8672   5.572   5.309   4.650
 2591SOL    HW2 8673   5.722   5.337   4.594
 2592SOL     OW 8674   2.925   4.467   6.462
 2592SOL    HW1 8675   2.935   4.527   6.383
 2592SOL    HW2 8676   2.847   4.498   6.517
 2593SOL     OW 8677   2.709   4.749   0.834
 2593SOL    HW1 8678   2.623   4.763   0.883
 2593SOL    HW2 8679   2.781   4.724   0.899
 2594SOL     OW 8680   1.726   4.150   4.360
 2594SOL    HW1 8681   1.706   4.098   4.444
 2594SOL    HW2 8682   1.741   4.246   4.383
 2595SOL     OW 8683   1.621   0.574   3.563
 2595SOL    HW1 8684   1.700   0.532   3.608
 2595SOL    HW2 8685   1.648   0.604   3.471
 2596SOL     OW 8686   0.772   2.164   0.445
 2596SOL    HW1 8687   0.816   2.188   0.359
 2596SOL    HW2 8688   0.684   2.209   0.452
 2597SOL     OW 8689   0.433   6.440   5.921
 2597SOL    HW1 8690   0.433   6.441   6.021
 2597SOL    HW2 8691   0.415   6.347   5.888
 2598SOL     OW 8692   5.556   2.544   2.399
 2598SOL    HW1 8693   5.513   2.570   2.313
 2598SOL    HW2 8694   5.511   2.463   2.437
 2599SOL     OW 8695   2.730   0.165   2.404
 2599SOL    HW1 8696   2.811   0.170   2.346
 2599SOL    HW2 8697   2.648   0.171   2.347
 2600SOL     OW 8698   6.025   3.901   4.674
 2600SOL    HW1 8699   5.955   3.831   4.657
 2600SOL    HW2 8700   6.110   3.857   4.701
 2601SOL     OW 8701   1.114   1.872   2.747
 2601SOL    HW1 8702   1.095   1.888   2.651
 2601SOL    HW2 8703   1.059   1.935   2.803
 2602SOL     OW 8704   1.951   5.544   3.752
 2602SOL    HW1 8705   2.047   5.524   3.732
 2602SOL    HW2 8706   1.893   5.508   3.678
 2603SOL     OW 8707   2.948   0.728   2.808
 2603SOL    HW1 8708   2.933   0.798   2.738
 2603SOL    HW2 8709   3.045   0.724   2.831
 2604SOL     OW 8710   5.356   2.382   2.808
 2604SOL    HW1 8711   5.450   2.371   2.841
 2604SOL    HW2 8712   5.354   2.374   2.708
 2605SOL     OW 8713   1.092   3.790   2.085
 2605SOL    HW1 8714   1.148   3.837   2.016
 2605SOL    HW2 8715   1.100   3.838   2.173
 2606SOL     OW 8716   4.049   3.840   1.009
 2606SOL    HW1 8717   4.013   3.933   1.009
 2606SOL    HW2 8718   3.977   3.776   1.034
 2607SOL     OW 8719   2.631   1.933   0.898
 2607SOL    HW1 8720   2.664   2.017   0.941
 2607SOL    HW2 8721   2.547   1.953   0.847
 2608SOL     OW 8722   2.864   5.397   6.620
 2608SOL    HW1 8723   2.888   5.427   6.527
 2608SOL    HW2 8724   2.929   5.327   6.650
 2609SOL     OW 8725   0.504   0.491   1.587
 2609SOL    HW1 8726   0.410   0.475   1.618
 2609SOL    HW2 8727   0.521   0.589   1.583
 2610SOL     OW 8728   1.350   4.876   4.343
 2610SOL    HW1 8729   1.252   4.859   4.357
 2610SOL    HW2 8730   1.364   4.918   4.253
 2611SOL     OW 8731   5.101   6.690   6.418
 2611SOL    HW1 8732   5.125   6.623   6.348
 2611SOL    HW2 8733   5.001   6.692   6.430
 2612SOL     OW 8734   5.755   0.395   5.597
 2612SOL    HW1 8735   5.759   0.484   5.642
 2612SOL    HW2 8736   5.848   0.360   5.586
 2613SOL     OW 8737   1.092   5.845   6.746
 2613SOL    HW1 8738   1.058   5.939   6.754
 2613SOL    HW2 8739   1.072   5.810   6.655
 2614SOL     OW 8740   6.636   1.007   6.533
 2614SOL    HW1 8741   6.647   1.040   6.626
 2614SOL    HW2 8742   6.635   1.084   6.469
 2615SOL     OW 8743   1.180   3.144   0.217
 2615SOL    HW1 8744   1.164   3.081   0.292
 2615SOL    HW2 8745   1.192   3.093   0.132
 2616SOL     OW 8746   1.541   0.445   5.524
 2616SOL    HW1 8747   1.450   0.416   5.554
 2616SOL    HW2 8748   1.609   0.422   5.594
 2617SOL     OW 8749   5.364   0.137   0.968
 2617SOL    HW1 8750   5.359   0.174   1.061
 2617SOL    HW2 8751   5.458   0.113   0.946
 2618SOL     OW 8752   2.301   6.435   5.977
 2618SOL    HW1 8753   2.210   6.399   5.956
 2618SOL    HW2 8754   2.354   6.442   5.893
 2619SOL     OW 8755   4.806   1.063   2.349
 2619SOL    HW1 8756   4.839   1.156   2.361
 2619SOL    HW2 8757   4.876   0.998   2.379
 2620SOL     OW 8758   6.763   6.725   1.598
 2620SOL    HW1 8759   6.683   6.668   1.580
 2620SOL    HW2 8760   6.787   6.721   1.695
 2621SOL     OW 8761   1.761   5.991   2.350
 2621SOL    HW1 8762   1.844   5.942   2.322
 2621SOL    HW2 8763   1.692   5.925   2.382
 2622SOL     OW 8764   3.645   3.412   6.219
 2622SOL    HW1 8765   3.698   3.362   6.287
 2622SOL    HW2 8766   3.707   3.456   6.154
 2623SOL     OW 8767   1.042   6.654   4.045
 2623SOL    HW1 8768   1.114   6.720   4.066
 2623SOL    HW2 8769   1.045   6.579   4.112
 2624SOL     OW 8770   0.322   2.501   4.275
 2624SOL    HW1 8771   0.345   2.413   4.232
 2624SOL    HW2 8772   0.225   2.520   4.261
 2625SOL     OW 8773   1.678   5.094   5.447
 2625SOL    HW1 8774   1.678   5.029   5.371
 2625SOL    HW2 8775   1.599   5.076   5.506
 2626SOL     OW 8776   6.815   5.166   6.392
 2626SOL    HW1 8777   6.896   5.220   6.368
 2626SOL    HW2 8778   6.801   5.094   6.324
 2627SOL     OW 8779   1.641   6.983   5.658
 2627SOL    HW1 8780   1.628   6.984   5.559
 2627SOL    HW2 8781   1.664   6.890   5.688
 2628SOL     OW 8782   1.369   4.510   2.079
 2628SOL    HW1 8783   1.391   4.516   1.981
 2628SOL    HW2 8784   1.453   4.498   2.131
 2629SOL     OW 8785   3.032   3.864   3.561
 2629SOL    HW1 8786   3.004   3.846   3.655
 2629SOL    HW2 8787   2.972   3.815   3.498
 2630SOL     OW 8788   4.094   0.700   4.125
 2630SOL    HW1 8789   4.172   0.761   4.140
 2630SOL    HW2 8790   4.019   0.752   4.083
 2631SOL     OW 8791   5.999   0.651   0.330
 2631SOL    HW1 8792   6.054   0.583   0.378
 2631SOL    HW2 8793   5.956   0.712   0.397
 2632SOL     OW 8794   5.708   4.463   2.072
 2632SOL    HW1 8795   5.804   4.457   2.046
 2632SOL    HW2 8796   5.688   4.393   2.141
 2633SOL     OW 8797   0.278   2.673   6.203
 2633SOL    HW1 8798   0.202   2.609   6.195
 2633SOL    HW2 8799   0.259   2.740   6.274
 2634SOL     OW 8800   6.166   0.743   5.848
 2634SOL    HW1 8801   6.205   0.717   5.760
 2634SOL    HW2 8802   6.185   0.839   5.866
 2635SOL     OW 8803   5.467   4.889   3.473
 2635SOL    HW1 8804   5.465   4.954   3.397
 2635SOL    HW2 8805   5.549   4.904   3.528
 2636SOL     OW 8806   4.007   6.762   5.931
 2636SOL    HW1 8807   3.957   6.797   6.011
 2636SOL    HW2 8808   4.009   6.662   5.934
 2637SOL     OW 8809   1.393   1.875   3.105
 2637SOL    HW1 8810   1.358   1.952   3.050
 2637SOL    HW2 8811   1.369   1.789   3.060
 2638SOL     OW 8812   1.091   6.617   4.404
 2638SOL    HW1 8813   1.156   6.693   4.407
 2638SOL    HW2 8814   0.999   6.651   4.422
 2639SOL     OW 8815   4.083   4.740   5.246
 2639SOL    HW1 8816   4.007   4.793   5.206
 2639SOL    HW2 8817   4.049   4.686   5.323
 2640SOL     OW 8818   1.194   6.623   4.671
 2640SOL    HW1 8819   1.165   6.591   4.581
 2640SOL    HW2 8820   1.259   6.557   4.710
 2641SOL     OW 8821   5.756   2.733   6.751
 2641SOL    HW1 8822   5.788   2.814   6.702
 2641SOL    HW2 8823   5.770   2.652   6.693
 2642SOL     OW 8824   6.376   1.466   3.723
 2642SOL    HW1 8825   6.326   1.405   3.786
 2642SOL    HW2 8826   6.342   1.559   3.734
 2643SOL     OW 8827   1.978   4.976   3.437
 2643SOL    HW1 8828   1.970   4.935   3.528
 2643SOL    HW2 8829   1.938   4.915   3.369
 2644SOL     OW 8830   5.286   5.125   4.365
 2644SOL    HW1 8831   5.243   5.044   4.406
 2644SOL    HW2 8832   5.244   5.207   4.402
 2645SOL     OW 8833   5.226   5.421   2.897
 2645SOL    HW1 8834   5.250   5.467   2.812
 2645SOL    HW2 8835   5.127   5.404   2.898
 2646SOL     OW 8836   0.422   2.936   6.516
 2646SOL    HW1 8837   0.371   2.867   6.466
 2646SOL    HW2 8838   0.507   2.897   6.550
 2647SOL     OW 8839   5.416   0.850   1.534
 2647SOL    HW1 8840   5.343   0.906   1.494
 2647SOL    HW2 8841   5.413   0.856   1.633
 2648SOL     OW 8842   1.027   6.888   6.023
 2648SOL    HW1 8843   1.066   6.810   6.072
 2648SOL    HW2 8844   0.971   6.855   5.947
 2649SOL     OW 8845   5.284   2.416   1.821
 2649SOL    HW1 8846   5.249   2.505   1.791
 2649SOL    HW2 8847   5.236   2.343   1.773
 2650SOL     OW 8848   3.333   6.360   4.213
 2650SOL    HW1 8849   3.245   6.362   4.165
 2650SOL    HW2 8850   3.338   6.279   4.271
 2651SOL     OW 8851   3.878   2.152   4.941
 2651SOL    HW1 8852   3.860   2.247   4.965
 2651SOL    HW2 8853   3.806   2.119   4.880
 2652SOL     OW 8854   4.645   4.854   5.770
 2652SOL    HW1 8855   4.730   4.802   5.786
 2652SOL    HW2 8856   4.600   4.872   5.858
 2653SOL     OW 8857   2.534   5.821   0.160
 2653SOL    HW1 8858   2.596   5.889   0.200
 2653SOL    HW2 8859   2.453   5.867   0.126
 2654SOL     OW 8860   6.543   0.617   0.768
 2654SOL    HW1 8861   6.630   0.587   0.729
 2654SOL    HW2 8862   6.560   0.658   0.858
 2655SOL     OW 8863   5.053   6.122   2.738
 2655SOL    HW1 8864   5.046   6.085   2.831
 2655SOL    HW2 8865   5.136   6.177   2.731
 2656SOL     OW 8866   4.026   6.208   3.010
 2656SOL    HW1 8867   3.966   6.133   3.039
 2656SOL    HW2 8868   4.095   6.173   2.947
 2657SOL     OW 8869   1.483   4.032   6.745
 2657SOL    HW1 8870   1.545   4.110   6.750
 2657SOL    HW2 8871   1.536   3.947   6.742
 2658SOL     OW 8872   4.282   5.323   6.861
 2658SOL    HW1 8873   4.237   5.327   6.950
 2658SOL    HW2 8874   4.363   5.382   6.862
 2659SOL     OW 8875   0.347   1.943   4.484
 2659SOL    HW1 8876   0.343   1.856   4.434
 2659SOL    HW2 8877   0.254   1.980   4.494
 2660SOL     OW 8878   1.028   2.221   2.016
 2660SOL    HW1 8879   1.044   2.129   1.979
 2660SOL    HW2 8880   0.965   2.214   2.094
 2661SOL     OW 8881   1.647   0.957   0.510
 2661SOL    HW1 8882   1.740   0.992   0.522
 2661SOL    HW2 8883   1.647   0.883   0.444
 2662SOL     OW 8884   2.665   0.883   1.955
 2662SOL    HW1 8885   2.693   0.964   1.903
 2662SOL    HW2 8886   2.593   0.835   1.906
 2663SOL     OW 8887   4.617   6.505   0.686
 2663SOL    HW1 8888   4.539   6.556   0.724
 2663SOL    HW2 8889   4.591   6.468   0.597
 2664SOL     OW 8890   4.260   3.505   5.596
 2664SOL    HW1 8891   4.324   3.578   5.568
 2664SOL    HW2 8892   4.307   3.417   5.591
 2665SOL     OW 8893   2.083   3.911   4.409
 2665SOL    HW1 8894   2.081   3.952   4.500
 2665SOL    HW2 8895   2.105   3.813   4.417
 2666SOL     OW 8896   1.690   3.717   1.900
 2666SOL    HW1 8897   1.662   3.707   1.995
 2666SOL    HW2 8898   1.778   3.673   1.886
 2667SOL     OW 8899   6.459   3.455   4.705
 2667SOL    HW1 8900   6.392   3.454   4.631
 2667SOL    HW2 8901   6.508   3.543   4.704
 2668SOL     OW 8902   6.281   1.056   3.697
 2668SOL    HW1 8903   6.184   1.078   3.684
 2668SOL    HW2 8904   6.337   1.120   3.646
 2669SOL     OW 8905   2.448   0.486   0.146
 2669SOL    HW1 8906   2.531   0.430   0.147
 2669SOL    HW2 8907   2.368   0.427   0.158
 2670SOL     OW 8908   6.975   6.932   6.593
 2670SOL    HW1 8909   0.008   6.875   6.531
 2670SOL    HW2 8910   6.946   6.877   6.671
 2671SOL     OW 8911   4.755   4.360   6.124
 2671SOL    HW1 8912   4.826   4.394   6.185
 2671SOL    HW2 8913   4.697   4.295   6.174
 2672SOL     OW 8914   3.433   0.603   1.695
 2672SOL    HW1 8915   3.354   0.543   1.686
 2672SOL    HW2 8916   3.450   0.650   1.608
 2673SOL     OW 8917   4.364   0.426   2.762
 2673SOL    HW1 8918   4.447   0.395   2.809
 2673SOL    HW2 8919   4.295   0.451   2.829
 2674SOL     OW 8920   0.199   4.945   1.897
 2674SOL    HW1 8921   0.220   4.852   1.867
 2674SOL    HW2 8922   0.284   4.994   1.917
 2675SOL     OW 8923   5.222   0.133   3.974
 2675SOL    HW1 8924   5.311   0.090   3.956
 2675SOL    HW2 8925   5.234   0.214   4.031
 2676SOL     OW 8926   3.921   4.020   2.963
 2676SOL    HW1 8927   3.822   4.007   2.963
 2676SOL    HW2 8928   3.959   3.997   2.874
 2677SOL     OW 8929   2.532   4.964   1.408
 2677SOL    HW1 8930   2.452   5.010   1.370
 2677SOL    HW2 8931   2.562   4.891   1.345
 2678SOL     OW 8932   5.090   2.261   2.911
 2678SOL    HW1 8933   5.188   2.281   2.917
 2678SOL    HW2 8934   5.038   2.345   2.925
 2679SOL     OW 8935   2.119   4.362   3.303
 2679SOL    HW1 8936   2.160   4.304   3.233
 2679SOL    HW2 8937   2.104   4.454   3.265
 2680SOL     OW 8938   6.650   1.117   0.518
 2680SOL    HW1 8939   6.617   1.211   0.526
 2680SOL    HW2 8940   6.604   1.072   0.441
 2681SOL     OW 8941   2.125   2.090   4.992
 2681SOL    HW1 8942   2.172   2.031   4.927
 2681SOL    HW2 8943   2.153   2.185   4.976
 2682SOL     OW 8944   3.952   3.897   1.738
 2682SOL    HW1 8945   4.015   3.879   1.813
 2682SOL    HW2 8946   3.875   3.952   1.772
 2683SOL     OW 8947   2.547   4.557   2.324
 2683SOL    HW1 8948   2.549   4.652   2.353
 2683SOL    HW2 8949   2.624   4.540   2.262
 2684SOL     OW 8950   6.471   6.640   3.497
 2684SOL    HW1 8951   6.413   6.568   3.534
 2684SOL    HW2 8952   6.428   6.681   3.416
 2685SOL     OW 8953   1.695   5.675   5.731
 2685SOL    HW1 8954   1.762   5.607   5.701
 2685SOL    HW2 8955   1.741   5.747   5.783
 2686SOL     OW 8956   0.627   1.548   4.963
 2686SOL    HW1 8957   0.654   1.588   5.050
 2686SOL    HW2 8958   0.537   1.506   4.972
 2687SOL     OW 8959   4.161   1.530   1.501
 2687SOL    HW1 8960   4.188   1.557   1.409
 2687SOL    HW2 8961   4.194   1.599   1.566
 2688SOL     OW 8962   3.766   3.024   6.151
 2688SOL    HW1 8963   3.744   2.951   6.086
 2688SOL    HW2 8964   3.797   3.105   6.102
 2689SOL     OW 8965   1.146   3.450   3.181
 2689SOL    HW1 8966   1.164   3.479   3.088
 2689SOL    HW2 8967   1.146   3.530   3.242
 2690SOL     OW 8968   4.223   1.993   5.649
 2690SOL    HW1 8969   4.160   2.049   5.703
 2690SOL    HW2 8970   4.183   1.902   5.634
 2691SOL     OW 8971   6.702   4.246   4.075
 2691SOL    HW1 8972   6.777   4.309   4.055
 2691SOL    HW2 8973   6.620   4.298   4.100
 2692SOL     OW 8974   2.835   5.387   2.650
 2692SOL    HW1 8975   2.769   5.316   2.629
 2692SOL    HW2 8976   2.791   5.459   2.705
 2693SOL     OW 8977   2.186   5.317   3.004
 2693SOL    HW1 8978   2.175   5.298   2.906
 2693SOL    HW2 8979   2.281   5.301   3.031
 2694SOL     OW 8980   3.131   6.987   3.412
 2694SOL    HW1 8981   3.217   7.010   3.456
 2694SOL    HW2 8982   3.149   6.948   3.321
 2695SOL     OW 8983   0.492   5.594   3.213
 2695SOL    HW1 8984   0.524   5.654   3.140
 2695SOL    HW2 8985   0.405   5.627   3.248
 2696SOL     OW 8986   5.290   4.361   6.513
 2696SOL    HW1 8987   5.348   4.367   6.432
 2696SOL    HW2 8988   5.327   4.420   6.585
 2697SOL     OW 8989   4.129   2.286   7.008
 2697SOL    HW1 8990   4.214   2.234   7.004
 2697SOL    HW2 8991   4.067   2.254   6.935
 2698SOL     OW 8992   1.795   4.383   6.151
 2698SOL    HW1 8993   1.698   4.402   6.164
 2698SOL    HW2 8994   1.811   4.284   6.155
 2699SOL     OW 8995   3.208   6.484   1.971
 2699SOL    HW1 8996   3.147   6.444   1.903
 2699SOL    HW2 8997   3.178   6.577   1.992
 2700SOL     OW 8998   3.624   1.770   1.854
 2700SOL    HW1 8999   3.680   1.852   1.852
 2700SOL    HW2 9000   3.598   1.745   1.761
 2701SOL     OW 9001   5.378   3.120   5.206
 2701SOL    HW1 9002   5.472   3.090   5.221
 2701SOL    HW2 9003   5.376   3.220   5.199
 2702SOL     OW 9004   2.606   1.178   4.698
 2702SOL    HW1 9005   2.637   1.246   4.631
 2702SOL    HW2 9006   2.633   1.206   4.790
 2703SOL     OW 9007   1.502   6.574   2.496
 2703SOL    HW1 9008   1.520   6.667   2.463
 2703SOL    HW2 9009   1.452   6.578   2.582
 2704SOL     OW 9010   4.926   0.267   4.074
 2704SOL    HW1 9011   4.963   0.360   4.074
 2704SOL    HW2 9012   4.957   0.219   4.156
 2705SOL     OW 9013   0.128   0.428   5.318
 2705SOL    HW1 9014   0.169   0.519   5.322
 2705SOL    HW2 9015   0.171   0.369   5.385
 2706SOL     OW 9016   7.011   3.690   3.167
 2706SOL    HW1 9017   7.012   3.720   3.263
 2706SOL    HW2 9018   0.006   3.768   3.108
 2707SOL     OW 9019   3.489   0.444   3.120
 2707SOL    HW1 9020   3.532   0.532   3.139
 2707SOL    HW2 9021   3.510   0.416   3.027
 2708SOL     OW 9022   6.059   3.260   6.791
 2708SOL    HW1 9023   5.962   3.238   6.782
 2708SOL    HW2 9024   6.072   3.358   6.778
 2709SOL     OW 9025   4.689   1.273   4.624
 2709SOL    HW1 9026   4.594   1.244   4.637
 2709SOL    HW2 9027   4.694   1.373   4.629
 2710SOL     OW 9028   1.242   2.900   4.197
 2710SOL    HW1 9029   1.218   2.900   4.100
 2710SOL    HW2 9030   1.334   2.863   4.208
 2711SOL     OW 9031   3.542   1.573   2.053
 2711SOL    HW1 9032   3.481   1.586   2.131
 2711SOL    HW2 9033   3.588   1.659   2.031
 2712SOL     OW 9034   4.081   5.540   2.012
 2712SOL    HW1 9035   4.109   5.545   1.916
 2712SOL    HW2 9036   4.090   5.630   2.054
 2713SOL     OW 9037   3.671   4.825   6.457
 2713SOL    HW1 9038   3.620   4.878   6.389
 2713SOL    HW2 9039   3.607   4.772   6.513
 2714SOL     OW 9040   3.119   4.869   6.293
 2714SOL    HW1 9041   3.170   4.865   6.379
 2714SOL    HW2 9042   3.066   4.785   6.282
 2715SOL     OW 9043   4.082   0.975   0.134
 2715SOL    HW1 9044   4.033   0.931   0.209
 2715SOL    HW2 9045   4.100   0.907   0.062
 2716SOL     OW 9046   3.726   1.534   3.344
 2716SOL    HW1 9047   3.752   1.495   3.256
 2716SOL    HW2 9048   3.691   1.461   3.403
 2717SOL     OW 9049   0.903   0.902   2.679
 2717SOL    HW1 9050   0.903   0.861   2.770
 2717SOL    HW2 9051   0.996   0.928   2.653
 2718SOL     OW 9052   6.983   0.939   5.672
 2718SOL    HW1 9053   6.955   0.987   5.755
 2718SOL    HW2 9054   0.015   1.001   5.615
 2719SOL     OW 9055   1.965   4.263   2.045
 2719SOL    HW1 9056   2.065   4.256   2.039
 2719SOL    HW2 9057   1.927   4.174   2.072
 2720SOL     OW 9058   2.412   6.665   6.454
 2720SOL    HW1 9059   2.396   6.613   6.370
 2720SOL    HW2 9060   2.400   6.605   6.533
 2721SOL     OW 9061   3.511   5.871   1.694
 2721SOL    HW1 9062   3.539   5.967   1.695
 2721SOL    HW2 9063   3.550   5.824   1.773
 2722SOL     OW 9064   4.485   6.528   0.006
 2722SOL    HW1 9065   4.571   6.476   0.016
 2722SOL    HW2 9066   4.422   6.500   0.078
 2723SOL     OW 9067   3.580   6.164   6.418
 2723SOL    HW1 9068   3.501   6.201   6.467
 2723SOL    HW2 9069   3.663   6.212   6.446
 2724SOL     OW 9070   0.977   6.164   0.739
 2724SOL    HW1 9071   1.000   6.245   0.685
 2724SOL    HW2 9072   1.034   6.087   0.710
 2725SOL     OW 9073   6.202   4.136   5.025
 2725SOL    HW1 9074   6.135   4.118   4.953
 2725SOL    HW2 9075   6.220   4.234   5.031
 2726SOL     OW 9076   6.874   1.768   2.056
 2726SOL    HW1 9077   6.933   1.778   2.136
 2726SOL    HW2 9078   6.780   1.792   2.080
 2727SOL     OW 9079   2.004   4.858   4.060
 2727SOL    HW1 9080   2.021   4.941   4.112
 2727SOL    HW2 9081   2.091   4.816   4.033
 2728SOL     OW 9082   4.862   5.345   5.999
 2728SOL    HW1 9083   4.929   5.352   5.925
 2728SOL    HW2 9084   4.871   5.424   6.060
 2729SOL     OW 9085   5.183   6.630   5.952
 2729SOL    HW1 9086   5.205   6.598   6.044
 2729SOL    HW2 9087   5.219   6.723   5.939
 2730SOL     OW 9088   0.818   6.216   2.097
 2730SOL    HW1 9089   0.863   6.128   2.081
 2730SOL    HW2 9090   0.723   6.201   2.124
 2731SOL     OW 9091   3.601   3.628   4.218
 2731SOL    HW1 9092   3.528   3.641   4.285
 2731SOL    HW2 9093   3.562   3.595   4.132
 2732SOL     OW 9094   5.915   0.871   2.055
 2732SOL    HW1 9095   5.964   0.957   2.044
 2732SOL    HW2 9096   5.980   0.795   2.060
 2733SOL     OW 9097   1.225   6.496   6.576
 2733SOL    HW1 9098   1.269   6.586   6.581
 2733SOL    HW2 9099   1.190   6.482   6.483
 2734SOL     OW 9100   3.404   6.429   1.662
 2734SOL    HW1 9101   3.478   6.383   1.613
 2734SOL    HW2 9102   3.369   6.368   1.733
 2735SOL     OW 9103   1.031   1.534   1.685
 2735SOL    HW1 9104   1.104   1.586   1.730
 2735SOL    HW2 9105   1.031   1.555   1.587
 2736SOL     OW 9106   5.499   4.476   2.913
 2736SOL    HW1 9107   5.422   4.534   2.887
 2736SOL    HW2 9108   5.573   4.488   2.847
 2737SOL     OW 9109   2.441   1.454   5.755
 2737SOL    HW1 9110   2.360   1.492   5.798
 2737SOL    HW2 9111   2.477   1.379   5.811
 2738SOL     OW 9112   5.596   6.721   1.775
 2738SOL    HW1 9113   5.658   6.798   1.793
 2738SOL    HW2 9114   5.526   6.749   1.709
 2739SOL     OW 9115   6.701   5.928   1.788
 2739SOL    HW1 9116   6.793   5.954   1.819
 2739SOL    HW2 9117   6.647   5.899   1.867
 2740SOL     OW 9118   6.657   5.733   3.906
 2740SOL    HW1 9119   6.691   5.706   3.816
 2740SOL    HW2 9120   6.699   5.675   3.976
 2741SOL     OW 9121   1.392   1.621   5.109
 2741SOL    HW1 9122   1.307   1.644   5.156
 2741SOL    HW2 9123   1.375   1.613   5.011
 2742SOL     OW 9124   3.017   5.641   1.472
 2742SOL    HW1 9125   3.076   5.690   1.407
 2742SOL    HW2 9126   3.064   5.558   1.502
 2743SOL     OW 9127   5.419   3.619   2.924
 2743SOL    HW1 9128   5.495   3.669   2.965
 2743SOL    HW2 9129   5.446   3.525   2.905
 2744SOL     OW 9130   3.388   3.849   3.171
 2744SOL    HW1 9131   3.314   3.916   3.180
 2744SOL    HW2 9132   3.472   3.885   3.211
 2745SOL     OW 9133   0.567   6.823   6.781
 2745SOL    HW1 9134   0.552   6.807   6.879
 2745SOL    HW2 9135   0.485   6.862   6.741
 2746SOL     OW 9136   1.829   1.046   3.249
 2746SOL    HW1 9137   1.790   1.125   3.296
 2746SOL    HW2 9138   1.821   0.965   3.307
 2747SOL     OW 9139   3.686   5.091   0.731
 2747SOL    HW1 9140   3.765   5.033   0.751
 2747SOL    HW2 9141   3.717   5.181   0.701
 2748SOL     OW 9142   4.284   6.606   1.411
 2748SOL    HW1 9143   4.351   6.674   1.379
 2748SOL    HW2 9144   4.280   6.610   1.511
 2749SOL     OW 9145   2.795   3.442   0.023
 2749SOL    HW1 9146   2.877   3.386   0.033
 2749SOL    HW2 9147   2.734   3.400   6.978
 2750SOL     OW 9148   2.058   6.103   2.209
 2750SOL    HW1 9149   2.129   6.040   2.239
 2750SOL    HW2 9150   2.074   6.129   2.114
 2751SOL     OW 9151   5.878   3.515   0.353
 2751SOL    HW1 9152   5.880   3.602   0.303
 2751SOL    HW2 9153   5.936   3.448   0.306
 2752SOL     OW 9154   3.654   5.102   6.807
 2752SOL    HW1 9155   3.723   5.124   6.739
 2752SOL    HW2 9156   3.563   5.105   6.764
 2753SOL     OW 9157   6.556   6.023   5.680
 2753SOL    HW1 9158   6.551   6.082   5.761
 2753SOL    HW2 9159   6.474   6.036   5.624
 2754SOL     OW 9160   0.844   0.280   6.064
 2754SOL    HW1 9161   0.916   0.256   5.999
 2754SOL    HW2 9162   0.796   0.197   6.093
 2755SOL     OW 9163   2.469   0.344   2.318
 2755SOL    HW1 9164   2.392   0.404   2.296
 2755SOL    HW2 9165   2.532   0.341   2.240
 2756SOL     OW 9166   4.816   6.319   0.388
 2756SOL    HW1 9167   4.839   6.329   0.485
 2756SOL    HW2 9168   4.872   6.383   0.335
 2757SOL     OW 9169   0.568   5.201   1.200
 2757SOL    HW1 9170   0.665   5.183   1.215
 2757SOL    HW2 9171   0.554   5.242   1.110
 2758SOL     OW 9172   4.590   0.596   5.678
 2758SOL    HW1 9173   4.612   0.688   5.710
 2758SOL    HW2 9174   4.570   0.599   5.580
 2759SOL     OW 9175   5.868   5.733   4.911
 2759SOL    HW1 9176   5.869   5.833   4.914
 2759SOL    HW2 9177   5.903   5.696   4.997
 2760SOL     OW 9178   2.599   5.435   3.337
 2760SOL    HW1 9179   2.642   5.352   3.300
 2760SOL    HW2 9180   2.501   5.420   3.346
 2761SOL     OW 9181   2.298   5.907   3.077
 2761SOL    HW1 9182   2.275   5.855   3.160
 2761SOL    HW2 9183   2.333   5.845   3.007
 2762SOL     OW 9184   0.809   6.909   4.949
 2762SOL    HW1 9185   0.776   6.994   4.908
 2762SOL    HW2 9186   0.861   6.857   4.881
 2763SOL     OW 9187   5.911   1.704   2.585
 2763SOL    HW1 9188   5.814   1.728   2.594
 2763SOL    HW2 9189   5.964   1.757   2.651
 2764SOL     OW 9190   6.882   1.032   2.010
 2764SOL    HW1 9191   6.860   0.935   2.000
 2764SOL    HW2 9192   6.806   1.078   2.055
 2765SOL     OW 9193   6.447   1.295   2.036
 2765SOL    HW1 9194   6.476   1.391   2.038
 2765SOL    HW2 9195   6.348   1.291   2.049
 2766SOL     OW 9196   5.977   0.980   2.320
 2766SOL    HW1 9197   5.971   0.885   2.350
 2766SOL    HW2 9198   6.056   1.024   2.363
 2767SOL     OW 9199   5.765   4.270   6.273
 2767SOL    HW1 9200   5.808   4.345   6.324
 2767SOL    HW2 9201   5.666   4.287   6.267
 2768SOL     OW 9202   5.301   1.225   6.580
 2768SOL    HW1 9203   5.321   1.276   6.664
 2768SOL    HW2 9204   5.380   1.168   6.557
 2769SOL     OW 9205   0.559   3.850   1.427
 2769SOL    HW1 9206   0.490   3.922   1.425
 2769SOL    HW2 9207   0.515   3.761   1.416
 2770SOL     OW 9208   0.306   5.906   1.645
 2770SOL    HW1 9209   0.367   5.967   1.596
 2770SOL    HW2 9210   0.221   5.955   1.667
 2771SOL     OW 9211   4.818   1.190   1.567
 2771SOL    HW1 9212   4.848   1.118   1.629
 2771SOL    HW2 9213   4.778   1.150   1.485
 2772SOL     OW 9214   3.235   2.451   6.421
 2772SOL    HW1 9215   3.141   2.426   6.399
 2772SOL    HW2 9216   3.251   2.545   6.394
 2773SOL     OW 9217   3.849   4.040   6.460
 2773SOL    HW1 9218   3.752   4.021   6.443
 2773SOL    HW2 9219   3.875   4.125   6.414
 2774SOL     OW 9220   5.606   3.694   2.179
 2774SOL    HW1 9221   5.649   3.709   2.268
 2774SOL    HW2 9222   5.508   3.711   2.187
 2775SOL     OW 9223   0.065   6.064   1.674
 2775SOL    HW1 9224   0.008   6.003   1.620
 2775SOL    HW2 9225   0.014   6.148   1.695
 2776SOL     OW 9226   2.734   6.456   6.273
 2776SOL    HW1 9227   2.747   6.531   6.208
 2776SOL    HW2 9228   2.783   6.476   6.358
 2777SOL     OW 9229   3.302   1.520   2.758
 2777SOL    HW1 9230   3.223   1.578   2.777
 2777SOL    HW2 9231   3.382   1.555   2.807
 2778SOL     OW 9232   2.085   2.249   5.655
 2778SOL    HW1 9233   2.015   2.319   5.671
 2778SOL    HW2 9234   2.170   2.277   5.698
 2779SOL     OW 9235   5.655   0.398   6.917
 2779SOL    HW1 9236   5.562   0.428   6.939
 2779SOL    HW2 9237   5.720   0.469   6.944
 2780SOL     OW 9238   5.088   5.300   6.634
 2780SOL    HW1 9239   5.112   5.214   6.588
 2780SOL    HW2 9240   5.096   5.376   6.569
 2781SOL     OW 9241   5.595   4.828   0.886
 2781SOL    HW1 9242   5.647   4.863   0.808
 2781SOL    HW2 9243   5.589   4.729   0.880
 2782SOL     OW 9244   2.421   2.458   5.989
 2782SOL    HW1 9245   2.406   2.556   5.993
 2782SOL    HW2 9246   2.502   2.434   6.043
 2783SOL     OW 9247   0.067   5.098   5.151
 2783SOL    HW1 9248   0.061   5.064   5.245
 2783SOL    HW2 9249   7.007   5.151   5.130
 2784SOL     OW 9250   2.383   1.643   1.539
 2784SOL    HW1 9251   2.293   1.653   1.581
 2784SOL    HW2 9252   2.450   1.695   1.591
 2785SOL     OW 9253   6.557   0.737   1.029
 2785SOL    HW1 9254   6.518   0.814   0.979
 2785SOL    HW2 9255   6.500   0.716   1.108
 2786SOL     OW 9256   4.093   6.454   1.179
 2786SOL    HW1 9257   4.171   6.496   1.225
 2786SOL    HW2 9258   4.011   6.466   1.235
 2787SOL     OW 9259   2.494   3.134   5.666
 2787SOL    HW1 9260   2.504   3.035   5.658
 2787SOL    HW2 9261   2.421   3.165   5.604
 2788SOL     OW 9262   1.346   3.833   0.700
 2788SOL    HW1 9263   1.424   3.879   0.742
 2788SOL    HW2 9264   1.374   3.795   0.611
 2789SOL     OW 9265   0.710   2.213   4.246
 2789SOL    HW1 9266   0.656   2.129   4.242
 2789SOL    HW2 9267   0.792   2.203   4.189
 2790SOL     OW 9268   4.212   5.543   2.941
 2790SOL    HW1 9269   4.275   5.611   2.903
 2790SOL    HW2 9270   4.121   5.556   2.901
 2791SOL     OW 9271   1.803   3.251   4.862
 2791SOL    HW1 9272   1.831   3.205   4.777
 2791SOL    HW2 9273   1.721   3.305   4.845
 2792SOL     OW 9274   0.681   1.918   5.449
 2792SOL    HW1 9275   0.643   1.928   5.357
 2792SOL    HW2 9276   0.770   1.873   5.443
 2793SOL     OW 9277   4.698   1.269   3.467
 2793SOL    HW1 9278   4.726   1.195   3.528
 2793SOL    HW2 9279   4.732   1.251   3.375
 2794SOL     OW 9280   1.045   0.531   0.741
 2794SOL    HW1 9281   1.034   0.435   0.716
 2794SOL    HW2 9282   1.025   0.544   0.838
 2795SOL     OW 9283   2.474   4.018   1.129
 2795SOL    HW1 9284   2.405   4.079   1.166
 2795SOL    HW2 9285   2.484   4.034   1.031
 2796SOL     OW 9286   5.342   3.910   2.397
 2796SOL    HW1 9287   5.426   3.940   2.443
 2796SOL    HW2 9288   5.323   3.815   2.420
 2797SOL     OW 9289   4.919   4.770   4.805
 2797SOL    HW1 9290   5.006   4.778   4.854
 2797SOL    HW2 9291   4.910   4.844   4.739
 2798SOL     OW 9292   0.789   3.691   4.312
 2798SOL    HW1 9293   0.729   3.642   4.249
 2798SOL    HW2 9294   0.741   3.769   4.351
 2799SOL     OW 9295   6.356   4.636   6.322
 2799SOL    HW1 9296   6.366   4.728   6.362
 2799SOL    HW2 9297   6.447   4.602   6.296
 2800SOL     OW 9298   3.089   4.553   6.726
 2800SOL    HW1 9299   3.028   4.595   6.793
 2800SOL    HW2 9300   3.036   4.526   6.645
 2801SOL     OW 9301   5.634   5.646   1.988
 2801SOL    HW1 9302   5.727   5.684   1.991
 2801SOL    HW2 9303   5.639   5.546   1.987
 2802SOL     OW 9304   4.381   1.650   5.950
 2802SOL    HW1 9305   4.319   1.728   5.957
 2802SOL    HW2 9306   4.335   1.568   5.982
 2803SOL     OW 9307   3.227   6.502   6.650
 2803SOL    HW1 9308   3.177   6.494   6.564
 2803SOL    HW2 9309   3.169   6.548   6.718
 2804SOL     OW 9310   6.735   4.238   3.515
 2804SOL    HW1 9311   6.732   4.158   3.573
 2804SOL    HW2 9312   6.818   4.291   3.534
 2805SOL     OW 9313   5.360   3.079   0.363
 2805SOL    HW1 9314   5.274   3.055   0.320
 2805SOL    HW2 9315   5.406   3.149   0.309
 2806SOL     OW 9316   6.649   5.403   3.255
 2806SOL    HW1 9317   6.696   5.419   3.342
 2806SOL    HW2 9318   6.716   5.389   3.183
 2807SOL     OW 9319   4.463   4.919   3.061
 2807SOL    HW1 9320   4.479   4.914   3.160
 2807SOL    HW2 9321   4.365   4.928   3.044
 2808SOL     OW 9322   5.422   0.995   4.085
 2808SOL    HW1 9323   5.393   1.065   4.020
 2808SOL    HW2 9324   5.348   0.930   4.100
 2809SOL     OW 9325   5.196   2.321   0.983
 2809SOL    HW1 9326   5.148   2.352   0.902
 2809SOL    HW2 9327   5.131   2.284   1.049
 2810SOL     OW 9328   2.112   6.581   5.129
 2810SOL    HW1 9329   2.015   6.572   5.105
 2810SOL    HW2 9330   2.136   6.678   5.131
 2811SOL     OW 9331   0.005   2.237   3.164
 2811SOL    HW1 9332   0.060   2.289   3.229
 2811SOL    HW2 9333   0.022   2.139   3.176
 2812SOL     OW 9334   4.846   3.853   1.920
 2812SOL    HW1 9335   4.843   3.947   1.886
 2812SOL    HW2 9336   4.850   3.854   2.020
 2813SOL     OW 9337   6.061   0.627   6.770
 2813SOL    HW1 9338   6.115   0.552   6.731
 2813SOL    HW2 9339   6.068   0.627   6.869
 2814SOL     OW 9340   4.798   4.111   5.539
 2814SOL    HW1 9341   4.791   4.191   5.480
 2814SOL    HW2 9342   4.889   4.071   5.532
 2815SOL     OW 9343   0.222   1.222   5.149
 2815SOL    HW1 9344   0.129   1.192   5.127
 2815SOL    HW2 9345   0.217   1.293   5.220
 2816SOL     OW 9346   5.635   6.644   3.952
 2816SOL    HW1 9347   5.632   6.630   3.853
 2816SOL    HW2 9348   5.543   6.632   3.990
 2817SOL     OW 9349   1.064   1.775   1.377
 2817SOL    HW1 9350   1.098   1.835   1.449
 2817SOL    HW2 9351   1.022   1.830   1.305
 2818SOL     OW 9352   6.785   4.910   5.433
 2818SOL    HW1 9353   6.704   4.942   5.384
 2818SOL    HW2 9354   6.804   4.815   5.408
 2819SOL     OW 9355   0.175   2.798   1.311
 2819SOL    HW1 9356   0.222   2.830   1.229
 2819SOL    HW2 9357   0.154   2.701   1.303
 2820SOL     OW 9358   6.730   3.320   3.829
 2820SOL    HW1 9359   6.769   3.408   3.855
 2820SOL    HW2 9360   6.797   3.248   3.848
 2821SOL     OW 9361   1.212   4.253   4.750
 2821SOL    HW1 9362   1.183   4.320   4.818
 2821SOL    HW2 9363   1.278   4.295   4.688
 2822SOL     OW 9364   4.744   2.060   0.065
 2822SOL    HW1 9365   4.817   2.001   0.100
 2822SOL    HW2 9366   4.695   2.101   0.142
 2823SOL     OW 9367   1.781   6.309   2.974
 2823SOL    HW1 9368   1.848   6.308   3.048
 2823SOL    HW2 9369   1.776   6.218   2.932
 2824SOL     OW 9370   2.922   1.551   5.544
 2824SOL    HW1 9371   2.857   1.567   5.470
 2824SOL    HW2 9372   2.962   1.638   5.573
 2825SOL     OW 9373   6.500   6.316   1.504
 2825SOL    HW1 9374   6.504   6.266   1.418
 2825SOL    HW2 9375   6.489   6.252   1.580
 2826SOL     OW 9376   4.615   1.602   4.700
 2826SOL    HW1 9377   4.528   1.649   4.714
 2826SOL    HW2 9378   4.669   1.605   4.784
 2827SOL     OW 9379   5.645   1.320   5.085
 2827SOL    HW1 9380   5.593   1.397   5.049
 2827SOL    HW2 9381   5.585   1.266   5.145
 2828SOL     OW 9382   4.140   1.528   5.658
 2828SOL    HW1 9383   4.121   1.568   5.568
 2828SOL    HW2 9384   4.091   1.579   5.728
 2829SOL     OW 9385   2.726   6.913   5.916
 2829SOL    HW1 9386   2.699   6.845   5.984
 2829SOL    HW2 9387   2.763   6.867   5.835
 2830SOL     OW 9388   4.063   3.557   6.784
 2830SOL    HW1 9389   3.998   3.515   6.721
 2830SOL    HW2 9390   4.040   3.529   6.878
 2831SOL     OW 9391   5.748   6.127   4.375
 2831SOL    HW1 9392   5.814   6.147   4.448
 2831SOL    HW2 9393   5.663   6.178   4.392
 2832SOL     OW 9394   0.644   1.042   2.364
 2832SOL    HW1 9395   0.665   1.100   2.443
 2832SOL    HW2 9396   0.545   1.026   2.359
 2833SOL     OW 9397   6.093   3.061   2.101
 2833SOL    HW1 9398   6.077   3.045   2.003
 2833SOL    HW2 9399   6.095   2.973   2.148
 2834SOL     OW 9400   3.824   1.377   5.154
 2834SOL    HW1 9401   3.808   1.287   5.114
 2834SOL    HW2 9402   3.737   1.415   5.184
 2835SOL     OW 9403   0.318   0.084   2.480
 2835SOL    HW1 9404   0.405   0.089   2.530
 2835SOL    HW2 9405   0.331   0.117   2.386
 2836SOL     OW 9406   6.946   0.220   1.408
 2836SOL    HW1 9407   6.871   0.280   1.436
 2836SOL    HW2 9408   6.909   0.134   1.374
 2837SOL     OW 9409   5.010   4.136   4.079
 2837SOL    HW1 9410   4.923   4.166   4.042
 2837SOL    HW2 9411   5.044   4.204   4.144
 2838SOL     OW 9412   3.285   4.978   2.639
 2838SOL    HW1 9413   3.380   4.991   2.611
 2838SOL    HW2 9414   3.276   4.996   2.737
 2839SOL     OW 9415   5.127   1.998   1.607
 2839SOL    HW1 9416   5.137   1.991   1.507
 2839SOL    HW2 9417   5.215   1.979   1.651
 2840SOL     OW 9418   6.533   1.434   5.577
 2840SOL    HW1 9419   6.531   1.336   5.596
 2840SOL    HW2 9420   6.511   1.449   5.480
 2841SOL     OW 9421   0.909   6.218   1.001
 2841SOL    HW1 9422   0.941   6.196   0.909
 2841SOL    HW2 9423   0.920   6.316   1.017
 2842SOL     OW 9424   6.754   3.619   3.148
 2842SOL    HW1 9425   6.849   3.641   3.170
 2842SOL    HW2 9426   6.729   3.532   3.191
 2843SOL     OW 9427   4.005   0.854   4.466
 2843SOL    HW1 9428   4.036   0.924   4.530
 2843SOL    HW2 9429   3.905   0.858   4.457
 2844SOL     OW 9430   0.590   4.058   6.415
 2844SOL    HW1 9431   0.598   4.134   6.351
 2844SOL    HW2 9432   0.494   4.045   6.440
 2845SOL     OW 9433   0.021   4.666   6.092
 2845SOL    HW1 9434   0.009   4.671   5.993
 2845SOL    HW2 9435   0.117   4.686   6.115
 2846SOL     OW 9436   4.742   1.788   6.470
 2846SOL    HW1 9437   4.758   1.820   6.377
 2846SOL    HW2 9438   4.794   1.844   6.534
 2847SOL     OW 9439   5.792   4.639   4.144
 2847SOL    HW1 9440   5.840   4.624   4.230
 2847SOL    HW2 9441   5.795   4.555   4.090
 2848SOL     OW 9442   1.165   4.990   4.629
 2848SOL    HW1 9443   1.173   4.927   4.707
 2848SOL    HW2 9444   1.069   5.005   4.608
 2849SOL     OW 9445   2.958   1.984   1.051
 2849SOL    HW1 9446   3.054   2.003   1.074
 2849SOL    HW2 9447   2.954   1.918   0.975
 2850SOL     OW 9448   3.713   0.214   0.569
 2850SOL    HW1 9449   3.718   0.133   0.510
 2850SOL    HW2 9450   3.628   0.211   0.622
 2851SOL     OW 9451   1.108   4.522   5.512
 2851SOL    HW1 9452   1.042   4.543   5.441
 2851SOL    HW2 9453   1.062   4.515   5.601
 2852SOL     OW 9454   0.066   3.369   6.833
 2852SOL    HW1 9455   6.993   3.353   6.862
 2852SOL    HW2 9456   0.106   3.282   6.803
 2853SOL     OW 9457   3.310   3.311   0.959
 2853SOL    HW1 9458   3.375   3.384   0.980
 2853SOL    HW2 9459   3.246   3.301   1.035
 2854SOL     OW 9460   2.673   1.051   3.694
 2854SOL    HW1 9461   2.645   1.043   3.598
 2854SOL    HW2 9462   2.767   1.082   3.699
 2855SOL     OW 9463   2.091   0.859   4.922
 2855SOL    HW1 9464   2.078   0.953   4.951
 2855SOL    HW2 9465   2.189   0.841   4.911
 2856SOL     OW 9466   2.382   2.906   5.370
 2856SOL    HW1 9467   2.311   2.865   5.313
 2856SOL    HW2 9468   2.448   2.953   5.312
 2857SOL     OW 9469   3.157   2.985   1.534
 2857SOL    HW1 9470   3.110   2.899   1.514
 2857SOL    HW2 9471   3.102   3.040   1.597
 2858SOL     OW 9472   6.736   3.340   2.479
 2858SOL    HW1 9473   6.638   3.318   2.482
 2858SOL    HW2 9474   6.782   3.296   2.557
 2859SOL     OW 9475   5.745   0.344   0.969
 2859SOL    HW1 9476   5.789   0.342   1.058
 2859SOL    HW2 9477   5.659   0.395   0.975
 2860SOL     OW 9478   3.930   1.513   2.201
 2860SOL    HW1 9479   3.986   1.594   2.219
 2860SOL    HW2 9480   3.867   1.532   2.126
 2861SOL     OW 9481   3.351   5.708   5.532
 2861SOL    HW1 9482   3.333   5.614   5.562
 2861SOL    HW2 9483   3.268   5.763   5.544
 2862SOL     OW 9484   5.909   1.055   3.990
 2862SOL    HW1 9485   5.986   0.998   4.018
 2862SOL    HW2 9486   5.841   0.998   3.943
 2863SOL     OW 9487   6.824   1.971   6.808
 2863SOL    HW1 9488   6.736   2.012   6.785
 2863SOL    HW2 9489   6.850   1.997   6.901
 2864SOL     OW 9490   3.871   1.090   0.436
 2864SOL    HW1 9491   3.958   1.090   0.485
 2864SOL    HW2 9492   3.858   1.002   0.391
 2865SOL     OW 9493   4.920   4.611   5.253
 2865SOL    HW1 9494   4.911   4.601   5.154
 2865SOL    HW2 9495   4.837   4.578   5.298
 2866SOL     OW 9496   0.433   6.509   6.186
 2866SOL    HW1 9497   0.394   6.418   6.203
 2866SOL    HW2 9498   0.439   6.560   6.272
 2867SOL     OW 9499   6.110   4.280   3.971
 2867SOL    HW1 9500   6.121   4.336   3.889
 2867SOL    HW2 9501   6.015   4.250   3.978
 2868SOL     OW 9502   1.415   3.899   5.126
 2868SOL    HW1 9503   1.405   3.880   5.224
 2868SOL    HW2 9504   1.496   3.956   5.111
 2869SOL     OW 9505   6.445   0.889   1.991
 2869SOL    HW1 9506   6.424   0.812   1.930
 2869SOL    HW2 9507   6.362   0.944   2.005
 2870SOL     OW 9508   5.979   2.350   2.942
 2870SOL    HW1 9509   6.063   2.308   2.908
 2870SOL    HW2 9510   5.959   2.433   2.890
 2871SOL     OW 9511   1.545   1.806   6.104
 2871SOL    HW1 9512   1.618   1.770   6.163
 2871SOL    HW2 9513   1.580   1.881   6.049
 2872SOL     OW 9514   2.724   0.549   3.470
 2872SOL    HW1 9515   2.660   0.626   3.460
 2872SOL    HW2 9516   2.675   0.463   3.455
 2873SOL     OW 9517   0.329   5.740   2.033
 2873SOL    HW1 9518   0.334   5.641   2.023
 2873SOL    HW2 9519   0.253   5.765   2.092
 2874SOL     OW 9520   5.699   3.210   2.234
 2874SOL    HW1 9521   5.671   3.136   2.173
 2874SOL    HW2 9522   5.633   3.219   2.309
 2875SOL     OW 9523   3.578   5.565   6.389
 2875SOL    HW1 9524   3.616   5.535   6.476
 2875SOL    HW2 9525   3.489   5.609   6.405
 2876SOL     OW 9526   0.436   1.044   1.709
 2876SOL    HW1 9527   0.338   1.061   1.705
 2876SOL    HW2 9528   0.485   1.120   1.666
 2877SOL     OW 9529   3.022   2.727   5.398
 2877SOL    HW1 9530   2.949   2.792   5.373
 2877SOL    HW2 9531   3.110   2.775   5.397
 2878SOL     OW 9532   2.623   4.737   5.329
 2878SOL    HW1 9533   2.551   4.682   5.287
 2878SOL    HW2 9534   2.584   4.822   5.364
 2879SOL     OW 9535   4.929   4.589   0.387
 2879SOL    HW1 9536   4.945   4.614   0.291
 2879SOL    HW2 9537   4.868   4.510   0.391
 2880SOL     OW 9538   1.106   6.438   1.573
 2880SOL    HW1 9539   1.039   6.380   1.620
 2880SOL    HW2 9540   1.147   6.387   1.497
 2881SOL     OW 9541   6.663   6.232   0.725
 2881SOL    HW1 9542   6.612   6.318   0.715
 2881SOL    HW2 9543   6.669   6.187   0.636
 2882SOL     OW 9544   0.437   3.115   3.322
 2882SOL    HW1 9545   0.476   3.194   3.275
 2882SOL    HW2 9546   0.430   3.135   3.420
 2883SOL     OW 9547   3.691   0.077   2.102
 2883SOL    HW1 9548   3.716   7.004   2.084
 2883SOL    HW2 9549   3.766   0.122   2.151
 2884SOL     OW 9550   0.893   5.776   3.346
 2884SOL    HW1 9551   0.953   5.696   3.356
 2884SOL    HW2 9552   0.904   5.837   3.425
 2885SOL     OW 9553   0.949   2.569   2.841
 2885SOL    HW1 9554   1.032   2.526   2.876
 2885SOL    HW2 9555   0.876   2.502   2.834
 2886SOL     OW 9556   2.353   1.783   6.393
 2886SOL    HW1 9557   2.429   1.740   6.344
 2886SOL    HW2 9558   2.329   1.870   6.349
 2887SOL     OW 9559   1.236   0.380   4.952
 2887SOL    HW1 9560   1.238   0.301   5.015
 2887SOL    HW2 9561   1.169   0.447   4.985
 2888SOL     OW 9562   6.052   4.989   0.044
 2888SOL    HW1 9563   6.046   5.068   7.005
 2888SOL    HW2 9564   5.990   4.918   0.012
 2889SOL     OW 9565   0.462   0.187   1.592
 2889SOL    HW1 9566   0.430   0.234   1.674
 2889SOL    HW2 9567   0.501   0.254   1.529
 2890SOL     OW 9568   4.329   0.602   2.042
 2890SOL    HW1 9569   4.326   0.644   1.951
 2890SOL    HW2 9570   4.423   0.575   2.063
 2891SOL     OW 9571   2.441   4.584   3.792
 2891SOL    HW1 9572   2.428   4.499   3.843
 2891SOL    HW2 9573   2.528   4.625   3.818
 2892SOL     OW 9574   4.165   3.803   6.791
 2892SOL    HW1 9575   4.256   3.810   6.751
 2892SOL    HW2 9576   4.146   3.708   6.815
 2893SOL     OW 9577   2.401   0.218   4.791
 2893SOL    HW1 9578   2.341   0.138   4.785
 2893SOL    HW2 9579   2.421   0.238   4.886
 2894SOL     OW 9580   3.506   2.539   6.778
 2894SOL    HW1 9581   3.443   2.478   6.825
 2894SOL    HW2 9582   3.489   2.634   6.807
 2895SOL     OW 9583   3.623   3.716   6.351
 2895SOL    HW1 9584   3.717   3.689   6.372
 2895SOL    HW2 9585   3.562   3.640   6.371
 2896SOL     OW 9586   2.147   5.088   0.934
 2896SOL    HW1 9587   2.071   5.153   0.928
 2896SOL    HW2 9588   2.156   5.039   0.848
 2897SOL     OW 9589   2.362   6.191   3.749
 2897SOL    HW1 9590   2.413   6.233   3.674
 2897SOL    HW2 9591   2.362   6.091   3.736
 2898SOL     OW 9592   3.615   5.397   1.803
 2898SOL    HW1 9593   3.712   5.373   1.798
 2898SOL    HW2 9594   3.598   5.452   1.885
 2899SOL     OW 9595   6.677   0.072   0.126
 2899SOL    HW1 9596   6.594   0.111   0.086
 2899SOL    HW2 9597   6.757   0.107   0.077
 2900SOL     OW 9598   1.502   5.062   6.002
 2900SOL    HW1 9599   1.421   5.115   5.979
 2900SOL    HW2 9600   1.569   5.121   6.048
 2901SOL     OW 9601   2.740   0.547   1.871
 2901SOL    HW1 9602   2.678   0.601   1.927
 2901SOL    HW2 9603   2.819   0.519   1.926
 2902SOL     OW 9604   5.674   6.284   0.810
 2902SOL    HW1 9605   5.613   6.305   0.734
 2902SOL    HW2 9606   5.760   6.247   0.775
 2903SOL     OW 9607   2.566   1.287   1.984
 2903SOL    HW1 9608   2.611   1.372   2.011
 2903SOL    HW2 9609   2.473   1.307   1.953
 2904SOL     OW 9610   1.919   2.674   5.431
 2904SOL    HW1 9611   1.938   2.757   5.484
 2904SOL    HW2 9612   1.916   2.595   5.491
 2905SOL     OW 9613   1.670   1.970   1.759
 2905SOL    HW1 9614   1.716   1.889   1.723
 2905SOL    HW2 9615   1.663   1.964   1.859
 2906SOL     OW 9616   5.777   5.243   2.282
 2906SOL    HW1 9617   5.694   5.298   2.271
 2906SOL    HW2 9618   5.823   5.233   2.193
 2907SOL     OW 9619   6.883   1.583   4.545
 2907SOL    HW1 9620   6.842   1.504   4.499
 2907SOL    HW2 9621   6.838   1.667   4.513
 2908SOL     OW 9622   3.565   6.045   4.262
 2908SOL    HW1 9623   3.620   6.123   4.234
 2908SOL    HW2 9624   3.494   6.027   4.194
 2909SOL     OW 9625   1.193   5.384   4.564
 2909SOL    HW1 9626   1.226   5.456   4.625
 2909SOL    HW2 9627   1.238   5.298   4.586
 2910SOL     OW 9628   4.345   6.359   6.120
 2910SOL    HW1 9629   4.331   6.269   6.160
 2910SOL    HW2 9630   4.342   6.428   6.192
 2911SOL     OW 9631   1.829   4.903   3.016
 2911SOL    HW1 9632   1.755   4.847   2.979
 2911SOL    HW2 9633   1.871   4.856   3.093
 2912SOL     OW 9634   2.525   6.198   0.595
 2912SOL    HW1 9635   2.448   6.245   0.551
 2912SOL    HW2 9636   2.607   6.206   0.538
 2913SOL     OW 9637   1.710   3.646   2.561
 2913SOL    HW1 9638   1.621   3.670   2.600
 2913SOL    HW2 9639   1.713   3.547   2.544
 2914SOL     OW 9640   5.538   5.494   5.888
 2914SOL    HW1 9641   5.569   5.556   5.961
 2914SOL    HW2 9642   5.444   5.464   5.907
 2915SOL     OW 9643   4.391   1.584   3.794
 2915SOL    HW1 9644   4.398   1.680   3.768
 2915SOL    HW2 9645   4.423   1.572   3.888
 2916SOL     OW 9646   6.115   5.294   5.433
 2916SOL    HW1 9647   6.026   5.298   5.480
 2916SOL    HW2 9648   6.101   5.269   5.338
 2917SOL     OW 9649   4.604   0.784   1.939
 2917SOL    HW1 9650   4.569   0.690   1.933
 2917SOL    HW2 9651   4.605   0.825   1.848
 2918SOL     OW 9652   0.620   3.707   3.811
 2918SOL    HW1 9653   0.604   3.617   3.769
 2918SOL    HW2 9654   0.535   3.743   3.848
 2919SOL     OW 9655   5.991   5.982   0.312
 2919SOL    HW1 9656   6.045   5.932   0.379
 2919SOL    HW2 9657   5.894   5.964   0.326
 2920SOL     OW 9658   4.154   2.259   2.631
 2920SOL    HW1 9659   4.201   2.347   2.639
 2920SOL    HW2 9660   4.124   2.245   2.537
 2921SOL     OW 9661   0.158   0.817   2.585
 2921SOL    HW1 9662   0.189   0.895   2.530
 2921SOL    HW2 9663   0.111   0.851   2.667
 2922SOL     OW 9664   4.747   0.126   5.266
 2922SOL    HW1 9665   4.711   0.220   5.264
 2922SOL    HW2 9666   4.843   0.128   5.292
 2923SOL     OW 9667   6.323   4.922   2.318
 2923SOL    HW1 9668   6.377   4.992   2.271
 2923SOL    HW2 9669   6.272   4.964   2.393
 2924SOL     OW 9670   0.336   1.503   5.285
 2924SOL    HW1 9671   0.333   1.603   5.287
 2924SOL    HW2 9672   0.382   1.473   5.201
 2925SOL     OW 9673   5.581   3.515   1.564
 2925SOL    HW1 9674   5.662   3.559   1.602
 2925SOL    HW2 9675   5.500   3.571   1.583
 2926SOL     OW 9676   6.931   2.234   4.859
 2926SOL    HW1 9677   0.007   2.236   4.836
 2926SOL    HW2 9678   6.921   2.210   4.956
 2927SOL     OW 9679   1.152   3.029   2.368
 2927SOL    HW1 9680   1.175   2.937   2.335
 2927SOL    HW2 9681   1.055   3.048   2.350
 2928SOL     OW 9682   5.872   0.142   0.268
 2928SOL    HW1 9683   5.812   0.181   0.198
 2928SOL    HW2 9684   5.851   0.183   0.357
 2929SOL     OW 9685   6.927   0.153   6.095
 2929SOL    HW1 9686   6.831   0.139   6.071
 2929SOL    HW2 9687   6.933   0.209   6.178
 2930SOL     OW 9688   4.192   6.878   4.420
 2930SOL    HW1 9689   4.206   6.883   4.321
 2930SOL    HW2 9690   4.105   6.921   4.444
 2931SOL     OW 9691   4.445   6.648   6.614
 2931SOL    HW1 9692   4.400   6.731   6.580
 2931SOL    HW2 9693   4.424   6.636   6.711
 2932SOL     OW 9694   1.185   3.800   1.110
 2932SOL    HW1 9695   1.191   3.871   1.180
 2932SOL    HW2 9696   1.126   3.830   1.036
 2933SOL     OW 9697   4.939   2.358   3.454
 2933SOL    HW1 9698   4.988   2.443   3.477
 2933SOL    HW2 9699   4.996   2.303   3.392
 2934SOL     OW 9700   2.518   0.743   0.073
 2934SOL    HW1 9701   2.495   0.751   6.998
 2934SOL    HW2 9702   2.504   0.649   0.103
 2935SOL     OW 9703   5.667   2.476   1.287
 2935SOL    HW1 9704   5.763   2.490   1.314
 2935SOL    HW2 9705   5.662   2.402   1.221
 2936SOL     OW 9706   4.768   5.760   0.090
 2936SOL    HW1 9707   4.743   5.710   0.173
 2936SOL    HW2 9708   4.695   5.825   0.067
 2937SOL     OW 9709   3.381   5.929   6.820
 2937SOL    HW1 9710   3.407   5.998   6.887
 2937SOL    HW2 9711   3.349   5.847   6.867
 2938SOL     OW 9712   4.933   5.689   5.551
 2938SOL    HW1 9713   4.971   5.756   5.488
 2938SOL    HW2 9714   4.833   5.690   5.543
 2939SOL     OW 9715   6.615   6.285   5.443
 2939SOL    HW1 9716   6.536   6.274   5.503
 2939SOL    HW2 9717   6.675   6.356   5.480
 2940SOL     OW 9718   4.994   0.200   5.359
 2940SOL    HW1 9719   4.947   0.261   5.423
 2940SOL    HW2 9720   5.090   0.191   5.385
 2941SOL     OW 9721   1.163   1.985   5.431
 2941SOL    HW1 9722   1.129   2.006   5.522
 2941SOL    HW2 9723   1.173   2.069   5.378
 2942SOL     OW 9724   3.495   6.320   2.465
 2942SOL    HW1 9725   3.466   6.375   2.387
 2942SOL    HW2 9726   3.527   6.380   2.538
 2943SOL     OW 9727   6.144   3.852   3.579
 2943SOL    HW1 9728   6.136   3.814   3.487
 2943SOL    HW2 9729   6.113   3.784   3.646
 2944SOL     OW 9730   4.093   5.652   5.202
 2944SOL    HW1 9731   4.127   5.742   5.230
 2944SOL    HW2 9732   4.138   5.581   5.256
 2945SOL     OW 9733   3.191   3.208   3.311
 2945SOL    HW1 9734   3.156   3.212   3.218
 2945SOL    HW2 9735   3.141   3.272   3.369
 2946SOL     OW 9736   0.014   5.962   6.320
 2946SOL    HW1 9737   6.996   6.049   6.349
 2946SOL    HW2 9738   0.031   5.964   6.222
 2947SOL     OW 9739   6.515   4.121   0.198
 2947SOL    HW1 9740   6.436   4.075   0.158
 2947SOL    HW2 9741   6.485   4.196   0.255
 2948SOL     OW 9742   5.732   4.039   4.446
 2948SOL    HW1 9743   5.722   4.136   4.424
 2948SOL    HW2 9744   5.645   3.993   4.432
 2949SOL     OW 9745   1.272   6.779   0.220
 2949SOL    HW1 9746   1.266   6.724   0.137
 2949SOL    HW2 9747   1.300   6.872   0.196
 2950SOL     OW 9748   5.103   3.456   4.347
 2950SOL    HW1 9749   5.111   3.357   4.360
 2950SOL    HW2 9750   5.035   3.492   4.411
 2951SOL     OW 9751   0.677   1.563   1.042
 2951SOL    HW1 9752   0.743   1.532   1.111
 2951SOL    HW2 9753   0.592   1.511   1.051
 2952SOL     OW 9754   1.801   3.909   2.571
 2952SOL    HW1 9755   1.806   3.809   2.566
 2952SOL    HW2 9756   1.728   3.936   2.634
 2953SOL     OW 9757   4.572   2.554   1.885
 2953SOL    HW1 9758   4.594   2.589   1.794
 2953SOL    HW2 9759   4.603   2.619   1.954
 2954SOL     OW 9760   6.666   6.758   3.260
 2954SOL    HW1 9761   6.620   6.678   3.222
 2954SOL    HW2 9762   6.739   6.728   3.322
 2955SOL     OW 9763   1.170   2.941   0.426
 2955SOL    HW1 9764   1.184   2.842   0.434
 2955SOL    HW2 9765   1.125   2.975   0.508
 2956SOL     OW 9766   0.222   4.747   3.033
 2956SOL    HW1 9767   0.152   4.777   3.097
 2956SOL    HW2 9768   0.197   4.659   2.993
 2957SOL     OW 9769   0.660   3.628   2.138
 2957SOL    HW1 9770   0.729   3.572   2.183
 2957SOL    HW2 9771   0.690   3.650   2.045
 2958SOL     OW 9772   2.074   4.601   6.101
 2958SOL    HW1 9773   2.109   4.681   6.150
 2958SOL    HW2 9774   2.002   4.557   6.156
 2959SOL     OW 9775   4.457   5.640   6.404
 2959SOL    HW1 9776   4.486   5.569   6.468
 2959SOL    HW2 9777   4.377   5.608   6.353
 2960SOL     OW 9778   1.969   1.471   0.035
 2960SOL    HW1 9779   1.959   1.437   0.129
 2960SOL    HW2 9780   1.977   1.393   6.994
 2961SOL     OW 9781   5.496   3.582   3.802
 2961SOL    HW1 9782   5.500   3.513   3.730
 2961SOL    HW2 9783   5.416   3.640   3.788
 2962SOL     OW 9784   4.655   0.616   3.421
 2962SOL    HW1 9785   4.560   0.619   3.453
 2962SOL    HW2 9786   4.667   0.536   3.362
 2963SOL     OW 9787   2.204   1.763   5.081
 2963SOL    HW1 9788   2.188   1.817   4.998
 2963SOL    HW2 9789   2.180   1.819   5.161
 2964SOL     OW 9790   2.783   6.379   0.946
 2964SOL    HW1 9791   2.771   6.464   0.894
 2964SOL    HW2 9792   2.707   6.369   1.010
 2965SOL     OW 9793   0.424   1.535   5.984
 2965SOL    HW1 9794   0.368   1.608   5.945
 2965SOL    HW2 9795   0.511   1.573   6.016
 2966SOL     OW 9796   5.382   4.806   4.087
 2966SOL    HW1 9797   5.303   4.845   4.038
 2966SOL    HW2 9798   5.451   4.877   4.101
 2967SOL     OW 9799   5.769   2.955   3.493
 2967SOL    HW1 9800   5.829   2.926   3.418
 2967SOL    HW2 9801   5.687   2.898   3.494
 2968SOL     OW 9802   0.597   4.035   3.987
 2968SOL    HW1 9803   0.683   4.044   3.938
 2968SOL    HW2 9804   0.556   3.946   3.965
 2969SOL     OW 9805   4.497   2.102   4.733
 2969SOL    HW1 9806   4.480   2.003   4.731
 2969SOL    HW2 9807   4.458   2.144   4.651
 2970SOL     OW 9808   0.785   4.348   6.280
 2970SOL    HW1 9809   0.876   4.362   6.320
 2970SOL    HW2 9810   0.716   4.355   6.352
 2971SOL     OW 9811   5.590   2.403   2.930
 2971SOL    HW1 9812   5.613   2.500   2.940
 2971SOL    HW2 9813   5.663   2.356   2.880
 2972SOL     OW 9814   6.688   3.430   6.017
 2972SOL    HW1 9815   6.704   3.419   5.919
 2972SOL    HW2 9816   6.772   3.408   6.067
 2973SOL     OW 9817   4.824   6.214   4.037
 2973SOL    HW1 9818   4.907   6.246   4.082
 2973SOL    HW2 9819   4.769   6.293   4.009
 2974SOL     OW 9820   6.839   4.281   2.914
 2974SOL    HW1 9821   6.870   4.189   2.890
 2974SOL    HW2 9822   6.757   4.303   2.862
 2975SOL     OW 9823   0.217   0.686   5.285
 2975SOL    HW1 9824   0.296   0.694   5.224
 2975SOL    HW2 9825   0.159   0.767   5.275
 2976SOL     OW 9826   3.630   1.017   2.661
 2976SOL    HW1 9827   3.632   1.076   2.581
 2976SOL    HW2 9828   3.591   0.928   2.637
 2977SOL     OW 9829   3.199   6.638   3.845
 2977SOL    HW1 9830   3.153   6.676   3.925
 2977SOL    HW2 9831   3.258   6.708   3.805
 2978SOL     OW 9832   5.593   4.931   0.009
 2978SOL    HW1 9833   5.665   4.876   6.988
 2978SOL    HW2 9834   5.512   4.931   6.973
 2979SOL     OW 9835   3.794   0.570   2.957
 2979SOL    HW1 9836   3.805   0.669   2.948
 2979SOL    HW2 9837   3.852   0.536   3.030
 2980SOL     OW 9838   0.390   5.841   4.479
 2980SOL    HW1 9839   0.477   5.867   4.438
 2980SOL    HW2 9840   0.320   5.835   4.408
 2981SOL     OW 9841   2.136   1.136   5.661
 2981SOL    HW1 9842   2.070   1.081   5.711
 2981SOL    HW2 9843   2.092   1.175   5.579
 2982SOL     OW 9844   5.060   6.222   2.120
 2982SOL    HW1 9845   5.122   6.152   2.085
 2982SOL    HW2 9846   4.973   6.216   2.070
 2983SOL     OW 9847   6.792   1.110   3.917
 2983SOL    HW1 9848   6.696   1.081   3.925
 2983SOL    HW2 9849   6.826   1.086   3.826
 2984SOL     OW 9850   5.998   5.449   1.734
 2984SOL    HW1 9851   5.927   5.385   1.705
 2984SOL    HW2 9852   6.055   5.474   1.656
 2985SOL     OW 9853   6.507   2.090   3.187
 2985SOL    HW1 9854   6.435   2.021   3.187
 2985SOL    HW2 9855   6.575   2.068   3.117
 2986SOL     OW 9856   1.367   3.241   5.283
 2986SOL    HW1 9857   1.356   3.206   5.190
 2986SOL    HW2 9858   1.436   3.313   5.284
 2987SOL     OW 9859   4.398   2.188   4.491
 2987SOL    HW1 9860   4.327   2.223   4.430
 2987SOL    HW2 9861   4.418   2.093   4.468
 2988SOL     OW 9862   1.247   7.017   1.453
 2988SOL    HW1 9863   1.163   0.045   1.476
 2988SOL    HW2 9864   1.223   6.923   1.427
 2989SOL     OW 9865   0.027   5.254   0.994
 2989SOL    HW1 9866   0.102   5.246   1.060
 2989SOL    HW2 9867   0.015   5.166   0.948
 2990SOL     OW 9868   4.003   1.408   1.304
 2990SOL    HW1 9869   4.005   1.400   1.403
 2990SOL    HW2 9870   4.007   1.505   1.278
 2991SOL     OW 9871   6.768   3.698   0.524
 2991SOL    HW1 9872   6.807   3.606   0.525
 2991SOL    HW2 9873   6.753   3.729   0.618
 2992SOL     OW 9874   3.474   5.232   6.424
 2992SOL    HW1 9875   3.430   5.197   6.342
 2992SOL    HW2 9876   3.443   5.325   6.442
 2993SOL     OW 9877   1.119   5.430   1.291
 2993SOL    HW1 9878   1.107   5.433   1.192
 2993SOL    HW2 9879   1.211   5.459   1.315
 2994SOL     OW 9880   4.933   6.558   6.974
 2994SOL    HW1 9881   4.935   6.637   0.014
 2994SOL    HW2 9882   4.979   6.480   7.017
 2995SOL     OW 9883   1.482   1.655   6.410
 2995SOL    HW1 9884   1.473   1.683   6.506
 2995SOL    HW2 9885   1.434   1.721   6.352
 2996SOL     OW 9886   4.161   5.509   5.653
 2996SOL    HW1 9887   4.121   5.487   5.564
 2996SOL    HW2 9888   4.103   5.474   5.726
 2997SOL     OW 9889   5.807   6.751   1.094
 2997SOL    HW1 9890   5.819   6.837   1.045
 2997SOL    HW2 9891   5.808   6.769   1.193
 2998SOL     OW 9892   6.136   5.547   4.078
 2998SOL    HW1 9893   6.149   5.646   4.078
 2998SOL    HW2 9894   6.121   5.514   4.171
 2999SOL     OW 9895   3.436   6.826   3.034
 2999SOL    HW1 9896   3.399   6.742   2.994
 2999SOL    HW2 9897   3.362   6.876   3.081
 3000SOL     OW 9898   1.321   2.984   5.591
 3000SOL    HW1 9899   1.419   2.995   5.605
 3000SOL    HW2 9900   1.299   2.886   5.582
 3001SOL     OW 9901   5.067   0.330   5.765
 3001SOL    HW1 9902   5.128   0.347   5.842
 3001SOL    HW2 9903   4.978   0.298   5.798
 3002SOL     OW 9904   4.085   7.007   5.800
 3002SOL    HW1 9905   4.023   7.021   5.723
 3002SOL    HW2 9906   4.065   6.918   5.842
 3003SOL     OW 9907   3.144   6.710   5.605
 3003SOL    HW1 9908   3.123   6.767   5.525
 3003SOL    HW2 9909   3.155   6.769   5.685
 3004SOL     OW 9910   6.017   3.357   4.231
 3004SOL    HW1 9911   6.034   3.346   4.329
 3004SOL    HW2 9912   6.083   3.302   4.180
 3005SOL     OW 9913   4.043   2.831   1.072
 3005SOL    HW1 9914   4.113   2.829   1.143
 3005SOL    HW2 9915   3.953   2.838   1.115
 3006SOL     OW 9916   5.491   0.619   1.179
 3006SOL    HW1 9917   5.526   0.667   1.259
 3006SOL    HW2 9918   5.395   0.596   1.193
 3007SOL     OW 9919   6.226   4.826   3.124
 3007SOL    HW1 9920   6.244   4.804   3.028
 3007SOL    HW2 9921   6.194   4.744   3.171
 3008SOL     OW 9922   3.438   6.641   5.476
 3008SOL    HW1 9923   3.375   6.564   5.480
 3008SOL    HW2 9924   3.528   6.613   5.511
 3009SOL     OW 9925   1.221   6.857   3.092
 3009SOL    HW1 9926   1.250   6.869   3.187
 3009SOL    HW2 9927   1.122   6.870   3.085
 3010SOL     OW 9928   3.897   6.183   2.472
 3010SOL    HW1 9929   3.800   6.164   2.458
 3010SOL    HW2 9930   3.913   6.201   2.569
 3011SOL     OW 9931   5.668   6.949   0.128
 3011SOL    HW1 9932   5.664   0.026   0.126
 3011SOL    HW2 9933   5.739   6.920   0.193
 3012SOL     OW 9934   0.158   3.957   3.516
 3012SOL    HW1 9935   0.061   3.958   3.492
 3012SOL    HW2 9936   0.198   3.869   3.492
 3013SOL     OW 9937   6.151   5.211   2.068
 3013SOL    HW1 9938   6.182   5.281   2.132
 3013SOL    HW2 9939   6.052   5.218   2.057
 3014SOL     OW 9940   4.722   0.794   3.902
 3014SOL    HW1 9941   4.644   0.847   3.867
 3014SOL    HW2 9942   4.722   0.703   3.860
 3015SOL     OW 9943   3.041   2.277   0.655
 3015SOL    HW1 9944   3.065   2.343   0.584
 3015SOL    HW2 9945   3.063   2.185   0.623
 3016SOL     OW 9946   3.787   6.847   3.512
 3016SOL    HW1 9947   3.758   6.836   3.607
 3016SOL    HW2 9948   3.801   6.944   3.493
 3017SOL     OW 9949   0.882   6.030   1.218
 3017SOL    HW1 9950   0.892   6.091   1.139
 3017SOL    HW2 9951   0.875   5.935   1.186
 3018SOL     OW 9952   3.978   6.448   6.854
 3018SOL    HW1 9953   4.051   6.516   6.861
 3018SOL    HW2 9954   3.952   6.416   6.945
 3019SOL     OW 9955   3.637   0.128   1.075
 3019SOL    HW1 9956   3.601   0.222   1.081
 3019SOL    HW2 9957   3.719   0.121   1.132
 3020SOL     OW 9958   2.371   3.070   1.254
 3020SOL    HW1 9959   2.294   3.020   1.215
 3020SOL    HW2 9960   2.442   3.080   1.184
 3021SOL     OW 9961   2.199   2.510   0.135
 3021SOL    HW1 9962   2.255   2.430   0.157
 3021SOL    HW2 9963   2.128   2.521   0.204
 3022SOL     OW 9964   4.845   6.729   3.022
 3022SOL    HW1 9965   4.877   6.780   3.102
 3022SOL    HW2 9966   4.772   6.781   2.977
 3023SOL     OW 9967   5.002   5.766   2.780
 3023SOL    HW1 9968   4.988   5.728   2.872
 3023SOL    HW2 9969   5.021   5.692   2.716
 3024SOL     OW 9970   2.978   1.143   0.209
 3024SOL    HW1 9971   3.072   1.135   0.243
 3024SOL    HW2 9972   2.967   1.085   0.129
 3025SOL     OW 9973   2.479   2.725   1.032
 3025SOL    HW1 9974   2.437   2.658   1.093
 3025SOL    HW2 9975   2.531   2.678   0.961
 3026SOL     OW 9976   1.870   3.332   0.813
 3026SOL    HW1 9977   1.844   3.345   0.909
 3026SOL    HW2 9978   1.940   3.399   0.788
 3027SOL     OW 9979   1.848   1.958   3.343
 3027SOL    HW1 9980   1.808   2.016   3.414
 3027SOL    HW2 9981   1.945   1.980   3.334
 3028SOL     OW 9982   1.533   5.643   5.947
 3028SOL    HW1 9983   1.496   5.550   5.953
 3028SOL    HW2 9984   1.583   5.654   5.861
 3029SOL     OW 9985   6.241   5.669   5.194
 3029SOL    HW1 9986   6.275   5.639   5.284
 3029SOL    HW2 9987   6.160   5.615   5.171
 3030SOL     OW 9988   1.432   1.968   5.340
 3030SOL    HW1 9989   1.342   1.999   5.372
 3030SOL    HW2 9990   1.454   1.881   5.383
 3031SOL     OW 9991   0.058   4.208   5.935
 3031SOL    HW1 9992   0.075   4.203   5.837
 3031SOL    HW2 9993   0.101   4.131   5.981
 3032SOL     OW 9994   5.006   0.764   5.822
 3032SOL    HW1 9995   4.936   0.796   5.886
 3032SOL    HW2 9996   5.088   0.821   5.831
 3033SOL     OW 9997   0.367   3.620   6.758
 3033SOL    HW1 9998   0.289   3.658   6.808
 3033SOL    HW2 9999   0.365   3.651   6.663
 3034SOL     OW10000   3.048   5.995   4.405
 3034SOL    HW110001   3.106   5.982   4.487
 3034SOL    HW210002   2.957   5.958   4.423
 3035SOL     OW10003   5.569   1.271   0.047
 3035SOL    HW110004   5.554   1.342   0.116
 3035SOL    HW210005   5.665   1.245   0.047
 3036SOL     OW10006   1.084   4.334   6.612
 3036SOL    HW110007   1.147   4.256   6.615
 3036SOL    HW210008   1.007   4.317   6.673
 3037SOL     OW10009   6.654   6.040   5.316
 3037SOL    HW110010   6.650   6.068   5.221
 3037SOL    HW210011   6.638   6.118   5.376
 3038SOL     OW10012   5.243   6.904   5.984
 3038SOL    HW110013   5.196   6.970   5.926
 3038SOL    HW210014   5.261   6.945   6.074
 3039SOL     OW10015   0.609   4.311   1.810
 3039SOL    HW110016   0.684   4.375   1.822
 3039SOL    HW210017   0.639   4.237   1.750
 3040SOL     OW10018   2.693   3.651   6.674
 3040SOL    HW110019   2.672   3.622   6.580
 3040SOL    HW210020   2.621   3.618   6.736
 3041SOL     OW10021   1.651   1.954   5.914
 3041SOL    HW110022   1.709   2.016   5.967
 3041SOL    HW210023   1.632   1.994   5.824
 3042SOL     OW10024   4.586   0.513   2.021
 3042SOL    HW110025   4.522   0.437   2.031
 3042SOL    HW210026   4.649   0.494   1.946
 3043SOL     OW10027   0.811   5.720   0.580
 3043SOL    HW110028   0.748   5.646   0.603
 3043SOL    HW210029   0.785   5.760   0.492
 3044SOL     OW10030   3.437   4.531   6.359
 3044SOL    HW110031   3.534   4.552   6.366
 3044SOL    HW210032   3.404   4.556   6.268
 3045SOL     OW10033   5.476   1.957   2.667
 3045SOL    HW110034   5.434   2.016   2.598
 3045SOL    HW210035   5.461   1.861   2.643
 3046SOL     OW10036   1.598   2.452   5.608
 3046SOL    HW110037   1.543   2.385   5.657
 3046SOL    HW210038   1.567   2.544   5.631
 3047SOL     OW10039   6.138   5.280   2.517
 3047SOL    HW110040   6.081   5.301   2.597
 3047SOL    HW210041   6.119   5.345   2.444
 3048SOL     OW10042   3.536   3.004   1.347
 3048SOL    HW110043   3.557   2.906   1.347
 3048SOL    HW210044   3.446   3.018   1.305
 3049SOL     OW10045   1.072   0.387   1.929
 3049SOL    HW110046   0.980   0.425   1.930
 3049SOL    HW210047   1.134   0.453   1.886
 3050SOL     OW10048   4.397   5.601   3.729
 3050SOL    HW110049   4.480   5.546   3.726
 3050SOL    HW210050   4.421   5.698   3.726
 3051SOL     OW10051   2.955   5.180   0.102
 3051SOL    HW110052   3.048   5.194   0.070
 3051SOL    HW210053   2.957   5.137   0.193
 3052SOL     OW10054   3.812   6.777   2.838
 3052SOL    HW110055   3.783   6.716   2.911
 3052SOL    HW210056   3.891   6.831   2.869
 3053SOL     OW10057   5.653   6.215   0.026
 3053SOL    HW110058   5.584   6.186   0.093
 3053SOL    HW210059   5.744   6.190   0.059
 3054SOL     OW10060   0.627   3.465   0.305
 3054SOL    HW110061   0.528   3.455   0.293
 3054SOL    HW210062   0.667   3.495   0.219
 3055SOL     OW10063   6.001   6.143   3.536
 3055SOL    HW110064   6.029   6.049   3.557
 3055SOL    HW210065   6.004   6.157   3.437
 3056SOL     OW10066   6.742   0.386   0.845
 3056SOL    HW110067   6.803   0.314   0.879
 3056SOL    HW210068   6.796   0.466   0.820
 3057SOL     OW10069   5.927   4.940   2.913
 3057SOL    HW110070   5.894   5.029   2.945
 3057SOL    HW210071   5.875   4.867   2.956
 3058SOL     OW10072   6.613   5.632   0.854
 3058SOL    HW110073   6.549   5.556   0.841
 3058SOL    HW210074   6.703   5.605   0.823
 3059SOL     OW10075   1.401   2.515   4.955
 3059SOL    HW110076   1.362   2.598   4.915
 3059SOL    HW210077   1.499   2.526   4.967
 3060SOL     OW10078   6.849   6.363   1.492
 3060SOL    HW110079   6.844   6.339   1.589
 3060SOL    HW210080   6.796   6.297   1.439
 3061SOL     OW10081   0.462   0.303   5.264
 3061SOL    HW110082   0.472   0.288   5.362
 3061SOL    HW210083   0.521   0.378   5.235
 3062SOL     OW10084   2.640   6.131   0.831
 3062SOL    HW110085   2.579   6.164   0.759
 3062SOL    HW210086   2.707   6.201   0.853
 3063SOL     OW10087   1.699   4.973   1.553
 3063SOL    HW110088   1.612   5.023   1.553
 3063SOL    HW210089   1.687   4.885   1.599
 3064SOL     OW10090   6.122   3.956   3.147
 3064SOL    HW110091   6.152   3.882   3.206
 3064SOL    HW210092   6.124   3.926   3.052
 3065SOL     OW10093   1.488   0.710   0.016
 3065SOL    HW110094   1.439   0.784   6.992
 3065SOL    HW210095   1.464   0.623   6.995
 3066SOL     OW10096   6.457   4.758   1.395
 3066SOL    HW110097   6.542   4.774   1.345
 3066SOL    HW210098   6.451   4.823   1.472
 3067SOL     OW10099   4.614   6.715   4.206
 3067SOL    HW110100   4.641   6.715   4.110
 3067SOL    HW210101   4.611   6.809   4.240
 3068SOL     OW10102   5.548   5.383   0.973
 3068SOL    HW110103   5.559   5.315   0.901
 3068SOL    HW210104   5.638   5.419   0.999
 3069SOL     OW10105   0.460   5.925   2.188
 3069SOL    HW110106   0.409   5.947   2.271
 3069SOL    HW210107   0.406   5.863   2.131
 3070SOL     OW10108   2.680   1.333   3.830
 3070SOL    HW110109   2.715   1.240   3.836
 3070SOL    HW210110   2.594   1.333   3.779
 3071SOL     OW10111   5.711   0.302   3.792
 3071SOL    HW110112   5.775   0.375   3.769
 3071SOL    HW210113   5.760   0.215   3.800
 3072SOL     OW10114   0.383   6.938   2.141
 3072SOL    HW110115   0.390   6.877   2.062
 3072SOL    HW210116   0.367   6.884   2.224
 3073SOL     OW10117   1.310   3.553   5.327
 3073SOL    HW110118   1.287   3.522   5.235
 3073SOL    HW210119   1.227   3.569   5.380
 3074SOL     OW10120   4.401   3.369   6.218
 3074SOL    HW110121   4.358   3.285   6.186
 3074SOL    HW210122   4.385   3.442   6.151
 3075SOL     OW10123   1.625   5.608   1.153
 3075SOL    HW110124   1.693   5.640   1.219
 3075SOL    HW210125   1.670   5.585   1.067
 3076SOL     OW10126   6.382   0.436   4.891
 3076SOL    HW110127   6.412   0.418   4.985
 3076SOL    HW210128   6.331   0.523   4.889
 3077SOL     OW10129   5.501   4.650   4.281
 3077SOL    HW110130   5.578   4.603   4.237
 3077SOL    HW210131   5.456   4.710   4.215
 3078SOL     OW10132   1.821   3.948   1.808
 3078SOL    HW110133   1.898   3.952   1.744
 3078SOL    HW210134   1.790   3.854   1.817
 3079SOL     OW10135   6.779   2.113   5.132
 3079SOL    HW110136   6.730   2.197   5.109
 3079SOL    HW210137   6.823   2.124   5.222
 3080SOL     OW10138   6.612   5.015   0.665
 3080SOL    HW110139   6.560   5.054   0.589
 3080SOL    HW210140   6.596   4.917   0.670
 3081SOL     OW10141   0.362   4.568   5.358
 3081SOL    HW110142   0.441   4.616   5.397
 3081SOL    HW210143   0.391   4.480   5.322
 3082SOL     OW10144   3.282   0.155   2.460
 3082SOL    HW110145   3.294   0.184   2.554
 3082SOL    HW210146   3.340   0.075   2.442
 3083SOL     OW10147   3.529   0.718   1.928
 3083SOL    HW110148   3.485   0.656   1.864
 3083SOL    HW210149   3.584   0.666   1.994
 3084SOL     OW10150   5.709   5.665   4.672
 3084SOL    HW110151   5.667   5.575   4.686
 3084SOL    HW210152   5.771   5.685   4.748
 3085SOL     OW10153   0.131   5.710   2.679
 3085SOL    HW110154   0.118   5.800   2.637
 3085SOL    HW210155   0.226   5.681   2.665
 3086SOL     OW10156   4.646   1.509   3.581
 3086SOL    HW110157   4.580   1.499   3.655
 3086SOL    HW210158   4.644   1.427   3.524
 3087SOL     OW10159   6.202   3.889   2.875
 3087SOL    HW110160   6.200   3.970   2.817
 3087SOL    HW210161   6.293   3.879   2.915
 3088SOL     OW10162   2.420   4.586   5.548
 3088SOL    HW110163   2.454   4.679   5.536
 3088SOL    HW210164   2.390   4.550   5.460
 3089SOL     OW10165   1.572   2.680   0.295
 3089SOL    HW110166   1.533   2.770   0.317
 3089SOL    HW210167   1.632   2.688   0.216
 3090SOL     OW10168   1.402   1.787   1.218
 3090SOL    HW110169   1.473   1.786   1.288
 3090SOL    HW210170   1.314   1.765   1.259
 3091SOL     OW10171   2.429   6.858   0.670
 3091SOL    HW110172   2.355   6.797   0.643
 3091SOL    HW210173   2.458   6.911   0.590
 3092SOL     OW10174   5.836   6.814   1.366
 3092SOL    HW110175   5.903   6.878   1.329
 3092SOL    HW210176   5.879   6.758   1.436
 3093SOL     OW10177   6.260   5.548   5.715
 3093SOL    HW110178   6.243   5.449   5.714
 3093SOL    HW210179   6.176   5.596   5.693
 3094SOL     OW10180   3.097   6.109   5.365
 3094SOL    HW110181   3.103   6.083   5.269
 3094SOL    HW210182   3.178   6.074   5.413
 3095SOL     OW10183   2.847   4.795   4.539
 3095SOL    HW110184   2.881   4.749   4.457
 3095SOL    HW210185   2.764   4.749   4.571
 3096SOL     OW10186   0.590   0.528   4.913
 3096SOL    HW110187   0.582   0.618   4.870
 3096SOL    HW210188   0.503   0.478   4.902
 3097SOL     OW10189   1.105   2.738   0.129
 3097SOL    HW110190   1.147   2.775   0.212
 3097SOL    HW210191   1.073   2.814   0.072
 3098SOL     OW10192   2.553   2.751   0.518
 3098SOL    HW110193   2.539   2.830   0.577
 3098SOL    HW210194   2.482   2.748   0.448
 3099SOL     OW10195   0.717   5.864   5.835
 3099SOL    HW110196   0.733   5.820   5.747
 3099SOL    HW210197   0.621   5.854   5.860
 3100SOL     OW10198   6.636   6.652   6.560
 3100SOL    HW110199   6.630   6.696   6.471
 3100SOL    HW210200   6.639   6.723   6.631
 3101SOL     OW10201   5.016   0.156   6.433
 3101SOL    HW110202   4.965   0.076   6.401
 3101SOL    HW210203   5.091   0.127   6.492
 3102SOL     OW10204   1.654   4.182   0.635
 3102SOL    HW110205   1.608   4.104   0.593
 3102SOL    HW210206   1.673   4.252   0.565
 3103SOL     OW10207   4.259   2.861   1.690
 3103SOL    HW110208   4.352   2.885   1.660
 3103SOL    HW210209   4.244   2.764   1.674
 3104SOL     OW10210   5.585   6.064   4.146
 3104SOL    HW110211   5.622   6.098   4.060
 3104SOL    HW210212   5.647   6.086   4.221
 3105SOL     OW10213   5.588   6.514   4.482
 3105SOL    HW110214   5.580   6.424   4.440
 3105SOL    HW210215   5.620   6.504   4.576
 3106SOL     OW10216   6.866   2.675   2.926
 3106SOL    HW110217   6.822   2.629   3.002
 3106SOL    HW210218   6.809   2.750   2.893
 3107SOL     OW10219   2.810   0.394   3.706
 3107SOL    HW110220   2.724   0.401   3.756
 3107SOL    HW210221   2.794   0.412   3.609
 3108SOL     OW10222   2.312   0.995   3.467
 3108SOL    HW110223   2.247   0.944   3.411
 3108SOL    HW210224   2.300   1.093   3.453
 3109SOL     OW10225   5.215   5.780   3.086
 3109SOL    HW110226   5.131   5.730   3.064
 3109SOL    HW210227   5.261   5.807   3.001
 3110SOL     OW10228   1.231   2.953   2.617
 3110SOL    HW110229   1.183   3.000   2.543
 3110SOL    HW210230   1.330   2.961   2.603
 3111SOL     OW10231   0.368   5.018   3.749
 3111SOL    HW110232   0.368   5.003   3.650
 3111SOL    HW210233   0.413   5.105   3.770
 3112SOL     OW10234   4.779   3.791   6.778
 3112SOL    HW110235   4.875   3.780   6.802
 3112SOL    HW210236   4.756   3.730   6.702
 3113SOL     OW10237   2.812   6.596   3.238
 3113SOL    HW110238   2.832   6.624   3.144
 3113SOL    HW210239   2.844   6.666   3.302
 3114SOL     OW10240   6.477   4.776   1.049
 3114SOL    HW110241   6.415   4.843   1.090
 3114SOL    HW210242   6.558   4.823   1.014
 3115SOL     OW10243   3.489   4.175   0.499
 3115SOL    HW110244   3.457   4.082   0.478
 3115SOL    HW210245   3.510   4.182   0.597
 3116SOL     OW10246   6.443   2.309   0.320
 3116SOL    HW110247   6.507   2.286   0.393
 3116SOL    HW210248   6.372   2.238   0.315
 3117SOL     OW10249   3.826   3.073   4.954
 3117SOL    HW110250   3.827   3.118   5.043
 3117SOL    HW210251   3.917   3.036   4.933
 3118SOL     OW10252   6.054   4.190   0.635
 3118SOL    HW110253   6.110   4.179   0.553
 3118SOL    HW210254   5.993   4.268   0.624
 3119SOL     OW10255   1.835   4.253   5.317
 3119SOL    HW110256   1.894   4.278   5.394
 3119SOL    HW210257   1.883   4.189   5.257
 3120SOL     OW10258   2.918   5.822   4.824
 3120SOL    HW110259   2.878   5.782   4.741
 3120SOL    HW210260   3.017   5.807   4.823
 3121SOL     OW10261   6.549   0.878   2.542
 3121SOL    HW110262   6.645   0.873   2.514
 3121SOL    HW210263   6.527   0.798   2.598
 3122SOL     OW10264   2.933   5.632   6.769
 3122SOL    HW110265   2.907   5.548   6.721
 3122SOL    HW210266   2.977   5.608   6.855
 3123SOL     OW10267   3.601   6.125   3.725
 3123SOL    HW110268   3.550   6.203   3.689
 3123SOL    HW210269   3.695   6.155   3.746
 3124SOL     OW10270   4.342   1.047   5.773
 3124SOL    HW110271   4.310   1.132   5.731
 3124SOL    HW210272   4.318   0.970   5.714
 3125SOL     OW10273   6.471   1.712   5.906
 3125SOL    HW110274   6.516   1.649   5.970
 3125SOL    HW210275   6.460   1.801   5.949
 3126SOL     OW10276   4.137   6.106   0.533
 3126SOL    HW110277   4.148   6.035   0.602
 3126SOL    HW210278   4.191   6.187   0.559
 3127SOL     OW10279   0.814   1.671   4.161
 3127SOL    HW110280   0.873   1.741   4.202
 3127SOL    HW210281   0.855   1.640   4.075
 3128SOL     OW10282   1.705   1.103   0.804
 3128SOL    HW110283   1.613   1.084   0.770
 3128SOL    HW210284   1.772   1.053   0.750
 3129SOL     OW10285   6.579   3.792   5.291
 3129SOL    HW110286   6.652   3.786   5.358
 3129SOL    HW210287   6.491   3.771   5.334
 3130SOL     OW10288   1.852   4.518   2.082
 3130SOL    HW110289   1.915   4.594   2.099
 3130SOL    HW210290   1.905   4.434   2.068
 3131SOL     OW10291   0.066   3.342   2.909
 3131SOL    HW110292   6.996   3.371   2.883
 3131SOL    HW210293   0.086   3.252   2.870
 3132SOL     OW10294   5.409   6.281   5.564
 3132SOL    HW110295   5.383   6.210   5.499
 3132SOL    HW210296   5.503   6.267   5.594
 3133SOL     OW10297   2.962   1.981   3.093
 3133SOL    HW110298   2.930   2.075   3.079
 3133SOL    HW210299   2.979   1.939   3.004
 3134SOL     OW10300   5.002   3.427   1.796
 3134SOL    HW110301   4.956   3.339   1.810
 3134SOL    HW210302   5.100   3.413   1.788
 3135SOL     OW10303   3.645   2.129   3.550
 3135SOL    HW110304   3.591   2.113   3.467
 3135SOL    HW210305   3.586   2.124   3.630
 3136SOL     OW10306   6.062   6.437   5.316
 3136SOL    HW110307   6.127   6.445   5.241
 3136SOL    HW210308   6.032   6.528   5.345
 3137SOL     OW10309   5.782   1.820   3.995
 3137SOL    HW110310   5.753   1.908   4.034
 3137SOL    HW210311   5.779   1.749   4.065
 3138SOL     OW10312   6.050   1.705   4.861
 3138SOL    HW110313   5.990   1.641   4.910
 3138SOL    HW210314   5.997   1.786   4.835
 3139SOL     OW10315   4.640   6.016   5.171
 3139SOL    HW110316   4.645   5.923   5.133
 3139SOL    HW210317   4.679   6.080   5.105
 3140SOL     OW10318   6.743   6.317   6.649
 3140SOL    HW110319   6.726   6.285   6.742
 3140SOL    HW210320   6.810   6.391   6.651
 3141SOL     OW10321   1.083   5.419   0.349
 3141SOL    HW110322   1.175   5.382   0.341
 3141SOL    HW210323   1.056   5.461   0.262
 3142SOL     OW10324   4.643   6.574   6.425
 3142SOL    HW110325   4.628   6.477   6.407
 3142SOL    HW210326   4.583   6.604   6.499
 3143SOL     OW10327   6.730   1.320   0.251
 3143SOL    HW110328   6.828   1.307   0.268
 3143SOL    HW210329   6.680   1.313   0.338
 3144SOL     OW10330   1.859   3.193   6.570
 3144SOL    HW110331   1.799   3.267   6.601
 3144SOL    HW210332   1.844   3.112   6.626
 3145SOL     OW10333   3.279   5.679   2.871
 3145SOL    HW110334   3.195   5.665   2.819
 3145SOL    HW210335   3.338   5.743   2.821
 3146SOL     OW10336   0.846   0.127   3.211
 3146SOL    HW110337   0.874   0.090   3.299
 3146SOL    HW210338   0.822   0.224   3.220
 3147SOL     OW10339   4.989   4.035   0.022
 3147SOL    HW110340   5.029   4.111   6.992
 3147SOL    HW210341   4.894   4.057   0.046
 3148SOL     OW10342   3.537   5.227   4.856
 3148SOL    HW110343   3.517   5.129   4.864
 3148SOL    HW210344   3.503   5.261   4.768
 3149SOL     OW10345   3.574   0.517   5.612
 3149SOL    HW110346   3.564   0.491   5.707
 3149SOL    HW210347   3.484   0.531   5.571
 3150SOL     OW10348   5.763   6.485   4.718
 3150SOL    HW110349   5.734   6.561   4.776
 3150SOL    HW210350   5.863   6.481   4.714
 3151SOL     OW10351   4.537   1.371   6.323
 3151SOL    HW110352   4.548   1.470   6.321
 3151SOL    HW210353   4.609   1.329   6.267
 3152SOL     OW10354   1.084   5.809   0.827
 3152SOL    HW110355   1.065   5.866   0.747
 3152SOL    HW210356   1.154   5.851   0.884
 3153SOL     OW10357   6.884   4.340   2.264
 3153SOL    HW110358   6.967   4.305   2.221
 3153SOL    HW210359   6.809   4.339   2.198
 3154SOL     OW10360   5.363   2.281   6.103
 3154SOL    HW110361   5.343   2.192   6.144
 3154SOL    HW210362   5.461   2.301   6.111
 3155SOL     OW10363   5.992   5.849   0.909
 3155SOL    HW110364   5.924   5.892   0.968
 3155SOL    HW210365   6.006   5.905   0.827
 3156SOL     OW10366   3.577   3.719   3.465
 3156SOL    HW110367   3.590   3.817   3.484
 3156SOL    HW210368   3.580   3.668   3.551
 3157SOL     OW10369   2.204   4.228   4.259
 3157SOL    HW110370   2.232   4.203   4.352
 3157SOL    HW210371   2.130   4.169   4.229
 3158SOL     OW10372   5.002   6.379   1.312
 3158SOL    HW110373   4.919   6.395   1.259
 3158SOL    HW210374   5.072   6.338   1.252
 3159SOL     OW10375   5.366   5.405   0.282
 3159SOL    HW110376   5.356   5.362   0.371
 3159SOL    HW210377   5.277   5.442   0.252
 3160SOL     OW10378   4.779   4.332   6.935
 3160SOL    HW110379   4.708   4.373   6.993
 3160SOL    HW210380   4.869   4.354   6.973
 3161SOL     OW10381   1.271   1.629   3.062
 3161SOL    HW110382   1.318   1.572   2.994
 3161SOL    HW210383   1.308   1.609   3.153
 3162SOL     OW10384   0.550   5.479   6.301
 3162SOL    HW110385   0.555   5.577   6.282
 3162SOL    HW210386   0.456   5.453   6.320
 3163SOL     OW10387   2.961   4.201   6.145
 3163SOL    HW110388   3.031   4.265   6.178
 3163SOL    HW210389   2.986   4.108   6.172
 3164SOL     OW10390   5.150   4.717   6.993
 3164SOL    HW110391   5.071   4.686   6.941
 3164SOL    HW210392   5.177   4.808   6.960
 3165SOL     OW10393   0.171   1.293   1.544
 3165SOL    HW110394   0.099   1.280   1.475
 3165SOL    HW210395   0.129   1.300   1.635
 3166SOL     OW10396   5.560   3.076   6.227
 3166SOL    HW110397   5.562   3.020   6.310
 3166SOL    HW210398   5.631   3.045   6.164
 3167SOL     OW10399   0.381   5.198   1.680
 3167SOL    HW110400   0.418   5.275   1.732
 3167SOL    HW210401   0.447   5.122   1.681
 3168SOL     OW10402   5.387   3.537   1.263
 3168SOL    HW110403   5.290   3.539   1.240
 3168SOL    HW210404   5.438   3.489   1.191
 3169SOL     OW10405   0.997   2.006   5.671
 3169SOL    HW110406   0.923   2.073   5.660
 3169SOL    HW210407   0.960   1.914   5.663
 3170SOL     OW10408   4.068   0.740   6.984
 3170SOL    HW110409   4.125   0.738   6.902
 3170SOL    HW210410   3.980   0.696   6.966
 3171SOL     OW10411   5.995   6.409   3.246
 3171SOL    HW110412   5.942   6.459   3.314
 3171SOL    HW210413   6.001   6.313   3.273
 3172SOL     OW10414   6.231   0.395   4.668
 3172SOL    HW110415   6.294   0.400   4.746
 3172SOL    HW210416   6.176   0.479   4.665
 3173SOL     OW10417   2.221   0.272   1.294
 3173SOL    HW110418   2.181   0.336   1.228
 3173SOL    HW210419   2.231   0.318   1.382
 3174SOL     OW10420   2.023   2.717   6.124
 3174SOL    HW110421   1.951   2.733   6.057
 3174SOL    HW210422   1.999   2.759   6.211
 3175SOL     OW10423   0.593   6.599   0.418
 3175SOL    HW110424   0.527   6.524   0.412
 3175SOL    HW210425   0.661   6.589   0.345
 3176SOL     OW10426   0.569   4.569   6.825
 3176SOL    HW110427   0.666   4.547   6.830
 3176SOL    HW210428   0.551   4.626   6.745
 3177SOL     OW10429   5.874   5.993   5.597
 3177SOL    HW110430   5.846   5.926   5.666
 3177SOL    HW210431   5.963   6.031   5.623
 3178SOL     OW10432   1.063   3.093   1.488
 3178SOL    HW110433   1.149   3.115   1.442
 3178SOL    HW210434   1.039   3.168   1.550
 3179SOL     OW10435   1.716   1.428   2.856
 3179SOL    HW110436   1.660   1.507   2.879
 3179SOL    HW210437   1.704   1.406   2.759
 3180SOL     OW10438   5.533   0.781   6.091
 3180SOL    HW110439   5.473   0.717   6.044
 3180SOL    HW210440   5.556   0.745   6.182
 3181SOL     OW10441   0.845   1.119   2.982
 3181SOL    HW110442   0.911   1.044   2.972
 3181SOL    HW210443   0.890   1.206   2.959
 3182SOL     OW10444   2.114   5.241   5.303
 3182SOL    HW110445   2.213   5.230   5.311
 3182SOL    HW210446   2.069   5.178   5.366
 3183SOL     OW10447   3.350   3.304   1.344
 3183SOL    HW110448   3.364   3.288   1.442
 3183SOL    HW210449   3.267   3.256   1.315
 3184SOL     OW10450   2.207   1.572   2.055
 3184SOL    HW110451   2.285   1.570   1.993
 3184SOL    HW210452   2.128   1.613   2.008
 3185SOL     OW10453   6.709   6.995   5.595
 3185SOL    HW110454   6.610   6.978   5.589
 3185SOL    HW210455   6.725   0.065   5.629
 3186SOL     OW10456   2.717   0.957   2.224
 3186SOL    HW110457   2.708   0.930   2.128
 3186SOL    HW210458   2.755   1.049   2.230
 3187SOL     OW10459   3.328   4.725   0.203
 3187SOL    HW110460   3.409   4.779   0.227
 3187SOL    HW210461   3.270   4.715   0.284
 3188SOL     OW10462   4.232   6.601   3.080
 3188SOL    HW110463   4.284   6.639   3.003
 3188SOL    HW210464   4.291   6.541   3.133
 3189SOL     OW10465   0.857   6.318   2.455
 3189SOL    HW110466   0.823   6.393   2.399
 3189SOL    HW210467   0.932   6.272   2.407
 3190SOL     OW10468   0.674   5.637   2.271
 3190SOL    HW110469   0.676   5.721   2.326
 3190SOL    HW210470   0.666   5.660   2.175
 3191SOL     OW10471   4.214   0.822   1.053
 3191SOL    HW110472   4.146   0.769   1.103
 3191SOL    HW210473   4.171   0.906   1.017
 3192SOL     OW10474   0.273   2.938   2.636
 3192SOL    HW110475   0.262   2.881   2.718
 3192SOL    HW210476   0.324   2.887   2.567
 3193SOL     OW10477   4.785   3.132   6.521
 3193SOL    HW110478   4.730   3.063   6.569
 3193SOL    HW210479   4.726   3.185   6.460
 3194SOL     OW10480   0.388   3.204   6.113
 3194SOL    HW110481   0.478   3.198   6.070
 3194SOL    HW210482   0.399   3.212   6.212
 3195SOL     OW10483   0.950   3.227   3.515
 3195SOL    HW110484   1.027   3.290   3.504
 3195SOL    HW210485   0.985   3.135   3.531
 3196SOL     OW10486   6.482   0.337   5.564
 3196SOL    HW110487   6.465   0.389   5.481
 3196SOL    HW210488   6.421   0.368   5.637
 3197SOL     OW10489   1.211   4.409   3.853
 3197SOL    HW110490   1.178   4.498   3.885
 3197SOL    HW210491   1.137   4.342   3.856
 3198SOL     OW10492   6.858   1.566   6.779
 3198SOL    HW110493   6.881   1.487   6.722
 3198SOL    HW210494   6.886   1.548   6.873
 3199SOL     OW10495   4.415   2.086   2.568
 3199SOL    HW110496   4.330   2.076   2.618
 3199SOL    HW210497   4.431   2.183   2.548
 3200SOL     OW10498   7.018   1.592   1.489
 3200SOL    HW110499   0.011   1.546   1.401
 3200SOL    HW210500   7.022   1.524   1.563
 3201SOL     OW10501   4.587   4.444   2.745
 3201SOL    HW110502   4.518   4.481   2.683
 3201SOL    HW210503   4.653   4.390   2.692
 3202SOL     OW10504   1.798   5.933   1.887
 3202SOL    HW110505   1.811   6.005   1.954
 3202SOL    HW210506   1.883   5.918   1.837
 3203SOL     OW10507   6.442   6.836   2.250
 3203SOL    HW110508   6.388   6.839   2.334
 3203SOL    HW210509   6.536   6.864   2.269
 3204SOL     OW10510   6.449   5.256   1.698
 3204SOL    HW110511   6.447   5.287   1.603
 3204SOL    HW210512   6.367   5.286   1.745
 3205SOL     OW10513   0.630   3.822   3.447
 3205SOL    HW110514   0.646   3.807   3.349
 3205SOL    HW210515   0.582   3.743   3.484
 3206SOL     OW10516   1.057   0.144   6.428
 3206SOL    HW110517   1.025   0.119   6.337
 3206SOL    HW210518   1.092   0.238   6.426
 3207SOL     OW10519   0.154   1.384   4.275
 3207SOL    HW110520   0.228   1.440   4.238
 3207SOL    HW210521   0.076   1.387   4.212
 3208SOL     OW10522   5.702   6.784   5.266
 3208SOL    HW110523   5.746   6.873   5.280
 3208SOL    HW210524   5.604   6.796   5.253
 3209SOL     OW10525   2.326   0.642   3.384
 3209SOL    HW110526   2.351   0.701   3.307
 3209SOL    HW210527   2.390   0.656   3.459
 3210SOL     OW10528   0.221   4.604   3.359
 3210SOL    HW110529   0.151   4.656   3.409
 3210SOL    HW210530   0.292   4.667   3.329
 3211SOL     OW10531   1.597   4.471   2.195
 3211SOL    HW110532   1.673   4.506   2.140
 3211SOL    HW210533   1.613   4.375   2.218
 3212SOL     OW10534   4.901   2.254   5.911
 3212SOL    HW110535   4.984   2.295   5.949
 3212SOL    HW210536   4.902   2.155   5.928
 3213SOL     OW10537   6.435   6.378   2.102
 3213SOL    HW110538   6.458   6.362   2.197
 3213SOL    HW210539   6.456   6.473   2.078
 3214SOL     OW10540   4.377   5.381   6.023
 3214SOL    HW110541   4.354   5.478   6.012
 3214SOL    HW210542   4.450   5.371   6.090
 3215SOL     OW10543   6.077   1.045   6.710
 3215SOL    HW110544   6.107   0.999   6.794
 3215SOL    HW210545   6.157   1.073   6.658
 3216SOL     OW10546   5.329   6.590   4.495
 3216SOL    HW110547   5.421   6.559   4.474
 3216SOL    HW210548   5.309   6.673   4.443
 3217SOL     OW10549   7.019   3.983   1.546
 3217SOL    HW110550   0.013   4.074   1.583
 3217SOL    HW210551   0.082   3.931   1.547
 3218SOL     OW10552   3.017   0.497   2.284
 3218SOL    HW110553   3.096   0.500   2.345
 3218SOL    HW210554   2.953   0.570   2.308
 3219SOL     OW10555   6.510   0.372   3.775
 3219SOL    HW110556   6.592   0.386   3.831
 3219SOL    HW210557   6.537   0.348   3.682
 3220SOL     OW10558   6.118   3.110   5.343
 3220SOL    HW110559   6.079   3.201   5.329
 3220SOL    HW210560   6.200   3.100   5.287
 3221SOL     OW10561   3.470   0.098   3.130
 3221SOL    HW110562   3.476   0.079   3.228
 3221SOL    HW210563   3.531   0.037   3.080
 3222SOL     OW10564   5.854   2.731   3.209
 3222SOL    HW110565   5.866   2.768   3.116
 3222SOL    HW210566   5.862   2.632   3.206
 3223SOL     OW10567   2.676   5.001   5.165
 3223SOL    HW110568   2.602   4.937   5.145
 3223SOL    HW210569   2.759   4.950   5.188
 3224SOL     OW10570   4.155   5.361   0.351
 3224SOL    HW110571   4.189   5.343   0.443
 3224SOL    HW210572   4.110   5.450   0.350
 3225SOL     OW10573   2.502   3.420   0.320
 3225SOL    HW110574   2.582   3.472   0.289
 3225SOL    HW210575   2.433   3.418   0.248
 3226SOL     OW10576   1.039   0.288   3.974
 3226SOL    HW110577   1.062   0.374   3.928
 3226SOL    HW210578   1.112   0.221   3.957
 3227SOL     OW10579   2.481   1.340   6.198
 3227SOL    HW110580   2.409   1.355   6.265
 3227SOL    HW210581   2.547   1.274   6.234
 3228SOL     OW10582   5.175   3.005   5.062
 3228SOL    HW110583   5.262   3.053   5.072
 3228SOL    HW210584   5.100   3.070   5.064
 3229SOL     OW10585   3.995   2.238   5.232
 3229SOL    HW110586   4.058   2.282   5.168
 3229SOL    HW210587   4.048   2.195   5.306
 3230SOL     OW10588   0.830   0.393   3.347
 3230SOL    HW110589   0.880   0.479   3.354
 3230SOL    HW210590   0.858   0.332   3.421
 3231SOL     OW10591   6.259   5.760   1.131
 3231SOL    HW110592   6.200   5.732   1.056
 3231SOL    HW210593   6.344   5.799   1.093
 3232SOL     OW10594   2.333   4.696   3.448
 3232SOL    HW110595   2.286   4.677   3.361
 3232SOL    HW210596   2.417   4.643   3.453
 3233SOL     OW10597   0.762   4.088   1.681
 3233SOL    HW110598   0.838   4.024   1.663
 3233SOL    HW210599   0.690   4.040   1.731
 3234SOL     OW10600   6.714   1.594   5.197
 3234SOL    HW110601   6.635   1.655   5.204
 3234SOL    HW210602   6.788   1.641   5.150
 3235SOL     OW10603   5.491   0.444   2.566
 3235SOL    HW110604   5.573   0.441   2.623
 3235SOL    HW210605   5.423   0.380   2.602
 3236SOL     OW10606   0.592   3.007   1.918
 3236SOL    HW110607   0.636   3.044   1.999
 3236SOL    HW210608   0.547   3.081   1.868
 3237SOL     OW10609   3.610   0.112   4.647
 3237SOL    HW110610   3.570   0.122   4.556
 3237SOL    HW210611   3.636   0.016   4.662
 3238SOL     OW10612   6.432   6.474   6.589
 3238SOL    HW110613   6.467   6.389   6.550
 3238SOL    HW210614   6.505   6.543   6.590
 3239SOL     OW10615   7.001   6.618   5.542
 3239SOL    HW110616   0.028   6.603   5.629
 3239SOL    HW210617   0.037   6.670   5.480
 3240SOL     OW10618   0.830   1.375   4.519
 3240SOL    HW110619   0.904   1.344   4.578
 3240SOL    HW210620   0.850   1.467   4.485
 3241SOL     OW10621   5.579   1.052   4.388
 3241SOL    HW110622   5.663   1.094   4.356
 3241SOL    HW210623   5.526   1.019   4.310
 3242SOL     OW10624   3.336   6.439   6.998
 3242SOL    HW110625   3.341   6.407   0.070
 3242SOL    HW210626   3.421   6.486   6.975
 3243SOL     OW10627   3.596   5.495   0.566
 3243SOL    HW110628   3.569   5.538   0.480
 3243SOL    HW210629   3.591   5.563   0.639
 3244SOL     OW10630   2.876   6.375   5.769
 3244SOL    HW110631   2.890   6.359   5.671
 3244SOL    HW210632   2.779   6.364   5.791
 3245SOL     OW10633   3.443   2.394   6.187
 3245SOL    HW110634   3.503   2.474   6.183
 3245SOL    HW210635   3.362   2.417   6.240
 3246SOL     OW10636   5.374   6.147   3.547
 3246SOL    HW110637   5.413   6.060   3.576
 3246SOL    HW210638   5.304   6.175   3.612
 3247SOL     OW10639   0.227   2.088   4.786
 3247SOL    HW110640   0.162   2.012   4.780
 3247SOL    HW210641   0.278   2.080   4.872
 3248SOL     OW10642   5.929   4.215   2.299
 3248SOL    HW110643   5.985   4.272   2.359
 3248SOL    HW210644   5.938   4.247   2.204
 3249SOL     OW10645   2.384   4.367   5.270
 3249SOL    HW110646   2.319   4.332   5.202
 3249SOL    HW210647   2.401   4.297   5.339
 3250SOL     OW10648   4.037   6.296   1.653
 3250SOL    HW110649   4.053   6.288   1.751
 3250SOL    HW210650   4.100   6.235   1.604
 3251SOL     OW10651   3.046   1.138   3.457
 3251SOL    HW110652   3.121   1.137   3.390
 3251SOL    HW210653   2.980   1.066   3.434
 3252SOL     OW10654   3.194   2.084   3.224
 3252SOL    HW110655   3.097   2.078   3.200
 3252SOL    HW210656   3.203   2.076   3.323
 3253SOL     OW10657   4.853   3.394   1.210
 3253SOL    HW110658   4.939   3.368   1.167
 3253SOL    HW210659   4.854   3.366   1.307
 3254SOL     OW10660   5.774   5.074   2.699
 3254SOL    HW110661   5.841   5.041   2.766
 3254SOL    HW210662   5.801   5.044   2.608
 3255SOL     OW10663   3.717   4.755   0.522
 3255SOL    HW110664   3.798   4.696   0.524
 3255SOL    HW210665   3.635   4.699   0.526
 3256SOL     OW10666   6.359   6.160   5.045
 3256SOL    HW110667   6.306   6.121   5.120
 3256SOL    HW210668   6.425   6.092   5.011
 3257SOL     OW10669   2.220   2.117   1.133
 3257SOL    HW110670   2.258   2.184   1.070
 3257SOL    HW210671   2.240   2.025   1.099
 3258SOL     OW10672   5.541   6.693   1.348
 3258SOL    HW110673   5.470   6.744   1.299
 3258SOL    HW210674   5.625   6.748   1.351
 3259SOL     OW10675   5.980   6.144   3.267
 3259SOL    HW110676   5.887   6.115   3.247
 3259SOL    HW210677   6.035   6.139   3.184
 3260SOL     OW10678   0.978   2.689   6.786
 3260SOL    HW110679   1.000   2.774   6.834
 3260SOL    HW210680   0.925   2.709   6.704
 3261SOL     OW10681   4.587   0.029   3.216
 3261SOL    HW110682   4.657   0.091   3.252
 3261SOL    HW210683   4.497   0.067   3.235
 3262SOL     OW10684   3.469   1.650   3.547
 3262SOL    HW110685   3.458   1.563   3.499
 3262SOL    HW210686   3.458   1.636   3.646
 3263SOL     OW10687   3.216   5.468   2.208
 3263SOL    HW110688   3.253   5.390   2.157
 3263SOL    HW210689   3.118   5.454   2.222
 3264SOL     OW10690   5.157   5.026   6.470
 3264SOL    HW110691   5.178   4.952   6.534
 3264SOL    HW210692   5.085   4.998   6.408
 3265SOL     OW10693   4.345   0.535   6.857
 3265SOL    HW110694   4.383   0.481   6.933
 3265SOL    HW210695   4.382   0.628   6.861
 3266SOL     OW10696   0.634   1.638   6.102
 3266SOL    HW110697   0.712   1.688   6.064
 3266SOL    HW210698   0.663   1.590   6.185
 3267SOL     OW10699   4.012   2.231   1.545
 3267SOL    HW110700   3.970   2.237   1.635
 3267SOL    HW210701   3.992   2.315   1.494
 3268SOL     OW10702   0.579   4.438   6.426
 3268SOL    HW110703   0.574   4.515   6.489
 3268SOL    HW210704   0.488   4.421   6.387
 3269SOL     OW10705   4.438   3.292   0.583
 3269SOL    HW110706   4.362   3.266   0.642
 3269SOL    HW210707   4.515   3.322   0.639
 3270SOL     OW10708   0.652   6.024   4.699
 3270SOL    HW110709   0.736   5.974   4.718
 3270SOL    HW210710   0.574   5.961   4.703
 3271SOL     OW10711   5.789   2.013   1.039
 3271SOL    HW110712   5.725   2.047   1.107
 3271SOL    HW210713   5.837   1.934   1.075
 3272SOL     OW10714   5.532   6.716   0.313
 3272SOL    HW110715   5.432   6.727   0.318
 3272SOL    HW210716   5.572   6.797   0.271
 3273SOL     OW10717   6.769   0.160   2.735
 3273SOL    HW110718   6.782   0.072   2.689
 3273SOL    HW210719   6.711   0.148   2.815
 3274SOL     OW10720   3.841   1.659   6.459
 3274SOL    HW110721   3.798   1.748   6.470
 3274SOL    HW210722   3.893   1.636   6.541
 3275SOL     OW10723   3.320   0.906   6.985
 3275SOL    HW110724   3.374   0.986   6.957
 3275SOL    HW210725   3.352   0.825   6.935
 3276SOL     OW10726   3.091   6.561   0.078
 3276SOL    HW110727   3.052   6.495   0.014
 3276SOL    HW210728   3.178   6.594   0.042
 3277SOL     OW10729   0.015   6.706   5.183
 3277SOL    HW110730   0.008   6.611   5.152
 3277SOL    HW210731   0.074   6.710   5.264
 3278SOL     OW10732   1.085   1.033   0.214
 3278SOL    HW110733   1.180   1.048   0.187
 3278SOL    HW210734   1.065   1.087   0.296
 3279SOL     OW10735   2.224   0.192   0.948
 3279SOL    HW110736   2.190   0.282   0.923
 3279SOL    HW210737   2.244   0.139   0.866
 3280SOL     OW10738   1.674   5.309   5.820
 3280SOL    HW110739   1.656   5.236   5.754
 3280SOL    HW210740   1.751   5.364   5.788
 3281SOL     OW10741   3.388   6.050   0.067
 3281SOL    HW110742   3.478   6.093   0.060
 3281SOL    HW210743   3.317   6.118   0.048
 3282SOL     OW10744   1.988   5.449   2.615
 3282SOL    HW110745   2.051   5.526   2.608
 3282SOL    HW210746   2.038   5.363   2.603
 3283SOL     OW10747   1.943   0.374   3.707
 3283SOL    HW110748   1.937   0.291   3.762
 3283SOL    HW210749   1.986   0.354   3.620
 3284SOL     OW10750   0.121   3.987   6.606
 3284SOL    HW110751   0.030   3.964   6.572
 3284SOL    HW210752   0.171   4.038   6.536
 3285SOL     OW10753   6.457   2.467   4.142
 3285SOL    HW110754   6.534   2.507   4.094
 3285SOL    HW210755   6.373   2.516   4.119
 3286SOL     OW10756   3.793   4.796   5.346
 3286SOL    HW110757   3.693   4.801   5.336
 3286SOL    HW210758   3.817   4.713   5.396
 3287SOL     OW10759   0.819   5.426   1.061
 3287SOL    HW110760   0.853   5.461   0.974
 3287SOL    HW210761   0.778   5.501   1.113
 3288SOL     OW10762   1.014   6.468   6.995
 3288SOL    HW110763   1.027   6.426   0.063
 3288SOL    HW210764   0.975   6.559   7.006
 3289SOL     OW10765   0.971   5.726   4.548
 3289SOL    HW110766   1.070   5.715   4.563
 3289SOL    HW210767   0.938   5.649   4.493
 3290SOL     OW10768   6.820   5.352   1.889
 3290SOL    HW110769   6.790   5.291   1.816
 3290SOL    HW210770   6.904   5.316   1.930
 3291SOL     OW10771   2.253   6.769   1.270
 3291SOL    HW110772   2.251   6.811   1.179
 3291SOL    HW210773   2.298   6.831   1.334
 3292SOL     OW10774   0.730   5.729   5.572
 3292SOL    HW110775   0.761   5.820   5.545
 3292SOL    HW210776   0.771   5.661   5.510
 3293SOL     OW10777   6.629   0.596   2.999
 3293SOL    HW110778   6.573   0.522   3.035
 3293SOL    HW210779   6.718   0.596   3.045
 3294SOL     OW10780   0.266   0.144   6.902
 3294SOL    HW110781   0.308   0.105   6.820
 3294SOL    HW210782   0.226   0.233   6.880
 3295SOL     OW10783   1.249   2.190   6.627
 3295SOL    HW110784   1.155   2.223   6.625
 3295SOL    HW210785   1.310   2.264   6.655
 3296SOL     OW10786   0.424   6.334   1.884
 3296SOL    HW110787   0.451   6.307   1.792
 3296SOL    HW210788   0.491   6.397   1.922
 3297SOL     OW10789   2.977   2.314   5.967
 3297SOL    HW110790   2.931   2.227   5.985
 3297SOL    HW210791   3.046   2.302   5.896
 3298SOL     OW10792   5.915   3.636   3.496
 3298SOL    HW110793   5.904   3.626   3.397
 3298SOL    HW210794   6.004   3.601   3.524
 3299SOL     OW10795   1.561   0.527   4.649
 3299SOL    HW110796   1.482   0.577   4.613
 3299SOL    HW210797   1.530   0.440   4.689
 3300SOL     OW10798   6.575   0.234   4.401
 3300SOL    HW110799   6.600   0.156   4.345
 3300SOL    HW210800   6.656   0.290   4.418
 3301SOL     OW10801   0.627   3.781   3.182
 3301SOL    HW110802   0.572   3.785   3.098
 3301SOL    HW210803   0.707   3.723   3.167
 3302SOL     OW10804   0.784   4.977   3.767
 3302SOL    HW110805   0.748   4.991   3.675
 3302SOL    HW210806   0.879   5.008   3.771
 3303SOL     OW10807   3.775   4.099   3.754
 3303SOL    HW110808   3.862   4.073   3.795
 3303SOL    HW210809   3.778   4.083   3.656
 3304SOL     OW10810   0.849   6.327   4.241
 3304SOL    HW110811   0.939   6.366   4.265
 3304SOL    HW210812   0.857   6.228   4.233
 3305SOL     OW10813   1.222   1.251   1.683
 3305SOL    HW110814   1.206   1.171   1.742
 3305SOL    HW210815   1.291   1.310   1.726
 3306SOL     OW10816   1.089   3.617   2.595
 3306SOL    HW110817   1.081   3.629   2.694
 3306SOL    HW210818   1.051   3.529   2.569
 3307SOL     OW10819   0.220   6.031   0.297
 3307SOL    HW110820   0.231   6.003   0.392
 3307SOL    HW210821   0.287   6.102   0.275
 3308SOL     OW10822   4.690   6.101   0.578
 3308SOL    HW110823   4.669   6.131   0.671
 3308SOL    HW210824   4.784   6.067   0.574
 3309SOL     OW10825   0.889   5.359   2.660
 3309SOL    HW110826   0.838   5.334   2.742
 3309SOL    HW210827   0.903   5.458   2.658
 3310SOL     OW10828   1.561   6.755   1.227
 3310SOL    HW110829   1.591   6.662   1.246
 3310SOL    HW210830   1.585   6.779   1.133
 3311SOL     OW10831   4.204   5.976   0.772
 3311SOL    HW110832   4.138   6.019   0.834
 3311SOL    HW210833   4.222   5.882   0.803
 3312SOL     OW10834   2.363   3.536   0.058
 3312SOL    HW110835   2.397   3.478   7.006
 3312SOL    HW210836   2.267   3.559   0.041
 3313SOL     OW10837   6.972   5.807   4.693
 3313SOL    HW110838   7.008   5.721   4.657
 3313SOL    HW210839   6.883   5.826   4.652
 3314SOL     OW10840   0.728   3.356   6.218
 3314SOL    HW110841   0.704   3.292   6.291
 3314SOL    HW210842   0.827   3.355   6.205
 3315SOL     OW10843   6.828   3.103   2.938
 3315SOL    HW110844   6.827   3.163   3.018
 3315SOL    HW210845   6.740   3.055   2.930
 3316SOL     OW10846   4.167   0.679   0.509
 3316SOL    HW110847   4.090   0.644   0.563
 3316SOL    HW210848   4.132   0.726   0.428
 3317SOL     OW10849   4.618   2.147   1.621
 3317SOL    HW110850   4.666   2.232   1.642
 3317SOL    HW210851   4.541   2.136   1.683
 3318SOL     OW10852   2.717   5.524   5.107
 3318SOL    HW110853   2.815   5.543   5.106
 3318SOL    HW210854   2.700   5.433   5.145
 3319SOL     OW10855   0.140   5.559   5.755
 3319SOL    HW110856   0.215   5.548   5.690
 3319SOL    HW210857   0.175   5.595   5.841
 3320SOL     OW10858   6.794   1.979   5.835
 3320SOL    HW110859   6.708   1.983   5.784
 3320SOL    HW210860   6.803   1.888   5.876
 3321SOL     OW10861   3.263   3.997   3.720
 3321SOL    HW110862   3.204   4.027   3.795
 3321SOL    HW210863   3.206   3.961   3.646
 3322SOL     OW10864   4.437   1.852   1.542
 3322SOL    HW110865   4.504   1.807   1.600
 3322SOL    HW210866   4.473   1.938   1.508
 3323SOL     OW10867   2.722   5.080   0.456
 3323SOL    HW110868   2.655   5.153   0.443
 3323SOL    HW210869   2.675   4.995   0.480
 3324SOL     OW10870   0.637   2.754   0.492
 3324SOL    HW110871   0.692   2.736   0.410
 3324SOL    HW210872   0.697   2.769   0.570
 3325SOL     OW10873   2.010   2.894   0.439
 3325SOL    HW110874   1.919   2.905   0.479
 3325SOL    HW210875   2.042   2.801   0.455
 3326SOL     OW10876   6.458   0.303   2.180
 3326SOL    HW110877   6.478   0.284   2.276
 3326SOL    HW210878   6.462   0.218   2.128
 3327SOL     OW10879   3.137   6.847   1.774
 3327SOL    HW110880   3.069   6.891   1.833
 3327SOL    HW210881   3.198   6.791   1.831
 3328SOL     OW10882   4.616   1.041   2.910
 3328SOL    HW110883   4.550   1.113   2.887
 3328SOL    HW210884   4.626   0.978   2.834
 3329SOL     OW10885   4.758   1.212   5.436
 3329SOL    HW110886   4.828   1.284   5.443
 3329SOL    HW210887   4.703   1.226   5.354
 3330SOL     OW10888   6.789   5.426   3.493
 3330SOL    HW110889   6.776   5.358   3.565
 3330SOL    HW210890   6.884   5.421   3.459
 3331SOL     OW10891   2.067   3.517   2.620
 3331SOL    HW110892   1.992   3.453   2.634
 3331SOL    HW210893   2.074   3.540   2.523
 3332SOL     OW10894   3.346   4.973   1.036
 3332SOL    HW110895   3.396   5.056   1.059
 3332SOL    HW210896   3.369   4.945   0.943
 3333SOL     OW10897   2.527   3.087   1.680
 3333SOL    HW110898   2.506   3.037   1.596
 3333SOL    HW210899   2.513   3.027   1.759
 3334SOL     OW10900   2.429   2.203   1.746
 3334SOL    HW110901   2.416   2.297   1.715
 3334SOL    HW210902   2.527   2.186   1.763
 3335SOL     OW10903   3.823   4.599   5.661
 3335SOL    HW110904   3.830   4.533   5.736
 3335SOL    HW210905   3.814   4.691   5.699
 3336SOL     OW10906   5.254   5.413   4.466
 3336SOL    HW110907   5.176   5.431   4.406
 3336SOL    HW210908   5.339   5.433   4.418
 3337SOL     OW10909   3.367   3.373   2.991
 3337SOL    HW110910   3.410   3.463   2.993
 3337SOL    HW210911   3.430   3.305   3.029
 3338SOL     OW10912   2.815   2.872   1.580
 3338SOL    HW110913   2.724   2.900   1.611
 3338SOL    HW210914   2.840   2.785   1.624
 3339SOL     OW10915   2.045   0.044   6.288
 3339SOL    HW110916   1.997   0.110   6.346
 3339SOL    HW210917   2.100   7.005   6.345
 3340SOL     OW10918   3.746   0.477   3.925
 3340SOL    HW110919   3.714   0.563   3.884
 3340SOL    HW210920   3.712   0.471   4.019
 3341SOL     OW10921   1.016   4.005   2.726
 3341SOL    HW110922   1.081   4.010   2.801
 3341SOL    HW210923   1.050   4.059   2.649
 3342SOL     OW10924   6.943   0.952   2.724
 3342SOL    HW110925   6.938   0.936   2.823
 3342SOL    HW210926   6.861   0.916   2.680
 3343SOL     OW10927   4.563   5.361   0.196
 3343SOL    HW110928   4.560   5.370   0.295
 3343SOL    HW210929   4.649   5.317   0.168
 3344SOL     OW10930   1.025   3.293   2.206
 3344SOL    HW110931   1.002   3.379   2.249
 3344SOL    HW210932   0.988   3.217   2.260
 3345SOL     OW10933   6.051   5.558   6.355
 3345SOL    HW110934   6.127   5.623   6.357
 3345SOL    HW210935   6.067   5.487   6.423
 3346SOL     OW10936   1.344   1.093   0.132
 3346SOL    HW110937   1.340   1.176   0.077
 3346SOL    HW210938   1.419   1.100   0.198
 3347SOL     OW10939   0.440   3.813   5.866
 3347SOL    HW110940   0.480   3.861   5.945
 3347SOL    HW210941   0.394   3.730   5.898
 3348SOL     OW10942   3.337   4.270   5.978
 3348SOL    HW110943   3.403   4.346   5.979
 3348SOL    HW210944   3.265   4.290   5.911
 3349SOL     OW10945   1.995   5.256   3.420
 3349SOL    HW110946   1.956   5.169   3.388
 3349SOL    HW210947   2.012   5.316   3.342
 3350SOL     OW10948   1.871   4.746   4.308
 3350SOL    HW110949   1.935   4.822   4.318
 3350SOL    HW210950   1.856   4.728   4.211
 3351SOL     OW10951   5.424   1.168   1.732
 3351SOL    HW110952   5.511   1.214   1.748
 3351SOL    HW210953   5.423   1.080   1.779
 3352SOL     OW10954   5.881   1.136   0.331
 3352SOL    HW110955   5.873   1.170   0.237
 3352SOL    HW210956   5.954   1.068   0.336
 3353SOL     OW10957   4.001   0.660   1.146
 3353SOL    HW110958   3.902   0.656   1.158
 3353SOL    HW210959   4.039   0.567   1.147
 3354SOL     OW10960   3.172   4.356   6.234
 3354SOL    HW110961   3.230   4.312   6.303
 3354SOL    HW210962   3.224   4.369   6.150
 3355SOL     OW10963   1.802   0.523   4.795
 3355SOL    HW110964   1.720   0.564   4.754
 3355SOL    HW210965   1.780   0.431   4.826
 3356SOL     OW10966   1.572   0.789   6.213
 3356SOL    HW110967   1.542   0.884   6.222
 3356SOL    HW210968   1.503   0.729   6.254
 3357SOL     OW10969   3.079   3.098   2.355
 3357SOL    HW110970   3.155   3.159   2.331
 3357SOL    HW210971   3.024   3.140   2.427
 3358SOL     OW10972   0.033   1.038   1.805
 3358SOL    HW110973   7.013   1.008   1.890
 3358SOL    HW210974   7.007   0.996   1.727
 3359SOL     OW10975   0.492   0.100   4.746
 3359SOL    HW110976   0.393   0.086   4.754
 3359SOL    HW210977   0.533   0.022   4.698
 3360SOL     OW10978   1.552   4.136   4.156
 3360SOL    HW110979   1.621   4.129   4.228
 3360SOL    HW210980   1.488   4.210   4.178
 3361SOL     OW10981   6.192   0.000   4.931
 3361SOL    HW110982   6.122   0.056   4.975
 3361SOL    HW210983   6.270   0.059   4.907
 3362SOL     OW10984   3.649   0.703   3.792
 3362SOL    HW110985   3.564   0.690   3.741
 3362SOL    HW210986   3.724   0.720   3.728
 3363SOL     OW10987   5.269   3.774   0.345
 3363SOL    HW110988   5.268   3.777   0.445
 3363SOL    HW210989   5.361   3.749   0.314
 3364SOL     OW10990   1.957   3.527   3.587
 3364SOL    HW110991   1.932   3.621   3.562
 3364SOL    HW210992   1.875   3.470   3.587
 3365SOL     OW10993   1.650   3.882   3.390
 3365SOL    HW110994   1.649   3.861   3.488
 3365SOL    HW210995   1.562   3.920   3.363
 3366SOL     OW10996   5.886   3.665   4.625
 3366SOL    HW110997   5.817   3.626   4.686
 3366SOL    HW210998   5.972   3.617   4.637
 3367SOL     OW10999   3.645   4.002   3.969
 3367SOL    HW111000   3.667   4.050   3.884
 3367SOL    HW211001   3.621   3.907   3.949
 3368SOL     OW11002   1.898   0.717   1.945
 3368SOL    HW111003   1.820   0.656   1.960
 3368SOL    HW211004   1.976   0.686   1.998
 3369SOL     OW11005   5.160   1.998   1.336
 3369SOL    HW111006   5.086   2.002   1.269
 3369SOL    HW211007   5.248   2.008   1.289
 3370SOL     OW11008   0.389   5.664   2.625
 3370SOL    HW111009   0.411   5.753   2.584
 3370SOL    HW211010   0.445   5.593   2.582
 3371SOL     OW11011   2.208   2.811   2.151
 3371SOL    HW111012   2.289   2.752   2.153
 3371SOL    HW211013   2.192   2.842   2.058
 3372SOL     OW11014   6.488   3.922   2.638
 3372SOL    HW111015   6.431   3.890   2.563
 3372SOL    HW211016   6.555   3.988   2.603
 3373SOL     OW11017   0.009   3.087   1.813
 3373SOL    HW111018   6.969   3.011   1.829
 3373SOL    HW211019   6.981   3.173   1.818
 3374SOL     OW11020   0.363   6.560   4.267
 3374SOL    HW111021   0.460   6.544   4.245
 3374SOL    HW211022   0.317   6.472   4.277
 3375SOL     OW11023   0.463   5.866   5.856
 3375SOL    HW111024   0.429   5.959   5.870
 3375SOL    HW211025   0.410   5.802   5.912
 3376SOL     OW11026   3.167   3.082   4.120
 3376SOL    HW111027   3.178   3.140   4.201
 3376SOL    HW211028   3.078   3.099   4.079
 3377SOL     OW11029   6.686   4.846   3.657
 3377SOL    HW111030   6.672   4.945   3.656
 3377SOL    HW211031   6.609   4.801   3.612
 3378SOL     OW11032   1.288   6.522   0.081
 3378SOL    HW111033   1.260   6.532   7.008
 3378SOL    HW211034   1.241   6.444   0.122
 3379SOL     OW11035   6.458   4.128   3.685
 3379SOL    HW111036   6.486   4.200   3.621
 3379SOL    HW211037   6.358   4.127   3.693
 3380SOL     OW11038   2.519   4.877   0.520
 3380SOL    HW111039   2.466   4.880   0.436
 3380SOL    HW211040   2.519   4.784   0.556
 3381SOL     OW11041   1.997   3.721   6.230
 3381SOL    HW111042   1.993   3.625   6.203
 3381SOL    HW211043   2.051   3.772   6.163
 3382SOL     OW11044   6.513   3.553   0.784
 3382SOL    HW111045   6.498   3.604   0.868
 3382SOL    HW211046   6.499   3.613   0.705
 3383SOL     OW11047   4.356   5.090   0.285
 3383SOL    HW111048   4.337   5.097   0.187
 3383SOL    HW211049   4.281   5.129   0.337
 3384SOL     OW11050   2.817   3.876   6.617
 3384SOL    HW111051   2.863   3.844   6.534
 3384SOL    HW211052   2.749   3.809   6.646
 3385SOL     OW11053   6.939   2.683   4.120
 3385SOL    HW111054   0.005   2.641   4.098
 3385SOL    HW211055   6.952   2.749   4.195
 3386SOL     OW11056   0.115   5.182   4.804
 3386SOL    HW111057   0.070   5.163   4.717
 3386SOL    HW211058   0.100   5.105   4.867
 3387SOL     OW11059   6.167   1.068   3.249
 3387SOL    HW111060   6.200   1.018   3.329
 3387SOL    HW211061   6.210   1.031   3.167
 3388SOL     OW11062   6.978   3.828   1.065
 3388SOL    HW111063   7.018   3.738   1.047
 3388SOL    HW211064   0.027   3.890   1.099
 3389SOL     OW11065   5.542   6.042   6.839
 3389SOL    HW111066   5.606   6.017   6.766
 3389SOL    HW211067   5.584   6.108   6.900
 3390SOL     OW11068   2.820   6.041   6.326
 3390SOL    HW111069   2.765   6.121   6.302
 3390SOL    HW211070   2.764   5.958   6.320
 3391SOL     OW11071   5.651   3.839   3.834
 3391SOL    HW111072   5.641   3.740   3.835
 3391SOL    HW211073   5.564   3.881   3.807
 3392SOL     OW11074   4.741   0.544   6.127
 3392SOL    HW111075   4.774   0.588   6.044
 3392SOL    HW211076   4.785   0.455   6.138
 3393SOL     OW11077   4.319   6.411   0.808
 3393SOL    HW111078   4.357   6.319   0.799
 3393SOL    HW211079   4.228   6.406   0.850
 3394SOL     OW11080   2.736   5.232   1.669
 3394SOL    HW111081   2.821   5.179   1.675
 3394SOL    HW211082   2.712   5.246   1.573
 3395SOL     OW11083   2.530   6.629   3.241
 3395SOL    HW111084   2.487   6.644   3.330
 3395SOL    HW211085   2.629   6.621   3.253
 3396SOL     OW11086   4.473   0.563   3.797
 3396SOL    HW111087   4.543   0.598   3.735
 3396SOL    HW211088   4.463   0.626   3.874
 3397SOL     OW11089   2.397   5.683   6.464
 3397SOL    HW111090   2.452   5.650   6.541
 3397SOL    HW211091   2.399   5.615   6.390
 3398SOL     OW11092   6.446   2.461   4.598
 3398SOL    HW111093   6.507   2.508   4.662
 3398SOL    HW211094   6.383   2.528   4.557
 3399SOL     OW11095   6.523   6.245   1.895
 3399SOL    HW111096   6.482   6.297   1.970
 3399SOL    HW211097   6.582   6.173   1.933
 3400SOL     OW11098   4.269   2.662   5.666
 3400SOL    HW111099   4.185   2.714   5.655
 3400SOL    HW211100   4.284   2.643   5.763
 3401SOL     OW11101   6.251   4.040   5.791
 3401SOL    HW111102   6.291   4.116   5.741
 3401SOL    HW211103   6.324   3.992   5.842
 3402SOL     OW11104   6.838   3.341   0.965
 3402SOL    HW111105   6.794   3.380   1.047
 3402SOL    HW211106   6.818   3.398   0.886
 3403SOL     OW11107   5.202   6.662   0.077
 3403SOL    HW111108   5.237   6.748   0.114
 3403SOL    HW211109   5.263   6.630   0.004
 3404SOL     OW11110   5.005   4.282   4.739
 3404SOL    HW111111   5.033   4.375   4.712
 3404SOL    HW211112   5.068   4.249   4.810
 3405SOL     OW11113   4.709   6.307   0.094
 3405SOL    HW111114   4.792   6.265   0.057
 3405SOL    HW211115   4.717   6.315   0.193
 3406SOL     OW11116   2.771   5.500   1.823
 3406SOL    HW111117   2.767   5.412   1.776
 3406SOL    HW211118   2.680   5.526   1.854
 3407SOL     OW11119   1.050   3.969   6.858
 3407SOL    HW111120   0.969   3.992   6.806
 3407SOL    HW211121   1.131   4.005   6.812
 3408SOL     OW11122   5.148   0.567   3.515
 3408SOL    HW111123   5.156   0.570   3.615
 3408SOL    HW211124   5.237   0.586   3.474
 3409SOL     OW11125   4.356   0.831   0.748
 3409SOL    HW111126   4.410   0.902   0.794
 3409SOL    HW211127   4.413   0.751   0.733
 3410SOL     OW11128   5.892   0.288   3.385
 3410SOL    HW111129   5.816   0.224   3.394
 3410SOL    HW211130   5.927   0.311   3.476
 3411SOL     OW11131   6.261   3.097   6.259
 3411SOL    HW111132   6.178   3.146   6.285
 3411SOL    HW211133   6.333   3.162   6.235
 3412SOL     OW11134   5.588   3.541   1.966
 3412SOL    HW111135   5.612   3.584   2.053
 3412SOL    HW211136   5.659   3.562   1.898
 3413SOL     OW11137   6.695   1.166   0.042
 3413SOL    HW111138   6.699   1.085   0.100
 3413SOL    HW211139   6.693   1.248   0.099
 3414SOL     OW11140   3.111   4.037   1.276
 3414SOL    HW111141   3.057   3.975   1.334
 3414SOL    HW211142   3.052   4.075   1.205
 3415SOL     OW11143   2.177   1.430   6.119
 3415SOL    HW111144   2.234   1.511   6.115
 3415SOL    HW211145   2.159   1.395   6.027
 3416SOL     OW11146   6.597   6.826   6.368
 3416SOL    HW111147   6.552   6.896   6.423
 3416SOL    HW211148   6.679   6.865   6.326
 3417SOL     OW11149   6.325   6.154   3.471
 3417SOL    HW111150   6.354   6.238   3.518
 3417SOL    HW211151   6.294   6.088   3.539
 3418SOL     OW11152   3.864   4.760   1.010
 3418SOL    HW111153   3.782   4.806   0.976
 3418SOL    HW211154   3.864   4.761   1.110
 3419SOL     OW11155   2.743   5.384   5.544
 3419SOL    HW111156   2.727   5.301   5.597
 3419SOL    HW211157   2.730   5.364   5.447
 3420SOL     OW11158   4.714   1.617   2.102
 3420SOL    HW111159   4.660   1.697   2.075
 3420SOL    HW211160   4.752   1.573   2.020
 3421SOL     OW11161   0.350   2.047   5.031
 3421SOL    HW111162   0.362   1.948   5.033
 3421SOL    HW211163   0.432   2.090   4.994
 3422SOL     OW11164   1.870   6.062   0.634
 3422SOL    HW111165   1.799   6.133   0.638
 3422SOL    HW211166   1.952   6.095   0.679
 3423SOL     OW11167   1.950   4.880   5.600
 3423SOL    HW111168   1.910   4.895   5.690
 3423SOL    HW211169   1.951   4.782   5.580
 3424SOL     OW11170   5.115   1.188   2.098
 3424SOL    HW111171   5.127   1.170   2.000
 3424SOL    HW211172   5.076   1.279   2.110
 3425SOL     OW11173   6.614   3.196   6.428
 3425SOL    HW111174   6.566   3.123   6.476
 3425SOL    HW211175   6.587   3.284   6.468
 3426SOL     OW11176   6.696   2.907   6.617
 3426SOL    HW111177   6.727   3.002   6.621
 3426SOL    HW211178   6.599   2.905   6.592
 3427SOL     OW11179   0.842   1.900   0.595
 3427SOL    HW111180   0.808   1.973   0.536
 3427SOL    HW211181   0.933   1.925   0.630
 3428SOL     OW11182   4.413   6.591   4.828
 3428SOL    HW111183   4.330   6.573   4.775
 3428SOL    HW211184   4.474   6.512   4.823
 3429SOL     OW11185   5.128   6.842   1.348
 3429SOL    HW111186   5.173   6.927   1.377
 3429SOL    HW211187   5.192   6.787   1.293
 3430SOL     OW11188   2.307   4.452   5.755
 3430SOL    HW111189   2.359   4.511   5.693
 3430SOL    HW211190   2.254   4.508   5.818
 3431SOL     OW11191   0.666   4.830   2.434
 3431SOL    HW111192   0.681   4.737   2.467
 3431SOL    HW211193   0.568   4.849   2.430
 3432SOL     OW11194   0.554   4.286   0.121
 3432SOL    HW111195   0.467   4.250   0.086
 3432SOL    HW211196   0.568   4.378   0.086
 3433SOL     OW11197   2.557   1.107   6.764
 3433SOL    HW111198   2.622   1.042   6.802
 3433SOL    HW211199   2.464   1.079   6.787
 3434SOL     OW11200   3.684   2.539   1.735
 3434SOL    HW111201   3.613   2.602   1.766
 3434SOL    HW211202   3.688   2.461   1.797
 3435SOL     OW11203   1.865   1.395   0.959
 3435SOL    HW111204   1.813   1.322   1.003
 3435SOL    HW211205   1.963   1.376   0.967
 3436SOL     OW11206   3.625   6.740   6.342
 3436SOL    HW111207   3.585   6.649   6.353
 3436SOL    HW211208   3.554   6.803   6.310
 3437SOL     OW11209   1.350   0.011   6.248
 3437SOL    HW111210   1.448   0.021   6.231
 3437SOL    HW211211   1.301   0.090   6.212
 3438SOL     OW11212   2.065   3.798   0.756
 3438SOL    HW111213   2.012   3.869   0.710
 3438SOL    HW211214   2.163   3.817   0.744
 3439SOL     OW11215   2.530   5.759   1.587
 3439SOL    HW111216   2.597   5.703   1.539
 3439SOL    HW211217   2.438   5.726   1.566
 3440SOL     OW11218   3.804   3.996   5.257
 3440SOL    HW111219   3.764   3.959   5.341
 3440SOL    HW211220   3.731   4.029   5.197
 3441SOL     OW11221   5.635   4.495   6.018
 3441SOL    HW111222   5.663   4.429   6.088
 3441SOL    HW211223   5.536   4.505   6.019
 3442SOL     OW11224   2.468   3.407   0.927
 3442SOL    HW111225   2.393   3.375   0.984
 3442SOL    HW211226   2.535   3.333   0.915
 3443SOL     OW11227   0.177   6.299   2.421
 3443SOL    HW111228   0.227   6.287   2.335
 3443SOL    HW211229   0.136   6.390   2.423
 3444SOL     OW11230   6.269   4.051   6.103
 3444SOL    HW111231   6.356   4.003   6.092
 3444SOL    HW211232   6.282   4.148   6.082
 3445SOL     OW11233   6.249   4.564   3.897
 3445SOL    HW111234   6.305   4.630   3.848
 3445SOL    HW211235   6.307   4.513   3.961
 3446SOL     OW11236   4.514   1.082   1.567
 3446SOL    HW111237   4.521   1.048   1.473
 3446SOL    HW211238   4.548   1.176   1.570
 3447SOL     OW11239   5.072   0.911   6.317
 3447SOL    HW111240   5.066   0.942   6.223
 3447SOL    HW211241   5.028   0.821   6.326
 3448SOL     OW11242   1.732   4.617   5.355
 3448SOL    HW111243   1.828   4.613   5.385
 3448SOL    HW211244   1.722   4.687   5.284
 3449SOL     OW11245   0.200   4.472   5.601
 3449SOL    HW111246   0.112   4.425   5.598
 3449SOL    HW211247   0.243   4.469   5.511
 3450SOL     OW11248   2.579   6.722   1.327
 3450SOL    HW111249   2.590   6.793   1.396
 3450SOL    HW211250   2.567   6.763   1.237
 3451SOL     OW11251   1.881   1.857   1.562
 3451SOL    HW111252   1.928   1.939   1.595
 3451SOL    HW211253   1.891   1.851   1.462
 3452SOL     OW11254   4.454   1.213   4.996
 3452SOL    HW111255   4.364   1.250   5.018
 3452SOL    HW211256   4.471   1.223   4.898
 3453SOL     OW11257   4.235   6.264   6.471
 3453SOL    HW111258   4.238   6.285   6.569
 3453SOL    HW211259   4.328   6.254   6.435
 3454SOL     OW11260   6.785   3.014   1.307
 3454SOL    HW111261   6.840   3.016   1.391
 3454SOL    HW211262   6.846   3.002   1.228
 3455SOL     OW11263   0.347   3.583   6.004
 3455SOL    HW111264   0.281   3.508   6.004
 3455SOL    HW211265   0.439   3.546   6.012
 3456SOL     OW11266   5.106   5.344   3.553
 3456SOL    HW111267   5.065   5.270   3.607
 3456SOL    HW211268   5.117   5.315   3.458
 3457SOL     OW11269   3.724   4.312   6.191
 3457SOL    HW111270   3.665   4.242   6.229
 3457SOL    HW211271   3.670   4.373   6.132
 3458SOL     OW11272   4.457   1.358   2.271
 3458SOL    HW111273   4.503   1.272   2.250
 3458SOL    HW211274   4.373   1.339   2.322
 3459SOL     OW11275   5.800   6.135   2.327
 3459SOL    HW111276   5.845   6.066   2.384
 3459SOL    HW211277   5.842   6.135   2.236
 3460SOL     OW11278   3.789   1.733   4.936
 3460SOL    HW111279   3.719   1.678   4.890
 3460SOL    HW211280   3.861   1.756   4.871
 3461SOL     OW11281   5.536   4.973   4.612
 3461SOL    HW111282   5.542   5.070   4.588
 3461SOL    HW211283   5.446   4.953   4.650
 3462SOL     OW11284   1.171   3.181   6.279
 3462SOL    HW111285   1.146   3.086   6.300
 3462SOL    HW211286   1.235   3.215   6.348
 3463SOL     OW11287   5.430   4.257   0.041
 3463SOL    HW111288   5.491   4.227   6.990
 3463SOL    HW211289   5.413   4.355   0.032
 3464SOL     OW11290   0.378   4.398   4.771
 3464SOL    HW111291   0.369   4.351   4.859
 3464SOL    HW211292   0.458   4.458   4.773
 3465SOL     OW11293   0.939   1.556   2.424
 3465SOL    HW111294   0.975   1.594   2.339
 3465SOL    HW211295   0.852   1.510   2.405
 3466SOL     OW11296   6.846   3.477   5.410
 3466SOL    HW111297   6.812   3.571   5.417
 3466SOL    HW211298   6.927   3.467   5.469
 3467SOL     OW11299   1.741   2.567   6.238
 3467SOL    HW111300   1.790   2.552   6.152
 3467SOL    HW211301   1.798   2.534   6.314
 3468SOL     OW11302   4.161   6.708   2.640
 3468SOL    HW111303   4.242   6.767   2.631
 3468SOL    HW211304   4.185   6.625   2.690
 3469SOL     OW11305   5.205   3.381   1.427
 3469SOL    HW111306   5.300   3.391   1.456
 3469SOL    HW211307   5.180   3.458   1.369
 3470SOL     OW11308   0.210   5.540   0.889
 3470SOL    HW111309   0.128   5.598   0.889
 3470SOL    HW211310   0.213   5.487   0.974
 3471SOL     OW11311   4.354   0.344   4.438
 3471SOL    HW111312   4.419   0.346   4.513
 3471SOL    HW211313   4.288   0.271   4.453
 3472SOL     OW11314   4.226   1.250   5.186
 3472SOL    HW111315   4.209   1.176   5.121
 3472SOL    HW211316   4.263   1.213   5.271
 3473SOL     OW11317   4.345   6.617   4.103
 3473SOL    HW111318   4.419   6.646   4.164
 3473SOL    HW211319   4.281   6.559   4.152
 3474SOL     OW11320   5.385   4.404   0.993
 3474SOL    HW111321   5.367   4.479   0.929
 3474SOL    HW211322   5.456   4.432   1.058
 3475SOL     OW11323   1.776   6.460   4.779
 3475SOL    HW111324   1.852   6.412   4.822
 3475SOL    HW211325   1.779   6.445   4.680
 3476SOL     OW11326   4.890   1.488   4.503
 3476SOL    HW111327   4.790   1.495   4.505
 3476SOL    HW211328   4.926   1.495   4.596
 3477SOL     OW11329   4.473   5.755   1.815
 3477SOL    HW111330   4.451   5.765   1.912
 3477SOL    HW211331   4.570   5.730   1.805
 3478SOL     OW11332   4.286   4.900   6.825
 3478SOL    HW111333   4.246   4.820   6.780
 3478SOL    HW211334   4.365   4.871   6.879
 3479SOL     OW11335   1.363   0.030   1.739
 3479SOL    HW111336   1.362   6.952   1.736
 3479SOL    HW211337   1.322   0.066   1.655
 3480SOL     OW11338   1.151   0.826   4.375
 3480SOL    HW111339   1.082   0.879   4.327
 3480SOL    HW211340   1.175   0.872   4.461
 3481SOL     OW11341   2.420   6.949   6.761
 3481SOL    HW111342   2.453   7.021   6.821
 3481SOL    HW211343   2.498   6.895   6.728
 3482SOL     OW11344   0.756   1.957   1.371
 3482SOL    HW111345   0.793   1.973   1.279
 3482SOL    HW211346   0.757   2.043   1.422
 3483SOL     OW11347   4.182   1.641   0.502
 3483SOL    HW111348   4.168   1.739   0.486
 3483SOL    HW211349   4.098   1.592   0.479
 3484SOL     OW11350   3.046   3.316   3.785
 3484SOL    HW111351   3.029   3.304   3.687
 3484SOL    HW211352   3.113   3.248   3.816
 3485SOL     OW11353   6.839   1.706   4.863
 3485SOL    HW111354   6.875   1.773   4.797
 3485SOL    HW211355   6.740   1.699   4.852
 3486SOL     OW11356   5.028   1.325   3.323
 3486SOL    HW111357   4.959   1.254   3.310
 3486SOL    HW211358   5.048   1.369   3.236
 3487SOL     OW11359   0.303   0.554   0.230
 3487SOL    HW111360   0.204   0.538   0.220
 3487SOL    HW211361   0.332   0.625   0.166
 3488SOL     OW11362   6.211   3.424   3.834
 3488SOL    HW111363   6.307   3.399   3.826
 3488SOL    HW211364   6.154   3.351   3.795
 3489SOL     OW11365   2.216   6.375   0.177
 3489SOL    HW111366   2.189   6.374   0.081
 3489SOL    HW211367   2.312   6.399   0.185
 3490SOL     OW11368   4.251   2.542   1.332
 3490SOL    HW111369   4.246   2.479   1.254
 3490SOL    HW211370   4.194   2.507   1.406
 3491SOL     OW11371   6.547   2.807   5.381
 3491SOL    HW111372   6.459   2.785   5.339
 3491SOL    HW211373   6.603   2.724   5.389
 3492SOL     OW11374   5.322   5.176   6.130
 3492SOL    HW111375   5.385   5.203   6.204
 3492SOL    HW211376   5.228   5.189   6.161
 3493SOL     OW11377   0.404   4.695   0.911
 3493SOL    HW111378   0.476   4.708   0.979
 3493SOL    HW211379   0.376   4.599   0.910
 3494SOL     OW11380   2.751   5.954   1.039
 3494SOL    HW111381   2.764   5.885   0.968
 3494SOL    HW211382   2.693   6.028   1.005
 3495SOL     OW11383   5.093   4.470   0.585
 3495SOL    HW111384   5.112   4.383   0.538
 3495SOL    HW211385   5.045   4.531   0.523
 3496SOL     OW11386   0.902   4.338   0.341
 3496SOL    HW111387   0.961   4.270   0.385
 3496SOL    HW211388   0.873   4.304   0.252
 3497SOL     OW11389   4.226   6.175   3.607
 3497SOL    HW111390   4.217   6.206   3.512
 3497SOL    HW211391   4.233   6.075   3.609
 3498SOL     OW11392   1.841   1.821   1.166
 3498SOL    HW111393   1.899   1.806   1.085
 3498SOL    HW211394   1.856   1.913   1.201
 3499SOL     OW11395   6.531   3.709   4.388
 3499SOL    HW111396   6.442   3.703   4.343
 3499SOL    HW211397   6.596   3.753   4.327
 3500SOL     OW11398   6.580   2.875   0.747
 3500SOL    HW111399   6.631   2.961   0.744
 3500SOL    HW211400   6.484   2.893   0.769
 3501SOL     OW11401   0.924   4.472   4.116
 3501SOL    HW111402   0.995   4.402   4.118
 3501SOL    HW211403   0.836   4.433   4.143
 3502SOL     OW11404   0.972   3.956   1.814
 3502SOL    HW111405   1.021   3.898   1.748
 3502SOL    HW211406   1.022   4.041   1.827
 3503SOL     OW11407   3.905   6.629   3.962
 3503SOL    HW111408   3.828   6.566   3.971
 3503SOL    HW211409   3.903   6.695   4.036
 3504SOL     OW11410   2.108   3.254   2.489
 3504SOL    HW111411   2.145   3.180   2.432
 3504SOL    HW211412   2.092   3.335   2.432
 3505SOL     OW11413   4.114   5.917   4.931
 3505SOL    HW111414   4.026   5.873   4.950
 3505SOL    HW211415   4.103   5.984   4.858
 3506SOL     OW11416   5.733   5.020   2.418
 3506SOL    HW111417   5.751   5.109   2.376
 3506SOL    HW211418   5.636   5.013   2.440
 3507SOL     OW11419   0.611   0.522   6.274
 3507SOL    HW111420   0.537   0.470   6.233
 3507SOL    HW211421   0.581   0.616   6.292
 3508SOL     OW11422   6.404   3.382   0.392
 3508SOL    HW111423   6.496   3.419   0.399
 3508SOL    HW211424   6.394   3.306   0.456
 3509SOL     OW11425   6.480   0.165   0.830
 3509SOL    HW111426   6.556   0.223   0.801
 3509SOL    HW211427   6.472   0.087   0.767
 3510SOL     OW11428   1.732   2.526   2.210
 3510SOL    HW111429   1.738   2.564   2.117
 3510SOL    HW211430   1.745   2.599   2.277
 3511SOL     OW11431   1.151   0.738   5.330
 3511SOL    HW111432   1.147   0.826   5.377
 3511SOL    HW211433   1.246   0.718   5.306
 3512SOL     OW11434   2.700   3.232   0.833
 3512SOL    HW111435   2.722   3.191   0.744
 3512SOL    HW211436   2.784   3.269   0.874
 3513SOL     OW11437   5.970   4.426   1.356
 3513SOL    HW111438   5.971   4.525   1.345
 3513SOL    HW211439   5.907   4.401   1.430
 3514SOL     OW11440   1.777   6.812   1.920
 3514SOL    HW111441   1.806   6.721   1.951
 3514SOL    HW211442   1.787   6.877   1.996
 3515SOL     OW11443   3.592   6.034   2.649
 3515SOL    HW111444   3.587   6.114   2.709
 3515SOL    HW211445   3.542   6.053   2.565
 3516SOL     OW11446   3.333   1.258   0.633
 3516SOL    HW111447   3.256   1.319   0.615
 3516SOL    HW211448   3.418   1.311   0.639
 3517SOL     OW11449   0.874   0.711   6.211
 3517SOL    HW111450   0.864   0.664   6.123
 3517SOL    HW211451   0.874   0.643   6.285
 3518SOL     OW11452   4.740   3.386   5.625
 3518SOL    HW111453   4.697   3.328   5.694
 3518SOL    HW211454   4.714   3.481   5.640
 3519SOL     OW11455   3.025   6.351   0.571
 3519SOL    HW111456   3.116   6.392   0.579
 3519SOL    HW211457   2.997   6.315   0.660
 3520SOL     OW11458   3.787   5.343   1.194
 3520SOL    HW111459   3.739   5.412   1.139
 3520SOL    HW211460   3.804   5.380   1.285
 3521SOL     OW11461   5.650   2.108   6.323
 3521SOL    HW111462   5.673   2.170   6.398
 3521SOL    HW211463   5.700   2.022   6.334
 3522SOL     OW11464   2.980   5.833   1.256
 3522SOL    HW111465   2.939   5.916   1.218
 3522SOL    HW211466   3.037   5.789   1.186
 3523SOL     OW11467   2.387   5.257   5.326
 3523SOL    HW111468   2.450   5.212   5.389
 3523SOL    HW211469   2.425   5.255   5.233
 3524SOL     OW11470   2.485   6.922   1.546
 3524SOL    HW111471   2.402   6.872   1.572
 3524SOL    HW211472   2.460   7.003   1.494
 3525SOL     OW11473   1.737   3.359   2.559
 3525SOL    HW111474   1.727   3.280   2.497
 3525SOL    HW211475   1.756   3.326   2.651
 3526SOL     OW11476   3.354   0.103   3.560
 3526SOL    HW111477   3.361   0.201   3.582
 3526SOL    HW211478   3.428   0.078   3.497
 3527SOL     OW11479   5.106   3.233   5.940
 3527SOL    HW111480   5.168   3.311   5.948
 3527SOL    HW211481   5.078   3.221   5.845
 3528SOL     OW11482   1.065   6.958   4.146
 3528SOL    HW111483   1.157   6.936   4.114
 3528SOL    HW211484   1.049   6.914   4.235
 3529SOL     OW11485   3.690   6.094   6.738
 3529SOL    HW111486   3.645   6.009   6.711
 3529SOL    HW211487   3.774   6.106   6.685
 3530SOL     OW11488   1.405   5.908   2.883
 3530SOL    HW111489   1.317   5.901   2.929
 3530SOL    HW211490   1.430   5.819   2.845
 3531SOL     OW11491   5.040   3.960   6.676
 3531SOL    HW111492   5.087   4.035   6.629
 3531SOL    HW211493   5.105   3.913   6.736
 3532SOL     OW11494   1.881   6.691   0.232
 3532SOL    HW111495   1.916   6.716   0.141
 3532SOL    HW211496   1.813   6.758   0.261
 3533SOL     OW11497   1.135   1.075   4.153
 3533SOL    HW111498   1.128   1.173   4.168
 3533SOL    HW211499   1.044   1.034   4.161
 3534SOL     OW11500   4.956   0.688   5.015
 3534SOL    HW111501   5.010   0.604   5.009
 3534SOL    HW211502   4.916   0.695   5.107
 3535SOL     OW11503   4.082   5.998   6.745
 3535SOL    HW111504   4.045   6.028   6.833
 3535SOL    HW211505   4.013   6.011   6.674
 3536SOL     OW11506   0.993   3.839   2.999
 3536SOL    HW111507   1.039   3.903   3.060
 3536SOL    HW211508   0.982   3.882   2.909
 3537SOL     OW11509   2.472   4.788   0.998
 3537SOL    HW111510   2.398   4.839   1.043
 3537SOL    HW211511   2.449   4.691   0.995
 3538SOL     OW11512   3.168   1.511   3.803
 3538SOL    HW111513   3.098   1.582   3.794
 3538SOL    HW211514   3.252   1.552   3.839
 3539SOL     OW11515   5.281   6.118   6.675
 3539SOL    HW111516   5.184   6.117   6.700
 3539SOL    HW211517   5.333   6.064   6.741
 3540SOL     OW11518   3.095   4.497   5.965
 3540SOL    HW111519   3.091   4.564   5.891
 3540SOL    HW211520   3.038   4.418   5.942
 3541SOL     OW11521   2.082   3.018   1.463
 3541SOL    HW111522   2.104   3.103   1.509
 3541SOL    HW211523   2.133   2.943   1.505
 3542SOL     OW11524   5.834   1.201   0.056
 3542SOL    HW111525   5.921   1.231   0.017
 3542SOL    HW211526   5.789   1.138   7.015
 3543SOL     OW11527   0.884   2.185   4.028
 3543SOL    HW111528   0.977   2.212   4.056
 3543SOL    HW211529   0.858   2.235   3.945
 3544SOL     OW11530   3.171   4.143   0.026
 3544SOL    HW111531   3.122   4.102   0.103
 3544SOL    HW211532   3.113   4.210   7.004
 3545SOL     OW11533   3.946   0.273   1.150
 3545SOL    HW111534   4.011   0.342   1.182
 3545SOL    HW211535   3.922   0.212   1.226
 3546SOL     OW11536   6.169   4.250   2.484
 3546SOL    HW111537   6.163   4.166   2.538
 3546SOL    HW211538   6.253   4.249   2.429
 3547SOL     OW11539   1.294   3.966   4.632
 3547SOL    HW111540   1.292   3.910   4.716
 3547SOL    HW211541   1.271   4.060   4.655
 3548SOL     OW11542   5.533   0.577   5.657
 3548SOL    HW111543   5.569   0.664   5.691
 3548SOL    HW211544   5.533   0.509   5.730
 3549SOL     OW11545   2.720   6.646   0.000
 3549SOL    HW111546   2.770   6.703   0.066
 3549SOL    HW211547   2.709   6.554   0.038
 3550SOL     OW11548   5.204   1.141   5.095
 3550SOL    HW111549   5.198   1.043   5.115
 3550SOL    HW211550   5.132   1.190   5.145
 3551SOL     OW11551   4.711   2.253   4.256
 3551SOL    HW111552   4.753   2.285   4.170
 3551SOL    HW211553   4.695   2.154   4.250
 3552SOL     OW11554   5.818   6.854   3.556
 3552SOL    HW111555   5.764   6.848   3.472
 3552SOL    HW211556   5.913   6.831   3.536
 3553SOL     OW11557   5.969   5.730   6.582
 3553SOL    HW111558   5.999   5.700   6.673
 3553SOL    HW211559   5.986   5.656   6.516
 3554SOL     OW11560   5.670   4.140   6.954
 3554SOL    HW111561   5.656   4.054   7.001
 3554SOL    HW211562   5.678   4.123   6.855
 3555SOL     OW11563   3.055   1.610   5.168
 3555SOL    HW111564   3.030   1.653   5.080
 3555SOL    HW211565   3.148   1.636   5.192
 3556SOL     OW11566   5.551   0.925   0.271
 3556SOL    HW111567   5.501   1.010   0.290
 3556SOL    HW211568   5.490   0.859   0.227
 3557SOL     OW11569   5.869   0.412   1.241
 3557SOL    HW111570   5.864   0.511   1.238
 3557SOL    HW211571   5.937   0.384   1.309
 3558SOL     OW11572   3.843   5.593   2.541
 3558SOL    HW111573   3.938   5.614   2.562
 3558SOL    HW211574   3.819   5.631   2.452
 3559SOL     OW11575   4.661   0.109   6.368
 3559SOL    HW111576   4.598   0.133   6.441
 3559SOL    HW211577   4.610   0.085   6.285
 3560SOL     OW11578   1.647   5.759   4.242
 3560SOL    HW111579   1.677   5.767   4.337
 3560SOL    HW211580   1.691   5.829   4.187
 3561SOL     OW11581   4.386   3.640   5.263
 3561SOL    HW111582   4.416   3.651   5.357
 3561SOL    HW211583   4.464   3.618   5.204
 3562SOL     OW11584   2.478   1.920   6.987
 3562SOL    HW111585   2.496   1.834   0.013
 3562SOL    HW211586   2.380   1.939   6.987
 3563SOL     OW11587   6.257   2.672   6.060
 3563SOL    HW111588   6.239   2.723   6.144
 3563SOL    HW211589   6.194   2.594   6.054
 3564SOL     OW11590   6.104   3.459   2.135
 3564SOL    HW111591   6.073   3.532   2.195
 3564SOL    HW211592   6.028   3.426   2.080
 3565SOL     OW11593   4.117   5.873   4.611
 3565SOL    HW111594   4.191   5.917   4.662
 3565SOL    HW211595   4.035   5.930   4.614
 3566SOL     OW11596   1.076   0.082   4.807
 3566SOL    HW111597   0.991   0.105   4.856
 3566SOL    HW211598   1.109   7.015   4.838
 3567SOL     OW11599   0.157   2.856   6.468
 3567SOL    HW111600   0.129   2.893   6.557
 3567SOL    HW211601   0.081   2.803   6.429
 3568SOL     OW11602   5.538   3.841   6.145
 3568SOL    HW111603   5.612   3.894   6.103
 3568SOL    HW211604   5.573   3.752   6.173
 3569SOL     OW11605   1.355   0.562   4.322
 3569SOL    HW111606   1.362   0.647   4.269
 3569SOL    HW211607   1.352   0.484   4.260
 3570SOL     OW11608   5.456   1.714   3.631
 3570SOL    HW111609   5.518   1.642   3.601
 3570SOL    HW211610   5.400   1.744   3.554
 3571SOL     OW11611   6.321   6.715   5.326
 3571SOL    HW111612   6.265   6.657   5.267
 3571SOL    HW211613   6.413   6.723   5.287
 3572SOL     OW11614   6.296   5.782   4.784
 3572SOL    HW111615   6.238   5.720   4.730
 3572SOL    HW211616   6.239   5.852   4.826
 3573SOL     OW11617   1.358   1.947   2.204
 3573SOL    HW111618   1.368   1.973   2.108
 3573SOL    HW211619   1.290   2.005   2.248
 3574SOL     OW11620   6.346   3.528   7.003
 3574SOL    HW111621   6.366   3.441   0.026
 3574SOL    HW211622   6.378   3.603   0.038
 3575SOL     OW11623   6.254   5.927   1.955
 3575SOL    HW111624   6.208   5.889   2.035
 3575SOL    HW211625   6.210   5.891   1.872
 3576SOL     OW11626   0.565   1.716   6.399
 3576SOL    HW111627   0.659   1.694   6.371
 3576SOL    HW211628   0.521   1.770   6.328
 3577SOL     OW11629   1.709   2.782   0.087
 3577SOL    HW111630   1.723   2.873   0.127
 3577SOL    HW211631   1.792   2.755   0.038
 3578SOL     OW11632   3.521   4.848   1.253
 3578SOL    HW111633   3.525   4.900   1.338
 3578SOL    HW211634   3.484   4.906   1.180
 3579SOL     OW11635   0.436   4.296   5.271
 3579SOL    HW111636   0.454   4.305   5.173
 3579SOL    HW211637   0.523   4.280   5.319
 3580SOL     OW11638   6.736   2.069   1.861
 3580SOL    HW111639   6.709   2.080   1.957
 3580SOL    HW211640   6.832   2.040   1.857
 3581SOL     OW11641   6.109   0.567   3.673
 3581SOL    HW111642   6.056   0.638   3.718
 3581SOL    HW211643   6.207   0.588   3.682
 3582SOL     OW11644   0.099   0.718   5.707
 3582SOL    HW111645   0.029   0.788   5.694
 3582SOL    HW211646   0.131   0.720   5.802
 3583SOL     OW11647   2.162   5.364   0.658
 3583SOL    HW111648   2.147   5.265   0.665
 3583SOL    HW211649   2.225   5.383   0.583
 3584SOL     OW11650   5.238   0.063   5.787
 3584SOL    HW111651   5.201   0.125   5.718
 3584SOL    HW211652   5.322   0.021   5.752
 3585SOL     OW11653   2.695   4.720   3.854
 3585SOL    HW111654   2.783   4.697   3.896
 3585SOL    HW211655   2.662   4.806   3.892
 3586SOL     OW11656   6.511   1.984   5.945
 3586SOL    HW111657   6.581   2.040   5.990
 3586SOL    HW211658   6.497   2.019   5.852
 3587SOL     OW11659   3.734   0.167   6.436
 3587SOL    HW111660   3.829   0.179   6.466
 3587SOL    HW211661   3.676   0.233   6.484
 3588SOL     OW11662   2.245   1.321   5.292
 3588SOL    HW111663   2.278   1.378   5.217
 3588SOL    HW211664   2.306   1.330   5.370
 3589SOL     OW11665   3.043   0.482   5.289
 3589SOL    HW111666   3.006   0.390   5.295
 3589SOL    HW211667   3.139   0.482   5.318
 3590SOL     OW11668   1.878   4.963   6.695
 3590SOL    HW111669   1.808   5.005   6.637
 3590SOL    HW211670   1.968   4.978   6.655
 3591SOL     OW11671   4.885   2.258   6.238
 3591SOL    HW111672   4.804   2.245   6.181
 3591SOL    HW211673   4.890   2.353   6.267
 3592SOL     OW11674   4.801   2.867   1.757
 3592SOL    HW111675   4.869   2.840   1.824
 3592SOL    HW211676   4.750   2.946   1.790
 3593SOL     OW11677   1.537   4.927   3.064
 3593SOL    HW111678   1.551   4.863   3.140
 3593SOL    HW211679   1.496   4.879   2.987
 3594SOL     OW11680   3.091   0.957   4.197
 3594SOL    HW111681   3.143   0.982   4.280
 3594SOL    HW211682   3.155   0.927   4.126
 3595SOL     OW11683   2.657   6.173   5.424
 3595SOL    HW111684   2.648   6.236   5.347
 3595SOL    HW211685   2.692   6.085   5.392
 3596SOL     OW11686   6.770   3.208   3.473
 3596SOL    HW111687   6.859   3.236   3.509
 3596SOL    HW211688   6.727   3.144   3.538
 3597SOL     OW11689   3.824   6.039   3.029
 3597SOL    HW111690   3.836   5.998   2.938
 3597SOL    HW211691   3.745   6.100   3.028
 3598SOL     OW11692   1.054   0.163   0.210
 3598SOL    HW111693   1.045   0.098   0.286
 3598SOL    HW211694   1.101   0.119   0.134
 3599SOL     OW11695   0.154   1.920   4.115
 3599SOL    HW111696   0.128   1.866   4.195
 3599SOL    HW211697   0.227   1.874   4.065
 3600SOL     OW11698   6.100   0.917   0.887
 3600SOL    HW111699   6.013   0.917   0.837
 3600SOL    HW211700   6.169   0.868   0.834
 3601SOL     OW11701   6.325   3.775   5.453
 3601SOL    HW111702   6.314   3.865   5.495
 3601SOL    HW211703   6.369   3.713   5.517
 3602SOL     OW11704   1.782   1.802   0.370
 3602SOL    HW111705   1.751   1.759   0.285
 3602SOL    HW211706   1.751   1.897   0.373
 3603SOL     OW11707   4.095   4.901   4.789
 3603SOL    HW111708   4.164   4.954   4.739
 3603SOL    HW211709   4.138   4.822   4.832
 3604SOL     OW11710   0.557   3.315   3.175
 3604SOL    HW111711   0.592   3.267   3.095
 3604SOL    HW211712   0.633   3.337   3.237
 3605SOL     OW11713   6.254   3.236   6.590
 3605SOL    HW111714   6.312   3.317   6.584
 3605SOL    HW211715   6.193   3.244   6.668
 3606SOL     OW11716   1.146   4.451   4.926
 3606SOL    HW111717   1.089   4.414   4.999
 3606SOL    HW211718   1.147   4.551   4.933
 3607SOL     OW11719   4.562   6.799   0.011
 3607SOL    HW111720   4.511   6.877   6.997
 3607SOL    HW211721   4.500   6.720   0.019
 3608SOL     OW11722   1.190   2.384   2.703
 3608SOL    HW111723   1.261   2.316   2.687
 3608SOL    HW211724   1.229   2.476   2.694
 3609SOL     OW11725   6.525   0.057   4.635
 3609SOL    HW111726   6.581   6.997   4.621
 3609SOL    HW211727   6.527   0.113   4.553
 3610SOL     OW11728   1.373   5.826   5.057
 3610SOL    HW111729   1.328   5.915   5.061
 3610SOL    HW211730   1.472   5.838   5.071
 3611SOL     OW11731   3.856   5.250   4.899
 3611SOL    HW111732   3.858   5.312   4.821
 3611SOL    HW211733   3.771   5.263   4.950
 3612SOL     OW11734   1.808   7.008   1.452
 3612SOL    HW111735   1.720   6.974   1.422
 3612SOL    HW211736   1.835   6.961   1.537
 3613SOL     OW11737   4.929   5.549   0.005
 3613SOL    HW111738   4.881   5.633   0.031
 3613SOL    HW211739   4.981   5.564   6.943
 3614SOL     OW11740   3.553   2.947   3.348
 3614SOL    HW111741   3.458   2.963   3.376
 3614SOL    HW211742   3.554   2.905   3.257
 3615SOL     OW11743   6.883   6.568   6.423
 3615SOL    HW111744   6.790   6.587   6.453
 3615SOL    HW211745   6.920   6.648   6.376
 3616SOL     OW11746   6.855   1.202   4.447
 3616SOL    HW111747   6.761   1.231   4.428
 3616SOL    HW211748   6.877   1.223   4.542
 3617SOL     OW11749   6.594   0.516   6.787
 3617SOL    HW111750   6.654   0.595   6.803
 3617SOL    HW211751   6.515   0.546   6.733
 3618SOL     OW11752   2.617   1.510   6.018
 3618SOL    HW111753   2.705   1.516   6.065
 3618SOL    HW211754   2.556   1.449   6.069
 3619SOL     OW11755   5.782   2.449   3.946
 3619SOL    HW111756   5.729   2.531   3.925
 3619SOL    HW211757   5.726   2.367   3.931
 3620SOL     OW11758   6.126   0.911   4.114
 3620SOL    HW111759   6.173   0.930   4.200
 3620SOL    HW211760   6.081   0.822   4.119
 3621SOL     OW11761   1.953   3.674   5.915
 3621SOL    HW111762   1.972   3.766   5.949
 3621SOL    HW211763   2.034   3.617   5.926
 3622SOL     OW11764   0.639   2.531   1.224
 3622SOL    HW111765   0.678   2.617   1.192
 3622SOL    HW211766   0.628   2.534   1.323
 3623SOL     OW11767   6.909   5.327   4.173
 3623SOL    HW111768   6.913   5.427   4.182
 3623SOL    HW211769   6.815   5.297   4.186
 3624SOL     OW11770   2.512   0.307   1.592
 3624SOL    HW111771   2.583   0.257   1.542
 3624SOL    HW211772   2.438   0.333   1.529
 3625SOL     OW11773   6.909   3.035   4.954
 3625SOL    HW111774   6.992   2.981   4.971
 3625SOL    HW211775   6.849   3.029   5.033
 3626SOL     OW11776   2.611   3.902   5.306
 3626SOL    HW111777   2.540   3.941   5.248
 3626SOL    HW211778   2.591   3.805   5.324
 3627SOL     OW11779   3.144   3.990   3.989
 3627SOL    HW111780   3.093   4.028   4.065
 3627SOL    HW211781   3.104   3.903   3.961
 3628SOL     OW11782   3.505   5.207   2.816
 3628SOL    HW111783   3.456   5.269   2.878
 3628SOL    HW211784   3.475   5.113   2.833
 3629SOL     OW11785   6.118   2.549   5.251
 3629SOL    HW111786   6.036   2.605   5.265
 3629SOL    HW211787   6.135   2.538   5.153
 3630SOL     OW11788   6.326   1.856   4.297
 3630SOL    HW111789   6.247   1.827   4.243
 3630SOL    HW211790   6.336   1.955   4.291
 3631SOL     OW11791   2.258   1.050   4.419
 3631SOL    HW111792   2.269   0.951   4.424
 3631SOL    HW211793   2.338   1.090   4.374
 3632SOL     OW11794   4.132   0.523   6.685
 3632SOL    HW111795   4.081   0.609   6.682
 3632SOL    HW211796   4.213   0.534   6.741
 3633SOL     OW11797   2.163   3.186   6.206
 3633SOL    HW111798   2.128   3.236   6.127
 3633SOL    HW211799   2.231   3.119   6.176
 3634SOL     OW11800   2.106   5.989   4.942
 3634SOL    HW111801   2.095   5.916   5.009
 3634SOL    HW211802   2.026   5.991   4.882
 3635SOL     OW11803   2.607   1.361   5.341
 3635SOL    HW111804   2.561   1.326   5.423
 3635SOL    HW211805   2.646   1.451   5.360
 3636SOL     OW11806   1.038   5.696   5.861
 3636SOL    HW111807   1.028   5.655   5.771
 3636SOL    HW211808   1.019   5.627   5.931
 3637SOL     OW11809   5.604   1.575   2.083
 3637SOL    HW111810   5.537   1.511   2.120
 3637SOL    HW211811   5.689   1.566   2.135
 3638SOL     OW11812   6.832   5.006   4.237
 3638SOL    HW111813   6.741   5.034   4.206
 3638SOL    HW211814   6.824   4.959   4.325
 3639SOL     OW11815   2.237   4.988   6.921
 3639SOL    HW111816   2.201   4.955   7.008
 3639SOL    HW211817   2.181   5.065   6.888
 3640SOL     OW11818   3.541   5.676   0.737
 3640SOL    HW111819   3.629   5.681   0.783
 3640SOL    HW211820   3.524   5.762   0.689
 3641SOL     OW11821   2.372   0.825   4.963
 3641SOL    HW111822   2.423   0.883   4.899
 3641SOL    HW211823   2.419   0.737   4.973
 3642SOL     OW11824   5.450   6.997   3.933
 3642SOL    HW111825   5.424   6.920   3.874
 3642SOL    HW211826   5.550   7.000   3.941
 3643SOL     OW11827   2.802   4.893   4.926
 3643SOL    HW111828   2.830   4.800   4.950
 3643SOL    HW211829   2.711   4.911   4.964
 3644SOL     OW11830   6.942   1.233   0.576
 3644SOL    HW111831   6.954   1.135   0.561
 3644SOL    HW211832   6.888   1.272   0.502
 3645SOL     OW11833   3.089   0.833   3.150
 3645SOL    HW111834   3.143   0.825   3.066
 3645SOL    HW211835   3.039   0.748   3.167
 3646SOL     OW11836   0.061   4.939   5.400
 3646SOL    HW111837   6.985   4.919   5.405
 3646SOL    HW211838   0.110   4.859   5.366
 3647SOL     OW11839   2.555   3.087   1.022
 3647SOL    HW111840   2.606   3.152   0.965
 3647SOL    HW211841   2.490   3.038   0.964
 3648SOL     OW11842   3.184   6.274   2.621
 3648SOL    HW111843   3.239   6.248   2.701
 3648SOL    HW211844   3.163   6.193   2.567
 3649SOL     OW11845   3.263   3.577   1.222
 3649SOL    HW111846   3.272   3.482   1.250
 3649SOL    HW211847   3.343   3.603   1.167
 3650SOL     OW11848   0.450   7.010   1.368
 3650SOL    HW111849   0.419   0.079   1.395
 3650SOL    HW211850   0.547   7.000   1.389
 3651SOL     OW11851   1.749   5.740   2.639
 3651SOL    HW111852   1.842   5.740   2.602
 3651SOL    HW211853   1.753   5.741   2.739
 3652SOL     OW11854   4.807   5.462   3.171
 3652SOL    HW111855   4.880   5.494   3.231
 3652SOL    HW211856   4.728   5.523   3.178
 3653SOL     OW11857   6.842   2.378   3.466
 3653SOL    HW111858   6.801   2.328   3.390
 3653SOL    HW211859   6.782   2.373   3.546
 3654SOL     OW11860   1.705   6.666   1.569
 3654SOL    HW111861   1.629   6.730   1.572
 3654SOL    HW211862   1.678   6.584   1.519
 3655SOL     OW11863   1.600   0.452   4.398
 3655SOL    HW111864   1.523   0.511   4.373
 3655SOL    HW211865   1.623   0.466   4.495
 3656SOL     OW11866   2.187   2.866   1.890
 3656SOL    HW111867   2.144   2.920   1.818
 3656SOL    HW211868   2.177   2.769   1.871
 3657SOL     OW11869   3.759   6.035   1.514
 3657SOL    HW111870   3.816   6.067   1.439
 3657SOL    HW211871   3.679   5.987   1.477
 3658SOL     OW11872   1.805   5.876   5.980
 3658SOL    HW111873   1.797   5.923   6.068
 3658SOL    HW211874   1.736   5.912   5.917
 3659SOL     OW11875   2.539   4.515   0.153
 3659SOL    HW111876   2.548   4.602   0.103
 3659SOL    HW211877   2.612   4.453   0.124
 3660SOL     OW11878   4.913   5.442   1.644
 3660SOL    HW111879   4.893   5.349   1.612
 3660SOL    HW211880   4.828   5.492   1.655
 3661SOL     OW11881   4.413   0.776   0.467
 3661SOL    HW111882   4.436   0.812   0.557
 3661SOL    HW211883   4.329   0.722   0.474
 3662SOL     OW11884   3.145   0.261   5.179
 3662SOL    HW111885   3.228   0.208   5.198
 3662SOL    HW211886   3.083   0.206   5.124
 3663SOL     OW11887   1.305   2.623   6.962
 3663SOL    HW111888   1.226   2.636   0.001
 3663SOL    HW211889   1.276   2.576   6.879
 3664SOL     OW11890   5.092   0.936   0.946
 3664SOL    HW111891   5.061   0.950   0.851
 3664SOL    HW211892   5.037   0.992   1.007
 3665SOL     OW11893   0.935   6.990   5.503
 3665SOL    HW111894   0.849   0.001   5.542
 3665SOL    HW211895   0.987   0.044   5.466
 3666SOL     OW11896   1.409   4.940   3.993
 3666SOL    HW111897   1.462   4.860   3.965
 3666SOL    HW211898   1.466   5.022   3.983
 3667SOL     OW11899   6.352   1.023   6.158
 3667SOL    HW111900   6.359   1.120   6.180
 3667SOL    HW211901   6.403   1.003   6.074
 3668SOL     OW11902   1.067   5.900   2.115
 3668SOL    HW111903   1.094   5.992   2.144
 3668SOL    HW211904   1.139   5.835   2.139
 3669SOL     OW11905   6.541   2.983   3.216
 3669SOL    HW111906   6.607   2.909   3.207
 3669SOL    HW211907   6.515   3.016   3.125
 3670SOL     OW11908   1.924   5.975   5.753
 3670SOL    HW111909   1.871   5.936   5.829
 3670SOL    HW211910   1.893   5.935   5.667
 3671SOL     OW11911   0.930   0.181   2.816
 3671SOL    HW111912   1.002   0.114   2.800
 3671SOL    HW211913   0.968   0.260   2.863
 3672SOL     OW11914   6.851   0.627   0.753
 3672SOL    HW111915   6.866   0.660   0.660
 3672SOL    HW211916   6.919   0.667   0.814
 3673SOL     OW11917   5.063   0.512   6.704
 3673SOL    HW111918   5.163   0.519   6.708
 3673SOL    HW211919   5.034   0.428   6.750
 3674SOL     OW11920   1.347   6.148   0.897
 3674SOL    HW111921   1.379   6.056   0.874
 3674SOL    HW211922   1.365   6.166   0.994
 3675SOL     OW11923   1.679   2.517   4.962
 3675SOL    HW111924   1.699   2.507   5.059
 3675SOL    HW211925   1.720   2.601   4.928
 3676SOL     OW11926   2.630   5.916   3.624
 3676SOL    HW111927   2.555   5.888   3.684
 3676SOL    HW211928   2.688   5.837   3.604
 3677SOL     OW11929   6.392   6.811   4.300
 3677SOL    HW111930   6.406   6.722   4.255
 3677SOL    HW211931   6.382   6.797   4.398
 3678SOL     OW11932   0.969   1.690   3.509
 3678SOL    HW111933   0.965   1.661   3.414
 3678SOL    HW211934   1.007   1.783   3.515
 3679SOL     OW11935   0.344   0.972   1.986
 3679SOL    HW111936   0.337   1.046   2.053
 3679SOL    HW211937   0.367   1.010   1.897
 3680SOL     OW11938   6.693   3.201   4.164
 3680SOL    HW111939   6.608   3.241   4.197
 3680SOL    HW211940   6.678   3.160   4.074
 3681SOL     OW11941   6.686   6.319   5.788
 3681SOL    HW111942   6.587   6.333   5.783
 3681SOL    HW211943   6.732   6.379   5.723
 3682SOL     OW11944   6.758   2.087   6.265
 3682SOL    HW111945   6.661   2.102   6.279
 3682SOL    HW211946   6.784   1.998   6.304
 3683SOL     OW11947   5.597   6.799   4.511
 3683SOL    HW111948   5.661   6.840   4.576
 3683SOL    HW211949   5.629   6.708   4.485
 3684SOL     OW11950   1.351   3.511   1.164
 3684SOL    HW111951   1.357   3.585   1.096
 3684SOL    HW211952   1.284   3.444   1.134
 3685SOL     OW11953   6.563   6.420   6.269
 3685SOL    HW111954   6.535   6.374   6.353
 3685SOL    HW211955   6.486   6.470   6.231
 3686SOL     OW11956   5.964   4.682   1.590
 3686SOL    HW111957   6.060   4.655   1.590
 3686SOL    HW211958   5.936   4.707   1.497
 3687SOL     OW11959   3.434   0.913   0.274
 3687SOL    HW111960   3.390   0.879   0.190
 3687SOL    HW211961   3.394   0.867   0.353
 3688SOL     OW11962   1.392   3.292   0.119
 3688SOL    HW111963   1.317   3.239   0.160
 3688SOL    HW211964   1.353   3.367   0.065
 3689SOL     OW11965   1.895   0.652   3.746
 3689SOL    HW111966   1.908   0.553   3.740
 3689SOL    HW211967   1.902   0.681   3.841
 3690SOL     OW11968   6.151   0.178   5.556
 3690SOL    HW111969   6.117   0.247   5.620
 3690SOL    HW211970   6.157   0.218   5.464
 3691SOL     OW11971   3.057   2.801   6.809
 3691SOL    HW111972   3.104   2.890   6.808
 3691SOL    HW211973   3.114   2.733   6.764
 3692SOL     OW11974   1.713   6.943   5.377
 3692SOL    HW111975   1.622   6.960   5.340
 3692SOL    HW211976   1.765   6.886   5.313
 3693SOL     OW11977   2.941   2.267   3.050
 3693SOL    HW111978   3.021   2.326   3.057
 3693SOL    HW211979   2.863   2.309   3.097
 3694SOL     OW11980   1.770   5.946   3.217
 3694SOL    HW111981   1.818   6.022   3.261
 3694SOL    HW211982   1.835   5.891   3.165
 3695SOL     OW11983   1.921   1.993   1.869
 3695SOL    HW111984   1.824   2.013   1.881
 3695SOL    HW211985   1.975   2.058   1.923
 3696SOL     OW11986   3.981   6.894   6.392
 3696SOL    HW111987   4.074   6.876   6.359
 3696SOL    HW211988   3.980   6.886   6.492
 3697SOL     OW11989   6.465   0.555   4.152
 3697SOL    HW111990   6.503   0.531   4.242
 3697SOL    HW211991   6.539   0.578   4.090
 3698SOL     OW11992   2.971   0.734   5.849
 3698SOL    HW111993   3.008   0.696   5.934
 3698SOL    HW211994   2.992   0.832   5.844
 3699SOL     OW11995   0.514   4.145   2.659
 3699SOL    HW111996   0.562   4.069   2.615
 3699SOL    HW211997   0.419   4.120   2.676
 3700SOL     OW11998   0.372   0.034   4.101
 3700SOL    HW111999   0.453   0.071   4.055
 3700SOL    HW212000   0.305   0.005   4.032
 3701SOL     OW12001   6.532   0.932   4.304
 3701SOL    HW112002   6.439   0.898   4.288
 3701SOL    HW212003   6.577   0.876   4.374
 3702SOL     OW12004   3.261   1.344   0.099
 3702SOL    HW112005   3.192   1.323   0.031
 3702SOL    HW212006   3.352   1.330   0.060
 3703SOL     OW12007   4.419   4.497   6.394
 3703SOL    HW112008   4.463   4.434   6.458
 3703SOL    HW212009   4.445   4.591   6.417
 3704SOL     OW12010   2.488   0.002   2.590
 3704SOL    HW112011   2.528   0.033   2.676
 3704SOL    HW212012   2.541   6.947   2.555
 3705SOL     OW12013   5.321   0.826   3.707
 3705SOL    HW112014   5.359   0.735   3.716
 3705SOL    HW212015   5.395   0.893   3.698
 3706SOL     OW12016   2.040   2.654   3.762
 3706SOL    HW112017   1.971   2.593   3.723
 3706SOL    HW212018   2.094   2.694   3.689
 3707SOL     OW12019   4.387   2.756   5.294
 3707SOL    HW112020   4.470   2.709   5.265
 3707SOL    HW212021   4.308   2.718   5.245
 3708SOL     OW12022   5.411   0.206   6.317
 3708SOL    HW112023   5.451   0.115   6.308
 3708SOL    HW212024   5.317   0.206   6.282
 3709SOL     OW12025   3.564   0.688   6.381
 3709SOL    HW112026   3.626   0.750   6.429
 3709SOL    HW212027   3.544   0.725   6.290
 3710SOL     OW12028   0.124   4.597   0.454
 3710SOL    HW112029   0.079   4.681   0.424
 3710SOL    HW212030   0.160   4.548   0.375
 3711SOL     OW12031   6.596   5.099   2.485
 3711SOL    HW112032   6.569   5.014   2.529
 3711SOL    HW212033   6.532   5.171   2.510
 3712SOL     OW12034   1.663   6.816   0.316
 3712SOL    HW112035   1.595   6.888   0.305
 3712SOL    HW212036   1.658   6.779   0.409
 3713SOL     OW12037   3.412   5.992   5.838
 3713SOL    HW112038   3.511   5.983   5.824
 3713SOL    HW212039   3.382   6.082   5.806
 3714SOL     OW12040   3.647   0.609   4.764
 3714SOL    HW112041   3.637   0.708   4.750
 3714SOL    HW212042   3.594   0.581   4.843
 3715SOL     OW12043   5.230   4.125   4.816
 3715SOL    HW112044   5.179   4.052   4.770
 3715SOL    HW212045   5.241   4.101   4.912
 3716SOL     OW12046   0.177   0.602   4.444
 3716SOL    HW112047   0.170   0.698   4.419
 3716SOL    HW212048   0.265   0.566   4.412
 3717SOL     OW12049   6.205   6.666   1.024
 3717SOL    HW112050   6.292   6.621   1.042
 3717SOL    HW212051   6.133   6.624   1.079
 3718SOL     OW12052   1.313   5.313   0.288
 3718SOL    HW112053   1.352   5.266   0.367
 3718SOL    HW212054   1.387   5.352   0.233
 3719SOL     OW12055   3.518   4.799   5.493
 3719SOL    HW112056   3.434   4.843   5.461
 3719SOL    HW212057   3.503   4.759   5.583
 3720SOL     OW12058   5.946   1.587   6.026
 3720SOL    HW112059   5.987   1.667   5.982
 3720SOL    HW212060   5.875   1.617   6.090
 3721SOL     OW12061   4.899   4.311   0.251
 3721SOL    HW112062   4.962   4.337   0.178
 3721SOL    HW212063   4.842   4.235   0.221
 3722SOL     OW12064   6.658   6.030   2.507
 3722SOL    HW112065   6.619   6.044   2.598
 3722SOL    HW212066   6.729   6.100   2.491
 3723SOL     OW12067   4.794   0.444   0.999
 3723SOL    HW112068   4.790   0.526   0.942
 3723SOL    HW212069   4.852   0.375   0.955
 3724SOL     OW12070   1.355   5.758   6.342
 3724SOL    HW112071   1.332   5.854   6.326
 3724SOL    HW212072   1.440   5.735   6.295
 3725SOL     OW12073   0.367   6.111   6.606
 3725SOL    HW112074   0.302   6.075   6.538
 3725SOL    HW212075   0.320   6.121   6.694
 3726SOL     OW12076   5.389   4.075   1.547
 3726SOL    HW112077   5.342   4.026   1.621
 3726SOL    HW212078   5.354   4.169   1.542
 3727SOL     OW12079   2.160   3.569   5.629
 3727SOL    HW112080   2.215   3.651   5.643
 3727SOL    HW212081   2.208   3.489   5.665
 3728SOL     OW12082   1.527   3.209   6.544
 3728SOL    HW112083   1.490   3.117   6.557
 3728SOL    HW212084   1.519   3.261   6.629
 3729SOL     OW12085   0.610   2.097   3.566
 3729SOL    HW112086   0.510   2.095   3.578
 3729SOL    HW212087   0.631   2.128   3.473
 3730SOL     OW12088   3.211   1.134   0.333
 3730SOL    HW112089   3.277   1.169   0.267
 3730SOL    HW212090   3.258   1.108   0.418
 3731SOL     OW12091   4.087   6.678   0.047
 3731SOL    HW112092   4.164   6.662   0.108
 3731SOL    HW212093   4.113   6.745   6.999
 3732SOL     OW12094   2.271   3.839   5.354
 3732SOL    HW112095   2.264   3.890   5.440
 3732SOL    HW212096   2.331   3.887   5.291
 3733SOL     OW12097   2.801   3.726   1.228
 3733SOL    HW112098   2.775   3.656   1.294
 3733SOL    HW212099   2.744   3.807   1.241
 3734SOL     OW12100   5.330   0.838   2.458
 3734SOL    HW112101   5.275   0.763   2.495
 3734SOL    HW212102   5.282   0.881   2.381
 3735SOL     OW12103   3.408   1.858   2.242
 3735SOL    HW112104   3.361   1.932   2.290
 3735SOL    HW212105   3.435   1.890   2.151
 3736SOL     OW12106   5.880   2.329   0.671
 3736SOL    HW112107   5.932   2.246   0.693
 3736SOL    HW212108   5.795   2.303   0.624
 3737SOL     OW12109   4.682   6.268   3.432
 3737SOL    HW112110   4.708   6.364   3.439
 3737SOL    HW212111   4.763   6.211   3.425
 3738SOL     OW12112   0.135   0.072   3.671
 3738SOL    HW112113   0.217   0.079   3.615
 3738SOL    HW212114   0.155   0.015   3.751
 3739SOL     OW12115   0.659   4.375   2.271
 3739SOL    HW112116   0.567   4.338   2.255
 3739SOL    HW212117   0.727   4.303   2.255
 3740SOL     OW12118   5.649   1.212   0.448
 3740SOL    HW112119   5.730   1.181   0.399
 3740SOL    HW212120   5.567   1.176   0.402
 3741SOL     OW12121   4.135   2.565   6.926
 3741SOL    HW112122   4.136   2.476   6.972
 3741SOL    HW212123   4.057   2.618   6.958
 3742SOL     OW12124   3.256   2.830   5.711
 3742SOL    HW112125   3.219   2.827   5.618
 3742SOL    HW212126   3.330   2.764   5.720
 3743SOL     OW12127   0.265   5.028   6.839
 3743SOL    HW112128   0.353   5.070   6.816
 3743SOL    HW212129   0.194   5.067   6.781
 3744SOL     OW12130   0.354   5.880   3.718
 3744SOL    HW112131   0.434   5.878   3.659
 3744SOL    HW212132   0.335   5.788   3.752
 3745SOL     OW12133   4.630   5.791   2.688
 3745SOL    HW112134   4.687   5.845   2.748
 3745SOL    HW212135   4.682   5.712   2.654
 3746SOL     OW12136   4.311   1.515   2.057
 3746SOL    HW112137   4.335   1.426   2.095
 3746SOL    HW212138   4.230   1.506   1.998
 3747SOL     OW12139   3.201   0.740   0.147
 3747SOL    HW112140   3.245   0.793   0.075
 3747SOL    HW212141   3.117   0.785   0.175
 3748SOL     OW12142   5.726   1.159   2.451
 3748SOL    HW112143   5.773   1.100   2.385
 3748SOL    HW212144   5.780   1.163   2.535
 3749SOL     OW12145   1.225   0.140   5.117
 3749SOL    HW112146   1.141   0.085   5.118
 3749SOL    HW212147   1.216   0.216   5.181
 3750SOL     OW12148   7.011   4.114   0.385
 3750SOL    HW112149   0.018   4.022   0.358
 3750SOL    HW212150   0.067   4.164   0.423
 3751SOL     OW12151   0.776   3.934   2.611
 3751SOL    HW112152   0.802   3.968   2.520
 3751SOL    HW212153   0.852   3.949   2.675
 3752SOL     OW12154   5.785   0.211   6.066
 3752SOL    HW112155   5.750   0.260   5.987
 3752SOL    HW212156   5.769   0.113   6.055
 3753SOL     OW12157   6.594   6.999   4.317
 3753SOL    HW112158   6.669   6.974   4.256
 3753SOL    HW212159   6.513   6.944   4.296
 3754SOL     OW12160   2.104   1.728   0.789
 3754SOL    HW112161   2.110   1.677   0.874
 3754SOL    HW212162   2.069   1.820   0.807
 3755SOL     OW12163   3.202   4.866   3.538
 3755SOL    HW112164   3.141   4.911   3.472
 3755SOL    HW212165   3.207   4.768   3.516
 3756SOL     OW12166   2.455   6.346   6.874
 3756SOL    HW112167   2.400   6.269   6.904
 3756SOL    HW212168   2.528   6.362   6.941
 3757SOL     OW12169   6.949   4.615   1.126
 3757SOL    HW112170   6.988   4.524   1.113
 3757SOL    HW212171   7.005   4.666   1.191
 3758SOL     OW12172   1.799   6.685   3.744
 3758SOL    HW112173   1.838   6.676   3.835
 3758SOL    HW212174   1.862   6.646   3.676
 3759SOL     OW12175   5.048   0.341   4.461
 3759SOL    HW112176   4.958   0.371   4.491
 3759SOL    HW212177   5.116   0.364   4.531
 3760SOL     OW12178   0.223   1.268   3.028
 3760SOL    HW112179   0.322   1.258   3.022
 3760SOL    HW212180   0.196   1.358   2.994
 3761SOL     OW12181   5.640   0.945   3.919
 3761SOL    HW112182   5.574   0.949   3.994
 3761SOL    HW212183   5.595   0.968   3.833
 3762SOL     OW12184   0.070   2.632   2.819
 3762SOL    HW112185   0.150   2.666   2.868
 3762SOL    HW212186   7.010   2.650   2.874
 3763SOL     OW12187   0.612   4.531   1.033
 3763SOL    HW112188   0.536   4.480   0.993
 3763SOL    HW212189   0.690   4.470   1.046
 3764SOL     OW12190   2.311   0.699   3.008
 3764SOL    HW112191   2.345   0.618   3.055
 3764SOL    HW212192   2.388   0.753   2.973
 3765SOL     OW12193   5.795   2.844   2.262
 3765SOL    HW112194   5.765   2.764   2.210
 3765SOL    HW212195   5.785   2.926   2.206
 3766SOL     OW12196   1.211   3.695   3.347
 3766SOL    HW112197   1.227   3.789   3.315
 3766SOL    HW212198   1.238   3.687   3.442
 3767SOL     OW12199   0.994   4.865   6.480
 3767SOL    HW112200   0.954   4.789   6.532
 3767SOL    HW212201   0.946   4.875   6.393
 3768SOL     OW12202   0.822   6.792   3.534
 3768SOL    HW112203   0.859   6.751   3.617
 3768SOL    HW212204   0.882   6.866   3.503
 3769SOL     OW12205   5.932   4.964   5.293
 3769SOL    HW112206   6.005   4.896   5.301
 3769SOL    HW212207   5.862   4.931   5.231
 3770SOL     OW12208   1.738   0.835   1.334
 3770SOL    HW112209   1.707   0.837   1.429
 3770SOL    HW212210   1.820   0.891   1.324
 3771SOL     OW12211   6.573   5.175   0.053
 3771SOL    HW112212   6.579   5.226   6.990
 3771SOL    HW212213   6.610   5.083   0.040
 3772SOL     OW12214   1.446   5.992   0.565
 3772SOL    HW112215   1.414   5.959   0.654
 3772SOL    HW212216   1.490   5.917   0.515
 3773SOL     OW12217   5.066   4.378   6.307
 3773SOL    HW112218   5.138   4.361   6.373
 3773SOL    HW212219   5.105   4.388   6.216
 3774SOL     OW12220   6.731   5.232   1.677
 3774SOL    HW112221   6.767   5.175   1.603
 3774SOL    HW212222   6.642   5.269   1.650
 3775SOL     OW12223   4.509   5.135   4.540
 3775SOL    HW112224   4.529   5.048   4.585
 3775SOL    HW212225   4.517   5.210   4.606
 3776SOL     OW12226   3.147   2.527   5.750
 3776SOL    HW112227   3.063   2.579   5.735
 3776SOL    HW212228   3.125   2.430   5.759
 3777SOL     OW12229   2.598   6.167   4.140
 3777SOL    HW112230   2.684   6.215   4.119
 3777SOL    HW212231   2.573   6.183   4.235
 3778SOL     OW12232   3.410   5.822   6.053
 3778SOL    HW112233   3.315   5.798   6.074
 3778SOL    HW212234   3.411   5.888   5.978
 3779SOL     OW12235   6.892   4.902   0.144
 3779SOL    HW112236   6.986   4.870   0.139
 3779SOL    HW212237   6.883   4.987   0.091
 3780SOL     OW12238   5.672   4.103   1.543
 3780SOL    HW112239   5.700   4.013   1.509
 3780SOL    HW212240   5.572   4.107   1.546
 3781SOL     OW12241   2.809   6.542   4.722
 3781SOL    HW112242   2.855   6.626   4.750
 3781SOL    HW212243   2.875   6.476   4.686
 3782SOL     OW12244   5.201   6.060   1.683
 3782SOL    HW112245   5.255   6.005   1.620
 3782SOL    HW212246   5.203   6.156   1.654
 3783SOL     OW12247   5.174   5.780   4.432
 3783SOL    HW112248   5.238   5.718   4.386
 3783SOL    HW212249   5.175   5.763   4.530
 3784SOL     OW12250   6.363   2.108   3.984
 3784SOL    HW112251   6.345   2.137   4.078
 3784SOL    HW212252   6.462   2.104   3.969
 3785SOL     OW12253   1.861   3.154   4.118
 3785SOL    HW112254   1.879   3.232   4.177
 3785SOL    HW212255   1.944   3.128   4.070
 3786SOL     OW12256   2.462   2.590   4.818
 3786SOL    HW112257   2.400   2.649   4.870
 3786SOL    HW212258   2.536   2.560   4.877
 3787SOL     OW12259   4.430   6.665   3.436
 3787SOL    HW112260   4.448   6.682   3.533
 3787SOL    HW212261   4.335   6.689   3.415
 3788SOL     OW12262   6.354   3.395   5.260
 3788SOL    HW112263   6.276   3.417   5.319
 3788SOL    HW212264   6.344   3.443   5.173
 3789SOL     OW12265   1.587   2.758   2.401
 3789SOL    HW112266   1.560   2.755   2.305
 3789SOL    HW212267   1.686   2.771   2.407
 3790SOL     OW12268   0.594   6.710   1.645
 3790SOL    HW112269   0.530   6.772   1.690
 3790SOL    HW212270   0.574   6.706   1.548
 3791SOL     OW12271   4.984   1.415   5.491
 3791SOL    HW112272   4.982   1.465   5.578
 3791SOL    HW212273   4.917   1.455   5.428
 3792SOL     OW12274   6.894   0.903   4.465
 3792SOL    HW112275   6.974   0.876   4.519
 3792SOL    HW212276   6.900   1.001   4.444
 3793SOL     OW12277   4.927   5.126   0.638
 3793SOL    HW112278   4.985   5.180   0.577
 3793SOL    HW212279   4.856   5.080   0.585
 3794SOL     OW12280   0.811   4.001   6.742
 3794SOL    HW112281   0.817   3.955   6.654
 3794SOL    HW212282   0.776   4.094   6.729
 3795SOL     OW12283   1.702   6.403   1.699
 3795SOL    HW112284   1.747   6.479   1.745
 3795SOL    HW212285   1.641   6.356   1.763
 3796SOL     OW12286   5.117   1.472   6.683
 3796SOL    HW112287   5.023   1.454   6.656
 3796SOL    HW212288   5.139   1.568   6.666
 3797SOL     OW12289   1.360   4.679   2.350
 3797SOL    HW112290   1.357   4.765   2.401
 3797SOL    HW212291   1.297   4.684   2.273
 3798SOL     OW12292   1.761   6.252   3.386
 3798SOL    HW112293   1.798   6.180   3.445
 3798SOL    HW212294   1.698   6.211   3.319
 3799SOL     OW12295   6.940   1.388   3.234
 3799SOL    HW112296   6.931   1.307   3.176
 3799SOL    HW212297   0.000   1.379   3.290
 3800SOL     OW12298   5.338   2.531   3.026
 3800SOL    HW112299   5.430   2.552   3.058
 3800SOL    HW212300   5.343   2.479   2.941
 3801SOL     OW12301   5.954   1.209   2.133
 3801SOL    HW112302   5.874   1.265   2.158
 3801SOL    HW212303   5.970   1.141   2.205
 3802SOL     OW12304   6.365   2.960   2.156
 3802SOL    HW112305   6.272   2.995   2.164
 3802SOL    HW212306   6.386   2.941   2.060
 3803SOL     OW12307   3.235   3.394   4.136
 3803SOL    HW112308   3.203   3.326   4.070
 3803SOL    HW212309   3.159   3.456   4.159
 3804SOL     OW12310   4.225   5.878   2.972
 3804SOL    HW112311   4.211   5.965   2.923
 3804SOL    HW212312   4.317   5.844   2.953
 3805SOL     OW12313   2.794   2.649   6.938
 3805SOL    HW112314   2.812   2.683   6.846
 3805SOL    HW212315   2.837   2.710   7.005
 3806SOL     OW12316   3.310   4.651   1.456
 3806SOL    HW112317   3.212   4.656   1.437
 3806SOL    HW212318   3.327   4.685   1.549
 3807SOL     OW12319   1.942   4.360   4.546
 3807SOL    HW112320   1.842   4.354   4.550
 3807SOL    HW212321   1.970   4.391   4.455
 3808SOL     OW12322   3.406   6.906   6.521
 3808SOL    HW112323   3.475   6.902   6.593
 3808SOL    HW212324   3.444   6.951   6.441
 3809SOL     OW12325   5.097   2.426   1.389
 3809SOL    HW112326   5.168   2.493   1.370
 3809SOL    HW212327   5.108   2.348   1.328
 3810SOL     OW12328   5.849   2.332   2.139
 3810SOL    HW112329   5.879   2.304   2.230
 3810SOL    HW212330   5.866   2.257   2.074
 3811SOL     OW12331   0.295   5.498   5.522
 3811SOL    HW112332   0.355   5.576   5.504
 3811SOL    HW212333   0.351   5.416   5.534
 3812SOL     OW12334   5.147   6.054   1.275
 3812SOL    HW112335   5.058   6.096   1.260
 3812SOL    HW212336   5.211   6.123   1.311
 3813SOL     OW12337   6.034   4.212   0.073
 3813SOL    HW112338   6.106   4.226   0.005
 3813SOL    HW212339   5.989   4.125   0.057
 3814SOL     OW12340   6.759   0.482   5.045
 3814SOL    HW112341   6.784   0.529   5.130
 3814SOL    HW212342   6.835   0.426   5.014
 3815SOL     OW12343   6.544   3.659   5.996
 3815SOL    HW112344   6.602   3.582   6.024
 3815SOL    HW212345   6.453   3.626   5.973
 3816SOL     OW12346   0.259   5.791   0.094
 3816SOL    HW112347   0.299   5.828   0.010
 3816SOL    HW212348   0.233   5.867   0.154
 3817SOL     OW12349   4.946   4.179   1.896
 3817SOL    HW112350   5.042   4.154   1.883
 3817SOL    HW212351   4.923   4.172   1.993
 3818SOL     OW12352   5.920   6.839   3.072
 3818SOL    HW112353   5.906   6.936   3.092
 3818SOL    HW212354   5.930   6.826   2.974
 3819SOL     OW12355   6.878   4.456   3.964
 3819SOL    HW112356   6.913   4.364   3.945
 3819SOL    HW212357   6.897   4.516   3.887
 3820SOL     OW12358   4.343   0.091   4.732
 3820SOL    HW112359   4.321   0.137   4.646
 3820SOL    HW212360   4.312   0.147   4.809
 3821SOL     OW12361   1.786   0.418   0.200
 3821SOL    HW112362   1.712   0.369   0.154
 3821SOL    HW212363   1.752   0.456   0.286
 3822SOL     OW12364   4.598   0.865   1.685
 3822SOL    HW112365   4.636   0.810   1.611
 3822SOL    HW212366   4.562   0.951   1.648
 3823SOL     OW12367   4.328   5.954   0.081
 3823SOL    HW112368   4.360   5.995   0.167
 3823SOL    HW212369   4.292   5.863   0.100
 3824SOL     OW12370   2.365   3.114   6.984
 3824SOL    HW112371   2.423   3.036   6.964
 3824SOL    HW212372   2.353   3.122   0.061
 3825SOL     OW12373   1.354   3.947   5.397
 3825SOL    HW112374   1.287   3.877   5.420
 3825SOL    HW212375   1.329   4.034   5.439
 3826SOL     OW12376   5.801   4.031   3.550
 3826SOL    HW112377   5.760   4.118   3.522
 3826SOL    HW212378   5.862   3.998   3.478
 3827SOL     OW12379   0.764   1.464   1.267
 3827SOL    HW112380   0.746   1.380   1.317
 3827SOL    HW212381   0.855   1.499   1.291
 3828SOL     OW12382   3.864   3.966   4.154
 3828SOL    HW112383   3.790   3.996   4.094
 3828SOL    HW212384   3.952   3.978   4.107
 3829SOL     OW12385   0.783   3.745   2.417
 3829SOL    HW112386   0.788   3.803   2.499
 3829SOL    HW212387   0.689   3.742   2.385
 3830SOL     OW12388   6.721   1.462   4.323
 3830SOL    HW112389   6.717   1.544   4.265
 3830SOL    HW212390   6.638   1.408   4.308
 3831SOL     OW12391   4.580   1.859   3.317
 3831SOL    HW112392   4.513   1.919   3.272
 3831SOL    HW212393   4.544   1.830   3.406
 3832SOL     OW12394   6.635   0.811   3.715
 3832SOL    HW112395   6.599   0.818   3.622
 3832SOL    HW212396   6.729   0.845   3.717
 3833SOL     OW12397   0.483   1.881   5.604
 3833SOL    HW112398   0.564   1.873   5.546
 3833SOL    HW212399   0.512   1.894   5.699
 3834SOL     OW12400   4.338   4.171   0.255
 3834SOL    HW112401   4.385   4.125   0.330
 3834SOL    HW212402   4.387   4.153   0.170
 3835SOL     OW12403   4.173   5.389   4.722
 3835SOL    HW112404   4.119   5.460   4.677
 3835SOL    HW212405   4.185   5.412   4.818
 3836SOL     OW12406   7.013   6.315   5.397
 3836SOL    HW112407   6.969   6.253   5.462
 3836SOL    HW212408   0.006   6.404   5.441
 3837SOL     OW12409   4.284   4.924   5.139
 3837SOL    HW112410   4.277   4.969   5.228
 3837SOL    HW212411   4.195   4.885   5.116
 3838SOL     OW12412   1.013   1.428   3.596
 3838SOL    HW112413   0.990   1.513   3.548
 3838SOL    HW212414   1.109   1.431   3.624
 3839SOL     OW12415   4.080   0.696   3.510
 3839SOL    HW112416   3.985   0.673   3.488
 3839SOL    HW212417   4.109   0.644   3.590
 3840SOL     OW12418   2.312   1.002   6.788
 3840SOL    HW112419   2.291   1.034   6.695
 3840SOL    HW212420   2.230   1.011   6.845
 3841SOL     OW12421   6.101   4.297   4.252
 3841SOL    HW112422   6.133   4.218   4.305
 3841SOL    HW212423   6.145   4.297   4.163
 3842SOL     OW12424   2.162   2.930   5.203
 3842SOL    HW112425   2.095   2.930   5.128
 3842SOL    HW212426   2.251   2.960   5.168
 3843SOL     OW12427   5.459   2.610   6.589
 3843SOL    HW112428   5.484   2.687   6.648
 3843SOL    HW212429   5.413   2.644   6.507
 3844SOL     OW12430   0.893   6.023   0.101
 3844SOL    HW112431   0.927   5.930   0.111
 3844SOL    HW212432   0.844   6.031   0.013
 3845SOL     OW12433   1.816   5.579   0.928
 3845SOL    HW112434   1.767   5.570   0.841
 3845SOL    HW212435   1.912   5.600   0.910
 3846SOL     OW12436   1.191   2.709   3.689
 3846SOL    HW112437   1.183   2.761   3.774
 3846SOL    HW212438   1.285   2.714   3.656
 3847SOL     OW12439   6.839   1.387   6.408
 3847SOL    HW112440   6.920   1.429   6.367
 3847SOL    HW212441   6.797   1.450   6.473
 3848SOL     OW12442   5.359   3.678   2.532
 3848SOL    HW112443   5.441   3.724   2.569
 3848SOL    HW212444   5.371   3.579   2.540
 3849SOL     OW12445   6.713   5.583   0.067
 3849SOL    HW112446   6.647   5.645   0.109
 3849SOL    HW212447   6.784   5.636   0.021
 3850SOL     OW12448   2.797   2.430   1.371
 3850SOL    HW112449   2.894   2.432   1.346
 3850SOL    HW212450   2.789   2.418   1.470
 3851SOL     OW12451   0.429   5.958   2.667
 3851SOL    HW112452   0.383   5.940   2.754
 3851SOL    HW212453   0.507   6.018   2.682
 3852SOL     OW12454   3.283   6.227   5.716
 3852SOL    HW112455   3.264   6.289   5.640
 3852SOL    HW212456   3.202   6.220   5.775
 3853SOL     OW12457   2.497   0.720   3.585
 3853SOL    HW112458   2.483   0.811   3.547
 3853SOL    HW212459   2.499   0.726   3.685
 3854SOL     OW12460   2.032   2.719   2.895
 3854SOL    HW112461   2.081   2.805   2.880
 3854SOL    HW212462   1.934   2.736   2.894
 3855SOL     OW12463   4.129   7.008   0.523
 3855SOL    HW112464   4.087   0.044   0.454
 3855SOL    HW212465   4.109   0.022   0.614
 3856SOL     OW12466   0.588   1.422   6.803
 3856SOL    HW112467   0.607   1.513   6.767
 3856SOL    HW212468   0.632   1.353   6.745
 3857SOL     OW12469   2.054   1.166   5.385
 3857SOL    HW112470   1.971   1.150   5.333
 3857SOL    HW212471   2.126   1.201   5.325
 3858SOL     OW12472   4.118   0.996   4.695
 3858SOL    HW112473   4.105   0.911   4.746
 3858SOL    HW212474   4.207   0.993   4.648
 3859SOL     OW12475   5.456   0.555   1.556
 3859SOL    HW112476   5.427   0.651   1.559
 3859SOL    HW212477   5.385   0.501   1.509
 3860SOL     OW12478   1.382   0.362   4.138
 3860SOL    HW112479   1.448   0.384   4.067
 3860SOL    HW212480   1.369   0.263   4.143
 3861SOL     OW12481   4.370   5.786   2.063
 3861SOL    HW112482   4.358   5.885   2.074
 3861SOL    HW212483   4.341   5.740   2.147
 3862SOL     OW12484   1.217   6.861   3.624
 3862SOL    HW112485   1.182   6.779   3.670
 3862SOL    HW212486   1.268   6.917   3.688
 3863SOL     OW12487   4.529   0.622   0.690
 3863SOL    HW112488   4.580   0.562   0.628
 3863SOL    HW212489   4.463   0.567   0.741
 3864SOL     OW12490   2.649   0.336   4.452
 3864SOL    HW112491   2.679   0.398   4.524
 3864SOL    HW212492   2.551   0.317   4.463
 3865SOL     OW12493   3.586   0.675   0.163
 3865SOL    HW112494   3.532   0.598   0.130
 3865SOL    HW212495   3.588   0.674   0.263
 3866SOL     OW12496   2.408   2.469   6.874
 3866SOL    HW112497   2.326   2.502   6.828
 3866SOL    HW212498   2.389   2.382   6.920
 3867SOL     OW12499   0.428   3.847   2.397
 3867SOL    HW112500   0.387   3.788   2.327
 3867SOL    HW212501   0.406   3.813   2.488
 3868SOL     OW12502   3.792   1.161   6.732
 3868SOL    HW112503   3.755   1.252   6.752
 3868SOL    HW212504   3.804   1.110   6.817
 3869SOL     OW12505   6.409   3.397   3.528
 3869SOL    HW112506   6.413   3.298   3.523
 3869SOL    HW212507   6.484   3.432   3.584
 3870SOL     OW12508   6.405   0.652   3.686
 3870SOL    HW112509   6.395   0.605   3.774
 3870SOL    HW212510   6.493   0.700   3.683
 3871SOL     OW12511   3.241   5.498   3.938
 3871SOL    HW112512   3.265   5.593   3.920
 3871SOL    HW212513   3.257   5.443   3.856
 3872SOL     OW12514   3.392   3.449   4.375
 3872SOL    HW112515   3.358   3.429   4.283
 3872SOL    HW212516   3.490   3.431   4.379
 3873SOL     OW12517   4.417   2.260   0.751
 3873SOL    HW112518   4.387   2.349   0.785
 3873SOL    HW212519   4.414   2.261   0.651
 3874SOL     OW12520   3.566   0.647   0.461
 3874SOL    HW112521   3.469   0.671   0.464
 3874SOL    HW212522   3.596   0.613   0.550
 3875SOL     OW12523   1.183   2.227   5.320
 3875SOL    HW112524   1.234   2.251   5.237
 3875SOL    HW212525   1.103   2.286   5.329
 3876SOL     OW12526   4.307   6.174   1.177
 3876SOL    HW112527   4.248   6.169   1.097
 3876SOL    HW212528   4.315   6.268   1.208
 3877SOL     OW12529   0.232   2.328   0.300
 3877SOL    HW112530   0.183   2.280   0.372
 3877SOL    HW212531   0.288   2.263   0.249
 3878SOL     OW12532   4.138   6.487   4.216
 3878SOL    HW112533   4.116   6.458   4.123
 3878SOL    HW212534   4.066   6.455   4.278
 3879SOL     OW12535   4.984   5.067   6.783
 3879SOL    HW112536   4.900   5.043   6.734
 3879SOL    HW212537   4.993   5.167   6.785
 3880SOL     OW12538   5.142   4.269   4.467
 3880SOL    HW112539   5.135   4.183   4.417
 3880SOL    HW212540   5.088   4.263   4.551
 3881SOL     OW12541   1.328   4.093   7.005
 3881SOL    HW112542   1.388   4.068   6.929
 3881SOL    HW212543   1.250   4.030   7.009
 3882SOL     OW12544   0.781   1.355   0.708
 3882SOL    HW112545   0.809   1.333   0.801
 3882SOL    HW212546   0.787   1.454   0.693
 3883SOL     OW12547   4.328   5.876   3.497
 3883SOL    HW112548   4.270   5.887   3.577
 3883SOL    HW212549   4.275   5.834   3.423
 3884SOL     OW12550   1.171   5.693   3.522
 3884SOL    HW112551   1.145   5.752   3.599
 3884SOL    HW212552   1.221   5.747   3.455
 3885SOL     OW12553   5.588   6.931   3.028
 3885SOL    HW112554   5.554   6.863   2.963
 3885SOL    HW212555   5.512   6.987   3.060
 3886SOL     OW12556   4.098   6.471   5.844
 3886SOL    HW112557   4.116   6.411   5.766
 3886SOL    HW212558   4.042   6.423   5.911
 3887SOL     OW12559   0.329   6.156   1.306
 3887SOL    HW112560   0.424   6.125   1.310
 3887SOL    HW212561   0.292   6.163   1.399
 3888SOL     OW12562   5.991   6.221   4.489
 3888SOL    HW112563   6.019   6.299   4.433
 3888SOL    HW212564   6.031   6.137   4.452
 3889SOL     OW12565   6.339   3.290   0.125
 3889SOL    HW112566   6.375   3.197   0.116
 3889SOL    HW212567   6.356   3.323   0.218
 3890SOL     OW12568   5.472   4.135   4.706
 3890SOL    HW112569   5.503   4.224   4.674
 3890SOL    HW212570   5.378   4.142   4.739
 3891SOL     OW12571   5.672   4.836   3.995
 3891SOL    HW112572   5.735   4.774   4.042
 3891SOL    HW212573   5.704   4.930   4.008
 3892SOL     OW12574   0.039   2.446   1.450
 3892SOL    HW112575   0.084   2.363   1.484
 3892SOL    HW212576   6.993   2.477   1.516
 3893SOL     OW12577   4.653   3.141   1.431
 3893SOL    HW112578   4.723   3.210   1.449
 3893SOL    HW212579   4.620   3.102   1.517
 3894SOL     OW12580   5.061   0.215   6.817
 3894SOL    HW112581   5.154   0.178   6.818
 3894SOL    HW212582   5.001   0.151   6.768
 3895SOL     OW12583   1.598   6.601   5.166
 3895SOL    HW112584   1.548   6.538   5.107
 3895SOL    HW212585   1.695   6.579   5.163
 3896SOL     OW12586   0.850   0.521   0.057
 3896SOL    HW112587   0.928   0.572   0.093
 3896SOL    HW212588   0.875   0.424   0.051
 3897SOL     OW12589   4.813   5.853   2.311
 3897SOL    HW112590   4.718   5.886   2.311
 3897SOL    HW212591   4.872   5.920   2.356
 3898SOL     OW12592   3.683   2.331   6.324
 3898SOL    HW112593   3.620   2.356   6.397
 3898SOL    HW212594   3.690   2.407   6.259
 3899SOL     OW12595   4.354   0.144   6.112
 3899SOL    HW112596   4.411   0.063   6.099
 3899SOL    HW212597   4.280   0.122   6.176
 3900SOL     OW12598   5.046   3.520   3.531
 3900SOL    HW112599   4.998   3.602   3.501
 3900SOL    HW212600   5.055   3.456   3.455
 3901SOL     OW12601   2.710   0.693   6.472
 3901SOL    HW112602   2.771   0.691   6.551
 3901SOL    HW212603   2.618   0.721   6.502
 3902SOL     OW12604   5.864   3.355   2.629
 3902SOL    HW112605   5.830   3.449   2.637
 3902SOL    HW212606   5.900   3.341   2.536
 3903SOL     OW12607   3.575   6.315   6.811
 3903SOL    HW112608   3.622   6.231   6.786
 3903SOL    HW212609   3.614   6.351   6.896
 3904SOL     OW12610   0.883   0.415   6.284
 3904SOL    HW112611   0.792   0.446   6.311
 3904SOL    HW212612   0.875   0.343   6.216
 3905SOL     OW12613   7.005   6.261   5.993
 3905SOL    HW112614   6.916   6.304   6.009
 3905SOL    HW212615   0.055   6.321   6.027
 3906SOL     OW12616   5.787   6.333   5.439
 3906SOL    HW112617   5.709   6.321   5.377
 3906SOL    HW212618   5.868   6.294   5.396
 3907SOL     OW12619   5.956   2.097   3.341
 3907SOL    HW112620   5.877   2.155   3.319
 3907SOL    HW212621   5.924   2.012   3.384
 3908SOL     OW12622   0.535   2.489   6.515
 3908SOL    HW112623   0.437   2.506   6.522
 3908SOL    HW212624   0.553   2.392   6.536
 3909SOL     OW12625   5.206   5.685   4.695
 3909SOL    HW112626   5.130   5.678   4.760
 3909SOL    HW212627   5.278   5.621   4.722
 3910SOL     OW12628   3.234   3.705   2.463
 3910SOL    HW112629   3.147   3.729   2.508
 3910SOL    HW212630   3.256   3.774   2.395
 3911SOL     OW12631   5.839   1.901   4.822
 3911SOL    HW112632   5.785   1.950   4.890
 3911SOL    HW212633   5.779   1.864   4.751
 3912SOL     OW12634   5.722   2.083   5.223
 3912SOL    HW112635   5.777   2.136   5.158
 3912SOL    HW212636   5.721   1.987   5.194
 3913SOL     OW12637   1.358   6.728   6.554
 3913SOL    HW112638   1.336   6.749   6.458
 3913SOL    HW212639   1.303   6.786   6.614
 3914SOL     OW12640   2.897   0.105   6.904
 3914SOL    HW112641   2.811   0.056   6.918
 3914SOL    HW212642   2.961   0.047   6.855
 3915SOL     OW12643   5.154   5.123   0.999
 3915SOL    HW112644   5.067   5.092   1.038
 3915SOL    HW212645   5.160   5.095   0.903
 3916SOL     OW12646   0.940   6.981   2.580
 3916SOL    HW112647   1.017   7.007   2.638
 3916SOL    HW212648   0.928   6.881   2.584
 3917SOL     OW12649   1.432   0.201   6.917
 3917SOL    HW112650   1.456   0.104   6.923
 3917SOL    HW212651   1.500   0.248   6.859
 3918SOL     OW12652   5.277   4.340   1.601
 3918SOL    HW112653   5.312   4.395   1.525
 3918SOL    HW212654   5.181   4.319   1.587
 3919SOL     OW12655   4.244   6.747   0.504
 3919SOL    HW112656   4.168   6.812   0.502
 3919SOL    HW212657   4.318   6.784   0.560
 3920SOL     OW12658   2.352   2.703   0.352
 3920SOL    HW112659   2.268   2.672   0.395
 3920SOL    HW212660   2.333   2.728   0.256
 3921SOL     OW12661   0.755   3.761   1.607
 3921SOL    HW112662   0.834   3.822   1.604
 3921SOL    HW212663   0.688   3.790   1.539
 3922SOL     OW12664   0.044   3.515   1.766
 3922SOL    HW112665   7.011   3.432   1.771
 3922SOL    HW212666   7.009   3.591   1.735
 3923SOL     OW12667   0.717   0.644   0.326
 3923SOL    HW112668   0.678   0.557   0.297
 3923SOL    HW212669   0.808   0.629   0.365
 3924SOL     OW12670   6.184   4.711   4.400
 3924SOL    HW112671   6.171   4.788   4.337
 3924SOL    HW212672   6.254   4.650   4.363
 3925SOL     OW12673   1.268   5.112   1.865
 3925SOL    HW112674   1.175   5.138   1.839
 3925SOL    HW212675   1.288   5.147   1.957
 3926SOL     OW12676   4.417   4.594   2.544
 3926SOL    HW112677   4.340   4.614   2.605
 3926SOL    HW212678   4.454   4.680   2.508
 3927SOL     OW12679   0.160   3.038   6.231
 3927SOL    HW112680   0.252   3.076   6.221
 3927SOL    HW212681   0.147   3.006   6.325
 3928SOL     OW12682   4.567   5.971   6.995
 3928SOL    HW112683   4.474   5.951   0.004
 3928SOL    HW212684   4.569   6.060   6.949
 3929SOL     OW12685   0.876   0.337   4.903
 3929SOL    HW112686   0.853   0.434   4.911
 3929SOL    HW212687   0.971   0.327   4.872
 3930SOL     OW12688   2.222   2.087   3.774
 3930SOL    HW112689   2.248   2.089   3.678
 3930SOL    HW212690   2.252   2.001   3.815
 3931SOL     OW12691   0.415   1.456   1.823
 3931SOL    HW112692   0.472   1.421   1.748
 3931SOL    HW212693   0.431   1.402   1.905
 3932SOL     OW12694   0.274   3.217   4.446
 3932SOL    HW112695   0.296   3.315   4.453
 3932SOL    HW212696   0.226   3.200   4.360
 3933SOL     OW12697   1.607   0.127   6.226
 3933SOL    HW112698   1.688   0.104   6.172
 3933SOL    HW212699   1.579   0.221   6.207
 3934SOL     OW12700   5.937   0.134   5.794
 3934SOL    HW112701   5.959   0.067   5.723
 3934SOL    HW212702   5.954   0.094   5.884
 3935SOL     OW12703   3.481   0.182   0.727
 3935SOL    HW112704   3.409   0.218   0.786
 3935SOL    HW212705   3.508   0.091   0.759
 3936SOL     OW12706   6.488   5.771   4.569
 3936SOL    HW112707   6.434   5.796   4.649
 3936SOL    HW212708   6.543   5.690   4.589
 3937SOL     OW12709   0.533   1.789   2.632
 3937SOL    HW112710   0.449   1.780   2.580
 3937SOL    HW212711   0.543   1.711   2.693
 3938SOL     OW12712   0.380   1.553   3.217
 3938SOL    HW112713   0.418   1.645   3.225
 3938SOL    HW212714   0.387   1.507   3.305
 3939SOL     OW12715   3.001   2.009   2.354
 3939SOL    HW112716   2.976   1.959   2.271
 3939SOL    HW212717   2.958   2.100   2.352
 3940SOL     OW12718   4.275   3.264   1.290
 3940SOL    HW112719   4.235   3.209   1.363
 3940SOL    HW212720   4.362   3.225   1.262
 3941SOL     OW12721   4.543   4.839   6.019
 3941SOL    HW112722   4.570   4.763   6.079
 3941SOL    HW212723   4.586   4.923   6.051
 3942SOL     OW12724   6.576   6.530   6.876
 3942SOL    HW112725   6.629   6.522   6.791
 3942SOL    HW212726   6.616   6.471   6.946
 3943SOL     OW12727   0.564   3.261   4.433
 3943SOL    HW112728   0.551   3.302   4.523
 3943SOL    HW212729   0.478   3.265   4.383
 3944SOL     OW12730   4.493   2.447   4.907
 3944SOL    HW112731   4.415   2.391   4.881
 3944SOL    HW212732   4.578   2.396   4.891
 3945SOL     OW12733   0.063   1.832   0.829
 3945SOL    HW112734   7.013   1.786   0.880
 3945SOL    HW212735   0.152   1.808   0.868
 3946SOL     OW12736   4.849   4.522   4.024
 3946SOL    HW112737   4.899   4.469   4.092
 3946SOL    HW212738   4.804   4.459   3.959
 3947SOL     OW12739   4.567   6.337   0.480
 3947SOL    HW112740   4.562   6.242   0.513
 3947SOL    HW212741   4.657   6.353   0.439
 3948SOL     OW12742   6.711   4.395   1.348
 3948SOL    HW112743   6.713   4.401   1.248
 3948SOL    HW212744   6.616   4.387   1.379
 3949SOL     OW12745   4.919   5.712   3.027
 3949SOL    HW112746   4.894   5.781   3.094
 3949SOL    HW212747   4.873   5.626   3.050
 3950SOL     OW12748   1.464   5.430   1.300
 3950SOL    HW112749   1.529   5.408   1.373
 3950SOL    HW212750   1.506   5.493   1.235
 3951SOL     OW12751   4.679   0.841   1.301
 3951SOL    HW112752   4.599   0.826   1.244
 3951SOL    HW212753   4.673   0.784   1.383
 3952SOL     OW12754   0.096   2.545   1.181
 3952SOL    HW112755   0.121   2.510   1.091
 3952SOL    HW212756   0.102   2.471   1.248
 3953SOL     OW12757   3.723   3.236   1.954
 3953SOL    HW112758   3.750   3.189   2.038
 3953SOL    HW212759   3.763   3.189   1.875
 3954SOL     OW12760   4.318   5.487   5.310
 3954SOL    HW112761   4.379   5.424   5.261
 3954SOL    HW212762   4.249   5.435   5.360
 3955SOL     OW12763   3.526   2.148   5.605
 3955SOL    HW112764   3.472   2.231   5.619
 3955SOL    HW212765   3.479   2.087   5.541
 3956SOL     OW12766   1.526   1.077   2.315
 3956SOL    HW112767   1.600   1.143   2.324
 3956SOL    HW212768   1.552   1.006   2.250
 3957SOL     OW12769   3.954   0.087   4.899
 3957SOL    HW112770   3.943   0.146   4.819
 3957SOL    HW212771   3.866   0.048   4.925
 3958SOL     OW12772   6.143   2.494   4.181
 3958SOL    HW112773   6.078   2.570   4.173
 3958SOL    HW212774   6.112   2.433   4.255
 3959SOL     OW12775   5.260   5.109   0.119
 3959SOL    HW112776   5.164   5.081   0.121
 3959SOL    HW212777   5.297   5.108   0.212
 3960SOL     OW12778   5.268   1.756   5.103
 3960SOL    HW112779   5.297   1.846   5.134
 3960SOL    HW212780   5.307   1.737   5.013
 3961SOL     OW12781   5.013   0.391   2.835
 3961SOL    HW112782   5.003   0.380   2.934
 3961SOL    HW212783   5.110   0.404   2.812
 3962SOL     OW12784   0.862   4.980   6.253
 3962SOL    HW112785   0.788   5.017   6.310
 3962SOL    HW212786   0.893   5.050   6.189
 3963SOL     OW12787   5.262   6.073   1.940
 3963SOL    HW112788   5.243   6.059   1.843
 3963SOL    HW212789   5.222   5.998   1.993
 3964SOL     OW12790   4.830   4.144   3.127
 3964SOL    HW112791   4.778   4.182   3.051
 3964SOL    HW212792   4.899   4.210   3.156
 3965SOL     OW12793   5.197   3.687   4.295
 3965SOL    HW112794   5.172   3.595   4.323
 3965SOL    HW212795   5.220   3.689   4.198
 3966SOL     OW12796   3.637   5.735   6.908
 3966SOL    HW112797   3.579   5.817   6.911
 3966SOL    HW212798   3.580   5.654   6.910
 3967SOL     OW12799   2.031   4.163   1.440
 3967SOL    HW112800   1.936   4.135   1.427
 3967SOL    HW212801   2.092   4.095   1.397
 3968SOL     OW12802   4.374   0.401   0.719
 3968SOL    HW112803   4.339   0.467   0.785
 3968SOL    HW212804   4.345   0.309   0.744
 3969SOL     OW12805   1.323   5.513   1.805
 3969SOL    HW112806   1.337   5.599   1.852
 3969SOL    HW212807   1.227   5.485   1.812
 3970SOL     OW12808   6.046   5.863   2.158
 3970SOL    HW112809   6.030   5.960   2.143
 3970SOL    HW212810   5.981   5.827   2.224
 3971SOL     OW12811   2.493   5.899   4.062
 3971SOL    HW112812   2.522   5.830   4.128
 3971SOL    HW212813   2.506   5.990   4.101
 3972SOL     OW12814   1.258   3.853   6.252
 3972SOL    HW112815   1.340   3.887   6.297
 3972SOL    HW212816   1.235   3.914   6.176
 3973SOL     OW12817   1.163   5.830   1.113
 3973SOL    HW112818   1.092   5.761   1.129
 3973SOL    HW212819   1.242   5.787   1.070
 3974SOL     OW12820   1.847   0.731   6.138
 3974SOL    HW112821   1.766   0.775   6.178
 3974SOL    HW212822   1.926   0.791   6.147
 3975SOL     OW12823   4.991   2.007   6.053
 3975SOL    HW112824   4.985   2.051   6.142
 3975SOL    HW212825   4.963   1.911   6.061
 3976SOL     OW12826   1.631   6.236   2.427
 3976SOL    HW112827   1.657   6.140   2.432
 3976SOL    HW212828   1.595   6.266   2.516
 3977SOL     OW12829   1.468   3.772   6.569
 3977SOL    HW112830   1.390   3.766   6.631
 3977SOL    HW212831   1.509   3.681   6.557
 3978SOL     OW12832   6.709   4.891   3.262
 3978SOL    HW112833   6.760   4.815   3.301
 3978SOL    HW212834   6.678   4.951   3.336
 3979SOL     OW12835   3.436   1.090   6.320
 3979SOL    HW112836   3.398   1.129   6.236
 3979SOL    HW212837   3.534   1.076   6.309
 3980SOL     OW12838   6.169   6.561   6.527
 3980SOL    HW112839   6.127   6.470   6.523
 3980SOL    HW212840   6.263   6.553   6.560
 3981SOL     OW12841   4.997   6.031   0.595
 3981SOL    HW112842   4.981   6.013   0.692
 3981SOL    HW212843   5.021   6.128   0.583
 3982SOL     OW12844   2.318   6.993   2.095
 3982SOL    HW112845   2.327   0.033   2.017
 3982SOL    HW212846   2.331   0.023   2.180
 3983SOL     OW12847   4.383   5.250   3.903
 3983SOL    HW112848   4.295   5.210   3.877
 3983SOL    HW212849   4.370   5.307   3.985
 3984SOL     OW12850   6.302   1.699   2.684
 3984SOL    HW112851   6.213   1.705   2.729
 3984SOL    HW212852   6.363   1.770   2.719
 3985SOL     OW12853   3.592   5.421   6.654
 3985SOL    HW112854   3.511   5.476   6.673
 3985SOL    HW212855   3.662   5.440   6.723
 3986SOL     OW12856   4.976   1.595   2.732
 3986SOL    HW112857   4.956   1.582   2.829
 3986SOL    HW212858   4.995   1.692   2.715
 3987SOL     OW12859   3.364   4.972   4.645
 3987SOL    HW112860   3.272   4.949   4.679
 3987SOL    HW212861   3.365   4.962   4.545
 3988SOL     OW12862   4.206   5.699   0.813
 3988SOL    HW112863   4.194   5.719   0.716
 3988SOL    HW212864   4.278   5.630   0.825
 3989SOL     OW12865   6.196   2.187   0.306
 3989SOL    HW112866   6.178   2.123   0.381
 3989SOL    HW212867   6.157   2.276   0.329
 3990SOL     OW12868   5.135   2.256   1.663
 3990SOL    HW112869   5.143   2.289   1.569
 3990SOL    HW212870   5.148   2.157   1.665
 3991SOL     OW12871   0.781   1.167   2.621
 3991SOL    HW112872   0.864   1.213   2.589
 3991SOL    HW212873   0.805   1.088   2.677
 3992SOL     OW12874   3.385   1.742   0.544
 3992SOL    HW112875   3.319   1.782   0.481
 3992SOL    HW212876   3.405   1.648   0.517
 3993SOL     OW12877   1.217   3.325   2.006
 3993SOL    HW112878   1.147   3.340   2.076
 3993SOL    HW212879   1.254   3.232   2.016
 3994SOL     OW12880   2.566   6.851   4.916
 3994SOL    HW112881   2.554   6.783   4.844
 3994SOL    HW212882   2.616   6.810   4.992
 3995SOL     OW12883   1.758   3.114   5.288
 3995SOL    HW112884   1.758   3.209   5.319
 3995SOL    HW212885   1.850   3.075   5.299
 3996SOL     OW12886   6.781   6.826   5.210
 3996SOL    HW112887   6.788   6.888   5.132
 3996SOL    HW212888   6.870   6.784   5.227
 3997SOL     OW12889   5.458   1.467   4.022
 3997SOL    HW112890   5.427   1.438   4.112
 3997SOL    HW212891   5.403   1.545   3.991
 3998SOL     OW12892   3.731   2.071   4.012
 3998SOL    HW112893   3.747   1.989   4.067
 3998SOL    HW212894   3.640   2.066   3.971
 3999SOL     OW12895   6.281   2.662   4.419
 3999SOL    HW112896   6.378   2.688   4.412
 3999SOL    HW212897   6.257   2.603   4.342
 4000SOL     OW12898   3.680   6.874   3.812
 4000SOL    HW112899   3.710   6.962   3.849
 4000SOL    HW212900   3.588   6.882   3.775
 4001SOL     OW12901   1.986   2.211   3.783
 4001SOL    HW112902   1.973   2.264   3.867
 4001SOL    HW212903   2.080   2.178   3.779
 4002SOL     OW12904   2.205   3.670   1.721
 4002SOL    HW112905   2.230   3.761   1.753
 4002SOL    HW212906   2.260   3.602   1.768
 4003SOL     OW12907   3.311   0.232   4.717
 4003SOL    HW112908   3.396   0.232   4.770
 4003SOL    HW212909   3.326   0.182   4.631
 4004SOL     OW12910   6.905   2.534   4.731
 4004SOL    HW112911   6.981   2.598   4.719
 4004SOL    HW212912   6.935   2.442   4.705
 4005SOL     OW12913   4.849   5.732   6.595
 4005SOL    HW112914   4.797   5.730   6.680
 4005SOL    HW212915   4.794   5.695   6.520
 4006SOL     OW12916   3.923   5.146   2.432
 4006SOL    HW112917   3.990   5.157   2.505
 4006SOL    HW212918   3.861   5.224   2.431
 4007SOL     OW12919   6.974   2.600   6.980
 4007SOL    HW112920   0.047   2.589   6.951
 4007SOL    HW212921   6.916   2.611   6.900
 4008SOL     OW12922   2.686   2.407   4.511
 4008SOL    HW112923   2.775   2.372   4.481
 4008SOL    HW212924   2.680   2.403   4.610
 4009SOL     OW12925   3.993   3.617   2.121
 4009SOL    HW112926   3.933   3.674   2.178
 4009SOL    HW212927   3.937   3.568   2.054
 4010SOL     OW12928   2.562   2.979   0.671
 4010SOL    HW112929   2.490   3.027   0.722
 4010SOL    HW212930   2.617   3.046   0.621
 4011SOL     OW12931   1.161   2.194   1.716
 4011SOL    HW112932   1.089   2.229   1.776
 4011SOL    HW212933   1.234   2.262   1.709
 4012SOL     OW12934   6.885   3.839   2.509
 4012SOL    HW112935   6.868   3.752   2.555
 4012SOL    HW212936   6.824   3.847   2.430
 4013SOL     OW12937   4.500   2.383   4.044
 4013SOL    HW112938   4.522   2.403   4.140
 4013SOL    HW212939   4.401   2.373   4.034
 4014SOL     OW12940   5.775   6.246   3.071
 4014SOL    HW112941   5.780   6.200   2.982
 4014SOL    HW212942   5.858   6.300   3.085
 4015SOL     OW12943   4.850   4.366   5.416
 4015SOL    HW112944   4.826   4.355   5.319
 4015SOL    HW212945   4.949   4.360   5.426
 4016SOL     OW12946   3.280   6.177   6.132
 4016SOL    HW112947   3.216   6.253   6.145
 4016SOL    HW212948   3.229   6.091   6.126
 4017SOL     OW12949   6.428   5.707   0.002
 4017SOL    HW112950   6.481   5.761   0.067
 4017SOL    HW212951   6.416   5.614   0.038
 4018SOL     OW12952   4.044   5.991   1.287
 4018SOL    HW112953   3.965   5.929   1.278
 4018SOL    HW212954   4.012   6.080   1.318
 4019SOL     OW12955   4.991   4.599   3.682
 4019SOL    HW112956   5.012   4.632   3.590
 4019SOL    HW212957   5.071   4.607   3.741
 4020SOL     OW12958   5.600   2.390   5.788
 4020SOL    HW112959   5.602   2.431   5.697
 4020SOL    HW212960   5.555   2.453   5.851
 4021SOL     OW12961   3.446   4.703   5.812
 4021SOL    HW112962   3.389   4.776   5.775
 4021SOL    HW212963   3.392   4.619   5.820
 4022SOL     OW12964   5.215   0.558   0.537
 4022SOL    HW112965   5.238   0.643   0.489
 4022SOL    HW212966   5.255   0.560   0.628
 4023SOL     OW12967   6.028   1.076   5.399
 4023SOL    HW112968   5.951   1.086   5.336
 4023SOL    HW212969   6.095   1.148   5.383
 4024SOL     OW12970   4.216   4.787   4.123
 4024SOL    HW112971   4.251   4.737   4.043
 4024SOL    HW212972   4.249   4.744   4.207
 4025SOL     OW12973   0.633   4.476   3.397
 4025SOL    HW112974   0.702   4.537   3.437
 4025SOL    HW212975   0.557   4.467   3.460
 4026SOL     OW12976   5.177   6.126   4.023
 4026SOL    HW112977   5.108   6.197   4.039
 4026SOL    HW212978   5.191   6.073   4.106
 4027SOL     OW12979   4.280   5.572   1.785
 4027SOL    HW112980   4.313   5.663   1.812
 4027SOL    HW212981   4.320   5.503   1.845
 4028SOL     OW12982   2.185   0.935   4.056
 4028SOL    HW112983   2.191   0.891   3.966
 4028SOL    HW212984   2.125   1.015   4.050
 4029SOL     OW12985   1.700   4.421   4.681
 4029SOL    HW112986   1.731   4.447   4.772
 4029SOL    HW212987   1.606   4.389   4.686
 4030SOL     OW12988   0.058   2.510   5.525
 4030SOL    HW112989   0.020   2.507   5.433
 4030SOL    HW212990   7.006   2.514   5.592
 4031SOL     OW12991   3.953   5.614   3.857
 4031SOL    HW112992   4.031   5.632   3.916
 4031SOL    HW212993   3.986   5.596   3.763
 4032SOL     OW12994   4.690   0.174   4.748
 4032SOL    HW112995   4.692   0.108   4.672
 4032SOL    HW212996   4.781   0.180   4.789
 4033SOL     OW12997   3.188   4.106   5.596
 4033SOL    HW112998   3.118   4.035   5.593
 4033SOL    HW212999   3.275   4.069   5.563
 4034SOL     OW13000   6.827   2.716   3.568
 4034SOL    HW113001   6.895   2.716   3.494
 4034SOL    HW213002   6.862   2.663   3.645
 4035SOL     OW13003   6.955   4.416   0.547
 4035SOL    HW113004   7.021   4.491   0.537
 4035SOL    HW213005   6.912   4.397   0.459
 4036SOL     OW13006   6.722   0.126   3.027
 4036SOL    HW113007   6.628   0.159   3.037
 4036SOL    HW213008   6.775   0.149   3.109
 4037SOL     OW13009   0.175   3.830   6.804
 4037SOL    HW113010   0.196   3.872   6.715
 4037SOL    HW213011   0.148   3.901   6.868
 4038SOL     OW13012   5.582   4.944   3.768
 4038SOL    HW113013   5.605   4.883   3.843
 4038SOL    HW213014   5.655   4.944   3.700
 4039SOL     OW13015   4.611   6.214   1.083
 4039SOL    HW113016   4.587   6.153   1.007
 4039SOL    HW213017   4.527   6.255   1.119
 4040SOL     OW13018   3.863   5.984   1.766
 4040SOL    HW113019   3.962   5.974   1.761
 4040SOL    HW213020   3.826   5.999   1.674
 4041SOL     OW13021   1.716   6.689   4.282
 4041SOL    HW113022   1.700   6.739   4.366
 4041SOL    HW213023   1.737   6.753   4.208
 4042SOL     OW13024   6.224   5.331   1.833
 4042SOL    HW113025   6.143   5.388   1.819
 4042SOL    HW213026   6.219   5.288   1.923
 4043SOL     OW13027   6.432   2.654   1.263
 4043SOL    HW113028   6.435   2.705   1.177
 4043SOL    HW213029   6.379   2.570   1.250
 4044SOL     OW13030   6.936   5.839   3.775
 4044SOL    HW113031   6.880   5.761   3.747
 4044SOL    HW213032   7.001   5.861   3.702
 4045SOL     OW13033   2.616   6.333   5.857
 4045SOL    HW113034   2.594   6.284   5.942
 4045SOL    HW213035   2.533   6.376   5.822
 4046SOL     OW13036   1.735   2.734   1.184
 4046SOL    HW113037   1.717   2.832   1.172
 4046SOL    HW213038   1.786   2.720   1.269
 4047SOL     OW13039   2.667   3.784   0.990
 4047SOL    HW113040   2.680   3.722   1.068
 4047SOL    HW213041   2.600   3.744   0.927
 4048SOL     OW13042   5.692   1.027   1.213
 4048SOL    HW113043   5.696   0.934   1.250
 4048SOL    HW213044   5.643   1.086   1.276
 4049SOL     OW13045   5.538   0.732   5.025
 4049SOL    HW113046   5.567   0.717   4.930
 4049SOL    HW213047   5.584   0.813   5.062
 4050SOL     OW13048   2.844   0.275   0.625
 4050SOL    HW113049   2.862   0.211   0.700
 4050SOL    HW213050   2.799   0.357   0.661
 4051SOL     OW13051   2.897   3.761   0.371
 4051SOL    HW113052   2.846   3.811   0.441
 4051SOL    HW213053   2.937   3.679   0.411
 4052SOL     OW13054   1.672   6.493   1.289
 4052SOL    HW113055   1.709   6.417   1.235
 4052SOL    HW213056   1.602   6.457   1.351
 4053SOL     OW13057   3.545   4.959   3.522
 4053SOL    HW113058   3.630   4.987   3.567
 4053SOL    HW213059   3.483   4.919   3.589
 4054SOL     OW13060   5.330   2.296   0.209
 4054SOL    HW113061   5.401   2.346   0.159
 4054SOL    HW213062   5.372   2.220   0.259
 4055SOL     OW13063   3.343   2.082   0.366
 4055SOL    HW113064   3.441   2.088   0.349
 4055SOL    HW213065   3.327   2.052   0.461
 4056SOL     OW13066   3.986   3.631   0.532
 4056SOL    HW113067   3.988   3.717   0.583
 4056SOL    HW213068   3.914   3.572   0.570
 4057SOL     OW13069   5.312   2.559   6.177
 4057SOL    HW113070   5.361   2.603   6.252
 4057SOL    HW213071   5.352   2.469   6.159
 4058SOL     OW13072   0.627   0.330   4.662
 4058SOL    HW113073   0.719   0.310   4.628
 4058SOL    HW213074   0.581   0.245   4.688
 4059SOL     OW13075   0.057   1.897   4.838
 4059SOL    HW113076   0.064   1.838   4.919
 4059SOL    HW213077   0.083   1.845   4.757
 4060SOL     OW13078   4.588   5.402   3.724
 4060SOL    HW113079   4.513   5.345   3.761
 4060SOL    HW213080   4.671   5.386   3.778
 4061SOL     OW13081   2.920   3.316   1.402
 4061SOL    HW113082   2.844   3.381   1.395
 4061SOL    HW213083   2.886   3.224   1.384
 4062SOL     OW13084   2.697   6.751   2.980
 4062SOL    HW113085   2.728   6.711   2.893
 4062SOL    HW213086   2.745   6.837   2.996
 4063SOL     OW13087   3.034   5.457   5.821
 4063SOL    HW113088   3.043   5.362   5.792
 4063SOL    HW213089   3.037   5.461   5.921
 4064SOL     OW13090   6.628   0.103   3.976
 4064SOL    HW113091   6.693   0.170   4.013
 4064SOL    HW213092   6.535   0.129   4.002
 4065SOL     OW13093   6.193   4.842   6.822
 4065SOL    HW113094   6.190   4.828   6.920
 4065SOL    HW213095   6.227   4.934   6.802
 4066SOL     OW13096   6.208   4.997   1.907
 4066SOL    HW113097   6.136   4.998   1.837
 4066SOL    HW213098   6.185   5.065   1.978
 4067SOL     OW13099   6.612   1.101   2.104
 4067SOL    HW113100   6.549   1.177   2.087
 4067SOL    HW213101   6.574   1.018   2.065
 4068SOL     OW13102   6.067   0.793   3.817
 4068SOL    HW113103   6.057   0.866   3.749
 4068SOL    HW213104   6.160   0.793   3.853
 4069SOL     OW13105   0.236   5.456   1.193
 4069SOL    HW113106   0.290   5.499   1.266
 4069SOL    HW213107   0.274   5.366   1.173
 4070SOL     OW13108   0.735   3.567   2.881
 4070SOL    HW113109   0.663   3.519   2.831
 4070SOL    HW213110   0.720   3.666   2.874
 4071SOL     OW13111   1.888   0.100   3.861
 4071SOL    HW113112   1.940   0.060   3.937
 4071SOL    HW213113   1.836   0.028   3.815
 4072SOL     OW13114   0.840   0.694   4.301
 4072SOL    HW113115   0.866   0.790   4.289
 4072SOL    HW213116   0.919   0.643   4.333
 4073SOL     OW13117   2.534   5.016   0.768
 4073SOL    HW113118   2.524   4.994   0.671
 4073SOL    HW213119   2.609   4.963   0.806
 4074SOL     OW13120   1.502   2.589   0.752
 4074SOL    HW113121   1.526   2.525   0.679
 4074SOL    HW213122   1.569   2.582   0.826
 4075SOL     OW13123   5.158   0.938   3.912
 4075SOL    HW113124   5.151   0.889   3.825
 4075SOL    HW213125   5.128   1.033   3.898
 4076SOL     OW13126   1.717   2.627   3.760
 4076SOL    HW113127   1.728   2.617   3.859
 4076SOL    HW213128   1.769   2.556   3.713
 4077SOL     OW13129   2.662   1.499   0.898
 4077SOL    HW113130   2.749   1.496   0.947
 4077SOL    HW213131   2.586   1.500   0.963
 4078SOL     OW13132   5.424   4.116   2.142
 4078SOL    HW113133   5.341   4.064   2.164
 4078SOL    HW213134   5.501   4.054   2.135
 4079SOL     OW13135   0.538   0.943   3.760
 4079SOL    HW113136   0.485   0.980   3.684
 4079SOL    HW213137   0.529   1.004   3.839
 4080SOL     OW13138   3.904   3.078   2.450
 4080SOL    HW113139   3.994   3.122   2.458
 4080SOL    HW213140   3.876   3.079   2.354
 4081SOL     OW13141   2.030   2.351   6.454
 4081SOL    HW113142   1.930   2.356   6.451
 4081SOL    HW213143   2.069   2.399   6.375
 4082SOL     OW13144   1.257   2.511   5.546
 4082SOL    HW113145   1.237   2.598   5.590
 4082SOL    HW213146   1.294   2.527   5.454
 4083SOL     OW13147   5.691   4.726   3.070
 4083SOL    HW113148   5.608   4.747   3.018
 4083SOL    HW213149   5.720   4.807   3.120
 4084SOL     OW13150   4.494   0.656   3.148
 4084SOL    HW113151   4.534   0.732   3.098
 4084SOL    HW213152   4.562   0.583   3.158
 4085SOL     OW13153   4.096   4.774   1.939
 4085SOL    HW113154   4.151   4.774   2.023
 4085SOL    HW213155   4.156   4.778   1.860
 4086SOL     OW13156   6.137   4.954   5.746
 4086SOL    HW113157   6.144   4.899   5.829
 4086SOL    HW213158   6.161   4.898   5.667
 4087SOL     OW13159   2.266   0.512   2.301
 4087SOL    HW113160   2.194   0.475   2.360
 4087SOL    HW213161   2.314   0.585   2.350
 4088SOL     OW13162   0.324   1.784   5.242
 4088SOL    HW113163   0.293   1.842   5.317
 4088SOL    HW213164   0.262   1.795   5.164
 4089SOL     OW13165   1.034   0.403   2.922
 4089SOL    HW113166   0.994   0.445   3.003
 4089SOL    HW213167   1.101   0.467   2.882
 4090SOL     OW13168   2.837   1.747   6.173
 4090SOL    HW113169   2.821   1.658   6.218
 4090SOL    HW213170   2.925   1.783   6.202
 4091SOL     OW13171   3.336   6.035   1.230
 4091SOL    HW113172   3.399   6.071   1.300
 4091SOL    HW213173   3.311   5.941   1.254
 4092SOL     OW13174   5.671   2.980   4.129
 4092SOL    HW113175   5.577   2.999   4.157
 4092SOL    HW213176   5.704   3.054   4.071
 4093SOL     OW13177   5.272   4.415   3.905
 4093SOL    HW113178   5.254   4.502   3.860
 4093SOL    HW213179   5.337   4.362   3.850
 4094SOL     OW13180   6.590   5.813   0.195
 4094SOL    HW113181   6.570   5.740   0.260
 4094SOL    HW213182   6.629   5.891   0.243
 4095SOL     OW13183   1.169   4.939   0.223
 4095SOL    HW113184   1.150   4.942   0.125
 4095SOL    HW213185   1.182   4.844   0.251
 4096SOL     OW13186   0.529   0.652   6.516
 4096SOL    HW113187   0.449   0.594   6.528
 4096SOL    HW213188   0.610   0.606   6.552
 4097SOL     OW13189   6.333   4.536   4.909
 4097SOL    HW113190   6.421   4.528   4.863
 4097SOL    HW213191   6.259   4.534   4.842
 4098SOL     OW13192   1.954   4.216   2.712
 4098SOL    HW113193   1.903   4.129   2.711
 4098SOL    HW213194   1.912   4.279   2.647
 4099SOL     OW13195   5.116   4.026   6.221
 4099SOL    HW113196   5.090   4.075   6.137
 4099SOL    HW213197   5.047   3.957   6.241
 4100SOL     OW13198   1.506   0.993   4.010
 4100SOL    HW113199   1.495   0.917   4.074
 4100SOL    HW213200   1.482   1.078   4.057
 4101SOL     OW13201   6.515   5.599   0.325
 4101SOL    HW113202   6.441   5.546   0.285
 4101SOL    HW213203   6.535   5.564   0.417
 4102SOL     OW13204   1.694   0.038   6.926
 4102SOL    HW113205   1.669   0.008   6.834
 4102SOL    HW213206   1.792   0.025   6.941
 4103SOL     OW13207   2.182   6.538   3.968
 4103SOL    HW113208   2.183   6.592   3.884
 4103SOL    HW213209   2.166   6.441   3.945
 4104SOL     OW13210   2.080   5.678   4.657
 4104SOL    HW113211   2.161   5.678   4.715
 4104SOL    HW213212   2.047   5.584   4.647
 4105SOL     OW13213   4.718   0.664   1.519
 4105SOL    HW113214   4.682   0.571   1.526
 4105SOL    HW213215   4.817   0.661   1.505
 4106SOL     OW13216   1.028   0.929   2.976
 4106SOL    HW113217   1.058   0.893   3.065
 4106SOL    HW213218   1.103   0.924   2.911
 4107SOL     OW13219   1.069   0.391   0.372
 4107SOL    HW113220   1.073   0.302   0.327
 4107SOL    HW213221   1.106   0.461   0.310
 4108SOL     OW13222   6.478   5.675   5.632
 4108SOL    HW113223   6.383   5.657   5.658
 4108SOL    HW213224   6.484   5.764   5.586
 4109SOL     OW13225   5.787   5.779   3.433
 4109SOL    HW113226   5.861   5.818   3.488
 4109SOL    HW213227   5.745   5.704   3.483
 4110SOL     OW13228   5.095   3.026   0.262
 4110SOL    HW113229   5.084   3.093   0.189
 4110SOL    HW213230   5.071   2.935   0.228
 4111SOL     OW13231   6.727   3.809   4.222
 4111SOL    HW113232   6.799   3.868   4.258
 4111SOL    HW213233   6.760   3.764   4.139
 4112SOL     OW13234   4.402   6.166   4.939
 4112SOL    HW113235   4.320   6.154   4.884
 4112SOL    HW213236   4.425   6.264   4.943
 4113SOL     OW13237   4.280   5.358   4.444
 4113SOL    HW113238   4.202   5.311   4.401
 4113SOL    HW213239   4.268   5.357   4.543
 4114SOL     OW13240   0.312   1.160   1.376
 4114SOL    HW113241   0.258   1.199   1.451
 4114SOL    HW213242   0.352   1.073   1.405
 4115SOL     OW13243   4.079   5.909   3.995
 4115SOL    HW113244   4.084   5.847   4.074
 4115SOL    HW213245   4.159   5.968   3.994
 4116SOL     OW13246   4.894   3.945   2.168
 4116SOL    HW113247   4.985   3.946   2.210
 4116SOL    HW213248   4.863   4.039   2.152
 4117SOL     OW13249   1.273   1.707   3.800
 4117SOL    HW113250   1.284   1.704   3.701
 4117SOL    HW213251   1.353   1.752   3.841
 4118SOL     OW13252   0.258   6.590   0.069
 4118SOL    HW113253   0.182   6.531   0.042
 4118SOL    HW213254   0.225   6.683   0.084
 4119SOL     OW13255   0.407   0.467   4.268
 4119SOL    HW113256   0.467   0.498   4.194
 4119SOL    HW213257   0.452   0.483   4.356
 4120SOL     OW13258   2.141   0.832   6.471
 4120SOL    HW113259   2.150   0.735   6.494
 4120SOL    HW213260   2.136   0.843   6.371
 4121SOL     OW13261   6.763   6.555   2.595
 4121SOL    HW113262   6.850   6.579   2.639
 4121SOL    HW213263   6.705   6.506   2.661
 4122SOL     OW13264   0.569   4.264   2.876
 4122SOL    HW113265   0.548   4.215   2.792
 4122SOL    HW213266   0.578   4.362   2.856
 4123SOL     OW13267   4.757   5.183   1.266
 4123SOL    HW113268   4.813   5.193   1.349
 4123SOL    HW213269   4.674   5.237   1.276
 4124SOL     OW13270   6.027   5.315   0.421
 4124SOL    HW113271   6.018   5.338   0.325
 4124SOL    HW213272   6.088   5.236   0.431
 4125SOL     OW13273   6.135   2.059   0.797
 4125SOL    HW113274   6.232   2.033   0.805
 4125SOL    HW213275   6.123   2.152   0.830
 4126SOL     OW13276   1.284   3.257   2.445
 4126SOL    HW113277   1.308   3.253   2.542
 4126SOL    HW213278   1.254   3.166   2.414
 4127SOL     OW13279   4.412   1.817   4.677
 4127SOL    HW113280   4.412   1.882   4.601
 4127SOL    HW213281   4.331   1.760   4.673
 4128SOL     OW13282   1.009   2.909   6.950
 4128SOL    HW113283   1.098   2.954   6.954
 4128SOL    HW213284   0.938   2.972   6.980
 4129SOL     OW13285   2.703   2.415   0.466
 4129SOL    HW113286   2.703   2.360   0.549
 4129SOL    HW213287   2.754   2.500   0.482
 4130SOL     OW13288   5.759   3.202   0.680
 4130SOL    HW113289   5.753   3.286   0.626
 4130SOL    HW213290   5.846   3.158   0.663
 4131SOL     OW13291   4.754   6.556   3.387
 4131SOL    HW113292   4.711   6.532   3.301
 4131SOL    HW213293   4.825   6.625   3.371
 4132SOL     OW13294   0.522   5.492   3.707
 4132SOL    HW113295   0.514   5.419   3.639
 4132SOL    HW213296   0.604   5.545   3.688
 4133SOL     OW13297   5.717   0.321   2.688
 4133SOL    HW113298   5.772   0.400   2.665
 4133SOL    HW213299   5.769   0.258   2.746
 4134SOL     OW13300   1.351   3.641   1.414
 4134SOL    HW113301   1.264   3.690   1.406
 4134SOL    HW213302   1.367   3.589   1.330
 4135SOL     OW13303   6.648   0.459   2.056
 4135SOL    HW113304   6.582   0.394   2.092
 4135SOL    HW213305   6.658   0.536   2.119
 4136SOL     OW13306   0.977   4.853   1.158
 4136SOL    HW113307   1.012   4.837   1.066
 4136SOL    HW213308   1.009   4.942   1.191
 4137SOL     OW13309   1.216   2.385   0.545
 4137SOL    HW113310   1.311   2.357   0.530
 4137SOL    HW213311   1.155   2.309   0.522
 4138SOL     OW13312   4.972   6.972   0.071
 4138SOL    HW113313   5.057   0.001   0.086
 4138SOL    HW213314   4.975   6.930   7.002
 4139SOL     OW13315   2.196   4.127   2.826
 4139SOL    HW113316   2.198   4.039   2.777
 4139SOL    HW213317   2.114   4.178   2.800
 4140SOL     OW13318   1.850   0.542   5.957
 4140SOL    HW113319   1.860   0.620   6.019
 4140SOL    HW213320   1.928   0.540   5.894
 4141SOL     OW13321   4.557   0.494   6.327
 4141SOL    HW113322   4.634   0.493   6.264
 4141SOL    HW213323   4.577   0.556   6.403
 4142SOL     OW13324   0.659   5.391   2.129
 4142SOL    HW113325   0.716   5.348   2.199
 4142SOL    HW213326   0.667   5.490   2.134
 4143SOL     OW13327   5.658   2.831   6.431
 4143SOL    HW113328   5.717   2.760   6.470
 4143SOL    HW213329   5.601   2.870   6.503
 4144SOL     OW13330   6.151   1.010   0.591
 4144SOL    HW113331   6.169   1.107   0.603
 4144SOL    HW213332   6.055   0.991   0.611
 4145SOL     OW13333   6.912   0.072   1.825
 4145SOL    HW113334   6.893   0.099   1.919
 4145SOL    HW213335   6.989   0.124   1.789
 4146SOL     OW13336   5.341   6.141   2.360
 4146SOL    HW113337   5.327   6.235   2.332
 4146SOL    HW213338   5.408   6.097   2.300
 4147SOL     OW13339   4.262   4.935   6.336
 4147SOL    HW113340   4.243   5.022   6.290
 4147SOL    HW213341   4.247   4.946   6.434
 4148SOL     OW13342   2.196   1.500   5.549
 4148SOL    HW113343   2.184   1.494   5.450
 4148SOL    HW213344   2.258   1.427   5.579
 4149SOL     OW13345   1.569   3.531   6.570
 4149SOL    HW113346   1.663   3.518   6.601
 4149SOL    HW213347   1.562   3.509   6.473
 4150SOL     OW13348   5.442   1.946   6.707
 4150SOL    HW113349   5.483   1.940   6.798
 4150SOL    HW213350   5.499   1.896   6.642
 4151SOL     OW13351   3.149   5.820   4.179
 4151SOL    HW113352   3.087   5.795   4.105
 4151SOL    HW213353   3.096   5.859   4.254
 4152SOL     OW13354   3.020   4.316   1.359
 4152SOL    HW113355   3.070   4.309   1.273
 4152SOL    HW213356   2.926   4.283   1.346
 4153SOL     OW13357   6.936   5.994   1.287
 4153SOL    HW113358   7.021   5.961   1.245
 4153SOL    HW213359   6.931   5.962   1.381
 4154SOL     OW13360   1.311   6.245   3.921
 4154SOL    HW113361   1.242   6.216   3.987
 4154SOL    HW213362   1.338   6.167   3.864
 4155SOL     OW13363   0.745   0.826   1.778
 4155SOL    HW113364   0.730   0.741   1.828
 4155SOL    HW213365   0.815   0.880   1.826
 4156SOL     OW13366   0.731   5.328   6.119
 4156SOL    HW113367   0.713   5.403   6.055
 4156SOL    HW213368   0.652   5.317   6.180
 4157SOL     OW13369   6.141   5.754   1.723
 4157SOL    HW113370   6.043   5.754   1.704
 4157SOL    HW213371   6.184   5.677   1.675
 4158SOL     OW13372   0.812   2.678   1.462
 4158SOL    HW113373   0.872   2.725   1.396
 4158SOL    HW213374   0.829   2.713   1.554
 4159SOL     OW13375   3.153   0.407   4.186
 4159SOL    HW113376   3.157   0.414   4.285
 4159SOL    HW213377   3.114   0.491   4.147
 4160SOL     OW13378   6.877   0.152   6.953
 4160SOL    HW113379   6.792   0.187   6.915
 4160SOL    HW213380   6.951   0.164   6.887
 4161SOL     OW13381   3.484   3.296   1.814
 4161SOL    HW113382   3.567   3.264   1.860
 4161SOL    HW213383   3.410   3.304   1.881
 4162SOL     OW13384   5.363   5.510   1.806
 4162SOL    HW113385   5.349   5.499   1.707
 4162SOL    HW213386   5.434   5.446   1.837
 4163SOL     OW13387   3.769   5.853   2.055
 4163SOL    HW113388   3.708   5.896   1.989
 4163SOL    HW213389   3.862   5.849   2.017
 4164SOL     OW13390   6.761   0.906   5.975
 4164SOL    HW113391   6.851   0.940   6.002
 4164SOL    HW213392   6.692   0.942   6.037
 4165SOL     OW13393   4.725   0.891   4.641
 4165SOL    HW113394   4.677   0.900   4.728
 4165SOL    HW213395   4.806   0.834   4.653
 4166SOL     OW13396   5.902   1.483   1.267
 4166SOL    HW113397   5.836   1.430   1.320
 4166SOL    HW213398   5.982   1.503   1.324
 4167SOL     OW13399   3.381   5.668   4.202
 4167SOL    HW113400   3.320   5.745   4.218
 4167SOL    HW213401   3.336   5.601   4.144
 4168SOL     OW13402   5.229   3.709   6.786
 4168SOL    HW113403   5.287   3.663   6.853
 4168SOL    HW213404   5.143   3.735   6.830
 4169SOL     OW13405   4.984   3.058   5.697
 4169SOL    HW113406   4.921   3.076   5.621
 4169SOL    HW213407   4.932   3.022   5.775
 4170SOL     OW13408   0.473   2.585   4.538
 4170SOL    HW113409   0.438   2.541   4.456
 4170SOL    HW213410   0.489   2.682   4.519
 4171SOL     OW13411   0.556   2.037   0.161
 4171SOL    HW113412   0.619   1.960   0.160
 4171SOL    HW213413   0.530   2.057   0.256
 4172SOL     OW13414   2.946   4.322   0.635
 4172SOL    HW113415   2.965   4.419   0.650
 4172SOL    HW213416   2.857   4.312   0.592
 4173SOL     OW13417   4.905   2.238   6.684
 4173SOL    HW113418   4.976   2.219   6.751
 4173SOL    HW213419   4.946   2.243   6.593
 4174SOL     OW13420   3.107   0.667   5.066
 4174SOL    HW113421   3.140   0.581   5.028
 4174SOL    HW213422   3.047   0.649   5.144
 4175SOL     OW13423   0.495   4.185   6.830
 4175SOL    HW113424   0.568   4.209   6.766
 4175SOL    HW213425   0.438   4.265   6.848
 4176SOL     OW13426   5.077   0.156   6.015
 4176SOL    HW113427   5.135   0.147   5.935
 4176SOL    HW213428   5.114   0.225   6.076
 4177SOL     OW13429   4.187   4.672   2.704
 4177SOL    HW113430   4.169   4.604   2.776
 4177SOL    HW213431   4.107   4.730   2.692
 4178SOL     OW13432   4.011   5.619   1.203
 4178SOL    HW113433   4.029   5.612   1.105
 4178SOL    HW213434   4.073   5.559   1.252
 4179SOL     OW13435   5.337   2.818   5.571
 4179SOL    HW113436   5.435   2.805   5.554
 4179SOL    HW213437   5.301   2.888   5.508
 4180SOL     OW13438   4.455   4.020   0.444
 4180SOL    HW113439   4.490   3.927   0.433
 4180SOL    HW213440   4.379   4.019   0.509
 4181SOL     OW13441   4.816   6.804   4.888
 4181SOL    HW113442   4.851   6.731   4.947
 4181SOL    HW213443   4.753   6.861   4.941
 4182SOL     OW13444   6.916   6.600   4.879
 4182SOL    HW113445   6.865   6.674   4.924
 4182SOL    HW213446   6.982   6.561   4.943
 4183SOL     OW13447   4.367   1.826   0.983
 4183SOL    HW113448   4.353   1.879   0.899
 4183SOL    HW213449   4.318   1.870   1.059
 4184SOL     OW13450   3.444   5.673   3.795
 4184SOL    HW113451   3.494   5.641   3.875
 4184SOL    HW213452   3.458   5.772   3.784
 4185SOL     OW13453   5.521   2.821   3.445
 4185SOL    HW113454   5.501   2.730   3.481
 4185SOL    HW213455   5.537   2.816   3.347
 4186SOL     OW13456   1.539   6.300   0.211
 4186SOL    HW113457   1.631   6.324   0.180
 4186SOL    HW213458   1.489   6.254   0.137
 4187SOL     OW13459   1.845   3.583   6.454
 4187SOL    HW113460   1.872   3.631   6.371
 4187SOL    HW213461   1.913   3.514   6.477
 4188SOL     OW13462   4.269   6.976   0.280
 4188SOL    HW113463   4.251   6.974   0.378
 4188SOL    HW213464   4.183   6.967   0.230
 4189SOL     OW13465   5.172   4.898   3.955
 4189SOL    HW113466   5.087   4.928   3.998
 4189SOL    HW213467   5.197   4.962   3.882
 4190SOL     OW13468   6.703   5.865   1.274
 4190SOL    HW113469   6.695   5.816   1.187
 4190SOL    HW213470   6.795   5.902   1.282
 4191SOL     OW13471   4.572   4.704   6.667
 4191SOL    HW113472   4.535   4.746   6.584
 4191SOL    HW213473   4.507   4.637   6.702
 4192SOL     OW13474   1.493   3.282   1.192
 4192SOL    HW113475   1.474   3.255   1.098
 4192SOL    HW213476   1.454   3.373   1.209
 4193SOL     OW13477   0.673   0.656   0.736
 4193SOL    HW113478   0.605   0.724   0.708
 4193SOL    HW213479   0.655   0.569   0.690
 4194SOL     OW13480   4.472   1.422   5.406
 4194SOL    HW113481   4.493   1.341   5.350
 4194SOL    HW213482   4.555   1.455   5.450
 4195SOL     OW13483   3.332   6.119   0.770
 4195SOL    HW113484   3.257   6.054   0.760
 4195SOL    HW213485   3.388   6.093   0.849
 4196SOL     OW13486   6.236   3.491   1.891
 4196SOL    HW113487   6.218   3.452   1.981
 4196SOL    HW213488   6.291   3.574   1.901
 4197SOL     OW13489   3.751   0.975   6.949
 4197SOL    HW113490   3.759   0.960   0.025
 4197SOL    HW213491   3.722   0.890   6.904
 4198SOL     OW13492   6.340   2.144   2.228
 4198SOL    HW113493   6.305   2.061   2.184
 4198SOL    HW213494   6.376   2.121   2.319
 4199SOL     OW13495   0.811   3.925   6.021
 4199SOL    HW113496   0.789   3.840   6.068
 4199SOL    HW213497   0.752   3.935   5.941
 4200SOL     OW13498   4.926   0.920   3.697
 4200SOL    HW113499   4.899   0.826   3.678
 4200SOL    HW213500   5.011   0.941   3.648
 4201SOL     OW13501   5.398   6.509   4.036
 4201SOL    HW113502   5.432   6.423   4.074
 4201SOL    HW213503   5.375   6.496   3.940
 4202SOL     OW13504   5.078   4.157   0.912
 4202SOL    HW113505   5.013   4.223   0.874
 4202SOL    HW213506   5.108   4.188   1.002
 4203SOL     OW13507   6.428   5.485   6.287
 4203SOL    HW113508   6.455   5.501   6.191
 4203SOL    HW213509   6.388   5.569   6.324
 4204SOL     OW13510   2.349   3.375   6.430
 4204SOL    HW113511   2.255   3.340   6.437
 4204SOL    HW213512   2.414   3.304   6.456
 4205SOL     OW13513   3.797   6.527   5.470
 4205SOL    HW113514   3.873   6.564   5.417
 4205SOL    HW213515   3.758   6.448   5.421
 4206SOL     OW13516   1.618   2.293   4.821
 4206SOL    HW113517   1.697   2.251   4.777
 4206SOL    HW213518   1.649   2.354   4.894
 4207SOL     OW13519   1.626   2.249   2.303
 4207SOL    HW113520   1.690   2.318   2.269
 4207SOL    HW213521   1.537   2.290   2.319
 4208SOL     OW13522   2.107   3.627   4.537
 4208SOL    HW113523   2.062   3.701   4.587
 4208SOL    HW213524   2.147   3.563   4.603
 4209SOL     OW13525   6.829   6.579   2.326
 4209SOL    HW113526   6.922   6.543   2.316
 4209SOL    HW213527   6.799   6.570   2.421
 4210SOL     OW13528   3.992   3.707   4.769
 4210SOL    HW113529   4.050   3.687   4.690
 4210SOL    HW213530   3.995   3.805   4.789
 4211SOL     OW13531   4.233   2.465   5.476
 4211SOL    HW113532   4.243   2.545   5.534
 4211SOL    HW213533   4.174   2.398   5.522
 4212SOL     OW13534   0.051   2.539   3.465
 4212SOL    HW113535   0.116   2.463   3.459
 4212SOL    HW213536   6.981   2.503   3.472
 4213SOL     OW13537   3.115   0.870   3.736
 4213SOL    HW113538   3.021   0.843   3.714
 4213SOL    HW213539   3.146   0.939   3.672
 4214SOL     OW13540   0.106   5.900   3.593
 4214SOL    HW113541   0.197   5.904   3.634
 4214SOL    HW213542   0.092   5.982   3.537
 4215SOL     OW13543   4.756   6.577   5.412
 4215SOL    HW113544   4.777   6.481   5.431
 4215SOL    HW213545   4.719   6.620   5.495
 4216SOL     OW13546   2.523   6.001   2.069
 4216SOL    HW113547   2.536   6.066   1.994
 4216SOL    HW213548   2.597   5.933   2.066
 4217SOL     OW13549   0.805   0.386   2.686
 4217SOL    HW113550   0.828   0.291   2.707
 4217SOL    HW213551   0.785   0.435   2.771
 4218SOL     OW13552   3.121   1.512   1.482
 4218SOL    HW113553   3.038   1.569   1.478
 4218SOL    HW213554   3.185   1.541   1.412
 4219SOL     OW13555   4.565   5.600   3.144
 4219SOL    HW113556   4.508   5.528   3.185
 4219SOL    HW213557   4.505   5.672   3.107
 4220SOL     OW13558   5.463   2.008   2.051
 4220SOL    HW113559   5.471   1.939   2.122
 4220SOL    HW213560   5.530   2.081   2.067
 4221SOL     OW13561   0.480   6.170   0.023
 4221SOL    HW113562   0.481   6.265   7.014
 4221SOL    HW213563   0.474   6.168   0.123
 4222SOL     OW13564   4.948   2.807   4.032
 4222SOL    HW113565   4.919   2.895   4.071
 4222SOL    HW213566   4.898   2.733   4.077
 4223SOL     OW13567   4.157   3.360   2.107
 4223SOL    HW113568   4.067   3.389   2.076
 4223SOL    HW213569   4.228   3.398   2.048
 4224SOL     OW13570   4.902   3.488   4.535
 4224SOL    HW113571   4.903   3.394   4.570
 4224SOL    HW213572   4.834   3.542   4.584
 4225SOL     OW13573   0.022   1.898   5.490
 4225SOL    HW113574   6.988   1.975   5.521
 4225SOL    HW213575   0.118   1.927   5.487
 4226SOL     OW13576   1.177   5.643   5.014
 4226SOL    HW113577   1.234   5.724   5.005
 4226SOL    HW213578   1.095   5.665   5.068
 4227SOL     OW13579   5.513   5.292   2.488
 4227SOL    HW113580   5.427   5.332   2.520
 4227SOL    HW213581   5.584   5.306   2.556
 4228SOL     OW13582   1.774   5.314   4.111
 4228SOL    HW113583   1.758   5.331   4.208
 4228SOL    HW213584   1.702   5.255   4.075
 4229SOL     OW13585   6.492   4.746   5.131
 4229SOL    HW113586   6.510   4.654   5.164
 4229SOL    HW213587   6.408   4.746   5.076
 4230SOL     OW13588   0.557   0.707   2.182
 4230SOL    HW113589   0.653   0.717   2.157
 4230SOL    HW213590   0.499   0.734   2.106
 4231SOL     OW13591   5.856   1.432   5.544
 4231SOL    HW113592   5.951   1.424   5.511
 4231SOL    HW213593   5.856   1.445   5.643
 4232SOL     OW13594   1.668   5.842   3.756
 4232SOL    HW113595   1.708   5.827   3.847
 4232SOL    HW213596   1.649   5.753   3.714
 4233SOL     OW13597   4.648   5.116   3.462
 4233SOL    HW113598   4.656   5.048   3.535
 4233SOL    HW213599   4.556   5.113   3.423
 4234SOL     OW13600   2.969   5.569   6.100
 4234SOL    HW113601   2.882   5.614   6.077
 4234SOL    HW213602   3.044   5.635   6.092
 4235SOL     OW13603   0.198   6.152   5.352
 4235SOL    HW113604   0.125   6.220   5.352
 4235SOL    HW213605   0.215   6.121   5.258
 4236SOL     OW13606   0.266   5.398   2.769
 4236SOL    HW113607   0.271   5.479   2.710
 4236SOL    HW213608   0.269   5.315   2.712
 4237SOL     OW13609   6.872   4.656   3.769
 4237SOL    HW113610   6.821   4.693   3.693
 4237SOL    HW213611   6.855   4.711   3.851
 4238SOL     OW13612   2.658   6.612   2.737
 4238SOL    HW113613   2.607   6.529   2.761
 4238SOL    HW213614   2.610   6.661   2.664
 4239SOL     OW13615   4.498   0.964   3.815
 4239SOL    HW113616   4.496   0.996   3.909
 4239SOL    HW213617   4.405   0.940   3.786
 4240SOL     OW13618   6.984   6.412   1.096
 4240SOL    HW113619   0.053   6.388   1.129
 4240SOL    HW213620   6.916   6.352   1.139
 4241SOL     OW13621   6.451   3.171   0.564
 4241SOL    HW113622   6.502   3.183   0.649
 4241SOL    HW213623   6.394   3.089   0.570
 4242SOL     OW13624   2.149   1.943   3.362
 4242SOL    HW113625   2.114   1.851   3.341
 4242SOL    HW213626   2.230   1.935   3.420
 4243SOL     OW13627   4.850   0.068   3.002
 4243SOL    HW113628   4.897   0.146   3.043
 4243SOL    HW213629   4.831   0.087   2.906
 4244SOL     OW13630   3.567   3.174   2.482
 4244SOL    HW113631   3.640   3.213   2.427
 4244SOL    HW213632   3.592   3.081   2.511
 4245SOL     OW13633   6.406   2.017   6.746
 4245SOL    HW113634   6.473   1.996   6.675
 4245SOL    HW213635   6.327   1.957   6.736
 4246SOL     OW13636   0.991   3.430   1.556
 4246SOL    HW113637   0.987   3.517   1.506
 4246SOL    HW213638   0.898   3.393   1.564
 4247SOL     OW13639   0.383   5.533   4.863
 4247SOL    HW113640   0.463   5.527   4.923
 4247SOL    HW213641   0.350   5.627   4.861
 4248SOL     OW13642   1.629   2.894   5.421
 4248SOL    HW113643   1.558   2.858   5.361
 4248SOL    HW213644   1.687   2.957   5.370
 4249SOL     OW13645   5.476   3.773   5.826
 4249SOL    HW113646   5.381   3.773   5.859
 4249SOL    HW213647   5.538   3.767   5.904
 4250SOL     OW13648   0.242   4.418   3.116
 4250SOL    HW113649   0.181   4.469   3.178
 4250SOL    HW213650   0.320   4.384   3.168
 4251SOL     OW13651   5.767   4.179   0.534
 4251SOL    HW113652   5.770   4.267   0.486
 4251SOL    HW213653   5.743   4.107   0.469
 4252SOL     OW13654   0.414   5.801   5.484
 4252SOL    HW113655   0.508   5.800   5.518
 4252SOL    HW213656   0.374   5.891   5.498
 4253SOL     OW13657   4.583   6.836   2.209
 4253SOL    HW113658   4.563   6.799   2.300
 4253SOL    HW213659   4.524   6.792   2.141
 4254SOL     OW13660   2.576   4.379   1.200
 4254SOL    HW113661   2.651   4.313   1.208
 4254SOL    HW213662   2.497   4.347   1.252
 4255SOL     OW13663   0.306   2.435   4.829
 4255SOL    HW113664   0.358   2.373   4.769
 4255SOL    HW213665   0.318   2.529   4.797
 4256SOL     OW13666   2.093   0.018   1.445
 4256SOL    HW113667   2.104   0.114   1.422
 4256SOL    HW213668   1.998   7.013   1.429
 4257SOL     OW13669   3.836   1.803   4.538
 4257SOL    HW113670   3.832   1.782   4.440
 4257SOL    HW213671   3.914   1.756   4.579
 4258SOL     OW13672   5.342   6.413   2.296
 4258SOL    HW113673   5.439   6.403   2.317
 4258SOL    HW213674   5.316   6.510   2.301
 4259SOL     OW13675   2.372   2.290   0.514
 4259SOL    HW113676   2.423   2.302   0.599
 4259SOL    HW213677   2.415   2.345   0.442
 4260SOL     OW13678   5.173   5.526   3.723
 4260SOL    HW113679   5.168   5.486   3.631
 4260SOL    HW213680   5.130   5.463   3.789
 4261SOL     OW13681   1.412   6.882   2.098
 4261SOL    HW113682   1.334   6.939   2.123
 4261SOL    HW213683   1.391   6.831   2.015
 4262SOL     OW13684   0.628   5.046   6.465
 4262SOL    HW113685   0.583   5.126   6.506
 4262SOL    HW213686   0.645   4.978   6.535
 4263SOL     OW13687   3.305   4.965   5.404
 4263SOL    HW113688   3.320   4.926   5.313
 4263SOL    HW213689   3.242   5.043   5.397
 4264SOL     OW13690   0.239   0.327   1.016
 4264SOL    HW113691   0.195   0.253   1.067
 4264SOL    HW213692   0.207   0.327   0.922
 4265SOL     OW13693   6.778   1.455   0.967
 4265SOL    HW113694   6.841   1.391   0.922
 4265SOL    HW213695   6.692   1.458   0.916
 4266SOL     OW13696   2.499   5.276   0.833
 4266SOL    HW113697   2.520   5.309   0.925
 4266SOL    HW213698   2.501   5.176   0.833
 4267SOL     OW13699   1.676   3.816   5.061
 4267SOL    HW113700   1.691   3.913   5.081
 4267SOL    HW213701   1.657   3.805   4.964
 4268SOL     OW13702   2.099   0.757   0.488
 4268SOL    HW113703   2.004   0.762   0.456
 4268SOL    HW213704   2.157   0.814   0.429
 4269SOL     OW13705   3.285   3.099   0.314
 4269SOL    HW113706   3.364   3.063   0.264
 4269SOL    HW213707   3.201   3.066   0.270
 4270SOL     OW13708   3.346   2.852   4.946
 4270SOL    HW113709   3.324   2.873   4.851
 4270SOL    HW213710   3.334   2.754   4.963
 4271SOL     OW13711   0.515   0.084   6.395
 4271SOL    HW113712   0.599   0.039   6.366
 4271SOL    HW213713   0.535   0.143   6.474
 4272SOL     OW13714   0.157   4.985   4.527
 4272SOL    HW113715   0.129   5.038   4.448
 4272SOL    HW213716   0.076   4.955   4.578
 4273SOL     OW13717   5.635   6.769   5.705
 4273SOL    HW113718   5.564   6.719   5.754
 4273SOL    HW213719   5.665   6.715   5.626
 4274SOL     OW13720   1.614   6.519   3.635
 4274SOL    HW113721   1.672   6.584   3.684
 4274SOL    HW213722   1.574   6.563   3.554
 4275SOL     OW13723   0.910   0.034   6.184
 4275SOL    HW113724   0.963   6.995   6.125
 4275SOL    HW213725   0.850   7.002   6.242
 4276SOL     OW13726   2.208   4.199   2.333
 4276SOL    HW113727   2.173   4.106   2.345
 4276SOL    HW213728   2.239   4.211   2.239
 4277SOL     OW13729   0.022   5.458   3.670
 4277SOL    HW113730   0.115   5.470   3.704
 4277SOL    HW213731   7.016   5.363   3.684
 4278SOL     OW13732   6.739   0.311   5.395
 4278SOL    HW113733   6.660   0.351   5.442
 4278SOL    HW213734   6.773   0.234   5.449
 4279SOL     OW13735   3.312   6.569   5.129
 4279SOL    HW113736   3.248   6.512   5.181
 4279SOL    HW213737   3.403   6.528   5.132
 4280SOL     OW13738   5.356   2.409   4.091
 4280SOL    HW113739   5.282   2.355   4.131
 4280SOL    HW213740   5.362   2.497   4.138
 4281SOL     OW13741   2.185   4.264   5.065
 4281SOL    HW113742   2.203   4.165   5.070
 4281SOL    HW213743   2.151   4.287   4.974
 4282SOL     OW13744   2.028   2.490   1.280
 4282SOL    HW113745   1.955   2.466   1.344
 4282SOL    HW213746   2.023   2.588   1.259
 4283SOL     OW13747   1.812   0.357   4.269
 4283SOL    HW113748   1.892   0.408   4.303
 4283SOL    HW213749   1.729   0.396   4.309
 4284SOL     OW13750   6.071   2.026   2.764
 4284SOL    HW113751   6.080   2.001   2.668
 4284SOL    HW213752   6.121   2.111   2.781
 4285SOL     OW13753   1.256   6.949   5.852
 4285SOL    HW113754   1.175   6.944   5.909
 4285SOL    HW213755   1.241   6.898   5.768
 4286SOL     OW13756   5.049   5.793   0.439
 4286SOL    HW113757   5.023   5.883   0.473
 4286SOL    HW213758   4.977   5.758   0.379
 4287SOL     OW13759   5.387   6.716   4.794
 4287SOL    HW113760   5.385   6.762   4.705
 4287SOL    HW213761   5.475   6.734   4.838
 4288SOL     OW13762   1.631   6.558   3.007
 4288SOL    HW113763   1.635   6.511   3.095
 4288SOL    HW213764   1.641   6.491   2.933
 4289SOL     OW13765   5.728   2.772   1.320
 4289SOL    HW113766   5.644   2.719   1.309
 4289SOL    HW213767   5.706   2.870   1.310
 4290SOL     OW13768   2.378   0.753   1.830
 4290SOL    HW113769   2.287   0.717   1.811
 4290SOL    HW213770   2.438   0.734   1.752
 4291SOL     OW13771   6.229   3.818   0.868
 4291SOL    HW113772   6.143   3.838   0.916
 4291SOL    HW213773   6.288   3.764   0.928
 4292SOL     OW13774   5.770   5.245   6.682
 4292SOL    HW113775   5.675   5.232   6.710
 4292SOL    HW213776   5.820   5.290   6.756
 4293SOL     OW13777   0.027   2.963   7.015
 4293SOL    HW113778   0.076   2.896   0.050
 4293SOL    HW213779   6.965   2.990   0.039
 4294SOL     OW13780   4.414   2.327   5.953
 4294SOL    HW113781   4.462   2.407   5.916
 4294SOL    HW213782   4.425   2.250   5.891
 4295SOL     OW13783   3.478   0.415   4.478
 4295SOL    HW113784   3.505   0.506   4.508
 4295SOL    HW213785   3.379   0.403   4.492
 4296SOL     OW13786   2.796   1.805   1.321
 4296SOL    HW113787   2.759   1.790   1.230
 4296SOL    HW213788   2.743   1.875   1.368
 4297SOL     OW13789   5.380   0.734   5.487
 4297SOL    HW113790   5.416   0.654   5.535
 4297SOL    HW213791   5.457   0.787   5.451
 4298SOL     OW13792   2.670   6.033   1.431
 4298SOL    HW113793   2.747   5.987   1.475
 4298SOL    HW213794   2.626   5.971   1.367
 4299SOL     OW13795   0.926   3.468   6.454
 4299SOL    HW113796   0.962   3.553   6.492
 4299SOL    HW213797   0.948   3.464   6.357
 4300SOL     OW13798   4.770   1.061   6.655
 4300SOL    HW113799   4.796   0.964   6.650
 4300SOL    HW213800   4.837   1.116   6.607
 4301SOL     OW13801   2.798   1.795   0.747
 4301SOL    HW113802   2.761   1.702   0.745
 4301SOL    HW213803   2.736   1.854   0.798
 4302SOL     OW13804   1.224   6.616   6.826
 4302SOL    HW113805   1.132   6.647   6.848
 4302SOL    HW213806   1.219   6.539   6.762
 4303SOL     OW13807   0.105   3.279   2.154
 4303SOL    HW113808   0.097   3.193   2.103
 4303SOL    HW213809   0.168   3.267   2.231
 4304SOL     OW13810   3.092   3.811   4.201
 4304SOL    HW113811   3.190   3.813   4.186
 4304SOL    HW213812   3.071   3.846   4.292
 4305SOL     OW13813   6.352   1.284   3.518
 4305SOL    HW113814   6.374   1.349   3.591
 4305SOL    HW213815   6.269   1.313   3.471
 4306SOL     OW13816   6.597   4.828   5.629
 4306SOL    HW113817   6.630   4.837   5.723
 4306SOL    HW213818   6.667   4.863   5.566
 4307SOL     OW13819   5.330   3.855   6.332
 4307SOL    HW113820   5.384   3.820   6.256
 4307SOL    HW213821   5.252   3.908   6.298
 4308SOL     OW13822   5.247   6.168   4.503
 4308SOL    HW113823   5.217   6.104   4.433
 4308SOL    HW213824   5.258   6.120   4.590
 4309SOL     OW13825   1.364   1.304   0.530
 4309SOL    HW113826   1.330   1.392   0.564
 4309SOL    HW213827   1.327   1.230   0.586
 4310SOL     OW13828   1.896   1.654   2.791
 4310SOL    HW113829   1.854   1.688   2.707
 4310SOL    HW213830   1.862   1.561   2.809
 4311SOL     OW13831   1.982   6.127   3.237
 4311SOL    HW113832   2.020   6.182   3.312
 4311SOL    HW213833   2.045   6.129   3.160
 4312SOL     OW13834   1.977   5.310   1.973
 4312SOL    HW113835   2.000   5.280   1.880
 4312SOL    HW213836   1.913   5.387   1.968
 4313SOL     OW13837   4.927   0.806   2.172
 4313SOL    HW113838   4.874   0.867   2.113
 4313SOL    HW213839   4.878   0.790   2.258
 4314SOL     OW13840   4.961   3.196   2.702
 4314SOL    HW113841   4.914   3.112   2.676
 4314SOL    HW213842   5.043   3.174   2.755
 4315SOL     OW13843   2.541   0.524   2.085
 4315SOL    HW113844   2.441   0.529   2.086
 4315SOL    HW213845   2.570   0.436   2.048
 4316SOL     OW13846   6.396   0.651   1.855
 4316SOL    HW113847   6.486   0.652   1.811
 4316SOL    HW213848   6.363   0.557   1.859
 4317SOL     OW13849   3.693   0.954   3.887
 4317SOL    HW113850   3.650   0.873   3.846
 4317SOL    HW213851   3.685   0.949   3.986
 4318SOL     OW13852   0.362   3.089   3.798
 4318SOL    HW113853   0.369   3.109   3.896
 4318SOL    HW213854   0.434   3.026   3.771
 4319SOL     OW13855   2.400   3.574   6.616
 4319SOL    HW113856   2.349   3.658   6.602
 4319SOL    HW213857   2.385   3.512   6.539
 4320SOL     OW13858   0.309   6.402   2.972
 4320SOL    HW113859   0.261   6.371   3.054
 4320SOL    HW213860   0.329   6.499   2.979
 4321SOL     OW13861   6.891   0.520   5.290
 4321SOL    HW113862   6.831   0.459   5.342
 4321SOL    HW213863   6.986   0.490   5.299
 4322SOL     OW13864   6.076   0.960   0.318
 4322SOL    HW113865   6.045   0.868   0.292
 4322SOL    HW213866   6.112   0.959   0.411
 4323SOL     OW13867   6.608   3.338   2.975
 4323SOL    HW113868   6.624   3.353   3.073
 4323SOL    HW213869   6.692   3.354   2.924
 4324SOL     OW13870   5.816   3.992   6.320
 4324SOL    HW113871   5.788   3.950   6.233
 4324SOL    HW213872   5.774   4.082   6.328
 4325SOL     OW13873   1.790   1.554   6.712
 4325SOL    HW113874   1.703   1.597   6.736
 4325SOL    HW213875   1.809   1.480   6.776
 4326SOL     OW13876   6.156   3.123   4.971
 4326SOL    HW113877   6.218   3.114   5.049
 4326SOL    HW213878   6.110   3.036   4.954
 4327SOL     OW13879   6.298   6.463   2.719
 4327SOL    HW113880   6.251   6.396   2.661
 4327SOL    HW213881   6.282   6.440   2.815
 4328SOL     OW13882   5.480   5.293   0.048
 4328SOL    HW113883   5.407   5.230   0.019
 4328SOL    HW213884   5.463   5.322   0.142
 4329SOL     OW13885   4.422   2.130   5.765
 4329SOL    HW113886   4.436   2.212   5.710
 4329SOL    HW213887   4.362   2.067   5.717
 4330SOL     OW13888   1.025   0.176   5.839
 4330SOL    HW113889   0.972   0.096   5.810
 4330SOL    HW213890   1.046   0.232   5.760
 4331SOL     OW13891   5.989   2.391   6.630
 4331SOL    HW113892   6.013   2.377   6.533
 4331SOL    HW213893   5.973   2.488   6.646
 4332SOL     OW13894   4.970   2.916   1.984
 4332SOL    HW113895   5.033   2.933   2.059
 4332SOL    HW213896   4.876   2.931   2.014
 4333SOL     OW13897   5.309   0.797   4.487
 4333SOL    HW113898   5.320   0.881   4.541
 4333SOL    HW213899   5.389   0.785   4.428
 4334SOL     OW13900   4.232   1.834   2.097
 4334SOL    HW113901   4.192   1.846   2.188
 4334SOL    HW213902   4.275   1.743   2.092
 4335SOL     OW13903   3.218   4.080   5.175
 4335SOL    HW113904   3.182   4.079   5.082
 4335SOL    HW213905   3.201   3.992   5.219
 4336SOL     OW13906   1.406   6.761   4.329
 4336SOL    HW113907   1.427   6.696   4.256
 4336SOL    HW213908   1.465   6.742   4.408
 4337SOL     OW13909   6.882   5.587   0.664
 4337SOL    HW113910   6.922   5.505   0.704
 4337SOL    HW213911   6.864   5.570   0.567
 4338SOL     OW13912   6.649   6.211   4.157
 4338SOL    HW113913   6.622   6.168   4.243
 4338SOL    HW213914   6.609   6.161   4.080
 4339SOL     OW13915   6.154   1.455   5.502
 4339SOL    HW113916   6.214   1.533   5.514
 4339SOL    HW213917   6.204   1.371   5.525
 4340SOL     OW13918   5.443   3.749   1.402
 4340SOL    HW113919   5.363   3.808   1.392
 4340SOL    HW213920   5.430   3.666   1.348
 4341SOL     OW13921   1.322   4.374   1.361
 4341SOL    HW113922   1.397   4.415   1.413
 4341SOL    HW213923   1.237   4.422   1.382
 4342SOL     OW13924   0.891   3.292   3.092
 4342SOL    HW113925   0.856   3.332   3.178
 4342SOL    HW213926   0.946   3.212   3.113
 4343SOL     OW13927   3.011   1.329   1.301
 4343SOL    HW113928   3.094   1.341   1.356
 4343SOL    HW213929   2.930   1.339   1.359
 4344SOL     OW13930   1.976   5.085   2.918
 4344SOL    HW113931   1.998   5.168   2.970
 4344SOL    HW213932   1.919   5.025   2.974
 4345SOL     OW13933   1.551   2.032   5.626
 4345SOL    HW113934   1.509   2.121   5.608
 4345SOL    HW213935   1.482   1.960   5.620
 4346SOL     OW13936   2.041   3.336   1.866
 4346SOL    HW113937   2.123   3.377   1.907
 4346SOL    HW213938   1.988   3.408   1.819
 4347SOL     OW13939   5.503   6.675   2.897
 4347SOL    HW113940   5.430   6.634   2.841
 4347SOL    HW213941   5.561   6.602   2.933
 4348SOL     OW13942   1.676   4.214   6.799
 4348SOL    HW113943   1.752   4.254   6.747
 4348SOL    HW213944   1.657   4.270   6.879
 4349SOL     OW13945   0.148   1.424   3.456
 4349SOL    HW113946   0.123   1.345   3.512
 4349SOL    HW213947   0.246   1.421   3.436
 4350SOL     OW13948   5.231   2.100   3.807
 4350SOL    HW113949   5.197   2.183   3.851
 4350SOL    HW213950   5.315   2.119   3.758
 4351SOL     OW13951   2.965   6.093   1.810
 4351SOL    HW113952   2.901   6.062   1.740
 4351SOL    HW213953   3.019   6.015   1.842
 4352SOL     OW13954   6.792   0.891   2.437
 4352SOL    HW113955   6.845   0.812   2.405
 4352SOL    HW213956   6.855   0.963   2.466
 4353SOL     OW13957   3.217   5.792   6.396
 4353SOL    HW113958   3.305   5.839   6.399
 4353SOL    HW213959   3.198   5.750   6.485
 4354SOL     OW13960   2.167   0.136   0.435
 4354SOL    HW113961   2.098   0.110   0.368
 4354SOL    HW213962   2.130   0.127   0.527
 4355SOL     OW13963   4.712   1.193   0.400
 4355SOL    HW113964   4.632   1.252   0.406
 4355SOL    HW213965   4.683   1.098   0.390
 4356SOL     OW13966   4.250   4.016   0.646
 4356SOL    HW113967   4.217   3.922   0.659
 4356SOL    HW213968   4.299   4.045   0.728
 4357SOL     OW13969   5.894   0.106   6.908
 4357SOL    HW113970   5.821   0.079   6.845
 4357SOL    HW213971   5.909   0.032   6.974
 4358SOL     OW13972   0.816   6.859   1.752
 4358SOL    HW113973   0.748   6.807   1.700
 4358SOL    HW213974   0.848   6.804   1.829
 4359SOL     OW13975   0.031   2.282   3.946
 4359SOL    HW113976   0.067   2.261   4.037
 4359SOL    HW213977   6.953   2.289   3.951
 4360SOL     OW13978   1.281   3.420   1.560
 4360SOL    HW113979   1.325   3.502   1.522
 4360SOL    HW213980   1.182   3.430   1.556
 4361SOL     OW13981   4.976   2.380   1.963
 4361SOL    HW113982   4.957   2.409   2.057
 4361SOL    HW213983   5.072   2.395   1.942
 4362SOL     OW13984   6.367   4.114   4.727
 4362SOL    HW113985   6.307   4.193   4.722
 4362SOL    HW213986   6.415   4.102   4.641
 4363SOL     OW13987   4.851   2.456   5.744
 4363SOL    HW113988   4.864   2.378   5.806
 4363SOL    HW213989   4.921   2.524   5.762
 4364SOL     OW13990   3.241   4.131   4.504
 4364SOL    HW113991   3.306   4.123   4.428
 4364SOL    HW213992   3.167   4.193   4.478
 4365SOL     OW13993   3.990   2.087   2.735
 4365SOL    HW113994   3.902   2.088   2.687
 4365SOL    HW213995   4.053   2.148   2.688
 4366SOL     OW13996   5.946   5.602   0.848
 4366SOL    HW113997   5.895   5.611   0.762
 4366SOL    HW213998   5.984   5.690   0.873
 4367SOL     OW13999   1.330   6.358   6.123
 4367SOL    HW114000   1.335   6.409   6.037
 4367SOL    HW214001   1.316   6.261   6.103
 4368SOL     OW14002   5.626   3.936   1.758
 4368SOL    HW114003   5.634   3.956   1.856
 4368SOL    HW214004   5.678   4.002   1.705
 4369SOL     OW14005   4.642   5.618   2.157
 4369SOL    HW114006   4.579   5.646   2.084
 4369SOL    HW214007   4.736   5.622   2.123
 4370SOL     OW14008   5.762   4.898   3.555
 4370SOL    HW114009   5.790   4.806   3.585
 4370SOL    HW214010   5.813   4.922   3.472
 4371SOL     OW14011   6.342   1.824   1.970
 4371SOL    HW114012   6.323   1.882   1.891
 4371SOL    HW214013   6.325   1.729   1.946
 4372SOL     OW14014   4.513   1.255   3.685
 4372SOL    HW114015   4.530   1.196   3.606
 4372SOL    HW214016   4.600   1.281   3.727
 4373SOL     OW14017   6.554   1.846   6.553
 4373SOL    HW114018   6.542   1.820   6.457
 4373SOL    HW214019   6.605   1.775   6.602
 4374SOL     OW14020   1.966   2.617   1.614
 4374SOL    HW114021   1.881   2.664   1.636
 4374SOL    HW214022   1.947   2.523   1.585
 4375SOL     OW14023   2.562   6.650   4.712
 4375SOL    HW114024   2.649   6.601   4.703
 4375SOL    HW214025   2.516   6.654   4.622
 4376SOL     OW14026   5.674   0.774   2.812
 4376SOL    HW114027   5.607   0.782   2.739
 4376SOL    HW214028   5.764   0.803   2.778
 4377SOL     OW14029   5.850   4.504   6.681
 4377SOL    HW114030   5.756   4.505   6.648
 4377SOL    HW214031   5.893   4.418   6.655
 4378SOL     OW14032   1.693   0.249   4.056
 4378SOL    HW114033   1.728   0.306   4.129
 4378SOL    HW214034   1.768   0.199   4.013
 4379SOL     OW14035   2.769   2.002   5.079
 4379SOL    HW114036   2.696   1.978   5.015
 4379SOL    HW214037   2.782   2.101   5.079
 4380SOL     OW14038   0.587   1.291   1.623
 4380SOL    HW114039   0.645   1.290   1.541
 4380SOL    HW214040   0.642   1.266   1.703
 4381SOL     OW14041   2.418   6.454   5.729
 4381SOL    HW114042   2.339   6.504   5.694
 4381SOL    HW214043   2.502   6.496   5.695
 4382SOL     OW14044   6.821   3.781   5.477
 4382SOL    HW114045   6.920   3.793   5.465
 4382SOL    HW214046   6.799   3.786   5.574
 4383SOL     OW14047   5.532   2.833   0.044
 4383SOL    HW114048   5.506   2.835   6.969
 4383SOL    HW214049   5.459   2.787   0.096
 4384SOL     OW14050   6.229   6.176   3.961
 4384SOL    HW114051   6.274   6.151   4.047
 4384SOL    HW214052   6.214   6.275   3.959
 4385SOL     OW14053   5.818   1.768   4.511
 4385SOL    HW114054   5.790   1.863   4.502
 4385SOL    HW214055   5.756   1.710   4.457
 4386SOL     OW14056   0.935   3.338   5.502
 4386SOL    HW114057   0.847   3.301   5.471
 4386SOL    HW214058   0.923   3.379   5.593
 4387SOL     OW14059   6.529   1.971   0.224
 4387SOL    HW114060   6.619   1.984   0.266
 4387SOL    HW214061   6.469   1.924   0.288
 4388SOL     OW14062   4.897   1.951   6.621
 4388SOL    HW114063   4.867   2.041   6.652
 4388SOL    HW214064   4.980   1.925   6.670
 4389SOL     OW14065   0.778   3.749   1.881
 4389SOL    HW114066   0.751   3.712   1.792
 4389SOL    HW214067   0.878   3.759   1.884
 4390SOL     OW14068   6.717   0.479   1.800
 4390SOL    HW114069   6.701   0.466   1.898
 4390SOL    HW214070   6.725   0.389   1.756
 4391SOL     OW14071   2.113   5.960   6.561
 4391SOL    HW114072   2.113   5.973   6.462
 4391SOL    HW214073   2.208   5.958   6.594
 4392SOL     OW14074   2.032   2.635   5.177
 4392SOL    HW114075   2.011   2.537   5.168
 4392SOL    HW214076   2.003   2.668   5.266
 4393SOL     OW14077   5.010   0.678   1.490
 4393SOL    HW114078   5.019   0.704   1.586
 4393SOL    HW214079   5.077   0.729   1.435
 4394SOL     OW14080   1.280   0.344   1.336
 4394SOL    HW114081   1.226   0.282   1.392
 4394SOL    HW214082   1.302   0.300   1.249
 4395SOL     OW14083   2.646   5.713   1.090
 4395SOL    HW114084   2.647   5.805   1.128
 4395SOL    HW214085   2.573   5.705   1.022
 4396SOL     OW14086   2.502   6.946   3.254
 4396SOL    HW114087   2.508   6.849   3.230
 4396SOL    HW214088   2.544   7.001   3.182
 4397SOL     OW14089   2.746   2.038   4.327
 4397SOL    HW114090   2.653   2.026   4.361
 4397SOL    HW214091   2.744   2.047   4.227
 4398SOL     OW14092   2.320   2.831   5.635
 4398SOL    HW114093   2.324   2.855   5.538
 4398SOL    HW214094   2.372   2.747   5.650
 4399SOL     OW14095   3.118   0.072   2.252
 4399SOL    HW114096   3.186   0.052   2.181
 4399SOL    HW214097   3.165   0.087   2.339
 4400SOL     OW14098   1.890   5.488   4.786
 4400SOL    HW114099   1.960   5.416   4.785
 4400SOL    HW214100   1.830   5.477   4.707
 4401SOL     OW14101   3.722   0.334   6.123
 4401SOL    HW114102   3.784   0.266   6.084
 4401SOL    HW214103   3.669   0.292   6.197
 4402SOL     OW14104   1.482   0.328   3.096
 4402SOL    HW114105   1.433   0.243   3.078
 4402SOL    HW214106   1.418   0.405   3.092
 4403SOL     OW14107   1.468   4.964   1.178
 4403SOL    HW114108   1.425   5.048   1.213
 4403SOL    HW214109   1.563   4.960   1.209
 4404SOL     OW14110   0.710   6.546   6.157
 4404SOL    HW114111   0.622   6.563   6.114
 4404SOL    HW214112   0.699   6.483   6.234
 4405SOL     OW14113   1.733   5.179   3.590
 4405SOL    HW114114   1.685   5.104   3.636
 4405SOL    HW214115   1.810   5.209   3.646
 4406SOL     OW14116   6.371   3.710   2.007
 4406SOL    HW114117   6.471   3.702   2.010
 4406SOL    HW214118   6.332   3.675   2.093
 4407SOL     OW14119   6.189   6.233   2.135
 4407SOL    HW114120   6.146   6.323   2.140
 4407SOL    HW214121   6.251   6.230   2.057
 4408SOL     OW14122   3.938   0.734   0.834
 4408SOL    HW114123   4.001   0.805   0.802
 4408SOL    HW214124   3.894   0.764   0.918
 4409SOL     OW14125   3.321   0.494   2.767
 4409SOL    HW114126   3.420   0.490   2.781
 4409SOL    HW214127   3.301   0.558   2.692
 4410SOL     OW14128   1.209   6.382   1.158
 4410SOL    HW114129   1.246   6.459   1.210
 4410SOL    HW214130   1.117   6.404   1.126
 4411SOL     OW14131   3.236   4.422   5.480
 4411SOL    HW114132   3.275   4.349   5.424
 4411SOL    HW214133   3.262   4.409   5.575
 4412SOL     OW14134   5.253   6.309   2.690
 4412SOL    HW114135   5.190   6.387   2.694
 4412SOL    HW214136   5.332   6.333   2.633
 4413SOL     OW14137   4.356   5.986   3.962
 4413SOL    HW114138   4.418   6.044   4.014
 4413SOL    HW214139   4.384   5.983   3.866
 4414SOL     OW14140   4.384   4.090   1.158
 4414SOL    HW114141   4.429   4.169   1.119
 4414SOL    HW214142   4.444   4.046   1.225
 4415SOL     OW14143   2.984   3.695   0.999
 4415SOL    HW114144   2.913   3.724   1.064
 4415SOL    HW214145   3.074   3.722   1.034
 4416SOL     OW14146   4.417   2.463   2.821
 4416SOL    HW114147   4.395   2.557   2.797
 4416SOL    HW214148   4.348   2.427   2.884
 4417SOL     OW14149   0.176   3.904   3.801
 4417SOL    HW114150   0.225   3.942   3.722
 4417SOL    HW214151   0.078   3.919   3.790
 4418SOL     OW14152   6.095   6.725   6.297
 4418SOL    HW114153   6.009   6.774   6.309
 4418SOL    HW214154   6.105   6.656   6.369
 4419SOL     OW14155   6.576   5.704   6.455
 4419SOL    HW114156   6.559   5.724   6.552
 4419SOL    HW214157   6.540   5.613   6.433
 4420SOL     OW14158   3.787   2.153   0.668
 4420SOL    HW114159   3.790   2.104   0.756
 4420SOL    HW214160   3.760   2.090   0.596
 4421SOL     OW14161   1.496   2.448   5.267
 4421SOL    HW114162   1.436   2.377   5.229
 4421SOL    HW214163   1.576   2.405   5.310
 4422SOL     OW14164   6.904   4.405   6.709
 4422SOL    HW114165   6.994   4.367   6.685
 4422SOL    HW214166   6.872   4.464   6.636
 4423SOL     OW14167   5.512   4.225   5.320
 4423SOL    HW114168   5.585   4.292   5.306
 4423SOL    HW214169   5.552   4.133   5.325
 4424SOL     OW14170   4.678   5.690   3.505
 4424SOL    HW114171   4.661   5.618   3.438
 4424SOL    HW214172   4.699   5.649   3.594
 4425SOL     OW14173   1.899   5.622   1.740
 4425SOL    HW114174   1.889   5.572   1.826
 4425SOL    HW214175   1.949   5.707   1.757
 4426SOL     OW14176   0.825   0.035   4.184
 4426SOL    HW114177   0.920   0.010   4.167
 4426SOL    HW214178   0.796   0.104   4.118
 4427SOL     OW14179   2.872   6.287   2.522
 4427SOL    HW114180   2.958   6.296   2.573
 4427SOL    HW214181   2.855   6.369   2.469
 4428SOL     OW14182   5.407   0.305   3.736
 4428SOL    HW114183   5.384   0.233   3.670
 4428SOL    HW214184   5.492   0.282   3.782
 4429SOL     OW14185   2.605   6.123   3.201
 4429SOL    HW114186   2.649   6.201   3.245
 4429SOL    HW214187   2.660   6.041   3.215
 4430SOL     OW14188   5.221   4.418   5.302
 4430SOL    HW114189   5.136   4.437   5.254
 4430SOL    HW214190   5.275   4.351   5.249
 4431SOL     OW14191   3.405   6.932   3.781
 4431SOL    HW114192   3.337   6.946   3.709
 4431SOL    HW214193   3.377   6.982   3.863
 4432SOL     OW14194   1.246   4.026   5.982
 4432SOL    HW114195   1.180   3.960   5.946
 4432SOL    HW214196   1.197   4.100   6.029
 4433SOL     OW14197   0.468   0.741   5.128
 4433SOL    HW114198   0.485   0.835   5.159
 4433SOL    HW214199   0.508   0.729   5.037
 4434SOL     OW14200   0.144   0.380   2.429
 4434SOL    HW114201   0.180   0.463   2.473
 4434SOL    HW214202   0.113   0.316   2.500
 4435SOL     OW14203   2.098   3.325   0.323
 4435SOL    HW114204   2.099   3.349   0.226
 4435SOL    HW214205   2.148   3.394   0.375
 4436SOL     OW14206   4.090   1.452   1.915
 4436SOL    HW114207   4.058   1.390   1.843
 4436SOL    HW214208   4.016   1.514   1.940
 4437SOL     OW14209   0.290   3.923   0.828
 4437SOL    HW114210   0.191   3.930   0.835
 4437SOL    HW214211   0.329   4.013   0.812
 4438SOL     OW14212   3.629   1.033   5.834
 4438SOL    HW114213   3.622   0.962   5.764
 4438SOL    HW214214   3.562   1.014   5.907
 4439SOL     OW14215   2.221   6.460   2.660
 4439SOL    HW114216   2.138   6.415   2.625
 4439SOL    HW214217   2.264   6.511   2.586
 4440SOL     OW14218   1.463   4.953   0.190
 4440SOL    HW114219   1.514   5.035   0.162
 4440SOL    HW214220   1.366   4.966   0.170
 4441SOL     OW14221   6.978   0.821   0.555
 4441SOL    HW114222   7.018   0.860   0.472
 4441SOL    HW214223   0.027   0.809   0.624
 4442SOL     OW14224   1.859   4.782   6.404
 4442SOL    HW114225   1.764   4.756   6.419
 4442SOL    HW214226   1.920   4.709   6.435
 4443SOL     OW14227   0.255   6.017   6.104
 4443SOL    HW114228   0.300   5.941   6.151
 4443SOL    HW214229   0.169   5.985   6.064
 4444SOL     OW14230   5.558   4.562   0.117
 4444SOL    HW114231   5.640   4.508   0.101
 4444SOL    HW214232   5.542   4.571   0.215
 4445SOL     OW14233   0.004   5.706   0.182
 4445SOL    HW114234   0.083   5.737   0.130
 4445SOL    HW214235   6.962   5.782   0.195
 4446SOL     OW14236   5.322   0.563   0.801
 4446SOL    HW114237   5.237   0.552   0.853
 4446SOL    HW214238   5.381   0.483   0.817
 4447SOL     OW14239   5.020   5.416   5.475
 4447SOL    HW114240   5.118   5.420   5.457
 4447SOL    HW214241   4.979   5.505   5.457
 4448SOL     OW14242   4.083   6.278   1.945
 4448SOL    HW114243   4.058   6.182   1.954
 4448SOL    HW214244   4.020   6.334   1.999
 4449SOL     OW14245   3.428   1.608   5.680
 4449SOL    HW114246   3.400   1.578   5.589
 4449SOL    HW214247   3.386   1.550   5.749
 4450SOL     OW14248   3.268   6.894   0.253
 4450SOL    HW114249   3.310   6.952   0.183
 4450SOL    HW214250   3.286   6.933   0.343
 4451SOL     OW14251   5.213   4.506   3.059
 4451SOL    HW114252   5.121   4.477   3.085
 4451SOL    HW214253   5.270   4.425   3.042
 4452SOL     OW14254   4.831   6.076   4.933
 4452SOL    HW114255   4.903   6.032   4.881
 4452SOL    HW214256   4.742   6.036   4.908
 4453SOL     OW14257   6.813   3.695   0.820
 4453SOL    HW114258   6.890   3.634   0.840
 4453SOL    HW214259   6.777   3.732   0.905
 4454SOL     OW14260   0.999   2.317   6.561
 4454SOL    HW114261   0.917   2.262   6.573
 4454SOL    HW214262   0.996   2.360   6.471
 4455SOL     OW14263   0.176   6.728   5.387
 4455SOL    HW114264   0.259   6.678   5.361
 4455SOL    HW214265   0.194   6.826   5.385
 4456SOL     OW14266   2.086   0.357   4.724
 4456SOL    HW114267   2.009   0.374   4.786
 4456SOL    HW214268   2.053   0.308   4.643
 4457SOL     OW14269   1.358   2.846   5.110
 4457SOL    HW114270   1.354   2.809   5.017
 4457SOL    HW214271   1.279   2.906   5.125
 4458SOL     OW14272   1.777   3.827   6.597
 4458SOL    HW114273   1.747   3.863   6.685
 4458SOL    HW214274   1.719   3.749   6.572
 4459SOL     OW14275   1.402   2.797   2.962
 4459SOL    HW114276   1.330   2.865   2.969
 4459SOL    HW214277   1.485   2.840   2.926
 4460SOL     OW14278   6.610   3.409   4.435
 4460SOL    HW114279   6.546   3.354   4.489
 4460SOL    HW214280   6.562   3.489   4.397
 4461SOL     OW14281   2.679   1.001   1.158
 4461SOL    HW114282   2.634   1.027   1.073
 4461SOL    HW214283   2.652   1.065   1.231
 4462SOL     OW14284   6.411   4.558   3.146
 4462SOL    HW114285   6.496   4.590   3.105
 4462SOL    HW214286   6.428   4.532   3.241
 4463SOL     OW14287   6.429   1.404   0.760
 4463SOL    HW114288   6.411   1.489   0.809
 4463SOL    HW214289   6.348   1.378   0.708
 4464SOL     OW14290   0.362   5.176   0.441
 4464SOL    HW114291   0.433   5.218   0.498
 4464SOL    HW214292   0.349   5.081   0.468
 4465SOL     OW14293   3.124   5.733   1.048
 4465SOL    HW114294   3.041   5.732   0.992
 4465SOL    HW214295   3.195   5.680   1.003
 4466SOL     OW14296   1.483   2.668   3.160
 4466SOL    HW114297   1.458   2.730   3.087
 4466SOL    HW214298   1.575   2.632   3.143
 4467SOL     OW14299   4.491   6.126   2.961
 4467SOL    HW114300   4.570   6.085   2.915
 4467SOL    HW214301   4.512   6.137   3.058
 4468SOL     OW14302   1.810   2.972   1.489
 4468SOL    HW114303   1.782   2.964   1.585
 4468SOL    HW214304   1.902   3.010   1.485
 4469SOL     OW14305   2.897   6.100   1.199
 4469SOL    HW114306   2.862   6.187   1.233
 4469SOL    HW214307   2.824   6.050   1.153
 4470SOL     OW14308   1.684   0.249   2.681
 4470SOL    HW114309   1.716   0.170   2.630
 4470SOL    HW214310   1.680   0.329   2.621
 4471SOL     OW14311   0.919   1.106   5.972
 4471SOL    HW114312   0.922   1.059   6.060
 4471SOL    HW214313   1.007   1.096   5.926
 4472SOL     OW14314   1.362   2.190   0.982
 4472SOL    HW114315   1.326   2.169   0.891
 4472SOL    HW214316   1.352   2.288   1.000
 4473SOL     OW14317   0.309   3.118   4.708
 4473SOL    HW114318   0.291   3.146   4.614
 4473SOL    HW214319   0.319   3.200   4.766
 4474SOL     OW14320   3.127   5.664   0.701
 4474SOL    HW114321   3.070   5.634   0.625
 4474SOL    HW214322   3.182   5.586   0.734
 4475SOL     OW14323   1.200   4.022   1.295
 4475SOL    HW114324   1.165   4.080   1.369
 4475SOL    HW214325   1.283   3.975   1.326
 4476SOL     OW14326   4.879   1.470   3.723
 4476SOL    HW114327   4.939   1.549   3.735
 4476SOL    HW214328   4.811   1.491   3.653
 4477SOL     OW14329   1.772   1.067   5.349
 4477SOL    HW114330   1.716   1.096   5.427
 4477SOL    HW214331   1.769   0.967   5.341
 4478SOL     OW14332   1.838   0.539   0.480
 4478SOL    HW114333   1.788   0.574   0.559
 4478SOL    HW214334   1.905   0.471   0.509
 4479SOL     OW14335   1.251   3.046   0.712
 4479SOL    HW114336   1.188   3.113   0.671
 4479SOL    HW214337   1.325   3.027   0.647
 4480SOL     OW14338   0.871   6.044   4.130
 4480SOL    HW114339   0.882   5.947   4.150
 4480SOL    HW214340   0.801   6.056   4.059
 4481SOL     OW14341   2.311   3.929   6.384
 4481SOL    HW114342   2.229   3.965   6.338
 4481SOL    HW214343   2.284   3.881   6.467
 4482SOL     OW14344   2.729   6.006   6.968
 4482SOL    HW114345   2.827   5.988   6.968
 4482SOL    HW214346   2.698   6.025   0.040
 4483SOL     OW14347   1.414   3.192   0.911
 4483SOL    HW114348   1.339   3.139   0.870
 4483SOL    HW214349   1.484   3.130   0.945
 4484SOL     OW14350   2.226   1.984   0.208
 4484SOL    HW114351   2.326   1.985   0.203
 4484SOL    HW214352   2.190   1.936   0.128
 4485SOL     OW14353   5.571   2.567   5.110
 4485SOL    HW114354   5.514   2.518   5.045
 4485SOL    HW214355   5.514   2.606   5.183
 4486SOL     OW14356   5.023   5.131   5.476
 4486SOL    HW114357   4.938   5.090   5.511
 4486SOL    HW214358   5.006   5.227   5.453
 4487SOL     OW14359   0.850   3.121   0.048
 4487SOL    HW114360   0.851   3.172   0.134
 4487SOL    HW214361   0.757   3.087   0.030
 4488SOL     OW14362   0.122   4.121   4.456
 4488SOL    HW114363   0.192   4.182   4.420
 4488SOL    HW214364   0.162   4.063   4.527
 4489SOL     OW14365   4.435   5.721   5.722
 4489SOL    HW114366   4.413   5.640   5.776
 4489SOL    HW214367   4.407   5.707   5.627
 4490SOL     OW14368   5.017   1.551   1.125
 4490SOL    HW114369   4.923   1.548   1.089
 4490SOL    HW214370   5.016   1.586   1.218
 4491SOL     OW14371   0.836   2.908   3.368
 4491SOL    HW114372   0.838   2.833   3.433
 4491SOL    HW214373   0.928   2.942   3.353
 4492SOL     OW14374   6.293   0.468   2.480
 4492SOL    HW114375   6.353   0.395   2.445
 4492SOL    HW214376   6.198   0.446   2.460
 4493SOL     OW14377   4.634   1.572   4.410
 4493SOL    HW114378   4.641   1.666   4.444
 4493SOL    HW214379   4.625   1.573   4.310
 4494SOL     OW14380   1.050   0.059   0.936
 4494SOL    HW114381   1.070   6.989   0.968
 4494SOL    HW214382   1.118   0.088   0.869
 4495SOL     OW14383   5.173   5.222   1.584
 4495SOL    HW114384   5.224   5.307   1.569
 4495SOL    HW214385   5.198   5.155   1.514
 4496SOL     OW14386   3.775   5.889   6.319
 4496SOL    HW114387   3.714   5.862   6.244
 4496SOL    HW214388   3.804   5.808   6.369
 4497SOL     OW14389   4.444   1.436   6.567
 4497SOL    HW114390   4.351   1.471   6.556
 4497SOL    HW214391   4.471   1.386   6.484
 4498SOL     OW14392   1.144   4.876   5.957
 4498SOL    HW114393   1.179   4.959   6.000
 4498SOL    HW214394   1.054   4.854   5.994
 4499SOL     OW14395   5.910   2.088   2.993
 4499SOL    HW114396   5.900   2.061   2.897
 4499SOL    HW214397   5.957   2.176   2.999
 4500SOL     OW14398   3.951   5.523   0.038
 4500SOL    HW114399   3.889   5.571   0.101
 4500SOL    HW214400   4.001   5.589   7.005
 4501SOL     OW14401   5.543   0.712   3.056
 4501SOL    HW114402   5.587   0.745   2.972
 4501SOL    HW214403   5.574   0.619   3.075
 4502SOL     OW14404   7.001   3.732   6.469
 4502SOL    HW114405   0.012   3.698   6.557
 4502SOL    HW214406   6.916   3.783   6.483
 4503SOL     OW14407   2.551   0.518   2.820
 4503SOL    HW114408   2.509   0.472   2.742
 4503SOL    HW214409   2.613   0.590   2.787
 4504SOL     OW14410   0.124   2.000   2.812
 4504SOL    HW114411   0.195   2.032   2.749
 4504SOL    HW214412   0.124   1.900   2.815
 4505SOL     OW14413   5.980   4.550   4.333
 4505SOL    HW114414   6.050   4.620   4.347
 4505SOL    HW214415   6.023   4.466   4.300
 4506SOL     OW14416   4.853   2.689   4.908
 4506SOL    HW114417   4.811   2.663   4.822
 4506SOL    HW214418   4.830   2.784   4.930
 4507SOL     OW14419   6.510   3.054   3.526
 4507SOL    HW114420   6.527   3.041   3.429
 4507SOL    HW214421   6.579   3.003   3.579
 4508SOL     OW14422   0.719   5.456   0.589
 4508SOL    HW114423   0.630   5.418   0.614
 4508SOL    HW214424   0.784   5.381   0.573
 4509SOL     OW14425   4.703   2.704   2.066
 4509SOL    HW114426   4.703   2.804   2.057
 4509SOL    HW214427   4.706   2.679   2.163
 4510SOL     OW14428   4.365   1.228   3.944
 4510SOL    HW114429   4.368   1.214   3.845
 4510SOL    HW214430   4.390   1.322   3.966
 4511SOL     OW14431   0.191   4.280   0.520
 4511SOL    HW114432   0.100   4.299   0.557
 4511SOL    HW214433   0.232   4.365   0.487
 4512SOL     OW14434   3.175   3.347   5.352
 4512SOL    HW114435   3.077   3.331   5.362
 4512SOL    HW214436   3.207   3.304   5.267
 4513SOL     OW14437   1.003   6.408   0.615
 4513SOL    HW114438   1.008   6.475   0.541
 4513SOL    HW214439   1.090   6.359   0.622
 4514SOL     OW14440   3.284   4.783   6.507
 4514SOL    HW114441   3.309   4.689   6.484
 4514SOL    HW214442   3.257   4.788   6.603
 4515SOL     OW14443   4.674   0.684   6.835
 4515SOL    HW114444   4.773   0.668   6.839
 4515SOL    HW214445   4.640   0.662   6.744
 4516SOL     OW14446   3.394   1.406   5.117
 4516SOL    HW114447   3.409   1.314   5.152
 4516SOL    HW214448   3.429   1.473   5.183
 4517SOL     OW14449   3.918   1.196   5.594
 4517SOL    HW114450   3.850   1.251   5.642
 4517SOL    HW214451   3.938   1.237   5.505
 4518SOL     OW14452   1.468   6.797   0.937
 4518SOL    HW114453   1.506   6.705   0.938
 4518SOL    HW214454   1.402   6.806   0.862
 4519SOL     OW14455   4.705   6.729   6.811
 4519SOL    HW114456   4.663   6.741   6.901
 4519SOL    HW214457   4.687   6.809   6.755
 4520SOL     OW14458   4.374   5.734   4.928
 4520SOL    HW114459   4.327   5.814   4.966
 4520SOL    HW214460   4.344   5.652   4.976
 4521SOL     OW14461   4.213   2.295   4.325
 4521SOL    HW114462   4.144   2.250   4.268
 4521SOL    HW214463   4.251   2.373   4.277
 4522SOL     OW14464   4.976   4.457   3.166
 4522SOL    HW114465   4.932   4.461   3.256
 4522SOL    HW214466   4.909   4.482   3.096
 4523SOL     OW14467   0.235   3.592   5.572
 4523SOL    HW114468   0.317   3.535   5.577
 4523SOL    HW214469   0.258   3.686   5.596
 4524SOL     OW14470   0.853   3.639   3.124
 4524SOL    HW114471   0.825   3.599   3.037
 4524SOL    HW214472   0.915   3.716   3.106
 4525SOL     OW14473   3.057   2.114   5.291
 4525SOL    HW114474   3.013   2.045   5.233
 4525SOL    HW214475   3.081   2.194   5.236
 4526SOL     OW14476   0.682   0.071   5.572
 4526SOL    HW114477   0.644   7.000   5.575
 4526SOL    HW214478   0.618   0.134   5.615
 4527SOL     OW14479   6.234   0.870   3.035
 4527SOL    HW114480   6.333   0.882   3.033
 4527SOL    HW214481   6.213   0.772   3.041
 4528SOL     OW14482   4.510   1.153   5.276
 4528SOL    HW114483   4.553   1.161   5.186
 4528SOL    HW214484   4.466   1.064   5.285
 4529SOL     OW14485   2.121   0.470   3.978
 4529SOL    HW114486   2.204   0.525   3.963
 4529SOL    HW214487   2.052   0.525   4.025
 4530SOL     OW14488   3.331   5.546   6.003
 4530SOL    HW114489   3.301   5.541   6.099
 4530SOL    HW214490   3.352   5.641   5.980
 4531SOL     OW14491   0.718   5.596   5.979
 4531SOL    HW114492   0.734   5.691   5.951
 4531SOL    HW214493   0.686   5.543   5.900
 4532SOL     OW14494   5.916   0.536   2.695
 4532SOL    HW114495   5.994   0.488   2.656
 4532SOL    HW214496   5.948   0.610   2.755
 4533SOL     OW14497   2.895   0.426   1.439
 4533SOL    HW114498   2.801   0.405   1.414
 4533SOL    HW214499   2.900   0.518   1.479
 4534SOL     OW14500   4.709   1.039   3.598
 4534SOL    HW114501   4.635   1.016   3.662
 4534SOL    HW214502   4.793   0.994   3.628
 4535SOL     OW14503   2.359   0.726   0.939
 4535SOL    HW114504   2.376   0.760   0.847
 4535SOL    HW214505   2.446   0.723   0.989
 4536SOL     OW14506   2.777   0.958   5.686
 4536SOL    HW114507   2.825   0.893   5.627
 4536SOL    HW214508   2.840   0.995   5.754
 4537SOL     OW14509   2.871   3.441   3.281
 4537SOL    HW114510   2.772   3.427   3.284
 4537SOL    HW214511   2.905   3.422   3.189
 4538SOL     OW14512   0.317   1.752   0.910
 4538SOL    HW114513   0.301   1.748   1.009
 4538SOL    HW214514   0.407   1.712   0.889
 4539SOL     OW14515   1.451   6.285   5.342
 4539SOL    HW114516   1.361   6.302   5.301
 4539SOL    HW214517   1.467   6.186   5.345
 4540SOL     OW14518   0.863   0.231   0.014
 4540SOL    HW114519   0.906   0.205   0.100
 4540SOL    HW214520   0.785   0.171   7.018
 4541SOL     OW14521   4.360   3.010   5.742
 4541SOL    HW114522   4.267   3.012   5.706
 4541SOL    HW214523   4.419   2.956   5.682
 4542SOL     OW14524   6.681   2.205   0.465
 4542SOL    HW114525   6.702   2.207   0.562
 4542SOL    HW214526   6.727   2.128   0.422
 4543SOL     OW14527   3.738   2.648   0.038
 4543SOL    HW114528   3.725   2.552   0.015
 4543SOL    HW214529   3.834   2.663   0.064
 4544SOL     OW14530   5.248   6.212   0.574
 4544SOL    HW114531   5.283   6.129   0.618
 4544SOL    HW214532   5.225   6.191   0.479
 4545SOL     OW14533   2.210   3.052   4.874
 4545SOL    HW114534   2.115   3.030   4.897
 4545SOL    HW214535   2.264   3.062   4.958
 4546SOL     OW14536   2.979   1.043   5.872
 4546SOL    HW114537   2.938   1.085   5.953
 4546SOL    HW214538   3.070   1.082   5.857
 4547SOL     OW14539   0.057   0.482   0.212
 4547SOL    HW114540   0.039   0.447   0.120
 4547SOL    HW214541   0.002   0.430   0.278
 4548SOL     OW14542   2.389   1.808   3.023
 4548SOL    HW114543   2.485   1.831   3.042
 4548SOL    HW214544   2.377   1.795   2.925
 4549SOL     OW14545   6.872   3.460   4.725
 4549SOL    HW114546   6.887   3.401   4.646
 4549SOL    HW214547   6.790   3.515   4.712
 4550SOL     OW14548   1.774   4.454   3.450
 4550SOL    HW114549   1.815   4.438   3.361
 4550SOL    HW214550   1.708   4.381   3.470
 4551SOL     OW14551   1.410   2.706   5.334
 4551SOL    HW114552   1.429   2.611   5.309
 4551SOL    HW214553   1.403   2.762   5.251
 4552SOL     OW14554   5.730   1.242   0.687
 4552SOL    HW114555   5.707   1.258   0.591
 4552SOL    HW214556   5.652   1.199   0.733
 4553SOL     OW14557   6.604   5.307   6.819
 4553SOL    HW114558   6.693   5.352   6.831
 4553SOL    HW214559   6.613   5.234   6.751
 4554SOL     OW14560   6.711   6.415   3.386
 4554SOL    HW114561   6.798   6.464   3.383
 4554SOL    HW214562   6.638   6.478   3.412
 4555SOL     OW14563   1.644   0.927   0.089
 4555SOL    HW114564   1.645   0.927   7.011
 4555SOL    HW214565   1.556   0.892   0.121
 4556SOL     OW14566   5.682   4.467   5.274
 4556SOL    HW114567   5.735   4.509   5.348
 4556SOL    HW214568   5.615   4.533   5.240
 4557SOL     OW14569   6.789   4.430   3.131
 4557SOL    HW114570   6.720   4.375   3.177
 4557SOL    HW214571   6.823   4.382   3.051
 4558SOL     OW14572   0.653   3.444   5.336
 4558SOL    HW114573   0.634   3.450   5.238
 4558SOL    HW214574   0.629   3.353   5.369
 4559SOL     OW14575   6.722   2.772   3.190
 4559SOL    HW114576   6.701   2.676   3.169
 4559SOL    HW214577   6.814   2.794   3.160
 4560SOL     OW14578   6.270   4.353   2.984
 4560SOL    HW114579   6.313   4.435   3.022
 4560SOL    HW214580   6.187   4.332   3.036
 4561SOL     OW14581   4.020   1.950   4.336
 4561SOL    HW114582   3.938   1.893   4.325
 4561SOL    HW214583   4.102   1.893   4.330
 4562SOL     OW14584   3.490   1.285   1.263
 4562SOL    HW114585   3.512   1.275   1.166
 4562SOL    HW214586   3.447   1.201   1.297
 4563SOL     OW14587   1.015   4.447   1.945
 4563SOL    HW114588   1.043   4.353   1.963
 4563SOL    HW214589   1.097   4.504   1.934
 4564SOL     OW14590   1.573   3.750   2.146
 4564SOL    HW114591   1.615   3.819   2.205
 4564SOL    HW214592   1.502   3.702   2.195
 4565SOL     OW14593   1.923   5.607   5.965
 4565SOL    HW114594   1.881   5.690   6.002
 4565SOL    HW214595   2.020   5.625   5.944
 4566SOL     OW14596   6.191   4.964   2.802
 4566SOL    HW114597   6.107   4.959   2.857
 4566SOL    HW214598   6.262   4.909   2.846
 4567SOL     OW14599   0.154   0.276   6.544
 4567SOL    HW114600   0.217   0.337   6.496
 4567SOL    HW214601   0.181   0.181   6.529
 4568SOL     OW14602   1.616   5.645   3.543
 4568SOL    HW114603   1.624   5.676   3.448
 4568SOL    HW214604   1.560   5.563   3.547
 4569SOL     OW14605   2.111   0.940   3.291
 4569SOL    HW114606   2.028   0.994   3.306
 4569SOL    HW214607   2.088   0.850   3.256
 4570SOL     OW14608   5.718   6.539   1.999
 4570SOL    HW114609   5.690   6.454   2.045
 4570SOL    HW214610   5.685   6.538   1.905
 4571SOL     OW14611   2.965   3.170   6.988
 4571SOL    HW114612   3.037   3.183   6.920
 4571SOL    HW214613   2.884   3.131   6.944
 4572SOL     OW14614   2.899   3.461   1.864
 4572SOL    HW114615   2.910   3.519   1.783
 4572SOL    HW214616   2.831   3.390   1.844
 4573SOL     OW14617   3.025   5.551   1.918
 4573SOL    HW114618   2.938   5.505   1.899
 4573SOL    HW214619   3.053   5.531   2.012
 4574SOL     OW14620   5.274   1.168   1.240
 4574SOL    HW114621   5.256   1.075   1.208
 4574SOL    HW214622   5.215   1.232   1.191
 4575SOL     OW14623   0.345   6.981   5.415
 4575SOL    HW114624   0.317   0.051   5.443
 4575SOL    HW214625   0.390   6.984   5.326
 4576SOL     OW14626   2.909   4.857   5.223
 4576SOL    HW114627   2.875   4.767   5.196
 4576SOL    HW214628   3.003   4.869   5.190
 4577SOL     OW14629   1.348   1.908   2.494
 4577SOL    HW114630   1.275   1.951   2.441
 4577SOL    HW214631   1.434   1.914   2.445
 4578SOL     OW14632   1.897   1.460   2.433
 4578SOL    HW114633   1.908   1.551   2.394
 4578SOL    HW214634   1.940   1.392   2.372
 4579SOL     OW14635   4.845   1.232   2.996
 4579SOL    HW114636   4.777   1.196   2.932
 4579SOL    HW214637   4.935   1.232   2.952
 4580SOL     OW14638   0.057   2.190   0.466
 4580SOL    HW114639   0.024   2.176   0.559
 4580SOL    HW214640   7.016   2.251   0.418
 4581SOL     OW14641   3.447   0.605   0.931
 4581SOL    HW114642   3.424   0.677   0.996
 4581SOL    HW214643   3.404   0.519   0.960
 4582SOL     OW14644   5.801   1.421   3.721
 4582SOL    HW114645   5.820   1.402   3.625
 4582SOL    HW214646   5.799   1.520   3.735
 4583SOL     OW14647   0.929   0.198   6.752
 4583SOL    HW114648   0.909   0.175   6.847
 4583SOL    HW214649   0.935   0.114   6.698
 4584SOL     OW14650   1.318   0.635   4.585
 4584SOL    HW114651   1.233   0.685   4.605
 4584SOL    HW214652   1.330   0.629   4.486
 4585SOL     OW14653   2.109   3.662   3.868
 4585SOL    HW114654   2.131   3.597   3.941
 4585SOL    HW214655   2.054   3.616   3.798
 4586SOL     OW14656   5.748   4.904   6.638
 4586SOL    HW114657   5.660   4.951   6.624
 4586SOL    HW214658   5.747   4.818   6.588
 4587SOL     OW14659   3.067   3.165   4.848
 4587SOL    HW114660   3.159   3.203   4.840
 4587SOL    HW214661   3.063   3.102   4.926
 4588SOL     OW14662   3.038   3.932   6.192
 4588SOL    HW114663   3.085   3.870   6.129
 4588SOL    HW214664   3.025   3.886   6.280
 4589SOL     OW14665   6.520   6.815   3.022
 4589SOL    HW114666   6.576   6.741   2.985
 4589SOL    HW214667   6.545   6.832   3.117
 4590SOL     OW14668   3.184   5.396   0.932
 4590SOL    HW114669   3.090   5.376   0.903
 4590SOL    HW214670   3.244   5.321   0.906
 4591SOL     OW14671   1.998   0.715   5.513
 4591SOL    HW114672   2.062   0.782   5.474
 4591SOL    HW214673   2.037   0.677   5.597
 4592SOL     OW14674   2.022   1.771   3.572
 4592SOL    HW114675   1.926   1.799   3.571
 4592SOL    HW214676   2.042   1.721   3.488
 4593SOL     OW14677   1.712   5.907   4.826
 4593SOL    HW114678   1.661   5.989   4.800
 4593SOL    HW214679   1.725   5.905   4.925
 4594SOL     OW14680   1.705   0.599   3.289
 4594SOL    HW114681   1.674   0.509   3.319
 4594SOL    HW214682   1.656   0.625   3.206
 4595SOL     OW14683   5.605   2.322   6.562
 4595SOL    HW114684   5.522   2.364   6.598
 4595SOL    HW214685   5.669   2.306   6.638
 4596SOL     OW14686   6.982   0.685   2.396
 4596SOL    HW114687   0.038   0.722   2.446
 4596SOL    HW214688   6.926   0.630   2.459
 4597SOL     OW14689   3.161   6.207   6.961
 4597SOL    HW114690   3.074   6.252   6.976
 4597SOL    HW214691   3.230   6.276   6.938
 4598SOL     OW14692   1.846   4.506   0.065
 4598SOL    HW114693   1.836   4.536   0.160
 4598SOL    HW214694   1.770   4.543   0.011
 4599SOL     OW14695   2.215   5.888   2.365
 4599SOL    HW114696   2.302   5.933   2.348
 4599SOL    HW214697   2.198   5.818   2.296
 4600SOL     OW14698   0.146   6.641   5.760
 4600SOL    HW114699   0.242   6.622   5.739
 4600SOL    HW214700   0.133   6.643   5.859
 4601SOL     OW14701   2.156   1.076   4.751
 4601SOL    HW114702   2.156   1.155   4.813
 4601SOL    HW214703   2.076   1.080   4.692
 4602SOL     OW14704   2.833   2.539   6.647
 4602SOL    HW114705   2.765   2.467   6.656
 4602SOL    HW214706   2.918   2.510   6.693
 4603SOL     OW14707   4.912   6.907   0.893
 4603SOL    HW114708   4.917   7.005   0.877
 4603SOL    HW214709   4.846   6.866   0.829
 4604SOL     OW14710   5.880   6.915   5.624
 4604SOL    HW114711   5.797   6.877   5.663
 4604SOL    HW214712   5.863   6.944   5.530
 4605SOL     OW14713   3.615   0.409   1.828
 4605SOL    HW114714   3.559   0.472   1.775
 4605SOL    HW214715   3.644   0.454   1.913
 4606SOL     OW14716   6.474   6.490   4.507
 4606SOL    HW114717   6.537   6.563   4.479
 4606SOL    HW214718   6.427   6.517   4.591
 4607SOL     OW14719   2.166   2.257   1.359
 4607SOL    HW114720   2.182   2.202   1.277
 4607SOL    HW214721   2.090   2.320   1.343
 4608SOL     OW14722   6.632   2.982   4.514
 4608SOL    HW114723   6.679   3.021   4.593
 4608SOL    HW214724   6.562   3.045   4.482
 4609SOL     OW14725   4.356   5.970   6.689
 4609SOL    HW114726   4.260   5.991   6.708
 4609SOL    HW214727   4.387   5.899   6.753
 4610SOL     OW14728   5.361   3.562   6.967
 4610SOL    HW114729   5.458   3.589   6.967
 4610SOL    HW214730   5.351   3.476   7.017
 4611SOL     OW14731   1.005   0.954   6.336
 4611SOL    HW114732   0.914   0.990   6.356
 4611SOL    HW214733   0.997   0.868   6.287
 4612SOL     OW14734   2.159   1.212   1.700
 4612SOL    HW114735   2.079   1.252   1.655
 4612SOL    HW214736   2.167   1.116   1.673
 4613SOL     OW14737   1.651   4.690   1.292
 4613SOL    HW114738   1.638   4.591   1.285
 4613SOL    HW214739   1.663   4.716   1.388
 4614SOL     OW14740   6.637   4.176   4.640
 4614SOL    HW114741   6.607   4.096   4.589
 4614SOL    HW214742   6.668   4.148   4.731
 4615SOL     OW14743   1.247   3.017   7.008
 4615SOL    HW114744   1.315   2.950   0.016
 4615SOL    HW214745   1.292   3.090   6.957
 4616SOL     OW14746   6.257   2.693   6.513
 4616SOL    HW114747   6.253   2.597   6.486
 4616SOL    HW214748   6.340   2.708   6.567
 4617SOL     OW14749   6.971   2.921   3.244
 4617SOL    HW114750   7.020   2.980   3.179
 4617SOL    HW214751   6.885   2.965   3.269
 4618SOL     OW14752   1.853   4.348   5.738
 4618SOL    HW114753   1.802   4.424   5.778
 4618SOL    HW214754   1.803   4.262   5.751
 4619SOL     OW14755   4.386   6.104   6.224
 4619SOL    HW114756   4.367   6.048   6.304
 4619SOL    HW214757   4.355   6.056   6.142
 4620SOL     OW14758   0.610   4.593   2.066
 4620SOL    HW114759   0.625   4.513   2.124
 4620SOL    HW214760   0.673   4.666   2.093
 4621SOL     OW14761   3.845   0.193   2.911
 4621SOL    HW114762   3.893   0.273   2.876
 4621SOL    HW214763   3.786   0.155   2.840
 4622SOL     OW14764   5.533   6.122   1.964
 4622SOL    HW114765   5.441   6.094   1.939
 4622SOL    HW214766   5.533   6.220   1.985
 4623SOL     OW14767   2.555   5.320   1.078
 4623SOL    HW114768   2.635   5.371   1.108
 4623SOL    HW214769   2.563   5.225   1.108
 4624SOL     OW14770   4.427   1.030   2.058
 4624SOL    HW114771   4.471   1.041   1.970
 4624SOL    HW214772   4.489   1.061   2.131
 4625SOL     OW14773   1.537   6.208   1.798
 4625SOL    HW114774   1.548   6.131   1.735
 4625SOL    HW214775   1.442   6.240   1.796
 4626SOL     OW14776   4.548   3.865   1.709
 4626SOL    HW114777   4.452   3.872   1.733
 4626SOL    HW214778   4.596   3.948   1.739
 4627SOL     OW14779   5.667   0.291   4.989
 4627SOL    HW114780   5.696   0.378   5.029
 4627SOL    HW214781   5.640   0.228   5.062
 4628SOL     OW14782   5.669   4.884   4.378
 4628SOL    HW114783   5.589   4.915   4.430
 4628SOL    HW214784   5.645   4.873   4.282
 4629SOL     OW14785   2.614   6.155   6.718
 4629SOL    HW114786   2.559   6.221   6.770
 4629SOL    HW214787   2.665   6.096   6.781
 4630SOL     OW14788   2.144   3.219   2.147
 4630SOL    HW114789   2.051   3.231   2.112
 4630SOL    HW214790   2.206   3.279   2.096
 4631SOL     OW14791   0.053   0.758   3.339
 4631SOL    HW114792   0.077   0.714   3.252
 4631SOL    HW214793   0.133   0.756   3.400
 4632SOL     OW14794   3.555   4.953   2.404
 4632SOL    HW114795   3.608   4.925   2.324
 4632SOL    HW214796   3.604   4.926   2.487
 4633SOL     OW14797   5.165   1.184   4.334
 4633SOL    HW114798   5.201   1.138   4.415
 4633SOL    HW214799   5.229   1.254   4.303
 4634SOL     OW14800   2.921   3.871   4.849
 4634SOL    HW114801   2.863   3.936   4.899
 4634SOL    HW214802   2.882   3.779   4.855
 4635SOL     OW14803   5.042   6.343   1.824
 4635SOL    HW114804   5.013   6.255   1.862
 4635SOL    HW214805   5.113   6.382   1.882
 4636SOL     OW14806   1.982   5.485   0.480
 4636SOL    HW114807   2.038   5.433   0.545
 4636SOL    HW214808   1.979   5.581   0.507
 4637SOL     OW14809   2.885   1.061   3.102
 4637SOL    HW114810   2.940   0.983   3.074
 4637SOL    HW214811   2.943   1.142   3.112
 4638SOL     OW14812   3.488   5.085   0.517
 4638SOL    HW114813   3.468   5.179   0.490
 4638SOL    HW214814   3.556   5.085   0.590
 4639SOL     OW14815   3.374   2.213   1.198
 4639SOL    HW114816   3.468   2.185   1.179
 4639SOL    HW214817   3.369   2.312   1.208
 4640SOL     OW14818   6.399   2.512   6.864
 4640SOL    HW114819   6.306   2.548   6.876
 4640SOL    HW214820   6.433   2.479   6.952
 4641SOL     OW14821   1.312   5.972   4.090
 4641SOL    HW114822   1.318   5.890   4.147
 4641SOL    HW214823   1.228   5.969   4.036
 4642SOL     OW14824   7.019   1.643   3.534
 4642SOL    HW114825   0.041   1.555   3.516
 4642SOL    HW214826   0.056   1.717   3.502
 4643SOL     OW14827   0.394   1.678   0.464
 4643SOL    HW114828   0.381   1.765   0.511
 4643SOL    HW214829   0.306   1.631   0.456
 4644SOL     OW14830   0.986   0.782   0.167
 4644SOL    HW114831   0.929   0.762   0.246
 4644SOL    HW214832   1.034   0.869   0.181
 4645SOL     OW14833   0.635   1.958   4.124
 4645SOL    HW114834   0.622   1.871   4.076
 4645SOL    HW214835   0.715   1.951   4.184
 4646SOL     OW14836   1.896   5.209   3.894
 4646SOL    HW114837   1.825   5.138   3.892
 4646SOL    HW214838   1.895   5.254   3.983
 4647SOL     OW14839   1.207   6.121   2.107
 4647SOL    HW114840   1.191   6.188   2.035
 4647SOL    HW214841   1.301   6.087   2.101
 4648SOL     OW14842   2.814   1.792   4.702
 4648SOL    HW114843   2.734   1.851   4.712
 4648SOL    HW214844   2.787   1.704   4.664
 4649SOL     OW14845   6.689   0.987   6.819
 4649SOL    HW114846   6.694   1.053   6.894
 4649SOL    HW214847   6.598   0.946   6.816
 4650SOL     OW14848   5.510   5.726   1.726
 4650SOL    HW114849   5.563   5.705   1.808
 4650SOL    HW214850   5.440   5.655   1.713
 4651SOL     OW14851   6.882   3.321   6.498
 4651SOL    HW114852   6.809   3.285   6.441
 4651SOL    HW214853   6.844   3.358   6.583
 4652SOL     OW14854   0.240   6.695   4.881
 4652SOL    HW114855   0.162   6.667   4.937
 4652SOL    HW214856   0.301   6.753   4.935
 4653SOL     OW14857   5.550   5.632   0.780
 4653SOL    HW114858   5.539   5.566   0.855
 4653SOL    HW214859   5.482   5.614   0.710
 4654SOL     OW14860   0.971   0.209   5.383
 4654SOL    HW114861   1.054   0.258   5.358
 4654SOL    HW214862   0.896   0.240   5.325
 4655SOL     OW14863   4.689   2.636   1.245
 4655SOL    HW114864   4.759   2.583   1.293
 4655SOL    HW214865   4.617   2.662   1.309
 4656SOL     OW14866   0.934   1.099   1.642
 4656SOL    HW114867   0.915   1.051   1.727
 4656SOL    HW214868   1.011   1.056   1.595
 4657SOL     OW14869   5.034   0.391   2.169
 4657SOL    HW114870   5.123   0.379   2.126
 4657SOL    HW214871   4.971   0.322   2.134
 4658SOL     OW14872   1.468   2.936   5.854
 4658SOL    HW114873   1.475   3.022   5.905
 4658SOL    HW214874   1.395   2.880   5.894
 4659SOL     OW14875   2.243   4.571   0.160
 4659SOL    HW114876   2.336   4.536   0.146
 4659SOL    HW214877   2.206   4.602   0.073
 4660SOL     OW14878   1.124   6.431   4.186
 4660SOL    HW114879   1.136   6.484   4.270
 4660SOL    HW214880   1.212   6.398   4.155
 4661SOL     OW14881   0.727   2.412   5.690
 4661SOL    HW114882   0.825   2.408   5.670
 4661SOL    HW214883   0.687   2.321   5.680
 4662SOL     OW14884   2.486   6.522   5.367
 4662SOL    HW114885   2.508   6.619   5.375
 4662SOL    HW214886   2.387   6.511   5.356
 4663SOL     OW14887   1.629   0.251   0.063
 4663SOL    HW114888   1.657   0.164   0.022
 4663SOL    HW214889   1.542   0.280   0.023
 4664SOL     OW14890   6.956   6.722   6.897
 4664SOL    HW114891   6.994   6.812   6.875
 4664SOL    HW214892   6.873   6.734   6.953
 4665SOL     OW14893   2.016   0.193   4.543
 4665SOL    HW114894   1.921   0.181   4.514
 4665SOL    HW214895   2.075   0.128   4.495
 4666SOL     OW14896   2.710   1.642   5.090
 4666SOL    HW114897   2.796   1.691   5.072
 4666SOL    HW214898   2.634   1.706   5.087
 4667SOL     OW14899   6.793   3.892   1.262
 4667SOL    HW114900   6.792   3.802   1.219
 4667SOL    HW214901   6.876   3.941   1.235
 4668SOL     OW14902   4.215   2.311   3.988
 4668SOL    HW114903   4.135   2.296   4.046
 4668SOL    HW214904   4.189   2.298   3.892
 4669SOL     OW14905   5.662   6.740   6.964
 4669SOL    HW114906   5.646   6.657   7.018
 4669SOL    HW214907   5.692   6.814   0.002
 4670SOL     OW14908   0.402   2.684   0.613
 4670SOL    HW114909   0.477   2.707   0.552
 4670SOL    HW214910   0.333   2.756   0.611
 4671SOL     OW14911   0.861   3.712   0.703
 4671SOL    HW114912   0.878   3.748   0.612
 4671SOL    HW214913   0.763   3.719   0.724
 4672SOL     OW14914   2.359   4.046   6.737
 4672SOL    HW114915   2.445   4.058   6.786
 4672SOL    HW214916   2.347   4.122   6.672
 4673SOL     OW14917   5.846   0.583   6.974
 4673SOL    HW114918   5.827   0.638   0.033
 4673SOL    HW214919   5.933   0.535   6.986
 4674SOL     OW14920   1.124   2.119   1.275
 4674SOL    HW114921   1.085   2.037   1.234
 4674SOL    HW214922   1.193   2.158   1.214
 4675SOL     OW14923   2.361   6.088   0.249
 4675SOL    HW114924   2.292   6.015   0.244
 4675SOL    HW214925   2.340   6.147   0.327
 4676SOL     OW14926   0.417   6.045   4.001
 4676SOL    HW114927   0.440   6.004   3.913
 4676SOL    HW214928   0.461   6.134   4.010
 4677SOL     OW14929   4.255   0.115   6.528
 4677SOL    HW114930   4.339   0.169   6.523
 4677SOL    HW214931   4.213   0.126   6.618
 4678SOL     OW14932   2.283   4.745   6.585
 4678SOL    HW114933   2.218   4.816   6.558
 4678SOL    HW214934   2.252   4.656   6.552
 4679SOL     OW14935   3.004   0.813   5.523
 4679SOL    HW114936   2.987   0.718   5.551
 4679SOL    HW214937   2.973   0.826   5.429
 4680SOL     OW14938   1.856   4.816   0.529
 4680SOL    HW114939   1.845   4.834   0.626
 4680SOL    HW214940   1.853   4.903   0.478
 4681SOL     OW14941   0.705   5.700   4.878
 4681SOL    HW114942   0.778   5.749   4.829
 4681SOL    HW214943   0.664   5.761   4.946
 4682SOL     OW14944   4.569   6.778   0.930
 4682SOL    HW114945   4.634   6.804   1.001
 4682SOL    HW214946   4.482   6.826   0.945
 4683SOL     OW14947   6.698   4.115   3.831
 4683SOL    HW114948   6.605   4.129   3.798
 4683SOL    HW214949   6.705   4.148   3.924
 4684SOL     OW14950   1.428   1.017   4.287
 4684SOL    HW114951   1.387   1.095   4.333
 4684SOL    HW214952   1.357   0.963   4.242
 4685SOL     OW14953   5.096   4.948   5.147
 4685SOL    HW114954   5.115   4.875   5.212
 4685SOL    HW214955   5.107   4.914   5.054
 4686SOL     OW14956   4.176   5.710   0.539
 4686SOL    HW114957   4.100   5.664   0.494
 4686SOL    HW214958   4.263   5.674   0.504
 4687SOL     OW14959   5.808   6.207   4.701
 4687SOL    HW114960   5.890   6.203   4.643
 4687SOL    HW214961   5.779   6.302   4.711
 4688SOL     OW14962   0.427   2.054   6.356
 4688SOL    HW114963   0.460   2.003   6.276
 4688SOL    HW214964   0.366   1.995   6.409
 4689SOL     OW14965   1.253   5.461   5.307
 4689SOL    HW114966   1.300   5.430   5.224
 4689SOL    HW214967   1.313   5.522   5.358
 4690SOL     OW14968   1.711   2.333   0.089
 4690SOL    HW114969   1.755   2.250   0.054
 4690SOL    HW214970   1.740   2.411   0.033
 4691SOL     OW14971   2.808   5.074   0.945
 4691SOL    HW114972   2.854   5.161   0.925
 4691SOL    HW214973   2.725   5.092   0.998
 4692SOL     OW14974   0.494   5.099   3.297
 4692SOL    HW114975   0.448   5.037   3.360
 4692SOL    HW214976   0.429   5.131   3.228
 4693SOL     OW14977   0.361   1.715   3.503
 4693SOL    HW114978   0.407   1.702   3.415
 4693SOL    HW214979   0.401   1.653   3.570
 4694SOL     OW14980   1.094   1.803   6.456
 4694SOL    HW114981   1.072   1.812   6.553
 4694SOL    HW214982   1.163   1.732   6.444
 4695SOL     OW14983   3.372   3.068   2.159
 4695SOL    HW114984   3.367   3.146   2.221
 4695SOL    HW214985   3.280   3.043   2.130
 4696SOL     OW14986   0.142   3.371   0.131
 4696SOL    HW114987   0.091   3.433   0.072
 4696SOL    HW214988   0.175   3.293   0.077
 4697SOL     OW14989   0.896   4.941   0.039
 4697SOL    HW114990   0.928   4.852   0.071
 4697SOL    HW214991   0.910   5.010   0.110
 4698SOL     OW14992   5.536   2.968   1.046
 4698SOL    HW114993   5.580   2.990   0.959
 4698SOL    HW214994   5.459   3.031   1.061
 4699SOL     OW14995   6.976   0.515   3.677
 4699SOL    HW114996   6.929   0.569   3.607
 4699SOL    HW214997   7.006   0.574   3.751
 4700SOL     OW14998   4.927   0.776   1.177
 4700SOL    HW114999   4.974   0.716   1.242
 4700SOL    HW215000   4.839   0.804   1.216
 4701SOL     OW15001   0.972   0.879   0.933
 4701SOL    HW115002   1.067   0.894   0.908
 4701SOL    HW215003   0.967   0.844   1.026
 4702SOL     OW15004   3.565   4.251   0.030
 4702SOL    HW115005   3.523   4.187   0.093
 4702SOL    HW215006   3.525   4.241   6.961
 4703SOL     OW15007   2.129   0.675   1.746
 4703SOL    HW115008   2.054   0.695   1.810
 4703SOL    HW215009   2.099   0.605   1.681
 4704SOL     OW15010   5.071   6.546   0.780
 4704SOL    HW115011   5.017   6.614   0.731
 4704SOL    HW215012   5.059   6.558   0.879
 4705SOL     OW15013   3.260   3.661   4.528
 4705SOL    HW115014   3.303   3.594   4.467
 4705SOL    HW215015   3.331   3.710   4.578
 4706SOL     OW15016   4.126   5.961   1.038
 4706SOL    HW115017   4.136   5.861   1.036
 4706SOL    HW215018   4.098   5.990   1.129
 4707SOL     OW15019   2.257   5.942   0.994
 4707SOL    HW115020   2.319   5.864   0.998
 4707SOL    HW215021   2.295   6.011   0.933
 4708SOL     OW15022   2.516   2.597   1.925
 4708SOL    HW115023   2.473   2.636   2.007
 4708SOL    HW215024   2.565   2.514   1.950
 4709SOL     OW15025   3.956   4.731   5.999
 4709SOL    HW115026   3.979   4.711   6.094
 4709SOL    HW215027   3.941   4.829   5.988
 4710SOL     OW15028   5.517   1.546   0.705
 4710SOL    HW115029   5.459   1.532   0.625
 4710SOL    HW215030   5.520   1.461   0.759
 4711SOL     OW15031   3.406   0.414   2.358
 4711SOL    HW115032   3.351   0.344   2.403
 4711SOL    HW215033   3.470   0.370   2.294
 4712SOL     OW15034   1.785   4.609   0.354
 4712SOL    HW115035   1.694   4.630   0.318
 4712SOL    HW215036   1.812   4.677   0.421
 4713SOL     OW15037   2.097   5.696   0.884
 4713SOL    HW115038   2.181   5.642   0.871
 4713SOL    HW215039   2.096   5.771   0.818
 4714SOL     OW15040   3.472   2.510   1.188
 4714SOL    HW115041   3.563   2.542   1.160
 4714SOL    HW215042   3.403   2.572   1.152
 4715SOL     OW15043   6.979   3.667   3.449
 4715SOL    HW115044   6.903   3.617   3.491
 4715SOL    HW215045   0.043   3.633   3.485
 4716SOL     OW15046   3.131   5.947   0.658
 4716SOL    HW115047   3.162   5.854   0.674
 4716SOL    HW215048   3.035   5.955   0.685
 4717SOL     OW15049   1.798   5.819   3.994
 4717SOL    HW115050   1.811   5.736   4.048
 4717SOL    HW215051   1.877   5.832   3.934
 4718SOL     OW15052   5.785   1.088   6.330
 4718SOL    HW115053   5.781   1.006   6.387
 4718SOL    HW215054   5.736   1.071   6.245
 4719SOL     OW15055   4.405   2.564   1.009
 4719SOL    HW115056   4.422   2.660   1.034
 4719SOL    HW215057   4.378   2.559   0.913
 4720SOL     OW15058   2.917   1.156   4.758
 4720SOL    HW115059   2.843   1.180   4.820
 4720SOL    HW215060   2.892   1.075   4.705
 4721SOL     OW15061   1.401   2.380   1.648
 4721SOL    HW115062   1.372   2.402   1.555
 4721SOL    HW215063   1.464   2.302   1.646
 4722SOL     OW15064   2.005   0.152   0.694
 4722SOL    HW115065   1.940   0.199   0.754
 4722SOL    HW215066   2.039   0.070   0.740
 4723SOL     OW15067   2.632   6.740   6.565
 4723SOL    HW115068   2.546   6.703   6.529
 4723SOL    HW215069   2.654   6.825   6.518
 4724SOL     OW15070   4.994   5.844   1.689
 4724SOL    HW115071   4.993   5.908   1.766
 4724SOL    HW215072   5.045   5.762   1.715
 4725SOL     OW15073   5.565   5.868   3.272
 4725SOL    HW115074   5.502   5.790   3.283
 4725SOL    HW215075   5.649   5.849   3.321
 4726SOL     OW15076   0.659   4.943   6.943
 4726SOL    HW115077   0.583   4.917   7.003
 4726SOL    HW215078   0.746   4.932   6.993
 4727SOL     OW15079   0.047   6.463   6.978
 4727SOL    HW115080   0.037   6.368   6.949
 4727SOL    HW215081   6.993   6.518   6.942
 4728SOL     OW15082   0.090   0.879   0.327
 4728SOL    HW115083   0.183   0.874   0.362
 4728SOL    HW215084   0.090   0.922   0.236
 4729SOL     OW15085   3.389   0.489   1.382
 4729SOL    HW115086   3.378   0.418   1.452
 4729SOL    HW215087   3.484   0.492   1.352
 4730SOL     OW15088   1.860   0.128   5.606
 4730SOL    HW115089   1.820   0.169   5.524
 4730SOL    HW215090   1.796   0.063   5.646
 4731SOL     OW15091   5.541   1.499   6.014
 4731SOL    HW115092   5.500   1.472   5.927
 4731SOL    HW215093   5.491   1.577   6.051
 4732SOL     OW15094   0.289   1.881   0.640
 4732SOL    HW115095   0.311   1.813   0.710
 4732SOL    HW215096   0.190   1.893   0.635
 4733SOL     OW15097   6.892   3.104   3.818
 4733SOL    HW115098   6.981   3.101   3.772
 4733SOL    HW215099   6.904   3.077   3.914
 4734SOL     OW15100   4.169   4.694   6.666
 4734SOL    HW115101   4.149   4.768   6.602
 4734SOL    HW215102   4.089   4.635   6.675
 4735SOL     OW15103   1.029   5.250   3.256
 4735SOL    HW115104   1.108   5.212   3.304
 4735SOL    HW215105   1.016   5.201   3.170
 4736SOL     OW15106   1.319   0.601   0.748
 4736SOL    HW115107   1.220   0.586   0.745
 4736SOL    HW215108   1.340   0.689   0.707
 4737SOL     OW15109   2.522   5.561   1.918
 4737SOL    HW115110   2.466   5.479   1.926
 4737SOL    HW215111   2.464   5.643   1.925
 4738SOL     OW15112   0.164   6.470   2.705
 4738SOL    HW115113   0.083   6.446   2.758
 4738SOL    HW215114   0.236   6.403   2.723
 4739SOL     OW15115   4.683   0.397   1.245
 4739SOL    HW115116   4.600   0.453   1.252
 4739SOL    HW215117   4.734   0.424   1.163
 4740SOL     OW15118   0.612   2.163   3.248
 4740SOL    HW115119   0.513   2.182   3.243
 4740SOL    HW215120   0.660   2.246   3.277
 4741SOL     OW15121   3.834   3.849   1.476
 4741SOL    HW115122   3.885   3.877   1.558
 4741SOL    HW215123   3.895   3.851   1.397
 4742SOL     OW15124   2.966   6.735   0.530
 4742SOL    HW115125   3.013   6.730   0.441
 4742SOL    HW215126   3.034   6.744   0.603
 4743SOL     OW15127   2.259   5.079   1.357
 4743SOL    HW115128   2.258   5.179   1.362
 4743SOL    HW215129   2.178   5.043   1.405
 4744SOL     OW15130   2.429   5.732   0.904
 4744SOL    HW115131   2.473   5.757   0.818
 4744SOL    HW215132   2.387   5.642   0.895
 4745SOL     OW15133   1.236   4.467   6.860
 4745SOL    HW115134   1.212   4.391   6.799
 4745SOL    HW215135   1.269   4.430   6.947
 4746SOL     OW15136   4.793   5.634   4.230
 4746SOL    HW115137   4.773   5.568   4.158
 4746SOL    HW215138   4.708   5.657   4.278
 4747SOL     OW15139   1.469   2.045   0.126
 4747SOL    HW115140   1.541   2.073   0.189
 4747SOL    HW215141   1.387   2.100   0.142
 4748SOL     OW15142   1.947   6.744   2.847
 4748SOL    HW115143   1.854   6.779   2.844
 4748SOL    HW215144   1.986   6.759   2.938
 4749SOL     OW15145   1.978   1.257   6.584
 4749SOL    HW115146   2.010   1.277   6.492
 4749SOL    HW215147   1.878   1.249   6.583
 4750SOL     OW15148   5.061   2.641   5.339
 4750SOL    HW115149   5.074   2.624   5.437
 4750SOL    HW215150   5.029   2.735   5.326
 4751SOL     OW15151   4.372   0.661   3.397
 4751SOL    HW115152   4.316   0.728   3.446
 4751SOL    HW215153   4.379   0.687   3.301
 4752SOL     OW15154   4.657   1.721   0.136
 4752SOL    HW115155   4.623   1.638   0.090
 4752SOL    HW215156   4.730   1.761   0.081
 4753SOL     OW15157   3.387   6.301   5.331
 4753SOL    HW115158   3.289   6.316   5.323
 4753SOL    HW215159   3.413   6.297   5.428
 4754SOL     OW15160   4.786   4.880   6.608
 4754SOL    HW115161   4.721   4.818   6.651
 4754SOL    HW215162   4.764   4.891   6.512
 4755SOL     OW15163   1.412   0.790   1.447
 4755SOL    HW115164   1.346   0.745   1.508
 4755SOL    HW215165   1.503   0.786   1.489
 4756SOL     OW15166   6.220   4.159   6.655
 4756SOL    HW115167   6.224   4.059   6.666
 4756SOL    HW215168   6.281   4.187   6.580
 4757SOL     OW15169   1.850   3.880   1.298
 4757SOL    HW115170   1.796   3.827   1.234
 4757SOL    HW215171   1.793   3.951   1.339
 4758SOL     OW15172   3.012   6.109   3.229
 4758SOL    HW115173   2.963   6.036   3.182
 4758SOL    HW215174   2.985   6.198   3.190
 4759SOL     OW15175   0.701   5.655   1.576
 4759SOL    HW115176   0.733   5.586   1.641
 4759SOL    HW215177   0.731   5.631   1.484
 4760SOL     OW15178   1.407   6.176   1.151
 4760SOL    HW115179   1.338   6.240   1.183
 4760SOL    HW215180   1.386   6.084   1.185
 4761SOL     OW15181   6.450   6.102   1.660
 4761SOL    HW115182   6.445   6.003   1.677
 4761SOL    HW215183   6.478   6.149   1.743
 4762SOL     OW15184   1.711   0.551   2.088
 4762SOL    HW115185   1.726   0.463   2.041
 4762SOL    HW215186   1.615   0.577   2.080
 4763SOL     OW15187   5.694   4.557   1.633
 4763SOL    HW115188   5.624   4.571   1.703
 4763SOL    HW215189   5.783   4.588   1.667
 4764SOL     OW15190   4.655   2.891   0.352
 4764SOL    HW115191   4.592   2.908   0.427
 4764SOL    HW215192   4.740   2.942   0.367
 4765SOL     OW15193   3.954   1.486   4.242
 4765SOL    HW115194   3.940   1.450   4.334
 4765SOL    HW215195   4.047   1.463   4.211
 4766SOL     OW15196   0.576   0.180   4.000
 4766SOL    HW115197   0.640   0.253   4.025
 4766SOL    HW215198   0.554   0.186   3.903
 4767SOL     OW15199   2.036   4.564   3.561
 4767SOL    HW115200   2.093   4.623   3.503
 4767SOL    HW215201   1.981   4.504   3.503
 4768SOL     OW15202   4.286   2.851   6.780
 4768SOL    HW115203   4.248   2.794   6.853
 4768SOL    HW215204   4.322   2.936   6.819
 4769SOL     OW15205   2.458   4.609   0.609
 4769SOL    HW115206   2.387   4.660   0.658
 4769SOL    HW215207   2.415   4.554   0.537
 4770SOL     OW15208   0.672   1.504   5.407
 4770SOL    HW115209   0.595   1.480   5.466
 4770SOL    HW215210   0.758   1.492   5.457
 4771SOL     OW15211   1.655   6.882   4.911
 4771SOL    HW115212   1.692   6.909   4.822
 4771SOL    HW215213   1.606   6.959   4.951
 4772SOL     OW15214   3.083   5.122   2.063
 4772SOL    HW115215   3.079   5.154   2.157
 4772SOL    HW215216   3.079   5.022   2.061
 4773SOL     OW15217   2.026   5.230   4.795
 4773SOL    HW115218   2.070   5.186   4.873
 4773SOL    HW215219   1.930   5.203   4.791
 4774SOL     OW15220   1.276   4.350   0.087
 4774SOL    HW115221   1.271   4.258   0.048
 4774SOL    HW215222   1.323   4.346   0.175
 4775SOL     OW15223   6.277   6.409   5.130
 4775SOL    HW115224   6.356   6.432   5.187
 4775SOL    HW215225   6.293   6.323   5.082
 4776SOL     OW15226   0.006   1.144   6.346
 4776SOL    HW115227   6.954   1.174   6.407
 4776SOL    HW215228   0.041   1.223   6.296
 4777SOL     OW15229   1.307   0.128   2.328
 4777SOL    HW115230   1.232   0.132   2.262
 4777SOL    HW215231   1.379   0.068   2.293
 4778SOL     OW15232   1.680   1.266   6.540
 4778SOL    HW115233   1.688   1.321   6.457
 4778SOL    HW215234   1.628   1.318   6.608
 4779SOL     OW15235   5.560   0.481   4.451
 4779SOL    HW115236   5.550   0.390   4.411
 4779SOL    HW215237   5.469   0.516   4.476
 4780SOL     OW15238   6.155   2.842   4.971
 4780SOL    HW115239   6.209   2.841   4.887
 4780SOL    HW215240   6.216   2.830   5.050
 4781SOL     OW15241   2.050   5.663   2.206
 4781SOL    HW115242   2.129   5.607   2.181
 4781SOL    HW215243   1.986   5.609   2.261
 4782SOL     OW15244   6.723   6.882   4.030
 4782SOL    HW115245   6.713   6.799   3.975
 4782SOL    HW215246   6.683   6.960   3.982
 4783SOL     OW15247   6.275   3.594   6.595
 4783SOL    HW115248   6.194   3.652   6.588
 4783SOL    HW215249   6.301   3.562   6.505
 4784SOL     OW15250   5.265   3.123   6.910
 4784SOL    HW115251   5.181   3.107   6.962
 4784SOL    HW215252   5.315   3.200   6.949
 4785SOL     OW15253   0.045   6.872   4.281
 4785SOL    HW115254   0.087   6.828   4.202
 4785SOL    HW215255   0.087   6.838   4.365
 4786SOL     OW15256   1.771   5.281   0.453
 4786SOL    HW115257   1.813   5.370   0.438
 4786SOL    HW215258   1.690   5.272   0.395
 4787SOL     OW15259   3.430   1.644   3.824
 4787SOL    HW115260   3.489   1.563   3.824
 4787SOL    HW215261   3.416   1.674   3.918
 4788SOL     OW15262   6.206   6.261   0.370
 4788SOL    HW115263   6.263   6.249   0.450
 4788SOL    HW215264   6.110   6.265   0.398
 4789SOL     OW15265   5.870   1.181   2.689
 4789SOL    HW115266   5.917   1.111   2.744
 4789SOL    HW215267   5.890   1.271   2.726
 4790SOL     OW15268   6.530   2.050   4.925
 4790SOL    HW115269   6.573   2.119   4.866
 4790SOL    HW215270   6.495   2.095   5.008
 4791SOL     OW15271   0.278   0.424   0.736
 4791SOL    HW115272   0.377   0.437   0.747
 4791SOL    HW215273   0.249   0.468   0.650
 4792SOL     OW15274   2.071   3.179   2.767
 4792SOL    HW115275   2.015   3.258   2.795
 4792SOL    HW215276   2.099   3.191   2.672
 4793SOL     OW15277   0.932   3.515   5.712
 4793SOL    HW115278   1.032   3.526   5.710
 4793SOL    HW215279   0.889   3.598   5.679
 4794SOL     OW15280   4.411   1.440   4.535
 4794SOL    HW115281   4.399   1.361   4.475
 4794SOL    HW215282   4.494   1.489   4.509
 4795SOL     OW15283   0.022   0.691   6.156
 4795SOL    HW115284   0.086   0.643   6.217
 4795SOL    HW215285   6.951   0.673   6.186
 4796SOL     OW15286   4.330   0.927   5.269
 4796SOL    HW115287   4.275   0.950   5.349
 4796SOL    HW215288   4.355   0.830   5.273
 4797SOL     OW15289   1.010   5.153   5.208
 4797SOL    HW115290   0.964   5.180   5.123
 4797SOL    HW215291   1.082   5.219   5.229
 4798SOL     OW15292   4.263   5.140   6.651
 4798SOL    HW115293   4.269   5.201   6.729
 4798SOL    HW215294   4.232   5.050   6.682
 4799SOL     OW15295   3.297   2.833   0.067
 4799SOL    HW115296   3.271   2.739   0.089
 4799SOL    HW215297   3.395   2.845   0.085
 4800SOL     OW15298   1.109   4.162   0.422
 4800SOL    HW115299   1.170   4.233   0.458
 4800SOL    HW215300   1.161   4.077   0.410
 4801SOL     OW15301   5.593   2.556   1.916
 4801SOL    HW115302   5.525   2.492   1.952
 4801SOL    HW215303   5.549   2.645   1.901
 4802SOL     OW15304   6.191   0.430   4.307
 4802SOL    HW115305   6.251   0.469   4.236
 4802SOL    HW215306   6.241   0.360   4.358
 4803SOL     OW15307   5.359   4.155   6.128
 4803SOL    HW115308   5.330   4.169   6.033
 4803SOL    HW215309   5.325   4.067   6.160
 4804SOL     OW15310   4.600   1.269   1.162
 4804SOL    HW115311   4.592   1.369   1.158
 4804SOL    HW215312   4.511   1.228   1.139
 4805SOL     OW15313   6.782   0.730   6.766
 4805SOL    HW115314   6.799   0.737   6.667
 4805SOL    HW215315   6.781   0.822   6.806
 4806SOL     OW15316   1.094   1.387   3.190
 4806SOL    HW115317   1.131   1.314   3.132
 4806SOL    HW215318   1.161   1.412   3.259
 4807SOL     OW15319   0.613   3.321   5.759
 4807SOL    HW115320   0.639   3.231   5.794
 4807SOL    HW215321   0.695   3.375   5.739
 4808SOL     OW15322   3.841   5.832   1.292
 4808SOL    HW115323   3.902   5.753   1.288
 4808SOL    HW215324   3.765   5.813   1.353
 4809SOL     OW15325   3.509   4.157   1.306
 4809SOL    HW115326   3.438   4.100   1.347
 4809SOL    HW215327   3.496   4.252   1.333
 4810SOL     OW15328   0.503   4.844   3.970
 4810SOL    HW115329   0.441   4.902   3.916
 4810SOL    HW215330   0.533   4.894   4.051
 4811SOL     OW15331   3.390   4.124   4.034
 4811SOL    HW115332   3.468   4.065   4.014
 4811SOL    HW215333   3.306   4.070   4.028
 4812SOL     OW15334   1.215   0.249   2.543
 4812SOL    HW115335   1.265   0.210   2.465
 4812SOL    HW215336   1.144   0.311   2.509
 4813SOL     OW15337   6.354   1.189   5.774
 4813SOL    HW115338   6.380   1.270   5.826
 4813SOL    HW215339   6.331   1.215   5.680
 4814SOL     OW15340   6.211   4.171   1.621
 4814SOL    HW115341   6.258   4.083   1.620
 4814SOL    HW215342   6.210   4.209   1.529
 4815SOL     OW15343   5.973   4.956   1.748
 4815SOL    HW115344   5.943   4.872   1.703
 4815SOL    HW215345   5.917   5.033   1.717
 4816SOL     OW15346   2.091   1.342   2.611
 4816SOL    HW115347   2.057   1.323   2.703
 4816SOL    HW215348   2.024   1.398   2.561
 4817SOL     OW15349   3.872   2.460   0.596
 4817SOL    HW115350   3.967   2.468   0.564
 4817SOL    HW215351   3.845   2.363   0.594
 4818SOL     OW15352   3.938   0.677   5.377
 4818SOL    HW115353   3.917   0.772   5.400
 4818SOL    HW215354   3.945   0.624   5.462
 4819SOL     OW15355   3.309   0.359   1.053
 4819SOL    HW115356   3.244   0.385   1.124
 4819SOL    HW215357   3.402   0.360   1.090
 4820SOL     OW15358   5.985   4.093   1.795
 4820SOL    HW115359   6.002   3.995   1.803
 4820SOL    HW215360   6.052   4.133   1.733
 4821SOL     OW15361   0.052   4.823   1.285
 4821SOL    HW115362   0.120   4.892   1.312
 4821SOL    HW215363   6.992   4.869   1.253
 4822SOL     OW15364   1.654   4.029   2.786
 4822SOL    HW115365   1.667   4.120   2.824
 4822SOL    HW215366   1.687   3.960   2.851
 4823SOL     OW15367   1.360   1.245   4.456
 4823SOL    HW115368   1.455   1.274   4.471
 4823SOL    HW215369   1.330   1.188   4.532
 4824SOL     OW15370   5.390   2.775   1.967
 4824SOL    HW115371   5.296   2.773   1.933
 4824SOL    HW215372   5.412   2.867   1.999
 4825SOL     OW15373   0.764   3.347   3.341
 4825SOL    HW115374   0.787   3.441   3.365
 4825SOL    HW215375   0.803   3.285   3.409
 4826SOL     OW15376   6.460   6.045   6.987
 4826SOL    HW115377   6.419   6.128   6.948
 4826SOL    HW215378   6.428   6.033   0.058
 4827SOL     OW15379   5.644   0.780   1.387
 4827SOL    HW115380   5.560   0.819   1.423
 4827SOL    HW215381   5.716   0.786   1.456
 4828SOL     OW15382   5.116   4.028   0.255
 4828SOL    HW115383   5.079   4.042   0.164
 4828SOL    HW215384   5.158   3.937   0.260
 4829SOL     OW15385   2.994   0.580   5.629
 4829SOL    HW115386   2.938   0.500   5.608
 4829SOL    HW215387   2.959   0.625   5.711
 4830SOL     OW15388   4.068   6.981   5.337
 4830SOL    HW115389   4.106   6.986   5.245
 4830SOL    HW215390   4.034   6.888   5.354
 4831SOL     OW15391   6.507   3.947   6.003
 4831SOL    HW115392   6.580   4.016   6.000
 4831SOL    HW215393   6.546   3.856   5.990
 4832SOL     OW15394   2.052   3.490   6.684
 4832SOL    HW115395   2.124   3.437   6.639
 4832SOL    HW215396   2.092   3.551   6.752
 4833SOL     OW15397   5.255   1.668   3.374
 4833SOL    HW115398   5.310   1.642   3.294
 4833SOL    HW215399   5.240   1.589   3.432
 4834SOL     OW15400   5.797   0.672   2.480
 4834SOL    HW115401   5.840   0.612   2.548
 4834SOL    HW215402   5.727   0.728   2.525
 4835SOL     OW15403   2.172   0.542   6.458
 4835SOL    HW115404   2.112   0.504   6.388
 4835SOL    HW215405   2.199   0.470   6.522
 4836SOL     OW15406   5.288   2.287   3.157
 4836SOL    HW115407   5.304   2.381   3.128
 4836SOL    HW215408   5.193   2.279   3.189
 4837SOL     OW15409   1.305   3.943   0.243
 4837SOL    HW115410   1.389   3.893   0.263
 4837SOL    HW215411   1.312   3.983   0.152
 4838SOL     OW15412   2.601   5.864   2.571
 4838SOL    HW115413   2.642   5.937   2.516
 4838SOL    HW215414   2.503   5.882   2.581
 4839SOL     OW15415   0.629   6.165   6.538
 4839SOL    HW115416   0.537   6.171   6.576
 4839SOL    HW215417   0.694   6.143   6.611
 4840SOL     OW15418   6.952   6.828   0.286
 4840SOL    HW115419   0.020   6.785   0.278
 4840SOL    HW215420   6.905   6.792   0.366
 4841SOL     OW15421   2.774   5.898   2.060
 4841SOL    HW115422   2.847   5.847   2.106
 4841SOL    HW215423   2.800   5.916   1.965
 4842SOL     OW15424   3.707   6.147   1.220
 4842SOL    HW115425   3.628   6.157   1.281
 4842SOL    HW215426   3.697   6.064   1.166
 4843SOL     OW15427   0.064   3.493   0.369
 4843SOL    HW115428   0.137   3.538   0.421
 4843SOL    HW215429   0.105   3.441   0.294
 4844SOL     OW15430   6.303   1.758   5.716
 4844SOL    HW115431   6.334   1.719   5.629
 4844SOL    HW215432   6.374   1.746   5.785
 4845SOL     OW15433   6.395   5.450   4.023
 4845SOL    HW115434   6.394   5.373   3.959
 4845SOL    HW215435   6.306   5.458   4.067
 4846SOL     OW15436   1.184   4.167   1.054
 4846SOL    HW115437   1.186   4.124   1.144
 4846SOL    HW215438   1.125   4.114   0.993
 4847SOL     OW15439   3.989   2.189   4.531
 4847SOL    HW115440   4.012   2.142   4.446
 4847SOL    HW215441   4.045   2.271   4.541
 4848SOL     OW15442   2.744   2.384   2.628
 4848SOL    HW115443   2.715   2.354   2.537
 4848SOL    HW215444   2.817   2.325   2.661
 4849SOL     OW15445   1.331   6.107   0.086
 4849SOL    HW115446   1.363   6.012   0.089
 4849SOL    HW215447   1.283   6.123   0.000
 4850SOL     OW15448   4.090   0.643   2.682
 4850SOL    HW115449   4.125   0.697   2.759
 4850SOL    HW215450   4.154   0.649   2.606
 4851SOL     OW15451   5.153   6.472   5.139
 4851SOL    HW115452   5.162   6.486   5.041
 4851SOL    HW215453   5.056   6.474   5.164
 4852SOL     OW15454   1.624   1.408   0.185
 4852SOL    HW115455   1.631   1.309   0.201
 4852SOL    HW215456   1.663   1.457   0.263
 4853SOL     OW15457   3.181   1.672   2.136
 4853SOL    HW115458   3.213   1.701   2.226
 4853SOL    HW215459   3.246   1.705   2.066
 4854SOL     OW15460   4.901   6.682   1.326
 4854SOL    HW115461   4.863   6.630   1.403
 4854SOL    HW215462   4.989   6.722   1.354
 4855SOL     OW15463   0.315   2.532   2.335
 4855SOL    HW115464   0.276   2.524   2.427
 4855SOL    HW215465   0.256   2.589   2.279
 4856SOL     OW15466   2.874   4.741   3.530
 4856SOL    HW115467   2.879   4.839   3.552
 4856SOL    HW215468   2.831   4.692   3.606
 4857SOL     OW15469   6.807   1.766   5.575
 4857SOL    HW115470   6.875   1.776   5.503
 4857SOL    HW215471   6.824   1.681   5.626
 4858SOL     OW15472   1.275   1.413   3.655
 4858SOL    HW115473   1.357   1.468   3.671
 4858SOL    HW215474   1.256   1.358   3.736
 4859SOL     OW15475   2.534   5.796   5.069
 4859SOL    HW115476   2.461   5.734   5.039
 4859SOL    HW215477   2.622   5.754   5.050
 4860SOL     OW15478   4.484   5.111   0.841
 4860SOL    HW115479   4.397   5.096   0.888
 4860SOL    HW215480   4.541   5.173   0.895
 4861SOL     OW15481   5.490   3.676   5.418
 4861SOL    HW115482   5.478   3.768   5.383
 4861SOL    HW215483   5.401   3.634   5.433
 4862SOL     OW15484   1.349   6.405   2.350
 4862SOL    HW115485   1.420   6.467   2.383
 4862SOL    HW215486   1.383   6.353   2.272
 4863SOL     OW15487   6.239   4.223   6.916
 4863SOL    HW115488   6.233   4.175   6.829
 4863SOL    HW215489   6.240   4.322   6.900
 4864SOL     OW15490   2.685   1.302   3.399
 4864SOL    HW115491   2.654   1.237   3.330
 4864SOL    HW215492   2.767   1.349   3.368
 4865SOL     OW15493   2.068   6.453   4.822
 4865SOL    HW115494   2.021   6.541   4.825
 4865SOL    HW215495   2.165   6.467   4.800
 4866SOL     OW15496   6.726   4.089   0.058
 4866SOL    HW115497   6.636   4.106   0.099
 4866SOL    HW215498   6.759   3.999   0.086
 4867SOL     OW15499   5.120   7.005   2.956
 4867SOL    HW115500   5.025   0.014   2.958
 4867SOL    HW215501   5.125   6.916   2.911
 4868SOL     OW15502   0.051   4.661   0.762
 4868SOL    HW115503   0.118   4.732   0.741
 4868SOL    HW215504   6.994   4.671   0.702
 4869SOL     OW15505   0.614   0.900   0.321
 4869SOL    HW115506   0.653   0.810   0.339
 4869SOL    HW215507   0.687   0.961   0.289
 4870SOL     OW15508   0.802   5.912   2.086
 4870SOL    HW115509   0.750   5.866   2.158
 4870SOL    HW215510   0.900   5.900   2.102
 4871SOL     OW15511   1.638   1.554   4.289
 4871SOL    HW115512   1.587   1.532   4.206
 4871SOL    HW215513   1.730   1.516   4.283
 4872SOL     OW15514   5.721   6.836   3.258
 4872SOL    HW115515   5.644   6.860   3.200
 4872SOL    HW215516   5.799   6.807   3.202
 4873SOL     OW15517   6.780   5.840   5.704
 4873SOL    HW115518   6.846   5.885   5.644
 4873SOL    HW215519   6.697   5.896   5.710
 4874SOL     OW15520   5.343   2.815   2.913
 4874SOL    HW115521   5.328   2.717   2.904
 4874SOL    HW215522   5.310   2.846   3.002
 4875SOL     OW15523   5.855   6.725   5.067
 4875SOL    HW115524   5.808   6.728   5.155
 4875SOL    HW215525   5.951   6.753   5.080
 4876SOL     OW15526   2.030   1.083   2.823
 4876SOL    HW115527   2.009   1.179   2.841
 4876SOL    HW215528   2.008   1.029   2.905
 4877SOL     OW15529   6.990   1.909   5.181
 4877SOL    HW115530   6.929   1.980   5.144
 4877SOL    HW215531   7.013   1.931   5.276
 4878SOL     OW15532   0.930   2.542   2.281
 4878SOL    HW115533   0.929   2.487   2.364
 4878SOL    HW215534   0.851   2.519   2.224
 4879SOL     OW15535   5.498   1.540   3.196
 4879SOL    HW115536   5.593   1.571   3.193
 4879SOL    HW215537   5.471   1.506   3.106
 4880SOL     OW15538   6.644   2.476   6.302
 4880SOL    HW115539   6.611   2.544   6.367
 4880SOL    HW215540   6.682   2.397   6.351
 4881SOL     OW15541   1.712   3.052   1.733
 4881SOL    HW115542   1.717   3.032   1.831
 4881SOL    HW215543   1.622   3.026   1.699
 4882SOL     OW15544   4.464   2.458   4.587
 4882SOL    HW115545   4.396   2.483   4.655
 4882SOL    HW215546   4.462   2.358   4.573
 4883SOL     OW15547   6.431   3.937   1.357
 4883SOL    HW115548   6.494   3.942   1.280
 4883SOL    HW215549   6.479   3.963   1.441
 4884SOL     OW15550   2.386   6.598   1.923
 4884SOL    HW115551   2.332   6.581   1.841
 4884SOL    HW215552   2.325   6.624   1.998
 4885SOL     OW15553   1.288   4.376   0.526
 4885SOL    HW115554   1.273   4.475   0.530
 4885SOL    HW215555   1.325   4.345   0.613
 4886SOL     OW15556   2.850   1.221   2.201
 4886SOL    HW115557   2.769   1.279   2.210
 4886SOL    HW215558   2.925   1.262   2.253
 4887SOL     OW15559   6.665   6.507   1.301
 4887SOL    HW115560   6.749   6.456   1.318
 4887SOL    HW215561   6.646   6.567   1.379
 4888SOL     OW15562   3.828   6.377   3.130
 4888SOL    HW115563   3.815   6.455   3.068
 4888SOL    HW215564   3.900   6.317   3.093
 4889SOL     OW15565   6.732   2.973   3.637
 4889SOL    HW115566   6.796   3.013   3.703
 4889SOL    HW215567   6.772   2.890   3.597
 4890SOL     OW15568   0.520   1.639   4.734
 4890SOL    HW115569   0.550   1.574   4.803
 4890SOL    HW215570   0.563   1.617   4.646
 4891SOL     OW15571   2.742   5.714   5.998
 4891SOL    HW115572   2.752   5.689   5.902
 4891SOL    HW215573   2.691   5.800   6.004
 4892SOL     OW15574   5.592   5.872   3.004
 4892SOL    HW115575   5.610   5.890   3.101
 4892SOL    HW215576   5.518   5.932   2.973
 4893SOL     OW15577   0.457   3.274   1.963
 4893SOL    HW115578   0.378   3.315   2.009
 4893SOL    HW215579   0.540   3.294   2.016
 4894SOL     OW15580   4.763   6.950   1.841
 4894SOL    HW115581   4.850   6.975   1.799
 4894SOL    HW215582   4.780   6.894   1.922
 4895SOL     OW15583   6.735   4.625   4.136
 4895SOL    HW115584   6.751   4.567   4.056
 4895SOL    HW215585   6.760   4.574   4.219
 4896SOL     OW15586   1.739   4.949   3.950
 4896SOL    HW115587   1.696   4.953   4.040
 4896SOL    HW215588   1.830   4.908   3.959
 4897SOL     OW15589   1.640   6.276   5.058
 4897SOL    HW115590   1.726   6.229   5.076
 4897SOL    HW215591   1.608   6.320   5.142
 4898SOL     OW15592   4.474   1.872   3.707
 4898SOL    HW115593   4.454   1.884   3.804
 4898SOL    HW215594   4.389   1.870   3.654
 4899SOL     OW15595   0.083   5.636   1.797
 4899SOL    HW115596   0.177   5.629   1.764
 4899SOL    HW215597   0.069   5.570   1.871
 4900SOL     OW15598   3.680   6.033   5.746
 4900SOL    HW115599   3.738   6.114   5.756
 4900SOL    HW215600   3.731   5.952   5.777
 4901SOL     OW15601   6.867   1.771   5.979
 4901SOL    HW115602   6.903   1.849   6.029
 4901SOL    HW215603   6.910   1.687   6.011
 4902SOL     OW15604   1.901   0.278   5.935
 4902SOL    HW115605   1.984   0.284   5.879
 4902SOL    HW215606   1.872   0.370   5.962
 4903SOL     OW15607   5.401   4.743   2.343
 4903SOL    HW115608   5.371   4.764   2.435
 4903SOL    HW215609   5.480   4.800   2.320
 4904SOL     OW15610   2.006   0.618   0.229
 4904SOL    HW115611   1.942   0.572   0.290
 4904SOL    HW215612   1.979   0.602   0.134
 4905SOL     OW15613   3.448   6.526   2.229
 4905SOL    HW115614   3.495   6.517   2.142
 4905SOL    HW215615   3.356   6.487   2.222
 4906SOL     OW15616   4.974   3.197   5.017
 4906SOL    HW115617   4.995   3.273   5.080
 4906SOL    HW215618   5.038   3.199   4.941
 4907SOL     OW15619   4.785   1.500   6.460
 4907SOL    HW115620   4.807   1.461   6.550
 4907SOL    HW215621   4.764   1.598   6.471
 4908SOL     OW15622   4.166   6.286   6.741
 4908SOL    HW115623   4.146   6.188   6.740
 4908SOL    HW215624   4.090   6.335   6.783
 4909SOL     OW15625   5.175   4.805   4.484
 4909SOL    HW115626   5.135   4.815   4.393
 4909SOL    HW215627   5.224   4.718   4.490
 4910SOL     OW15628   4.647   1.568   5.602
 4910SOL    HW115629   4.570   1.632   5.601
 4910SOL    HW215630   4.707   1.586   5.525
 4911SOL     OW15631   0.013   2.513   1.861
 4911SOL    HW115632   0.078   2.446   1.825
 4911SOL    HW215633   0.026   2.522   1.960
 4912SOL     OW15634   5.821   2.297   4.185
 4912SOL    HW115635   5.919   2.315   4.176
 4912SOL    HW215636   5.770   2.381   4.167
 4913SOL     OW15637   6.988   3.050   5.983
 4913SOL    HW115638   0.032   3.059   6.057
 4913SOL    HW215639   6.895   3.055   6.020
 4914SOL     OW15640   4.705   0.187   3.423
 4914SOL    HW115641   4.787   0.162   3.475
 4914SOL    HW215642   4.652   0.254   3.474
 4915SOL     OW15643   3.548   5.386   5.912
 4915SOL    HW115644   3.459   5.429   5.927
 4915SOL    HW215645   3.569   5.385   5.814
 4916SOL     OW15646   6.251   2.179   3.706
 4916SOL    HW115647   6.321   2.227   3.652
 4916SOL    HW215648   6.294   2.136   3.785
 4917SOL     OW15649   4.783   6.738   0.696
 4917SOL    HW115650   4.729   6.665   0.738
 4917SOL    HW215651   4.749   6.755   0.604
 4918SOL     OW15652   6.014   5.349   2.779
 4918SOL    HW115653   6.098   5.317   2.823
 4918SOL    HW215654   5.938   5.291   2.808
 4919SOL     OW15655   3.834   4.040   2.428
 4919SOL    HW115656   3.812   4.045   2.331
 4919SOL    HW215657   3.750   4.049   2.482
 4920SOL     OW15658   5.753   0.902   5.566
 4920SOL    HW115659   5.706   0.879   5.651
 4920SOL    HW215660   5.851   0.916   5.585
 4921SOL     OW15661   0.326   0.230   2.244
 4921SOL    HW115662   0.412   0.275   2.221
 4921SOL    HW215663   0.266   0.294   2.292
 4922SOL     OW15664   3.503   2.383   6.508
 4922SOL    HW115665   3.412   2.417   6.487
 4922SOL    HW215666   3.525   2.402   6.604
 4923SOL     OW15667   3.746   1.736   2.329
 4923SOL    HW115668   3.732   1.834   2.343
 4923SOL    HW215669   3.829   1.721   2.276
 4924SOL     OW15670   2.288   0.437   5.395
 4924SOL    HW115671   2.291   0.489   5.310
 4924SOL    HW215672   2.250   0.346   5.378
 4925SOL     OW15673   5.345   5.723   3.554
 4925SOL    HW115674   5.403   5.764   3.625
 4925SOL    HW215675   5.336   5.625   3.571
 4926SOL     OW15676   5.538   2.719   0.977
 4926SOL    HW115677   5.566   2.799   1.030
 4926SOL    HW215678   5.618   2.663   0.956
 4927SOL     OW15679   3.377   1.817   6.554
 4927SOL    HW115680   3.322   1.892   6.519
 4927SOL    HW215681   3.420   1.769   6.478
 4928SOL     OW15682   0.167   1.962   0.308
 4928SOL    HW115683   0.160   1.864   0.326
 4928SOL    HW215684   0.118   2.012   0.379
 4929SOL     OW15685   0.622   6.591   4.986
 4929SOL    HW115686   0.602   6.687   5.006
 4929SOL    HW215687   0.536   6.541   4.976
 4930SOL     OW15688   5.591   6.343   2.406
 4930SOL    HW115689   5.571   6.346   2.504
 4930SOL    HW215690   5.645   6.262   2.385
 4931SOL     OW15691   6.404   5.956   0.677
 4931SOL    HW115692   6.499   5.926   0.664
 4931SOL    HW215693   6.378   5.943   0.773
 4932SOL     OW15694   2.911   3.302   2.143
 4932SOL    HW115695   2.869   3.334   2.058
 4932SOL    HW215696   2.858   3.336   2.221
 4933SOL     OW15697   2.883   6.750   5.307
 4933SOL    HW115698   2.965   6.801   5.335
 4933SOL    HW215699   2.871   6.671   5.367
 4934SOL     OW15700   4.077   4.870   2.940
 4934SOL    HW115701   4.101   4.807   3.014
 4934SOL    HW215702   4.084   4.964   2.972
 4935SOL     OW15703   0.145   0.936   6.241
 4935SOL    HW115704   0.083   0.863   6.211
 4935SOL    HW215705   0.092   1.009   6.284
 4936SOL     OW15706   3.020   3.077   0.593
 4936SOL    HW115707   2.959   3.011   0.550
 4936SOL    HW215708   3.040   3.048   0.687
 4937SOL     OW15709   4.527   2.548   5.176
 4937SOL    HW115710   4.621   2.575   5.196
 4937SOL    HW215711   4.519   2.521   5.080
 4938SOL     OW15712   4.280   5.641   6.044
 4938SOL    HW115713   4.277   5.734   6.006
 4938SOL    HW215714   4.188   5.612   6.069
 4939SOL     OW15715   4.521   3.010   5.972
 4939SOL    HW115716   4.468   2.996   5.888
 4939SOL    HW215717   4.495   2.940   6.039
 4940SOL     OW15718   2.043   6.143   4.564
 4940SOL    HW115719   2.013   6.058   4.607
 4940SOL    HW215720   2.119   6.125   4.501
 4941SOL     OW15721   5.637   0.358   0.693
 4941SOL    HW115722   5.543   0.326   0.681
 4941SOL    HW215723   5.674   0.322   0.778
 4942SOL     OW15724   5.047   3.961   5.653
 4942SOL    HW115725   4.987   3.954   5.733
 4942SOL    HW215726   5.130   3.908   5.669
 4943SOL     OW15727   4.750   2.290   1.182
 4943SOL    HW115728   4.738   2.337   1.095
 4943SOL    HW215729   4.794   2.351   1.248
 4944SOL     OW15730   2.351   5.003   2.537
 4944SOL    HW115731   2.352   5.103   2.530
 4944SOL    HW215732   2.257   4.970   2.538
 4945SOL     OW15733   0.682   6.790   4.277
 4945SOL    HW115734   0.741   6.859   4.235
 4945SOL    HW215735   0.587   6.819   4.271
 4946SOL     OW15736   1.103   4.088   2.475
 4946SOL    HW115737   1.016   4.060   2.434
 4946SOL    HW215738   1.179   4.060   2.417
 4947SOL     OW15739   0.449   6.714   0.731
 4947SOL    HW115740   0.433   6.623   0.692
 4947SOL    HW215741   0.523   6.758   0.682
 4948SOL     OW15742   1.807   1.468   1.997
 4948SOL    HW115743   1.856   1.383   2.018
 4948SOL    HW215744   1.759   1.458   1.909
 4949SOL     OW15745   5.529   1.844   4.266
 4949SOL    HW115746   5.599   1.913   4.246
 4949SOL    HW215747   5.461   1.844   4.193
 4950SOL     OW15748   3.238   6.063   5.025
 4950SOL    HW115749   3.163   6.105   4.975
 4950SOL    HW215750   3.201   5.997   5.091
 4951SOL     OW15751   4.151   2.037   3.386
 4951SOL    HW115752   4.188   2.103   3.321
 4951SOL    HW215753   4.074   1.989   3.344
 4952SOL     OW15754   0.740   6.105   5.108
 4952SOL    HW115755   0.827   6.061   5.085
 4952SOL    HW215756   0.672   6.035   5.129
 4953SOL     OW15757   1.613   5.354   1.513
 4953SOL    HW115758   1.566   5.313   1.592
 4953SOL    HW215759   1.712   5.349   1.527
 4954SOL     OW15760   5.418   5.808   6.616
 4954SOL    HW115761   5.348   5.807   6.687
 4954SOL    HW215762   5.508   5.809   6.657
 4955SOL     OW15763   1.317   6.571   1.307
 4955SOL    HW115764   1.375   6.638   1.261
 4955SOL    HW215765   1.263   6.617   1.378
 4956SOL     OW15766   4.955   6.180   4.390
 4956SOL    HW115767   4.912   6.234   4.462
 4956SOL    HW215768   4.884   6.135   4.336
 4957SOL     OW15769   1.061   0.144   3.636
 4957SOL    HW115770   1.159   0.141   3.614
 4957SOL    HW215771   1.046   0.102   3.725
 4958SOL     OW15772   6.868   5.932   0.214
 4958SOL    HW115773   6.909   5.999   0.276
 4958SOL    HW215774   6.816   5.980   0.143
 4959SOL     OW15775   1.062   0.915   1.325
 4959SOL    HW115776   1.098   0.998   1.283
 4959SOL    HW215777   1.053   0.844   1.256
 4960SOL     OW15778   3.850   6.578   5.065
 4960SOL    HW115779   3.914   6.501   5.068
 4960SOL    HW215780   3.857   6.623   4.976
 4961SOL     OW15781   4.504   0.395   4.958
 4961SOL    HW115782   4.448   0.317   4.986
 4961SOL    HW215783   4.601   0.372   4.968
 4962SOL     OW15784   6.931   1.392   1.295
 4962SOL    HW115785   6.904   1.297   1.284
 4962SOL    HW215786   6.849   1.450   1.296
 4963SOL     OW15787   0.240   5.021   1.368
 4963SOL    HW115788   0.337   5.008   1.386
 4963SOL    HW215789   0.190   5.016   1.455
 4964SOL     OW15790   3.715   6.380   3.393
 4964SOL    HW115791   3.696   6.370   3.295
 4964SOL    HW215792   3.798   6.330   3.416
 4965SOL     OW15793   6.726   6.630   4.485
 4965SOL    HW115794   6.731   6.641   4.386
 4965SOL    HW215795   6.797   6.566   4.514
 4966SOL     OW15796   3.794   4.959   4.102
 4966SOL    HW115797   3.830   5.049   4.076
 4966SOL    HW215798   3.803   4.947   4.200
 4967SOL     OW15799   4.208   2.378   6.120
 4967SOL    HW115800   4.276   2.344   6.054
 4967SOL    HW215801   4.243   2.460   6.165
 4968SOL     OW15802   5.885   3.502   5.730
 4968SOL    HW115803   5.815   3.545   5.673
 4968SOL    HW215804   5.861   3.515   5.827
 4969SOL     OW15805   0.965   1.960   1.925
 4969SOL    HW115806   0.930   1.923   1.839
 4969SOL    HW215807   0.906   1.930   2.000
 4970SOL     OW15808   0.836   2.728   5.887
 4970SOL    HW115809   0.872   2.787   5.815
 4970SOL    HW215810   0.747   2.693   5.860
 4971SOL     OW15811   6.121   5.811   3.799
 4971SOL    HW115812   6.056   5.767   3.862
 4971SOL    HW215813   6.205   5.757   3.796
 4972SOL     OW15814   1.092   2.607   5.923
 4972SOL    HW115815   1.077   2.541   5.997
 4972SOL    HW215816   1.006   2.652   5.900
 4973SOL     OW15817   5.786   6.121   2.808
 4973SOL    HW115818   5.690   6.092   2.799
 4973SOL    HW215819   5.800   6.205   2.756
 4974SOL     OW15820   5.295   6.814   1.701
 4974SOL    HW115821   5.207   6.789   1.742
 4974SOL    HW215822   5.336   6.733   1.659
 4975SOL     OW15823   5.513   6.134   0.235
 4975SOL    HW115824   5.458   6.051   0.244
 4975SOL    HW215825   5.511   6.184   0.321
 4976SOL     OW15826   3.944   0.590   4.777
 4976SOL    HW115827   3.844   0.593   4.784
 4976SOL    HW215828   3.970   0.519   4.711
 4977SOL     OW15829   3.443   3.925   0.090
 4977SOL    HW115830   3.529   3.917   0.141
 4977SOL    HW215831   3.460   3.969   0.002
 4978SOL     OW15832   5.779   3.029   6.074
 4978SOL    HW115833   5.829   3.081   6.144
 4978SOL    HW215834   5.838   2.958   6.036
 4979SOL     OW15835   1.659   1.571   5.157
 4979SOL    HW115836   1.568   1.598   5.126
 4979SOL    HW215837   1.668   1.472   5.154
 4980SOL     OW15838   2.582   5.568   2.355
 4980SOL    HW115839   2.617   5.649   2.402
 4980SOL    HW215840   2.642   5.546   2.278
 4981SOL     OW15841   4.202   6.350   5.555
 4981SOL    HW115842   4.240   6.422   5.497
 4981SOL    HW215843   4.269   6.325   5.625
 4982SOL     OW15844   2.581   2.947   0.094
 4982SOL    HW115845   2.559   3.007   0.171
 4982SOL    HW215846   2.527   2.863   0.100
 4983SOL     OW15847   5.417   2.976   4.230
 4983SOL    HW115848   5.473   2.976   4.313
 4983SOL    HW215849   5.325   3.008   4.252
 4984SOL     OW15850   4.880   3.993   2.550
 4984SOL    HW115851   4.936   4.011   2.470
 4984SOL    HW215852   4.880   3.895   2.570
 4985SOL     OW15853   5.566   4.085   2.500
 4985SOL    HW115854   5.659   4.049   2.505
 4985SOL    HW215855   5.549   4.145   2.578
 4986SOL     OW15856   5.154   4.760   1.967
 4986SOL    HW115857   5.250   4.787   1.976
 4986SOL    HW215858   5.148   4.680   1.907
 4987SOL     OW15859   0.373   3.588   1.117
 4987SOL    HW115860   0.334   3.623   1.032
 4987SOL    HW215861   0.445   3.522   1.097
 4988SOL     OW15862   0.360   2.226   5.337
 4988SOL    HW115863   0.419   2.276   5.274
 4988SOL    HW215864   0.270   2.213   5.295
 4989SOL     OW15865   0.428   0.830   0.652
 4989SOL    HW115866   0.408   0.849   0.556
 4989SOL    HW215867   0.477   0.907   0.692
 4990SOL     OW15868   0.519   2.635   5.469
 4990SOL    HW115869   0.444   2.579   5.503
 4990SOL    HW215870   0.527   2.624   5.370
 4991SOL     OW15871   1.452   2.639   4.511
 4991SOL    HW115872   1.491   2.551   4.539
 4991SOL    HW215873   1.480   2.710   4.576
 4992SOL     OW15874   3.337   0.734   5.713
 4992SOL    HW115875   3.418   0.722   5.770
 4992SOL    HW215876   3.310   0.645   5.676
 4993SOL     OW15877   2.763   5.975   3.876
 4993SOL    HW115878   2.682   5.922   3.853
 4993SOL    HW215879   2.760   6.063   3.828
 4994SOL     OW15880   0.338   6.695   2.352
 4994SOL    HW115881   0.375   6.644   2.430
 4994SOL    HW215882   0.398   6.685   2.273
 4995SOL     OW15883   5.631   2.658   5.932
 4995SOL    HW115884   5.534   2.631   5.927
 4995SOL    HW215885   5.650   2.694   6.023
 4996SOL     OW15886   0.887   1.255   4.041
 4996SOL    HW115887   0.949   1.309   4.097
 4996SOL    HW215888   0.917   1.255   3.946
 4997SOL     OW15889   0.692   2.425   3.281
 4997SOL    HW115890   0.791   2.425   3.296
 4997SOL    HW215891   0.671   2.467   3.193
 4998SOL     OW15892   1.261   5.652   4.650
 4998SOL    HW115893   1.205   5.668   4.732
 4998SOL    HW215894   1.350   5.614   4.677
 4999SOL     OW15895   6.195   4.268   1.374
 4999SOL    HW115896   6.104   4.309   1.366
 4999SOL    HW215897   6.242   4.273   1.286
 5000SOL     OW15898   6.716   5.925   4.642
 5000SOL    HW115899   6.626   5.895   4.612
 5000SOL    HW215900   6.764   5.970   4.567
 5001SOL     OW15901   4.635   4.310   5.755
 5001SOL    HW115902   4.649   4.226   5.809
 5001SOL    HW215903   4.595   4.286   5.666
 5002SOL     OW15904   2.554   1.541   1.355
 5002SOL    HW115905   2.495   1.564   1.432
 5002SOL    HW215906   2.646   1.576   1.372
 5003SOL     OW15907   6.834   5.404   3.054
 5003SOL    HW115908   6.856   5.402   2.956
 5003SOL    HW215909   6.904   5.355   3.105
 5004SOL     OW15910   3.543   5.494   7.013
 5004SOL    HW115911   3.585   5.406   6.993
 5004SOL    HW215912   3.460   5.480   0.046
 5005SOL     OW15913   4.373   2.206   6.857
 5005SOL    HW115914   4.472   2.203   6.840
 5005SOL    HW215915   4.329   2.130   6.810
 5006SOL     OW15916   5.168   5.155   3.746
 5006SOL    HW115917   5.118   5.202   3.820
 5006SOL    HW215918   5.264   5.145   3.772
 5007SOL     OW15919   4.028   1.751   4.808
 5007SOL    HW115920   4.099   1.696   4.765
 5007SOL    HW215921   4.063   1.843   4.828
 5008SOL     OW15922   6.513   1.830   3.897
 5008SOL    HW115923   6.519   1.911   3.955
 5008SOL    HW215924   6.598   1.777   3.907
 5009SOL     OW15925   1.994   5.930   3.566
 5009SOL    HW115926   1.932   6.003   3.537
 5009SOL    HW215927   1.953   5.841   3.543
 5010SOL     OW15928   4.087   3.297   4.621
 5010SOL    HW115929   4.107   3.300   4.719
 5010SOL    HW215930   4.115   3.384   4.579
 5011SOL     OW15931   2.006   2.619   2.583
 5011SOL    HW115932   2.016   2.629   2.484
 5011SOL    HW215933   2.081   2.668   2.628
 5012SOL     OW15934   6.201   3.101   6.970
 5012SOL    HW115935   6.147   3.145   6.898
 5012SOL    HW215936   6.230   3.170   0.014
 5013SOL     OW15937   4.482   1.041   6.658
 5013SOL    HW115938   4.577   1.069   6.642
 5013SOL    HW215939   4.430   1.051   6.573
 5014SOL     OW15940   6.074   6.699   6.981
 5014SOL    HW115941   6.056   6.751   0.043
 5014SOL    HW215942   6.023   6.613   6.984
 5015SOL     OW15943   5.010   2.192   3.212
 5015SOL    HW115944   5.063   2.127   3.157
 5015SOL    HW215945   4.913   2.176   3.197
 5016SOL     OW15946   2.144   6.746   2.417
 5016SOL    HW115947   2.071   6.740   2.486
 5016SOL    HW215948   2.230   6.769   2.462
 5017SOL     OW15949   2.526   2.879   1.464
 5017SOL    HW115950   2.487   2.789   1.485
 5017SOL    HW215951   2.487   2.912   1.377
 5018SOL     OW15952   6.646   5.226   4.175
 5018SOL    HW115953   6.571   5.286   4.202
 5018SOL    HW215954   6.610   5.134   4.158
 5019SOL     OW15955   2.816   5.241   5.998
 5019SOL    HW115956   2.895   5.285   6.041
 5019SOL    HW215957   2.740   5.306   5.994
 5020SOL     OW15958   5.011   6.117   6.735
 5020SOL    HW115959   4.987   6.028   6.695
 5020SOL    HW215960   4.989   6.190   6.670
 5021SOL     OW15961   2.005   5.149   5.856
 5021SOL    HW115962   1.979   5.214   5.928
 5021SOL    HW215963   1.974   5.057   5.882
 5022SOL     OW15964   1.602   5.048   0.654
 5022SOL    HW115965   1.527   5.033   0.718
 5022SOL    HW215966   1.661   5.121   0.688
 5023SOL     OW15967   6.537   3.193   2.583
 5023SOL    HW115968   6.500   3.264   2.643
 5023SOL    HW215969   6.614   3.148   2.628
 5024SOL     OW15970   5.672   3.538   5.217
 5024SOL    HW115971   5.627   3.544   5.307
 5024SOL    HW215972   5.752   3.598   5.217
 5025SOL     OW15973   6.717   1.725   2.817
 5025SOL    HW115974   6.756   1.782   2.890
 5025SOL    HW215975   6.647   1.665   2.857
 5026SOL     OW15976   0.451   6.375   2.767
 5026SOL    HW115977   0.392   6.393   2.845
 5026SOL    HW215978   0.529   6.437   2.769
 5027SOL     OW15979   1.285   6.949   3.333
 5027SOL    HW115980   1.383   6.969   3.323
 5027SOL    HW215981   1.267   6.920   3.426
 5028SOL     OW15982   1.017   0.491   2.540
 5028SOL    HW115983   0.970   0.567   2.495
 5028SOL    HW215984   0.950   0.438   2.593
 5029SOL     OW15985   0.357   1.157   2.182
 5029SOL    HW115986   0.332   1.097   2.258
 5029SOL    HW215987   0.299   1.239   2.184
 5030SOL     OW15988   1.484   5.758   6.864
 5030SOL    HW115989   1.580   5.736   6.876
 5030SOL    HW215990   1.470   5.802   6.775
 5031SOL     OW15991   5.802   0.206   4.424
 5031SOL    HW115992   5.778   0.128   4.367
 5031SOL    HW215993   5.792   0.181   4.520
 5032SOL     OW15994   1.462   5.855   0.804
 5032SOL    HW115995   1.559   5.856   0.830
 5032SOL    HW215996   1.414   5.786   0.858
 5033SOL     OW15997   1.669   4.585   5.814
 5033SOL    HW115998   1.667   4.644   5.733
 5033SOL    HW215999   1.639   4.637   5.894
 5034SOL     OW16000   6.523   4.010   0.488
 5034SOL    HW116001   6.468   4.061   0.554
 5034SOL    HW216002   6.543   4.068   0.409
 5035SOL     OW16003   6.083   4.222   0.931
 5035SOL    HW116004   6.179   4.236   0.955
 5035SOL    HW216005   6.071   4.236   0.832
 5036SOL     OW16006   1.839   0.599   2.321
 5036SOL    HW116007   1.778   0.654   2.377
 5036SOL    HW216008   1.793   0.572   2.237
 5037SOL     OW16009   4.509   2.449   3.402
 5037SOL    HW116010   4.485   2.392   3.480
 5037SOL    HW216011   4.558   2.530   3.433
 5038SOL     OW16012   2.651   6.524   5.574
 5038SOL    HW116013   2.737   6.519   5.523
 5038SOL    HW216014   2.575   6.524   5.510
 5039SOL     OW16015   1.947   1.396   3.700
 5039SOL    HW116016   1.935   1.494   3.715
 5039SOL    HW216017   1.972   1.352   3.786
 5040SOL     OW16018   2.770   3.169   6.335
 5040SOL    HW116019   2.771   3.070   6.321
 5040SOL    HW216020   2.718   3.191   6.417
 5041SOL     OW16021   1.250   5.436   0.984
 5041SOL    HW116022   1.323   5.372   1.011
 5041SOL    HW216023   1.217   5.412   0.893
 5042SOL     OW16024   6.119   2.438   6.041
 5042SOL    HW116025   6.023   2.454   6.064
 5042SOL    HW216026   6.146   2.348   6.075
 5043SOL     OW16027   4.295   0.113   3.442
 5043SOL    HW116028   4.221   0.053   3.470
 5043SOL    HW216029   4.257   0.193   3.395
 5044SOL     OW16030   6.073   4.244   3.171
 5044SOL    HW116031   6.103   4.148   3.173
 5044SOL    HW216032   5.997   4.253   3.107
 5045SOL     OW16033   5.934   2.987   6.370
 5045SOL    HW116034   5.973   3.078   6.359
 5045SOL    HW216035   6.000   2.918   6.340
 5046SOL     OW16036   3.298   3.020   5.191
 5046SOL    HW116037   3.334   2.970   5.112
 5046SOL    HW216038   3.332   3.114   5.190
 5047SOL     OW16039   1.174   0.900   2.510
 5047SOL    HW116040   1.242   0.835   2.477
 5047SOL    HW216041   1.095   0.899   2.449
 5048SOL     OW16042   5.653   3.305   1.391
 5048SOL    HW116043   5.627   3.376   1.456
 5048SOL    HW216044   5.595   3.312   1.309
 5049SOL     OW16045   1.398   2.571   2.568
 5049SOL    HW116046   1.441   2.647   2.520
 5049SOL    HW216047   1.383   2.495   2.505
 5050SOL     OW16048   0.936   3.389   0.966
 5050SOL    HW116049   1.012   3.346   1.014
 5050SOL    HW216050   0.872   3.319   0.935
 5051SOL     OW16051   3.112   4.660   0.344
 5051SOL    HW116052   3.028   4.691   0.388
 5051SOL    HW216053   3.091   4.621   0.254
 5052SOL     OW16054   5.326   3.826   1.053
 5052SOL    HW116055   5.409   3.840   1.107
 5052SOL    HW216056   5.313   3.904   0.992
 5053SOL     OW16057   2.140   4.840   0.112
 5053SOL    HW116058   2.208   4.828   0.185
 5053SOL    HW216059   2.105   4.750   0.085
 5054SOL     OW16060   3.872   5.830   4.985
 5054SOL    HW116061   3.834   5.831   5.077
 5054SOL    HW216062   3.847   5.744   4.940
 5055SOL     OW16063   1.450   1.922   3.984
 5055SOL    HW116064   1.469   1.933   3.886
 5055SOL    HW216065   1.434   2.011   4.026
 5056SOL     OW16066   1.909   2.366   5.201
 5056SOL    HW116067   1.975   2.294   5.176
 5056SOL    HW216068   1.831   2.325   5.247
 5057SOL     OW16069   0.901   4.850   2.928
 5057SOL    HW116070   0.934   4.762   2.964
 5057SOL    HW216071   0.821   4.834   2.870
 5058SOL     OW16072   3.408   3.798   6.743
 5058SOL    HW116073   3.326   3.803   6.687
 5058SOL    HW216074   3.431   3.889   6.777
 5059SOL     OW16075   3.646   1.300   3.497
 5059SOL    HW116076   3.651   1.254   3.586
 5059SOL    HW216077   3.617   1.235   3.428
 5060SOL     OW16078   0.056   3.602   5.865
 5060SOL    HW116079   0.033   3.532   5.797
 5060SOL    HW216080   0.150   3.589   5.897
 5061SOL     OW16081   3.715   2.396   5.359
 5061SOL    HW116082   3.805   2.357   5.338
 5061SOL    HW216083   3.646   2.352   5.301
 5062SOL     OW16084   5.406   0.597   3.442
 5062SOL    HW116085   5.433   0.618   3.536
 5062SOL    HW216086   5.428   0.675   3.383
 5063SOL     OW16087   1.214   1.004   1.905
 5063SOL    HW116088   1.296   0.966   1.863
 5063SOL    HW216089   1.217   0.989   2.004
 5064SOL     OW16090   5.008   5.969   0.858
 5064SOL    HW116091   5.026   5.882   0.904
 5064SOL    HW216092   5.064   6.041   0.899
 5065SOL     OW16093   2.342   1.040   2.508
 5065SOL    HW116094   2.242   1.043   2.507
 5065SOL    HW216095   2.377   1.126   2.543
 5066SOL     OW16096   2.512   4.838   2.386
 5066SOL    HW116097   2.600   4.811   2.426
 5066SOL    HW216098   2.469   4.908   2.443
 5067SOL     OW16099   5.013   2.846   0.526
 5067SOL    HW116100   4.936   2.791   0.493
 5067SOL    HW216101   5.099   2.803   0.500
 5068SOL     OW16102   2.875   5.727   0.870
 5068SOL    HW116103   2.843   5.653   0.810
 5068SOL    HW216104   2.970   5.748   0.848
 5069SOL     OW16105   3.550   4.895   5.122
 5069SOL    HW116106   3.567   4.925   5.028
 5069SOL    HW216107   3.463   4.846   5.126
 5070SOL     OW16108   5.530   3.852   4.751
 5070SOL    HW116109   5.528   3.797   4.667
 5070SOL    HW216110   5.497   3.944   4.731
 5071SOL     OW16111   2.845   0.316   4.294
 5071SOL    HW116112   2.806   0.348   4.209
 5071SOL    HW216113   2.775   0.314   4.365
 5072SOL     OW16114   0.483   1.390   0.146
 5072SOL    HW116115   0.438   1.463   0.096
 5072SOL    HW216116   0.498   1.312   0.085
 5073SOL     OW16117   2.566   0.907   2.417
 5073SOL    HW116118   2.504   0.976   2.454
 5073SOL    HW216119   2.621   0.948   2.344
 5074SOL     OW16120   3.550   2.210   1.663
 5074SOL    HW116121   3.598   2.142   1.608
 5074SOL    HW216122   3.607   2.239   1.740
 5075SOL     OW16123   1.101   3.398   0.190
 5075SOL    HW116124   1.124   3.304   0.215
 5075SOL    HW216125   1.169   3.461   0.228
 5076SOL     OW16126   6.023   6.711   6.002
 5076SOL    HW116127   5.944   6.658   5.973
 5076SOL    HW216128   6.034   6.702   6.101
 5077SOL     OW16129   0.517   4.415   3.639
 5077SOL    HW116130   0.520   4.322   3.676
 5077SOL    HW216131   0.571   4.476   3.698
 5078SOL     OW16132   0.395   1.793   4.226
 5078SOL    HW116133   0.461   1.717   4.231
 5078SOL    HW216134   0.439   1.873   4.185
 5079SOL     OW16135   1.707   3.134   5.731
 5079SOL    HW116136   1.688   3.036   5.727
 5079SOL    HW216137   1.654   3.181   5.660
 5080SOL     OW16138   5.707   5.789   6.659
 5080SOL    HW116139   5.698   5.694   6.689
 5080SOL    HW216140   5.800   5.806   6.626
 5081SOL     OW16141   3.064   5.767   5.444
 5081SOL    HW116142   2.967   5.753   5.426
 5081SOL    HW216143   3.075   5.822   5.527
 5082SOL     OW16144   5.945   6.127   2.079
 5082SOL    HW116145   5.910   6.148   1.988
 5082SOL    HW216146   6.043   6.146   2.082
 5083SOL     OW16147   1.665   0.359   2.912
 5083SOL    HW116148   1.587   0.331   2.968
 5083SOL    HW216149   1.664   0.310   2.825
 5084SOL     OW16150   2.213   4.986   5.465
 5084SOL    HW116151   2.120   4.957   5.441
 5084SOL    HW216152   2.220   4.998   5.564
 5085SOL     OW16153   0.673   4.489   5.616
 5085SOL    HW116154   0.702   4.567   5.672
 5085SOL    HW216155   0.619   4.426   5.672
 5086SOL     OW16156   1.447   5.294   1.733
 5086SOL    HW116157   1.411   5.384   1.758
 5086SOL    HW216158   1.391   5.222   1.775
 5087SOL     OW16159   6.283   4.542   2.254
 5087SOL    HW116160   6.184   4.528   2.251
 5087SOL    HW216161   6.321   4.534   2.162
 5088SOL     OW16162   5.501   6.376   2.068
 5088SOL    HW116163   5.472   6.403   1.976
 5088SOL    HW216164   5.426   6.392   2.132
 5089SOL     OW16165   5.527   5.423   5.624
 5089SOL    HW116166   5.537   5.431   5.723
 5089SOL    HW216167   5.590   5.353   5.590
 5090SOL     OW16168   3.109   0.141   4.890
 5090SOL    HW116169   3.195   0.165   4.845
 5090SOL    HW216170   3.032   0.168   4.832
 5091SOL     OW16171   6.329   6.874   6.282
 5091SOL    HW116172   6.245   6.828   6.310
 5091SOL    HW216173   6.405   6.843   6.338
 5092SOL     OW16174   3.020   3.560   4.165
 5092SOL    HW116175   3.025   3.658   4.147
 5092SOL    HW216176   2.986   3.545   4.259
 5093SOL     OW16177   2.750   1.769   2.832
 5093SOL    HW116178   2.732   1.798   2.926
 5093SOL    HW216179   2.779   1.848   2.778
 5094SOL     OW16180   2.112   5.642   5.332
 5094SOL    HW116181   2.105   5.577   5.256
 5094SOL    HW216182   2.173   5.716   5.306
 5095SOL     OW16183   6.644   1.547   3.047
 5095SOL    HW116184   6.617   1.461   3.005
 5095SOL    HW216185   6.695   1.528   3.132
 5096SOL     OW16186   5.352   2.605   5.314
 5096SOL    HW116187   5.325   2.698   5.339
 5096SOL    HW216188   5.277   2.559   5.269
 5097SOL     OW16189   1.273   0.613   5.564
 5097SOL    HW116190   1.179   0.588   5.543
 5097SOL    HW216191   1.277   0.710   5.591
 5098SOL     OW16192   3.236   3.023   1.256
 5098SOL    HW116193   3.196   2.950   1.200
 5098SOL    HW216194   3.191   3.026   1.345
 5099SOL     OW16195   1.761   0.266   2.010
 5099SOL    HW116196   1.696   0.193   2.035
 5099SOL    HW216197   1.843   0.258   2.067
 5100SOL     OW16198   5.628   4.249   2.238
 5100SOL    HW116199   5.642   4.182   2.312
 5100SOL    HW216200   5.554   4.217   2.179
 5101SOL     OW16201   3.786   0.621   6.144
 5101SOL    HW116202   3.695   0.656   6.123
 5101SOL    HW216203   3.783   0.521   6.151
 5102SOL     OW16204   4.855   4.414   4.465
 5102SOL    HW116205   4.845   4.320   4.496
 5102SOL    HW216206   4.851   4.475   4.544
 5103SOL     OW16207   0.367   0.980   6.085
 5103SOL    HW116208   0.374   1.078   6.065
 5103SOL    HW216209   0.295   0.965   6.152
 5104SOL     OW16210   3.434   3.571   1.682
 5104SOL    HW116211   3.390   3.482   1.670
 5104SOL    HW216212   3.519   3.574   1.629
 5105SOL     OW16213   4.334   3.551   6.410
 5105SOL    HW116214   4.258   3.507   6.459
 5105SOL    HW216215   4.366   3.491   6.337
 5106SOL     OW16216   4.334   2.546   0.735
 5106SOL    HW116217   4.268   2.619   0.718
 5106SOL    HW216218   4.421   2.568   0.691
 5107SOL     OW16219   4.686   3.500   0.123
 5107SOL    HW116220   4.601   3.530   0.079
 5107SOL    HW216221   4.664   3.439   0.200
 5108SOL     OW16222   4.236   4.761   0.187
 5108SOL    HW116223   4.219   4.769   0.285
 5108SOL    HW216224   4.149   4.747   0.140
 5109SOL     OW16225   1.028   2.845   1.322
 5109SOL    HW116226   1.066   2.906   1.392
 5109SOL    HW216227   1.047   2.882   1.231
 5110SOL     OW16228   4.813   0.500   5.825
 5110SOL    HW116229   4.726   0.523   5.781
 5110SOL    HW216230   4.889   0.532   5.769
 5111SOL     OW16231   0.358   6.534   4.700
 5111SOL    HW116232   0.299   6.603   4.743
 5111SOL    HW216233   0.314   6.498   4.618
 5112SOL     OW16234   0.012   0.282   3.543
 5112SOL    HW116235   0.066   0.232   3.610
 5112SOL    HW216236   6.992   0.361   3.586
 5113SOL     OW16237   1.836   3.988   6.848
 5113SOL    HW116238   1.815   4.085   6.834
 5113SOL    HW216239   1.934   3.973   6.835
 5114SOL     OW16240   4.636   5.279   1.010
 5114SOL    HW116241   4.630   5.224   1.093
 5114SOL    HW216242   4.678   5.367   1.031
 5115SOL     OW16243   1.717   3.758   1.097
 5115SOL    HW116244   1.724   3.703   1.014
 5115SOL    HW216245   1.630   3.808   1.097
 5116SOL     OW16246   1.385   0.726   6.425
 5116SOL    HW116247   1.372   0.648   6.486
 5116SOL    HW216248   1.415   0.805   6.478
 5117SOL     OW16249   1.519   2.377   3.792
 5117SOL    HW116250   1.524   2.375   3.693
 5117SOL    HW216251   1.589   2.317   3.831
 5118SOL     OW16252   4.840   5.832   6.119
 5118SOL    HW116253   4.881   5.826   6.028
 5118SOL    HW216254   4.766   5.898   6.117
 5119SOL     OW16255   5.370   1.115   0.369
 5119SOL    HW116256   5.333   1.069   0.449
 5119SOL    HW216257   5.319   1.199   0.352
 5120SOL     OW16258   5.501   6.470   6.247
 5120SOL    HW116259   5.552   6.548   6.211
 5120SOL    HW216260   5.546   6.385   6.218
 5121SOL     OW16261   1.488   3.577   6.321
 5121SOL    HW116262   1.573   3.558   6.271
 5121SOL    HW216263   1.473   3.676   6.325
 5122SOL     OW16264   5.505   5.484   4.380
 5122SOL    HW116265   5.542   5.448   4.466
 5122SOL    HW216266   5.508   5.584   4.382
 5123SOL     OW16267   4.974   3.086   1.578
 5123SOL    HW116268   4.913   3.024   1.530
 5123SOL    HW216269   5.065   3.047   1.583
 5124SOL     OW16270   2.275   5.899   4.746
 5124SOL    HW116271   2.191   5.909   4.799
 5124SOL    HW216272   2.330   5.982   4.755
 5125SOL     OW16273   0.010   2.010   3.781
 5125SOL    HW116274   0.023   1.930   3.840
 5125SOL    HW216275   0.021   2.094   3.836
 5126SOL     OW16276   2.391   0.274   0.509
 5126SOL    HW116277   2.312   0.217   0.489
 5126SOL    HW216278   2.375   0.367   0.476
 5127SOL     OW16279   1.828   5.150   6.981
 5127SOL    HW116280   1.820   5.051   6.968
 5127SOL    HW216281   1.916   5.181   6.945
 5128SOL     OW16282   5.979   0.151   2.268
 5128SOL    HW116283   6.020   0.174   2.180
 5128SOL    HW216284   5.891   0.197   2.277
 5129SOL     OW16285   5.621   0.072   0.896
 5129SOL    HW116286   5.665   0.159   0.918
 5129SOL    HW216287   5.691   0.004   0.874
 5130SOL     OW16288   0.033   4.812   3.228
 5130SOL    HW116289   6.977   4.752   3.212
 5130SOL    HW216290   0.036   4.839   3.324
 5131SOL     OW16291   2.716   2.415   2.920
 5131SOL    HW116292   2.627   2.455   2.945
 5131SOL    HW216293   2.722   2.407   2.821
 5132SOL     OW16294   3.096   6.431   5.254
 5132SOL    HW116295   3.018   6.489   5.275
 5132SOL    HW216296   3.065   6.352   5.201
 5133SOL     OW16297   3.833   6.805   6.172
 5133SOL    HW116298   3.885   6.868   6.230
 5133SOL    HW216299   3.746   6.783   6.215
 5134SOL     OW16300   6.599   3.742   0.316
 5134SOL    HW116301   6.648   3.745   0.404
 5134SOL    HW216302   6.652   3.789   0.246
 5135SOL     OW16303   6.699   1.925   4.626
 5135SOL    HW116304   6.765   1.930   4.551
 5135SOL    HW216305   6.662   2.015   4.645
 5136SOL     OW16306   4.209   0.989   4.054
 5136SOL    HW116307   4.289   1.002   4.112
 5136SOL    HW216308   4.233   1.015   3.960
 5137SOL     OW16309   3.351   4.464   6.786
 5137SOL    HW116310   3.266   4.516   6.786
 5137SOL    HW216311   3.334   4.372   6.751
 5138SOL     OW16312   2.532   3.603   6.032
 5138SOL    HW116313   2.620   3.556   6.044
 5138SOL    HW216314   2.479   3.596   6.116
 5139SOL     OW16315   0.559   0.500   3.344
 5139SOL    HW116316   0.654   0.476   3.361
 5139SOL    HW216317   0.537   0.485   3.248
 5140SOL     OW16318   3.736   2.686   1.487
 5140SOL    HW116319   3.740   2.628   1.568
 5140SOL    HW216320   3.641   2.691   1.455
 5141SOL     OW16321   6.618   3.169   6.751
 5141SOL    HW116322   6.584   3.258   6.721
 5141SOL    HW216323   6.541   3.108   6.769
 5142SOL     OW16324   5.399   3.140   4.014
 5142SOL    HW116325   5.391   3.087   4.098
 5142SOL    HW216326   5.308   3.164   3.980
 5143SOL     OW16327   6.626   5.195   4.575
 5143SOL    HW116328   6.627   5.096   4.591
 5143SOL    HW216329   6.604   5.242   4.660
 5144SOL     OW16330   1.889   1.265   4.907
 5144SOL    HW116331   1.864   1.353   4.948
 5144SOL    HW216332   1.989   1.256   4.907
 5145SOL     OW16333   3.156   5.872   5.663
 5145SOL    HW116334   3.247   5.908   5.683
 5145SOL    HW216335   3.090   5.911   5.727
 5146SOL     OW16336   2.921   4.904   0.010
 5146SOL    HW116337   3.016   4.882   7.010
 5146SOL    HW216338   2.915   4.998   0.045
 5147SOL     OW16339   5.973   5.076   6.625
 5147SOL    HW116340   5.928   5.158   6.662
 5147SOL    HW216341   5.915   4.996   6.642
 5148SOL     OW16342   0.596   5.983   1.576
 5148SOL    HW116343   0.595   5.906   1.640
 5148SOL    HW216344   0.684   5.985   1.528
 5149SOL     OW16345   6.446   1.392   4.589
 5149SOL    HW116346   6.483   1.484   4.596
 5149SOL    HW216347   6.510   1.335   4.537
 5150SOL     OW16348   1.630   5.113   4.585
 5150SOL    HW116349   1.629   5.014   4.574
 5150SOL    HW216350   1.537   5.149   4.583
 5151SOL     OW16351   4.436   0.827   6.841
 5151SOL    HW116352   4.440   0.914   6.792
 5151SOL    HW216353   4.518   0.773   6.821
 5152SOL     OW16354   0.749   4.783   0.224
 5152SOL    HW116355   0.697   4.869   0.226
 5152SOL    HW216356   0.695   4.714   0.177
 5153SOL     OW16357   1.934   1.353   0.663
 5153SOL    HW116358   1.844   1.396   0.667
 5153SOL    HW216359   1.968   1.338   0.756
 5154SOL     OW16360   2.223   3.148   4.603
 5154SOL    HW116361   2.260   3.240   4.588
 5154SOL    HW216362   2.218   3.130   4.701
 5155SOL     OW16363   2.889   0.826   2.379
 5155SOL    HW116364   2.831   0.889   2.328
 5155SOL    HW216365   2.983   0.858   2.378
 5156SOL     OW16366   5.606   2.758   5.483
 5156SOL    HW116367   5.658   2.759   5.569
 5156SOL    HW216368   5.621   2.844   5.434
 5157SOL     OW16369   5.652   3.198   3.424
 5157SOL    HW116370   5.570   3.175   3.371
 5157SOL    HW216371   5.692   3.114   3.461
 5158SOL     OW16372   4.344   1.519   1.250
 5158SOL    HW116373   4.439   1.511   1.278
 5158SOL    HW216374   4.338   1.524   1.151
 5159SOL     OW16375   1.035   3.023   4.298
 5159SOL    HW116376   1.115   2.967   4.280
 5159SOL    HW216377   1.062   3.119   4.304
 5160SOL     OW16378   2.001   2.896   4.278
 5160SOL    HW116379   2.042   2.826   4.219
 5160SOL    HW216380   2.055   2.906   4.361
 5161SOL     OW16381   1.046   2.939   6.453
 5161SOL    HW116382   1.059   3.008   6.525
 5161SOL    HW216383   1.093   2.855   6.479
 5162SOL     OW16384   6.283   6.312   4.690
 5162SOL    HW116385   6.297   6.257   4.608
 5162SOL    HW216386   6.372   6.335   4.730
 5163SOL     OW16387   5.335   3.570   0.934
 5163SOL    HW116388   5.429   3.566   0.902
 5163SOL    HW216389   5.323   3.651   0.992
 5164SOL     OW16390   5.868   4.510   6.386
 5164SOL    HW116391   5.801   4.583   6.387
 5164SOL    HW216392   5.955   4.543   6.422
 5165SOL     OW16393   6.361   4.449   4.343
 5165SOL    HW116394   6.329   4.424   4.434
 5165SOL    HW216395   6.392   4.367   4.295
 5166SOL     OW16396   0.943   0.072   1.697
 5166SOL    HW116397   0.993   0.093   1.780
 5166SOL    HW216398   0.880   7.018   1.715
 5167SOL     OW16399   0.470   6.382   5.495
 5167SOL    HW116400   0.466   6.329   5.580
 5167SOL    HW216401   0.564   6.407   5.475
 5168SOL     OW16402   4.211   2.332   2.961
 5168SOL    HW116403   4.217   2.356   3.058
 5168SOL    HW216404   4.124   2.287   2.943
 5169SOL     OW16405   3.748   4.582   6.320
 5169SOL    HW116406   3.722   4.657   6.259
 5169SOL    HW216407   3.792   4.510   6.266
 5170SOL     OW16408   5.201   3.710   4.588
 5170SOL    HW116409   5.207   3.736   4.492
 5170SOL    HW216410   5.228   3.614   4.598
 5171SOL     OW16411   2.603   4.679   4.590
 5171SOL    HW116412   2.568   4.614   4.523
 5171SOL    HW216413   2.567   4.657   4.680
 5172SOL     OW16414   1.884   5.418   1.555
 5172SOL    HW116415   1.892   5.445   1.459
 5172SOL    HW216416   1.917   5.492   1.614
 5173SOL     OW16417   5.970   3.645   6.100
 5173SOL    HW116418   6.049   3.660   6.040
 5173SOL    HW216419   5.997   3.587   6.177
 5174SOL     OW16420   1.199   4.529   5.977
 5174SOL    HW116421   1.209   4.595   6.052
 5174SOL    HW216422   1.289   4.505   5.941
 5175SOL     OW16423   0.504   4.664   6.579
 5175SOL    HW116424   0.428   4.696   6.523
 5175SOL    HW216425   0.561   4.741   6.605
 5176SOL     OW16426   5.067   3.522   0.938
 5176SOL    HW116427   5.017   3.596   0.892
 5176SOL    HW216428   5.164   3.544   0.940
 5177SOL     OW16429   5.446   6.739   6.683
 5177SOL    HW116430   5.489   6.674   6.620
 5177SOL    HW216431   5.497   6.740   6.769
 5178SOL     OW16432   2.401   1.948   1.608
 5178SOL    HW116433   2.397   2.036   1.655
 5178SOL    HW216434   2.314   1.901   1.618
 5179SOL     OW16435   2.669   6.048   5.798
 5179SOL    HW116436   2.674   6.133   5.746
 5179SOL    HW216437   2.605   5.985   5.753
 5180SOL     OW16438   3.184   2.255   1.430
 5180SOL    HW116439   3.264   2.238   1.373
 5180SOL    HW216440   3.212   2.258   1.526
 5181SOL     OW16441   3.510   5.577   2.331
 5181SOL    HW116442   3.462   5.516   2.394
 5181SOL    HW216443   3.451   5.599   2.253
 5182SOL     OW16444   5.158   4.519   1.818
 5182SOL    HW116445   5.228   4.456   1.852
 5182SOL    HW216446   5.197   4.578   1.747
 5183SOL     OW16447   4.717   0.530   2.912
 5183SOL    HW116448   4.800   0.578   2.938
 5183SOL    HW216449   4.643   0.597   2.900
 5184SOL     OW16450   1.092   1.247   2.810
 5184SOL    HW116451   1.136   1.229   2.898
 5184SOL    HW216452   1.009   1.302   2.825
 5185SOL     OW16453   3.851   0.196   2.289
 5185SOL    HW116454   3.830   0.150   2.376
 5185SOL    HW216455   3.951   0.203   2.279
 5186SOL     OW16456   6.316   4.370   0.722
 5186SOL    HW116457   6.342   4.446   0.782
 5186SOL    HW216458   6.216   4.358   0.725
 5187SOL     OW16459   5.261   1.635   3.912
 5187SOL    HW116460   5.288   1.666   3.821
 5187SOL    HW216461   5.186   1.570   3.904
 5188SOL     OW16462   0.800   3.882   5.320
 5188SOL    HW116463   0.719   3.909   5.269
 5188SOL    HW216464   0.882   3.901   5.266
 5189SOL     OW16465   4.719   5.426   6.372
 5189SOL    HW116466   4.768   5.507   6.340
 5189SOL    HW216467   4.669   5.450   6.456
 5190SOL     OW16468   1.539   2.393   3.515
 5190SOL    HW116469   1.542   2.313   3.455
 5190SOL    HW216470   1.577   2.472   3.468
 5191SOL     OW16471   3.915   0.503   1.908
 5191SOL    HW116472   3.960   0.585   1.943
 5191SOL    HW216473   3.816   0.515   1.911
 5192SOL     OW16474   6.311   4.514   2.754
 5192SOL    HW116475   6.285   4.449   2.824
 5192SOL    HW216476   6.230   4.542   2.702
 5193SOL     OW16477   4.853   3.693   2.552
 5193SOL    HW116478   4.912   3.628   2.599
 5193SOL    HW216479   4.759   3.658   2.553
 5194SOL     OW16480   6.002   0.943   5.636
 5194SOL    HW116481   6.074   0.955   5.704
 5194SOL    HW216482   6.016   1.009   5.562
 5195SOL     OW16483   5.819   6.541   5.910
 5195SOL    HW116484   5.809   6.561   5.812
 5195SOL    HW216485   5.749   6.475   5.937
 5196SOL     OW16486   0.510   3.137   1.616
 5196SOL    HW116487   0.453   3.067   1.573
 5196SOL    HW216488   0.521   3.214   1.553
 5197SOL     OW16489   3.303   6.296   4.730
 5197SOL    HW116490   3.220   6.241   4.743
 5197SOL    HW216491   3.379   6.253   4.779
 5198SOL     OW16492   4.105   6.686   5.514
 5198SOL    HW116493   4.093   6.675   5.613
 5198SOL    HW216494   4.202   6.676   5.490
 5199SOL     OW16495   0.792   5.054   1.488
 5199SOL    HW116496   0.864   5.006   1.537
 5199SOL    HW216497   0.828   5.088   1.401
 5200SOL     OW16498   6.601   0.708   5.064
 5200SOL    HW116499   6.552   0.716   5.151
 5200SOL    HW216500   6.641   0.617   5.056
 5201SOL     OW16501   6.474   5.213   5.009
 5201SOL    HW116502   6.405   5.263   4.957
 5201SOL    HW216503   6.526   5.276   5.066
 5202SOL     OW16504   3.719   2.848   5.963
 5202SOL    HW116505   3.671   2.906   5.897
 5202SOL    HW216506   3.810   2.826   5.927
 5203SOL     OW16507   1.809   0.806   6.824
 5203SOL    HW116508   1.826   0.770   6.732
 5203SOL    HW216509   1.747   0.884   6.819
 5204SOL     OW16510   2.823   0.072   0.831
 5204SOL    HW116511   2.826   0.047   0.927
 5204SOL    HW216512   2.737   0.041   0.791
 5205SOL     OW16513   0.595   6.144   1.034
 5205SOL    HW116514   0.676   6.154   0.976
 5205SOL    HW216515   0.552   6.234   1.046
 5206SOL     OW16516   0.980   4.887   4.083
 5206SOL    HW116517   1.037   4.861   4.161
 5206SOL    HW216518   0.899   4.828   4.081
 5207SOL     OW16519   6.784   0.439   3.882
 5207SOL    HW116520   6.872   0.454   3.837
 5207SOL    HW216521   6.795   0.372   3.955
 5208SOL     OW16522   5.349   2.094   0.391
 5208SOL    HW116523   5.434   2.044   0.376
 5208SOL    HW216524   5.307   2.064   0.477
 5209SOL     OW16525   6.024   5.753   2.916
 5209SOL    HW116526   5.992   5.714   2.830
 5209SOL    HW216527   6.048   5.679   2.979
 5210SOL     OW16528   5.248   4.251   0.446
 5210SOL    HW116529   5.225   4.201   0.362
 5210SOL    HW216530   5.318   4.199   0.496
 5211SOL     OW16531   4.928   2.413   4.865
 5211SOL    HW116532   4.843   2.365   4.843
 5211SOL    HW216533   4.907   2.504   4.901
 5212SOL     OW16534   1.184   3.704   0.307
 5212SOL    HW116535   1.085   3.706   0.293
 5212SOL    HW216536   1.225   3.788   0.270
 5213SOL     OW16537   3.970   3.889   3.176
 5213SOL    HW116538   3.952   3.952   3.101
 5213SOL    HW216539   3.920   3.804   3.162
 5214SOL     OW16540   5.671   3.682   5.640
 5214SOL    HW116541   5.629   3.645   5.557
 5214SOL    HW216542   5.600   3.712   5.703
 5215SOL     OW16543   0.462   3.790   5.197
 5215SOL    HW116544   0.509   3.868   5.156
 5215SOL    HW216545   0.363   3.802   5.188
 5216SOL     OW16546   5.254   5.055   1.360
 5216SOL    HW116547   5.318   5.103   1.299
 5216SOL    HW216548   5.218   4.975   1.314
 5217SOL     OW16549   4.850   5.898   3.192
 5217SOL    HW116550   4.936   5.916   3.240
 5217SOL    HW216551   4.773   5.915   3.253
 5218SOL     OW16552   0.539   6.957   1.107
 5218SOL    HW116553   0.475   6.986   1.035
 5218SOL    HW216554   0.497   6.973   1.197
 5219SOL     OW16555   3.491   1.319   4.862
 5219SOL    HW116556   3.554   1.385   4.820
 5219SOL    HW216557   3.440   1.363   4.935
 5220SOL     OW16558   2.262   4.766   3.985
 5220SOL    HW116559   2.276   4.862   4.010
 5220SOL    HW216560   2.280   4.754   3.887
 5221SOL     OW16561   6.607   5.601   1.331
 5221SOL    HW116562   6.635   5.695   1.353
 5221SOL    HW216563   6.688   5.546   1.310
 5222SOL     OW16564   5.993   3.966   1.049
 5222SOL    HW116565   6.013   4.054   1.005
 5222SOL    HW216566   5.956   3.982   1.141
 5223SOL     OW16567   6.907   2.952   0.679
 5223SOL    HW116568   6.955   2.874   0.640
 5223SOL    HW216569   6.867   2.926   0.767
 5224SOL     OW16570   0.128   2.329   4.607
 5224SOL    HW116571   0.156   2.276   4.686
 5224SOL    HW216572   0.180   2.415   4.605
 5225SOL     OW16573   0.139   1.771   4.355
 5225SOL    HW116574   0.223   1.773   4.301
 5225SOL    HW216575   0.133   1.684   4.404
 5226SOL     OW16576   0.603   6.494   3.792
 5226SOL    HW116577   0.598   6.572   3.855
 5226SOL    HW216578   0.687   6.442   3.810
 5227SOL     OW16579   0.529   2.910   5.536
 5227SOL    HW116580   0.489   2.819   5.546
 5227SOL    HW216581   0.594   2.910   5.460
 5228SOL     OW16582   1.237   1.613   5.487
 5228SOL    HW116583   1.293   1.657   5.558
 5228SOL    HW216584   1.283   1.530   5.455
 5229SOL     OW16585   3.382   1.862   5.971
 5229SOL    HW116586   3.353   1.869   5.876
 5229SOL    HW216587   3.480   1.844   5.975
 5230SOL     OW16588   6.961   6.936   2.286
 5230SOL    HW116589   7.004   6.907   2.200
 5230SOL    HW216590   0.006   6.930   2.360
 5231SOL     OW16591   6.767   2.644   1.949
 5231SOL    HW116592   6.689   2.632   2.011
 5231SOL    HW216593   6.851   2.622   1.996
 5232SOL     OW16594   1.427   3.156   6.084
 5232SOL    HW116595   1.334   3.173   6.049
 5232SOL    HW216596   1.447   3.220   6.158
 5233SOL     OW16597   3.106   0.008   2.836
 5233SOL    HW116598   3.039   0.071   2.794
 5233SOL    HW216599   3.141   0.049   2.920
 5234SOL     OW16600   2.684   2.089   6.929
 5234SOL    HW116601   2.619   2.015   6.945
 5234SOL    HW216602   2.702   2.137   7.015
 5235SOL     OW16603   1.852   2.407   1.466
 5235SOL    HW116604   1.757   2.432   1.449
 5235SOL    HW216605   1.856   2.338   1.539
 5236SOL     OW16606   3.242   5.248   1.427
 5236SOL    HW116607   3.338   5.242   1.455
 5236SOL    HW216608   3.209   5.156   1.403
 5237SOL     OW16609   2.142   1.725   2.550
 5237SOL    HW116610   2.091   1.701   2.633
 5237SOL    HW216611   2.087   1.702   2.470
 5238SOL     OW16612   0.722   6.469   2.853
 5238SOL    HW116613   0.788   6.459   2.927
 5238SOL    HW216614   0.698   6.565   2.842
 5239SOL     OW16615   2.261   3.976   0.490
 5239SOL    HW116616   2.353   3.972   0.450
 5239SOL    HW216617   2.263   3.936   0.582
 5240SOL     OW16618   2.100   3.903   6.025
 5240SOL    HW116619   2.196   3.874   6.028
 5240SOL    HW216620   2.082   3.948   5.938
 5241SOL     OW16621   0.694   5.901   2.349
 5241SOL    HW116622   0.728   5.951   2.428
 5241SOL    HW216623   0.610   5.943   2.316
 5242SOL     OW16624   4.417   0.411   0.082
 5242SOL    HW116625   4.383   0.412   0.176
 5242SOL    HW216626   4.484   0.484   0.070
 5243SOL     OW16627   2.814   6.206   2.045
 5243SOL    HW116628   2.834   6.202   1.947
 5243SOL    HW216629   2.717   6.188   2.060
 5244SOL     OW16630   4.872   1.837   0.544
 5244SOL    HW116631   4.791   1.856   0.488
 5244SOL    HW216632   4.910   1.747   0.519
 5245SOL     OW16633   3.100   3.728   1.696
 5245SOL    HW116634   3.090   3.655   1.628
 5245SOL    HW216635   3.194   3.728   1.731
 5246SOL     OW16636   6.280   3.888   6.727
 5246SOL    HW116637   6.325   3.898   6.638
 5246SOL    HW216638   6.314   3.806   6.772
 5247SOL     OW16639   4.269   1.834   6.621
 5247SOL    HW116640   4.269   1.878   6.532
 5247SOL    HW216641   4.347   1.772   6.628
 5248SOL     OW16642   5.751   1.038   3.479
 5248SOL    HW116643   5.751   0.939   3.490
 5248SOL    HW216644   5.678   1.064   3.416
 5249SOL     OW16645   0.427   4.633   0.551
 5249SOL    HW116646   0.459   4.548   0.594
 5249SOL    HW216647   0.331   4.623   0.526
 5250SOL     OW16648   1.724   5.888   1.004
 5250SOL    HW116649   1.758   5.806   1.049
 5250SOL    HW216650   1.734   5.880   0.905
 5251SOL     OW16651   0.813   4.761   0.476
 5251SOL    HW116652   0.767   4.694   0.534
 5251SOL    HW216653   0.780   4.753   0.382
 5252SOL     OW16654   3.738   6.243   2.073
 5252SOL    HW116655   3.652   6.288   2.049
 5252SOL    HW216656   3.812   6.311   2.073
 5253SOL     OW16657   0.060   5.567   4.580
 5253SOL    HW116658   0.101   5.521   4.501
 5253SOL    HW216659   0.097   5.528   4.664
 5254SOL     OW16660   5.014   6.339   3.638
 5254SOL    HW116661   4.963   6.276   3.580
 5254SOL    HW216662   4.951   6.405   3.679
 5255SOL     OW16663   6.625   1.904   5.205
 5255SOL    HW116664   6.568   1.887   5.125
 5255SOL    HW216665   6.675   1.990   5.193
 5256SOL     OW16666   0.122   1.600   2.097
 5256SOL    HW116667   0.116   1.559   2.006
 5256SOL    HW216668   0.132   1.699   2.088
 5257SOL     OW16669   3.994   1.200   6.417
 5257SOL    HW116670   3.991   1.140   6.337
 5257SOL    HW216671   3.923   1.270   6.410
 5258SOL     OW16672   4.509   1.435   3.312
 5258SOL    HW116673   4.532   1.349   3.358
 5258SOL    HW216674   4.432   1.479   3.358
 5259SOL     OW16675   6.166   5.013   3.623
 5259SOL    HW116676   6.206   5.055   3.705
 5259SOL    HW216677   6.237   4.997   3.555
 5260SOL     OW16678   2.221   0.501   0.438
 5260SOL    HW116679   2.159   0.458   0.504
 5260SOL    HW216680   2.172   0.572   0.388
 5261SOL     OW16681   5.586   4.492   6.573
 5261SOL    HW116682   5.561   4.411   6.521
 5261SOL    HW216683   5.507   4.525   6.624
 5262SOL     OW16684   1.823   1.138   2.640
 5262SOL    HW116685   1.918   1.140   2.671
 5262SOL    HW216686   1.791   1.231   2.625
 5263SOL     OW16687   1.110   6.225   2.373
 5263SOL    HW116688   1.179   6.285   2.412
 5263SOL    HW216689   1.141   6.189   2.285
 5264SOL     OW16690   6.436   1.291   1.752
 5264SOL    HW116691   6.424   1.389   1.736
 5264SOL    HW216692   6.453   1.274   1.849
 5265SOL     OW16693   6.263   4.785   4.996
 5265SOL    HW116694   6.288   4.690   4.979
 5265SOL    HW216695   6.164   4.796   4.985
 5266SOL     OW16696   1.773   0.449   6.712
 5266SOL    HW116697   1.762   0.494   6.624
 5266SOL    HW216698   1.683   0.437   6.755
 5267SOL     OW16699   5.342   2.441   4.680
 5267SOL    HW116700   5.274   2.404   4.617
 5267SOL    HW216701   5.411   2.492   4.628
 5268SOL     OW16702   4.838   0.291   6.171
 5268SOL    HW116703   4.926   0.265   6.132
 5268SOL    HW216704   4.833   0.260   6.266
 5269SOL     OW16705   0.519   6.874   3.712
 5269SOL    HW116706   0.601   6.821   3.693
 5269SOL    HW216707   0.543   6.970   3.726
 5270SOL     OW16708   0.282   1.559   6.243
 5270SOL    HW116709   0.341   1.538   6.322
 5270SOL    HW216710   0.339   1.571   6.162
 5271SOL     OW16711   0.383   4.802   3.243
 5271SOL    HW116712   0.336   4.792   3.156
 5271SOL    HW216713   0.481   4.798   3.229
 5272SOL     OW16714   4.286   0.193   0.012
 5272SOL    HW116715   4.212   0.194   0.079
 5272SOL    HW216716   4.340   0.277   0.021
 5273SOL     OW16717   2.220   1.933   2.737
 5273SOL    HW116718   2.202   1.875   2.658
 5273SOL    HW216719   2.144   1.996   2.751
 5274SOL     OW16720   4.911   5.090   1.069
 5274SOL    HW116721   4.864   5.126   1.150
 5274SOL    HW216722   4.844   5.055   1.004
 5275SOL     OW16723   4.540   1.864   6.802
 5275SOL    HW116724   4.456   1.896   6.846
 5275SOL    HW216725   4.518   1.818   6.717
 5276SOL     OW16726   4.349   6.612   1.739
 5276SOL    HW116727   4.363   6.688   1.802
 5276SOL    HW216728   4.435   6.564   1.724
 5277SOL     OW16729   2.465   2.846   1.792
 5277SOL    HW116730   2.367   2.864   1.796
 5277SOL    HW216731   2.483   2.754   1.827
 5278SOL     OW16732   4.483   3.530   1.724
 5278SOL    HW116733   4.473   3.629   1.709
 5278SOL    HW216734   4.569   3.513   1.772
 5279SOL     OW16735   2.410   5.272   2.706
 5279SOL    HW116736   2.454   5.330   2.774
 5279SOL    HW216737   2.456   5.283   2.618
 5280SOL     OW16738   4.549   7.006   4.900
 5280SOL    HW116739   4.613   0.061   4.893
 5280SOL    HW216740   4.473   7.021   4.837
 5281SOL     OW16741   0.203   2.723   2.170
 5281SOL    HW116742   0.273   2.762   2.109
 5281SOL    HW216743   0.146   2.796   2.206
 5282SOL     OW16744   5.049   1.489   2.111
 5282SOL    HW116745   4.974   1.535   2.158
 5282SOL    HW216746   5.072   1.538   2.027
 5283SOL     OW16747   5.351   5.258   6.444
 5283SOL    HW116748   5.276   5.193   6.455
 5283SOL    HW216749   5.435   5.208   6.422
 5284SOL     OW16750   5.113   3.006   3.720
 5284SOL    HW116751   5.213   3.007   3.722
 5284SOL    HW216752   5.079   2.920   3.757
 5285SOL     OW16753   3.279   5.893   2.473
 5285SOL    HW116754   3.344   5.964   2.444
 5285SOL    HW216755   3.318   5.843   2.551
 5286SOL     OW16756   2.285   5.086   2.097
 5286SOL    HW116757   2.187   5.074   2.110
 5286SOL    HW216758   2.333   5.056   2.180
 5287SOL     OW16759   0.846   1.882   1.662
 5287SOL    HW116760   0.943   1.890   1.640
 5287SOL    HW216761   0.792   1.940   1.602
 5288SOL     OW16762   4.758   1.115   0.670
 5288SOL    HW116763   4.724   1.177   0.741
 5288SOL    HW216764   4.735   1.152   0.580
 5289SOL     OW16765   2.070   6.123   0.867
 5289SOL    HW116766   2.169   6.117   0.863
 5289SOL    HW216767   2.033   6.037   0.903
 5290SOL     OW16768   4.773   5.818   0.884
 5290SOL    HW116769   4.784   5.787   0.978
 5290SOL    HW216770   4.854   5.870   0.856
 5291SOL     OW16771   2.264   5.132   6.307
 5291SOL    HW116772   2.328   5.055   6.296
 5291SOL    HW216773   2.303   5.214   6.264
 5292SOL     OW16774   5.055   2.276   6.449
 5292SOL    HW116775   5.139   2.223   6.447
 5292SOL    HW216776   5.005   2.264   6.363
 5293SOL     OW16777   0.711   1.148   4.384
 5293SOL    HW116778   0.612   1.160   4.384
 5293SOL    HW216779   0.755   1.233   4.414
 5294SOL     OW16780   5.056   2.026   5.541
 5294SOL    HW116781   5.012   1.979   5.618
 5294SOL    HW216782   5.026   2.121   5.539
 5295SOL     OW16783   6.089   0.678   1.768
 5295SOL    HW116784   6.175   0.658   1.816
 5295SOL    HW216785   6.092   0.770   1.729
 5296SOL     OW16786   0.837   3.838   0.470
 5296SOL    HW116787   0.858   3.850   0.373
 5296SOL    HW216788   0.833   3.927   0.514
 5297SOL     OW16789   1.995   3.308   1.556
 5297SOL    HW116790   2.038   3.266   1.636
 5297SOL    HW216791   1.895   3.304   1.566
 5298SOL     OW16792   0.982   5.321   1.528
 5298SOL    HW116793   0.890   5.282   1.524
 5298SOL    HW216794   1.012   5.347   1.437
 5299SOL     OW16795   2.988   0.326   1.694
 5299SOL    HW116796   2.947   0.367   1.612
 5299SOL    HW216797   2.995   0.227   1.681
 5300SOL     OW16798   6.881   5.243   3.763
 5300SOL    HW116799   6.945   5.176   3.800
 5300SOL    HW216800   6.807   5.258   3.828
 5301SOL     OW16801   4.672   0.429   0.279
 5301SOL    HW116802   4.702   0.524   0.283
 5301SOL    HW216803   4.654   0.403   0.184
 5302SOL     OW16804   6.624   4.257   3.267
 5302SOL    HW116805   6.667   4.261   3.357
 5302SOL    HW216806   6.551   4.189   3.268
 5303SOL     OW16807   0.794   5.620   3.582
 5303SOL    HW116808   0.766   5.578   3.495
 5303SOL    HW216809   0.849   5.702   3.563
 5304SOL     OW16810   4.849   2.118   5.317
 5304SOL    HW116811   4.828   2.021   5.319
 5304SOL    HW216812   4.837   2.157   5.409
 5305SOL     OW16813   2.828   0.970   2.610
 5305SOL    HW116814   2.783   1.059   2.597
 5305SOL    HW216815   2.831   0.921   2.522
 5306SOL     OW16816   2.390   0.223   4.508
 5306SOL    HW116817   2.384   0.254   4.603
 5306SOL    HW216818   2.424   0.130   4.504
 5307SOL     OW16819   4.381   6.961   6.913
 5307SOL    HW116820   4.354   0.030   6.946
 5307SOL    HW216821   4.300   6.911   6.884
 5308SOL     OW16822   0.249   1.278   2.575
 5308SOL    HW116823   0.201   1.364   2.562
 5308SOL    HW216824   0.344   1.297   2.602
 5309SOL     OW16825   4.147   3.389   4.180
 5309SOL    HW116826   4.183   3.297   4.190
 5309SOL    HW216827   4.130   3.408   4.083
 5310SOL     OW16828   5.885   2.007   0.776
 5310SOL    HW116829   5.851   2.014   0.870
 5310SOL    HW216830   5.984   2.018   0.776
 5311SOL     OW16831   1.762   5.715   6.949
 5311SOL    HW116832   1.790   5.620   6.963
 5311SOL    HW216833   1.834   5.765   6.900
 5312SOL     OW16834   0.003   2.767   1.711
 5312SOL    HW116835   0.003   2.809   1.802
 5312SOL    HW216836   0.006   2.668   1.720
 5313SOL     OW16837   1.275   5.860   6.998
 5313SOL    HW116838   1.351   5.820   6.948
 5313SOL    HW216839   1.232   5.933   6.943
 5314SOL     OW16840   3.277   4.584   0.842
 5314SOL    HW116841   3.365   4.537   0.840
 5314SOL    HW216842   3.209   4.531   0.792
 5315SOL     OW16843   4.963   3.216   2.409
 5315SOL    HW116844   5.024   3.274   2.355
 5315SOL    HW216845   4.976   3.236   2.506
 5316SOL     OW16846   6.058   5.487   5.080
 5316SOL    HW116847   5.969   5.505   5.121
 5316SOL    HW216848   6.069   5.388   5.066
 5317SOL     OW16849   5.857   5.473   3.038
 5317SOL    HW116850   5.815   5.499   3.125
 5317SOL    HW216851   5.826   5.534   2.966
 5318SOL     OW16852   0.435   2.217   4.627
 5318SOL    HW116853   0.363   2.149   4.637
 5318SOL    HW216854   0.523   2.176   4.648
 5319SOL     OW16855   3.705   0.447   1.348
 5319SOL    HW116856   3.776   0.490   1.292
 5319SOL    HW216857   3.717   0.475   1.444
 5320SOL     OW16858   6.069   3.827   5.737
 5320SOL    HW116859   6.124   3.831   5.820
 5320SOL    HW216860   6.087   3.907   5.680
 5321SOL     OW16861   1.742   5.532   6.273
 5321SOL    HW116862   1.738   5.545   6.372
 5321SOL    HW216863   1.838   5.524   6.245
 5322SOL     OW16864   3.324   6.285   0.501
 5322SOL    HW116865   3.315   6.382   0.525
 5322SOL    HW216866   3.323   6.230   0.585
 5323SOL     OW16867   6.048   3.366   0.175
 5323SOL    HW116868   6.129   3.309   0.184
 5323SOL    HW216869   6.074   3.457   0.143
 5324SOL     OW16870   3.881   3.160   1.736
 5324SOL    HW116871   3.963   3.111   1.766
 5324SOL    HW216872   3.831   3.104   1.670
 5325SOL     OW16873   4.639   5.957   4.453
 5325SOL    HW116874   4.599   6.049   4.456
 5325SOL    HW216875   4.690   5.946   4.368
 5326SOL     OW16876   0.591   0.374   2.219
 5326SOL    HW116877   0.586   0.464   2.175
 5326SOL    HW216878   0.611   0.386   2.316
 5327SOL     OW16879   6.562   1.055   4.059
 5327SOL    HW116880   6.558   0.996   4.140
 5327SOL    HW216881   6.471   1.061   4.017
 5328SOL     OW16882   3.782   4.763   1.259
 5328SOL    HW116883   3.692   4.803   1.243
 5328SOL    HW216884   3.809   4.780   1.354
 5329SOL     OW16885   6.577   5.500   0.572
 5329SOL    HW116886   6.493   5.471   0.619
 5329SOL    HW216887   6.655   5.450   0.609
 5330SOL     OW16888   3.925   5.225   0.290
 5330SOL    HW116889   3.999   5.290   0.308
 5330SOL    HW216890   3.963   5.143   0.246
 5331SOL     OW16891   4.427   2.594   6.556
 5331SOL    HW116892   4.413   2.497   6.539
 5331SOL    HW216893   4.401   2.616   6.650
 5332SOL     OW16894   5.839   3.170   0.191
 5332SOL    HW116895   5.860   3.093   0.130
 5332SOL    HW216896   5.921   3.226   0.203
 5333SOL     OW16897   1.289   1.892   4.381
 5333SOL    HW116898   1.386   1.911   4.366
 5333SOL    HW216899   1.234   1.971   4.355
 5334SOL     OW16900   3.578   5.822   1.402
 5334SOL    HW116901   3.504   5.814   1.334
 5334SOL    HW216902   3.539   5.823   1.494
 5335SOL     OW16903   0.197   4.586   1.345
 5335SOL    HW116904   0.135   4.665   1.347
 5335SOL    HW216905   0.288   4.615   1.375
 5336SOL     OW16906   1.650   2.812   4.981
 5336SOL    HW116907   1.643   2.761   5.066
 5336SOL    HW216908   1.674   2.907   5.001
 5337SOL     OW16909   6.534   4.766   0.712
 5337SOL    HW116910   6.438   4.777   0.685
 5337SOL    HW216911   6.563   4.672   0.693
 5338SOL     OW16912   6.084   3.429   0.568
 5338SOL    HW116913   6.014   3.474   0.512
 5338SOL    HW216914   6.165   3.488   0.573
 5339SOL     OW16915   5.269   3.394   2.520
 5339SOL    HW116916   5.221   3.379   2.434
 5339SOL    HW216917   5.249   3.318   2.582
 5340SOL     OW16918   5.065   3.674   1.961
 5340SOL    HW116919   4.977   3.719   1.977
 5340SOL    HW216920   5.049   3.583   1.923
 5341SOL     OW16921   4.535   4.590   3.682
 5341SOL    HW116922   4.629   4.617   3.705
 5341SOL    HW216923   4.479   4.592   3.765
 5342SOL     OW16924   6.506   5.633   5.062
 5342SOL    HW116925   6.419   5.671   5.094
 5342SOL    HW216926   6.571   5.708   5.048
 5343SOL     OW16927   3.526   3.104   6.324
 5343SOL    HW116928   3.543   3.083   6.228
 5343SOL    HW216929   3.613   3.124   6.370
 5344SOL     OW16930   0.045   1.420   6.210
 5344SOL    HW116931   0.019   1.475   6.130
 5344SOL    HW216932   0.133   1.452   6.245
 5345SOL     OW16933   5.543   1.288   6.360
 5345SOL    HW116934   5.495   1.366   6.401
 5345SOL    HW216935   5.622   1.321   6.308
 5346SOL     OW16936   3.377   5.662   3.293
 5346SOL    HW116937   3.393   5.758   3.313
 5346SOL    HW216938   3.320   5.622   3.365
 5347SOL     OW16939   6.023   2.095   4.237
 5347SOL    HW116940   5.936   2.125   4.278
 5347SOL    HW216941   6.025   2.123   4.142
 5348SOL     OW16942   4.883   2.627   4.511
 5348SOL    HW116943   4.858   2.647   4.605
 5348SOL    HW216944   4.893   2.712   4.460
 5349SOL     OW16945   1.069   3.674   1.449
 5349SOL    HW116946   1.007   3.674   1.371
 5349SOL    HW216947   1.028   3.726   1.524
 5350SOL     OW16948   1.242   6.159   6.872
 5350SOL    HW116949   1.310   6.231   6.886
 5350SOL    HW216950   1.219   6.153   6.775
 5351SOL     OW16951   6.742   6.017   3.585
 5351SOL    HW116952   6.792   5.946   3.634
 5351SOL    HW216953   6.651   5.984   3.561
 5352SOL     OW16954   1.113   2.939   6.058
 5352SOL    HW116955   1.202   2.927   6.015
 5352SOL    HW216956   1.069   3.021   6.020
 5353SOL     OW16957   3.888   4.910   3.783
 5353SOL    HW116958   3.956   4.969   3.826
 5353SOL    HW216959   3.835   4.862   3.853
 5354SOL     OW16960   3.776   5.565   1.426
 5354SOL    HW116961   3.860   5.567   1.481
 5354SOL    HW216962   3.699   5.542   1.485
 5355SOL     OW16963   5.795   5.175   5.346
 5355SOL    HW116964   5.804   5.239   5.270
 5355SOL    HW216965   5.846   5.091   5.326
 5356SOL     OW16966   0.691   6.192   0.724
 5356SOL    HW116967   0.626   6.122   0.694
 5356SOL    HW216968   0.778   6.149   0.747
 5357SOL     OW16969   6.098   3.605   2.830
 5357SOL    HW116970   6.170   3.568   2.771
 5357SOL    HW216971   6.119   3.700   2.853
 5358SOL     OW16972   4.779   0.980   6.909
 5358SOL    HW116973   4.777   1.009   6.813
 5358SOL    HW216974   4.808   0.884   6.914
 5359SOL     OW16975   3.297   2.186   6.728
 5359SOL    HW116976   3.381   2.187   6.674
 5359SOL    HW216977   3.219   2.201   6.668
 5360SOL     OW16978   5.802   5.079   4.002
 5360SOL    HW116979   5.829   5.144   4.073
 5360SOL    HW216980   5.763   5.129   3.925
 5361SOL     OW16981   1.344   5.161   2.611
 5361SOL    HW116982   1.403   5.228   2.654
 5361SOL    HW216983   1.254   5.162   2.655
 5362SOL     OW16984   5.926   1.566   2.336
 5362SOL    HW116985   5.909   1.619   2.419
 5362SOL    HW216986   5.912   1.625   2.256
 5363SOL     OW16987   5.135   4.715   3.471
 5363SOL    HW116988   5.153   4.809   3.501
 5363SOL    HW216989   5.221   4.669   3.450
 5364SOL     OW16990   4.492   1.794   2.599
 5364SOL    HW116991   4.590   1.771   2.599
 5364SOL    HW216992   4.467   1.834   2.687
 5365SOL     OW16993   2.938   3.739   4.599
 5365SOL    HW116994   3.027   3.696   4.581
 5365SOL    HW216995   2.937   3.775   4.692
 5366SOL     OW16996   6.502   5.862   3.632
 5366SOL    HW116997   6.444   5.937   3.663
 5366SOL    HW216998   6.471   5.831   3.542
 5367SOL     OW16999   6.005   5.863   1.278
 5367SOL    HW117000   5.963   5.897   1.194
 5367SOL    HW217001   6.098   5.834   1.260
 5368SOL     OW17002   0.054   6.053   4.618
 5368SOL    HW117003   0.143   6.070   4.576
 5368SOL    HW217004   0.047   5.956   4.644
 5369SOL     OW17005   4.097   5.668   2.643
 5369SOL    HW117006   4.032   5.678   2.718
 5369SOL    HW217007   4.182   5.716   2.666
 5370SOL     OW17008   1.779   2.911   0.599
 5370SOL    HW117009   1.700   2.949   0.551
 5370SOL    HW217010   1.787   2.813   0.578
 5371SOL     OW17011   6.410   5.494   4.703
 5371SOL    HW117012   6.493   5.536   4.666
 5371SOL    HW217013   6.330   5.539   4.664
 5372SOL     OW17014   1.742   6.913   2.821
 5372SOL    HW117015   1.669   6.926   2.753
 5372SOL    HW217016   1.809   6.987   2.813
 5373SOL     OW17017   2.660   1.103   6.475
 5373SOL    HW117018   2.592   1.031   6.463
 5373SOL    HW217019   2.627   1.170   6.541
 5374SOL     OW17020   2.052   3.904   1.641
 5374SOL    HW117021   2.095   3.815   1.656
 5374SOL    HW217022   2.102   3.953   1.570
 5375SOL     OW17023   2.512   4.835   5.033
 5375SOL    HW117024   2.441   4.895   4.997
 5375SOL    HW217025   2.478   4.786   5.113
 5376SOL     OW17026   0.526   0.230   5.774
 5376SOL    HW117027   0.440   0.248   5.822
 5376SOL    HW217028   0.565   0.316   5.742
 5377SOL     OW17029   1.429   1.495   2.905
 5377SOL    HW117030   1.501   1.562   2.918
 5377SOL    HW217031   1.424   1.469   2.808
 5378SOL     OW17032   4.493   0.125   2.450
 5378SOL    HW117033   4.481   0.221   2.474
 5378SOL    HW217034   4.404   0.080   2.448
 5379SOL     OW17035   2.258   2.078   4.193
 5379SOL    HW117036   2.342   2.079   4.139
 5379SOL    HW217037   2.214   1.989   4.185
 5380SOL     OW17038   4.811   5.908   2.024
 5380SOL    HW117039   4.791   5.832   1.962
 5380SOL    HW217040   4.824   5.873   2.117
 5381SOL     OW17041   3.024   0.243   3.404
 5381SOL    HW117042   2.933   0.200   3.403
 5381SOL    HW217043   3.092   0.176   3.431
 5382SOL     OW17044   4.648   0.855   2.691
 5382SOL    HW117045   4.746   0.835   2.694
 5382SOL    HW217046   4.597   0.781   2.734
 5383SOL     OW17047   2.218   2.932   4.440
 5383SOL    HW117048   2.247   3.019   4.480
 5383SOL    HW217049   2.269   2.857   4.482
 5384SOL     OW17050   5.576   5.694   5.551
 5384SOL    HW117051   5.530   5.622   5.603
 5384SOL    HW217052   5.557   5.681   5.453
 5385SOL     OW17053   3.922   3.387   6.264
 5385SOL    HW117054   3.905   3.486   6.268
 5385SOL    HW217055   4.010   3.367   6.305
 5386SOL     OW17056   5.134   4.658   4.236
 5386SOL    HW117057   5.121   4.606   4.151
 5386SOL    HW217058   5.217   4.626   4.281
 5387SOL     OW17059   1.157   1.513   4.031
 5387SOL    HW117060   1.080   1.525   3.968
 5387SOL    HW217061   1.230   1.577   4.007
 5388SOL     OW17062   6.987   6.830   3.250
 5388SOL    HW117063   6.954   6.810   3.342
 5388SOL    HW217064   6.953   6.760   3.187
 5389SOL     OW17065   5.142   0.981   3.545
 5389SOL    HW117066   5.133   0.950   3.450
 5389SOL    HW217067   5.209   0.924   3.592
 5390SOL     OW17068   6.897   3.927   3.496
 5390SOL    HW117069   6.896   3.831   3.470
 5390SOL    HW217070   6.826   3.976   3.445
 5391SOL     OW17071   2.935   2.578   1.065
 5391SOL    HW117072   2.858   2.530   1.106
 5391SOL    HW217073   2.952   2.543   0.973
 5392SOL     OW17074   6.012   0.632   4.036
 5392SOL    HW117075   6.013   0.710   3.974
 5392SOL    HW217076   5.924   0.629   4.083
 5393SOL     OW17077   4.602   2.505   4.329
 5393SOL    HW117078   4.553   2.510   4.416
 5393SOL    HW217079   4.638   2.412   4.316
 5394SOL     OW17080   0.758   2.163   1.553
 5394SOL    HW117081   0.839   2.217   1.532
 5394SOL    HW217082   0.758   2.138   1.650
 5395SOL     OW17083   6.586   1.230   0.887
 5395SOL    HW117084   6.537   1.231   0.974
 5395SOL    HW217085   6.541   1.292   0.823
 5396SOL     OW17086   4.280   3.730   0.599
 5396SOL    HW117087   4.214   3.670   0.554
 5396SOL    HW217088   4.297   3.696   0.691
 5397SOL     OW17089   7.013   0.556   2.810
 5397SOL    HW117090   6.978   0.548   2.904
 5397SOL    HW217091   0.085   0.589   2.813
 5398SOL     OW17092   6.319   3.046   2.506
 5398SOL    HW117093   6.396   3.107   2.524
 5398SOL    HW217094   6.303   2.988   2.586
 5399SOL     OW17095   1.922   2.192   0.273
 5399SOL    HW117096   2.012   2.192   0.317
 5399SOL    HW217097   1.930   2.157   0.180
 5400SOL     OW17098   4.866   2.810   1.453
 5400SOL    HW117099   4.846   2.810   1.551
 5400SOL    HW217100   4.856   2.718   1.416
 5401SOL     OW17101   5.386   2.475   1.379
 5401SOL    HW117102   5.421   2.527   1.301
 5401SOL    HW217103   5.430   2.508   1.463
 5402SOL     OW17104   1.348   6.188   3.010
 5402SOL    HW117105   1.258   6.179   3.051
 5402SOL    HW217106   1.362   6.116   2.942
 5403SOL     OW17107   4.900   2.541   0.110
 5403SOL    HW117108   4.837   2.492   0.050
 5403SOL    HW217109   4.850   2.576   0.189
 5404SOL     OW17110   4.692   6.784   0.271
 5404SOL    HW117111   4.635   6.811   0.193
 5404SOL    HW217112   4.782   6.826   0.262
 5405SOL     OW17113   0.151   4.889   0.299
 5405SOL    HW117114   0.158   4.917   0.203
 5405SOL    HW217115   0.239   4.855   0.331
 5406SOL     OW17116   2.179   1.043   6.013
 5406SOL    HW117117   2.089   1.085   5.998
 5406SOL    HW217118   2.235   1.052   5.931
 5407SOL     OW17119   1.726   6.810   3.070
 5407SOL    HW117120   1.737   6.866   2.988
 5407SOL    HW217121   1.667   6.732   3.049
 5408SOL     OW17122   2.157   1.821   4.176
 5408SOL    HW117123   2.240   1.805   4.229
 5408SOL    HW217124   2.115   1.734   4.153
 5409SOL     OW17125   1.142   2.355   2.239
 5409SOL    HW117126   1.100   2.330   2.152
 5409SOL    HW217127   1.076   2.405   2.295
 5410SOL     OW17128   6.187   2.323   0.875
 5410SOL    HW117129   6.278   2.315   0.916
 5410SOL    HW217130   6.190   2.388   0.799
 5411SOL     OW17131   3.795   5.409   6.855
 5411SOL    HW117132   3.844   5.465   6.922
 5411SOL    HW217133   3.798   5.313   6.882
 5412SOL     OW17134   0.324   2.336   6.008
 5412SOL    HW117135   0.414   2.327   6.050
 5412SOL    HW217136   0.265   2.262   6.039
 5413SOL     OW17137   0.760   5.001   5.042
 5413SOL    HW117138   0.786   4.908   5.070
 5413SOL    HW217139   0.664   5.016   5.065
 5414SOL     OW17140   5.376   4.417   5.887
 5414SOL    HW117141   5.316   4.345   5.854
 5414SOL    HW217142   5.414   4.467   5.808
 5415SOL     OW17143   3.603   1.136   0.323
 5415SOL    HW117144   3.534   1.068   0.299
 5415SOL    HW217145   3.687   1.089   0.350
 5416SOL     OW17146   3.758   5.519   0.252
 5416SOL    HW117147   3.703   5.600   0.229
 5416SOL    HW217148   3.735   5.444   0.190
 5417SOL     OW17149   4.754   6.500   4.018
 5417SOL    HW117150   4.751   6.508   4.118
 5417SOL    HW217151   4.809   6.574   3.980
 5418SOL     OW17152   6.602   2.874   5.860
 5418SOL    HW117153   6.555   2.818   5.929
 5418SOL    HW217154   6.647   2.814   5.794
 5419SOL     OW17155   3.959   1.543   6.250
 5419SOL    HW117156   4.047   1.500   6.270
 5419SOL    HW217157   3.923   1.585   6.333
 5420SOL     OW17158   1.651   2.039   2.027
 5420SOL    HW117159   1.705   2.101   2.085
 5420SOL    HW217160   1.569   2.087   1.996
 5421SOL     OW17161   3.722   4.911   2.171
 5421SOL    HW117162   3.668   4.853   2.110
 5421SOL    HW217163   3.741   4.998   2.127
 5422SOL     OW17164   2.863   5.033   3.580
 5422SOL    HW117165   2.886   5.056   3.674
 5422SOL    HW217166   2.767   5.056   3.562
 5423SOL     OW17167   5.040   0.007   1.761
 5423SOL    HW117168   5.072   6.936   1.780
 5423SOL    HW217169   4.989   0.008   1.675
 5424SOL     OW17170   4.119   3.781   5.213
 5424SOL    HW117171   4.066   3.750   5.293
 5424SOL    HW217172   4.209   3.739   5.214
 5425SOL     OW17173   1.444   4.426   5.884
 5425SOL    HW117174   1.526   4.477   5.861
 5425SOL    HW217175   1.459   4.329   5.865
 5426SOL     OW17176   6.949   5.151   1.490
 5426SOL    HW117177   6.969   5.243   1.455
 5426SOL    HW217178   0.005   5.119   1.543
 5427SOL     OW17179   4.273   3.429   0.379
 5427SOL    HW117180   4.332   3.405   0.456
 5427SOL    HW217181   4.179   3.401   0.400
 5428SOL     OW17182   5.125   5.232   3.317
 5428SOL    HW117183   5.184   5.295   3.267
 5428SOL    HW217184   5.119   5.145   3.267
 5429SOL     OW17185   2.638   6.979   4.241
 5429SOL    HW117186   2.729   7.003   4.208
 5429SOL    HW217187   2.572   6.985   4.166
 5430SOL     OW17188   2.479   3.903   5.740
 5430SOL    HW117189   2.530   3.963   5.678
 5430SOL    HW217190   2.464   3.815   5.696
 5431SOL     OW17191   4.631   4.574   0.506
 5431SOL    HW117192   4.625   4.512   0.427
 5431SOL    HW217193   4.550   4.633   0.508
 5432SOL     OW17194   0.480   5.271   6.590
 5432SOL    HW117195   0.486   5.278   6.690
 5432SOL    HW217196   0.386   5.289   6.562
 5433SOL     OW17197   3.443   0.037   1.224
 5433SOL    HW117198   3.371   0.006   1.162
 5433SOL    HW217199   3.515   0.082   1.171
 5434SOL     OW17200   4.728   0.524   4.288
 5434SOL    HW117201   4.750   0.473   4.371
 5434SOL    HW217202   4.806   0.521   4.226
 5435SOL     OW17203   6.720   4.984   0.354
 5435SOL    HW117204   6.789   4.942   0.294
 5435SOL    HW217205   6.760   4.998   0.445
 5436SOL     OW17206   1.853   4.774   2.544
 5436SOL    HW117207   1.911   4.772   2.626
 5436SOL    HW217208   1.818   4.682   2.525
 5437SOL     OW17209   3.178   6.424   0.929
 5437SOL    HW117210   3.191   6.430   0.830
 5437SOL    HW217211   3.224   6.343   0.964
 5438SOL     OW17212   4.939   6.400   2.270
 5438SOL    HW117213   5.016   6.347   2.235
 5438SOL    HW217214   4.899   6.352   2.348
 5439SOL     OW17215   1.015   4.353   1.163
 5439SOL    HW117216   1.087   4.292   1.130
 5439SOL    HW217217   1.052   4.446   1.172
 5440SOL     OW17218   5.806   6.192   3.707
 5440SOL    HW117219   5.876   6.159   3.644
 5440SOL    HW217220   5.749   6.259   3.660
 5441SOL     OW17221   5.306   2.401   4.976
 5441SOL    HW117222   5.247   2.430   5.051
 5441SOL    HW217223   5.332   2.480   4.921
 5442SOL     OW17224   3.011   0.593   6.445
 5442SOL    HW117225   2.981   0.638   6.529
 5442SOL    HW217226   2.940   0.602   6.375
 5443SOL     OW17227   5.295   0.954   2.727
 5443SOL    HW117228   5.264   0.867   2.764
 5443SOL    HW217229   5.302   0.947   2.627
 5444SOL     OW17230   6.934   0.891   6.460
 5444SOL    HW117231   6.983   0.963   6.412
 5444SOL    HW217232   6.842   0.923   6.482
 5445SOL     OW17233   5.886   6.179   5.902
 5445SOL    HW117234   5.947   6.220   5.834
 5445SOL    HW217235   5.839   6.252   5.952
 5446SOL     OW17236   7.010   4.391   6.127
 5446SOL    HW117237   0.008   4.487   6.109
 5446SOL    HW217238   0.022   4.335   6.051
 5447SOL     OW17239   0.050   1.295   1.797
 5447SOL    HW117240   0.121   1.348   1.844
 5447SOL    HW217241   0.053   1.201   1.828
 5448SOL     OW17242   5.244   4.652   2.832
 5448SOL    HW117243   5.203   4.592   2.900
 5448SOL    HW217244   5.195   4.740   2.832
 5449SOL     OW17245   2.935   1.168   1.941
 5449SOL    HW117246   2.913   1.255   1.896
 5449SOL    HW217247   2.915   1.176   2.039
 5450SOL     OW17248   4.564   5.946   2.344
 5450SOL    HW117249   4.534   6.031   2.389
 5450SOL    HW217250   4.499   5.922   2.272
 5451SOL     OW17251   6.472   6.411   3.876
 5451SOL    HW117252   6.467   6.438   3.972
 5451SOL    HW217253   6.539   6.339   3.865
 5452SOL     OW17254   2.170   3.866   2.700
 5452SOL    HW117255   2.166   3.766   2.707
 5452SOL    HW217256   2.126   3.896   2.616
 5453SOL     OW17257   6.831   4.840   3.994
 5453SOL    HW117258   6.859   4.920   4.046
 5453SOL    HW217259   6.769   4.783   4.049
 5454SOL     OW17260   5.932   3.929   3.336
 5454SOL    HW117261   5.993   3.964   3.265
 5454SOL    HW217262   5.952   3.832   3.353
 5455SOL     OW17263   2.386   1.916   3.593
 5455SOL    HW117264   2.414   1.881   3.682
 5455SOL    HW217265   2.463   1.964   3.550
 5456SOL     OW17266   5.340   2.360   0.532
 5456SOL    HW117267   5.430   2.356   0.574
 5456SOL    HW217268   5.345   2.320   0.440
 5457SOL     OW17269   5.753   0.841   6.441
 5457SOL    HW117270   5.672   0.782   6.443
 5457SOL    HW217271   5.812   0.818   6.519
 5458SOL     OW17272   5.929   3.652   0.003
 5458SOL    HW117273   5.977   3.605   6.950
 5458SOL    HW217274   5.875   3.585   0.054
 5459SOL     OW17275   2.079   3.424   4.713
 5459SOL    HW117276   2.009   3.354   4.700
 5459SOL    HW217277   2.078   3.454   4.809
 5460SOL     OW17278   1.036   0.425   1.507
 5460SOL    HW117279   1.049   0.516   1.469
 5460SOL    HW217280   1.012   0.361   1.434
 5461SOL     OW17281   6.488   1.023   5.925
 5461SOL    HW117282   6.450   1.082   5.855
 5461SOL    HW217283   6.523   0.939   5.883
 5462SOL     OW17284   4.865   4.272   6.515
 5462SOL    HW117285   4.920   4.340   6.466
 5462SOL    HW217286   4.904   4.181   6.501
 5463SOL     OW17287   0.970   3.203   5.923
 5463SOL    HW117288   1.051   3.238   5.876
 5463SOL    HW217289   0.957   3.253   6.009
 5464SOL     OW17290   1.796   5.870   5.527
 5464SOL    HW117291   1.702   5.842   5.547
 5464SOL    HW217292   1.841   5.799   5.474
 5465SOL     OW17293   0.425   6.895   4.357
 5465SOL    HW117294   0.409   6.954   4.278
 5465SOL    HW217295   0.337   6.862   4.391
 5466SOL     OW17296   5.770   2.059   4.521
 5466SOL    HW117297   5.855   2.067   4.572
 5466SOL    HW217298   5.717   2.144   4.531
 5467SOL     OW17299   4.960   3.402   3.984
 5467SOL    HW117300   5.041   3.447   3.946
 5467SOL    HW217301   4.927   3.454   4.062
 5468SOL     OW17302   0.007   1.124   1.059
 5468SOL    HW117303   6.962   1.120   0.984
 5468SOL    HW217304   0.065   1.043   1.055
 5469SOL     OW17305   3.597   0.832   4.158
 5469SOL    HW117306   3.500   0.853   4.143
 5469SOL    HW217307   3.610   0.733   4.159
 5470SOL     OW17308   4.423   5.005   4.221
 5470SOL    HW117309   4.345   4.958   4.180
 5470SOL    HW217310   4.431   4.978   4.317
 5471SOL     OW17311   4.680   0.441   3.155
 5471SOL    HW117312   4.743   0.372   3.190
 5471SOL    HW217313   4.702   0.461   3.060
 5472SOL     OW17314   3.021   3.344   6.513
 5472SOL    HW117315   3.054   3.250   6.497
 5472SOL    HW217316   2.938   3.359   6.459
 5473SOL     OW17317   2.808   4.970   1.896
 5473SOL    HW117318   2.757   4.905   1.840
 5473SOL    HW217319   2.895   4.929   1.924
 5474SOL     OW17320   1.080   4.860   2.439
 5474SOL    HW117321   1.166   4.817   2.468
 5474SOL    HW217322   1.027   4.795   2.385
 5475SOL     OW17323   0.746   1.322   5.223
 5475SOL    HW117324   0.703   1.374   5.297
 5475SOL    HW217325   0.841   1.352   5.212
 5476SOL     OW17326   2.286   6.839   4.915
 5476SOL    HW117327   2.385   6.834   4.905
 5476SOL    HW217328   2.249   6.905   4.850
 5477SOL     OW17329   1.895   3.787   4.027
 5477SOL    HW117330   1.806   3.777   3.982
 5477SOL    HW217331   1.960   3.722   3.989
 5478SOL     OW17332   4.843   4.656   5.894
 5478SOL    HW117333   4.848   4.566   5.849
 5478SOL    HW217334   4.791   4.648   5.979
 5479SOL     OW17335   4.718   1.967   4.333
 5479SOL    HW117336   4.802   1.989   4.284
 5479SOL    HW217337   4.740   1.914   4.415
 5480SOL     OW17338   1.051   3.589   4.393
 5480SOL    HW117339   0.959   3.622   4.372
 5480SOL    HW217340   1.119   3.650   4.352
 5481SOL     OW17341   4.507   1.693   6.603
 5481SOL    HW117342   4.583   1.733   6.552
 5481SOL    HW217343   4.500   1.595   6.582
 5482SOL     OW17344   5.313   3.210   1.818
 5482SOL    HW117345   5.344   3.157   1.740
 5482SOL    HW217346   5.315   3.308   1.795
 5483SOL     OW17347   6.650   2.894   6.990
 5483SOL    HW117348   6.718   2.918   0.037
 5483SOL    HW217349   6.673   2.938   6.903
 5484SOL     OW17350   6.621   6.525   4.993
 5484SOL    HW117351   6.664   6.614   4.978
 5484SOL    HW217352   6.612   6.508   5.091
 5485SOL     OW17353   3.445   0.218   5.208
 5485SOL    HW117354   3.434   0.313   5.238
 5485SOL    HW217355   3.464   0.216   5.110
 5486SOL     OW17356   1.337   0.696   3.853
 5486SOL    HW117357   1.385   0.731   3.933
 5486SOL    HW217358   1.383   0.612   3.822
 5487SOL     OW17359   4.492   4.997   0.597
 5487SOL    HW117360   4.495   5.023   0.693
 5487SOL    HW217361   4.413   5.041   0.554
 5488SOL     OW17362   4.824   0.866   6.001
 5488SOL    HW117363   4.728   0.854   6.028
 5488SOL    HW217364   4.853   0.959   6.024
 5489SOL     OW17365   0.980   3.908   3.565
 5489SOL    HW117366   0.892   3.898   3.517
 5489SOL    HW217367   1.016   3.818   3.588
 5490SOL     OW17368   2.092   2.295   6.877
 5490SOL    HW117369   2.139   2.319   6.792
 5490SOL    HW217370   2.154   2.308   6.954
 5491SOL     OW17371   0.293   5.685   1.392
 5491SOL    HW117372   0.310   5.711   1.298
 5491SOL    HW217373   0.277   5.767   1.447
 5492SOL     OW17374   1.635   1.269   5.183
 5492SOL    HW117375   1.692   1.205   5.235
 5492SOL    HW217376   1.549   1.224   5.159
 5493SOL     OW17377   3.043   2.693   0.393
 5493SOL    HW117378   2.948   2.695   0.425
 5493SOL    HW217379   3.045   2.698   0.293
 5494SOL     OW17380   6.162   2.736   2.514
 5494SOL    HW117381   6.159   2.642   2.479
 5494SOL    HW217382   6.188   2.798   2.440
 5495SOL     OW17383   3.550   2.898   2.506
 5495SOL    HW117384   3.457   2.931   2.492
 5495SOL    HW217385   3.576   2.838   2.430
 5496SOL     OW17386   3.631   5.586   1.122
 5496SOL    HW117387   3.548   5.640   1.137
 5496SOL    HW217388   3.698   5.608   1.193
 5497SOL     OW17389   6.257   6.771   2.459
 5497SOL    HW117390   6.335   6.724   2.499
 5497SOL    HW217391   6.215   6.713   2.389
 5498SOL     OW17392   4.318   0.391   5.401
 5498SOL    HW117393   4.391   0.405   5.468
 5498SOL    HW217394   4.317   0.295   5.372
 5499SOL     OW17395   0.104   2.175   4.191
 5499SOL    HW117396   0.106   2.077   4.174
 5499SOL    HW217397   0.191   2.204   4.231
 5500SOL     OW17398   1.640   5.971   1.680
 5500SOL    HW117399   1.684   5.991   1.767
 5500SOL    HW217400   1.642   5.873   1.663
 5501SOL     OW17401   2.236   0.088   2.705
 5501SOL    HW117402   2.247   0.116   2.610
 5501SOL    HW217403   2.275   7.019   2.718
 5502SOL     OW17404   4.465   4.058   0.049
 5502SOL    HW117405   4.494   3.963   0.039
 5502SOL    HW217406   4.437   4.094   6.982
 5503SOL     OW17407   1.236   5.599   4.312
 5503SOL    HW117408   1.273   5.564   4.399
 5503SOL    HW217409   1.312   5.626   4.253
 5504SOL     OW17410   3.382   2.072   4.883
 5504SOL    HW117411   3.474   2.049   4.851
 5504SOL    HW217412   3.315   2.029   4.823
 5505SOL     OW17413   2.945   4.765   6.017
 5505SOL    HW117414   2.931   4.694   5.948
 5505SOL    HW217415   3.040   4.764   6.048
 5506SOL     OW17416   6.417   0.081   5.282
 5506SOL    HW117417   6.423   0.027   5.367
 5506SOL    HW217418   6.464   0.032   5.209
 5507SOL     OW17419   2.826   5.674   4.233
 5507SOL    HW117420   2.867   5.592   4.273
 5507SOL    HW217421   2.855   5.683   4.137
 5508SOL     OW17422   2.338   0.673   6.155
 5508SOL    HW117423   2.386   0.586   6.164
 5508SOL    HW217424   2.356   0.711   6.064
 5509SOL     OW17425   5.826   6.242   6.705
 5509SOL    HW117426   5.754   6.184   6.667
 5509SOL    HW217427   5.902   6.185   6.735
 5510SOL     OW17428   4.587   0.647   5.390
 5510SOL    HW117429   4.515   0.643   5.321
 5510SOL    HW217430   4.604   0.743   5.415
 5511SOL     OW17431   0.538   1.550   2.172
 5511SOL    HW117432   0.544   1.464   2.122
 5511SOL    HW217433   0.526   1.626   2.107
 5512SOL     OW17434   1.841   0.204   1.102
 5512SOL    HW117435   1.753   0.201   1.150
 5512SOL    HW217436   1.826   0.210   1.004
 5513SOL     OW17437   3.684   4.965   4.587
 5513SOL    HW117438   3.747   4.961   4.665
 5513SOL    HW217439   3.647   5.058   4.578
 5514SOL     OW17440   5.986   5.059   3.413
 5514SOL    HW117441   6.037   5.039   3.497
 5514SOL    HW217442   6.050   5.079   3.339
 5515SOL     OW17443   6.817   2.892   1.878
 5515SOL    HW117444   6.742   2.946   1.839
 5515SOL    HW217445   6.782   2.802   1.905
 5516SOL     OW17446   1.384   3.563   6.028
 5516SOL    HW117447   1.445   3.501   5.979
 5516SOL    HW217448   1.394   3.549   6.127
 5517SOL     OW17449   2.536   1.467   2.732
 5517SOL    HW117450   2.512   1.560   2.758
 5517SOL    HW217451   2.453   1.418   2.703
 5518SOL     OW17452   5.743   4.858   5.145
 5518SOL    HW117453   5.697   4.909   5.072
 5518SOL    HW217454   5.713   4.762   5.143
 5519SOL     OW17455   5.164   3.523   3.865
 5519SOL    HW117456   5.219   3.541   3.783
 5519SOL    HW217457   5.155   3.607   3.919
 5520SOL     OW17458   1.429   3.904   1.379
 5520SOL    HW117459   1.451   3.959   1.460
 5520SOL    HW217460   1.424   3.808   1.404
 5521SOL     OW17461   5.564   5.353   1.919
 5521SOL    HW117462   5.540   5.362   2.015
 5521SOL    HW217463   5.525   5.269   1.882
 5522SOL     OW17464   2.017   3.627   2.079
 5522SOL    HW117465   1.987   3.659   1.989
 5522SOL    HW217466   2.087   3.556   2.068
 5523SOL     OW17467   2.777   0.944   1.664
 5523SOL    HW117468   2.791   0.846   1.671
 5523SOL    HW217469   2.855   0.992   1.703
 5524SOL     OW17470   6.860   5.586   6.144
 5524SOL    HW117471   6.950   5.584   6.099
 5524SOL    HW217472   6.864   5.650   6.221
 5525SOL     OW17473   0.104   5.437   4.837
 5525SOL    HW117474   0.089   5.339   4.843
 5525SOL    HW217475   0.193   5.460   4.876
 5526SOL     OW17476   6.312   2.766   4.742
 5526SOL    HW117477   6.402   2.730   4.719
 5526SOL    HW217478   6.241   2.703   4.708
 5527SOL     OW17479   2.103   3.587   1.094
 5527SOL    HW117480   2.071   3.570   1.001
 5527SOL    HW217481   2.099   3.502   1.147
 5528SOL     OW17482   0.551   3.464   3.670
 5528SOL    HW117483   0.644   3.436   3.692
 5528SOL    HW217484   0.554   3.548   3.616
 5529SOL     OW17485   1.875   1.599   4.963
 5529SOL    HW117486   1.790   1.628   5.007
 5529SOL    HW217487   1.939   1.567   5.032
 5530SOL     OW17488   1.224   2.532   0.770
 5530SOL    HW117489   1.316   2.563   0.794
 5530SOL    HW217490   1.227   2.484   0.682
 5531SOL     OW17491   3.012   2.821   5.931
 5531SOL    HW117492   3.100   2.824   5.882
 5531SOL    HW217493   2.937   2.830   5.865
 5532SOL     OW17494   2.889   1.464   1.081
 5532SOL    HW117495   2.950   1.542   1.093
 5532SOL    HW217496   2.921   1.388   1.138
 5533SOL     OW17497   4.467   0.808   1.146
 5533SOL    HW117498   4.367   0.816   1.147
 5533SOL    HW217499   4.492   0.711   1.141
 5534SOL     OW17500   0.143   4.153   5.635
 5534SOL    HW117501   0.080   4.213   5.587
 5534SOL    HW217502   0.153   4.067   5.584
 5535SOL     OW17503   6.163   3.555   3.575
 5535SOL    HW117504   6.139   3.529   3.669
 5535SOL    HW217505   6.244   3.503   3.546
 5536SOL     OW17506   1.399   0.605   3.373
 5536SOL    HW117507   1.412   0.580   3.469
 5536SOL    HW217508   1.336   0.541   3.330
 5537SOL     OW17509   4.361   0.995   4.535
 5537SOL    HW117510   4.420   1.044   4.471
 5537SOL    HW217511   4.336   0.906   4.497
 5538SOL     OW17512   5.509   1.846   0.579
 5538SOL    HW117513   5.462   1.806   0.501
 5538SOL    HW217514   5.462   1.820   0.663
 5539SOL     OW17515   3.178   6.798   6.966
 5539SOL    HW117516   3.228   6.872   6.920
 5539SOL    HW217517   3.115   6.837   0.011
 5540SOL     OW17518   5.333   0.804   6.777
 5540SOL    HW117519   5.234   0.809   6.789
 5540SOL    HW217520   5.377   0.877   6.831
 5541SOL     OW17521   4.840   3.584   5.876
 5541SOL    HW117522   4.845   3.512   5.946
 5541SOL    HW217523   4.860   3.672   5.918
 5542SOL     OW17524   3.962   4.785   0.067
 5542SOL    HW117525   3.883   4.725   0.081
 5542SOL    HW217526   3.983   4.789   6.991
 5543SOL     OW17527   1.474   0.235   0.474
 5543SOL    HW117528   1.477   0.291   0.392
 5543SOL    HW217529   1.402   0.269   0.535
 5544SOL     OW17530   3.748   5.786   5.903
 5544SOL    HW117531   3.764   5.712   5.837
 5544SOL    HW217532   3.694   5.751   5.979
 5545SOL     OW17533   4.009   0.551   3.159
 5545SOL    HW117534   4.097   0.508   3.138
 5545SOL    HW217535   4.025   0.638   3.206
 5546SOL     OW17536   0.639   5.450   4.959
 5546SOL    HW117537   0.621   5.456   5.057
 5546SOL    HW217538   0.665   5.540   4.925
 5547SOL     OW17539   5.386   1.430   4.522
 5547SOL    HW117540   5.452   1.390   4.585
 5547SOL    HW217541   5.387   1.530   4.530
 5548SOL     OW17542   6.594   4.531   5.266
 5548SOL    HW117543   6.602   4.457   5.200
 5548SOL    HW217544   6.550   4.497   5.350
 5549SOL     OW17545   4.311   2.937   0.814
 5549SOL    HW117546   4.276   2.861   0.759
 5549SOL    HW217547   4.321   2.908   0.909
 5550SOL     OW17548   1.888   3.979   2.084
 5550SOL    HW117549   1.807   3.949   2.135
 5550SOL    HW217550   1.870   3.972   1.986
 5551SOL     OW17551   1.837   5.548   3.992
 5551SOL    HW117552   1.883   5.544   3.903
 5551SOL    HW217553   1.808   5.457   4.019
 5552SOL     OW17554   0.282   6.427   6.762
 5552SOL    HW117555   0.376   6.460   6.761
 5552SOL    HW217556   0.225   6.491   6.813
 5553SOL     OW17557   4.253   0.261   6.764
 5553SOL    HW117558   4.190   0.338   6.753
 5553SOL    HW217559   4.249   0.227   6.857
 5554SOL     OW17560   5.052   2.580   1.641
 5554SOL    HW117561   5.043   2.560   1.543
 5554SOL    HW217562   4.993   2.518   1.693
 5555SOL     OW17563   1.694   4.232   2.352
 5555SOL    HW117564   1.780   4.220   2.303
 5555SOL    HW217565   1.708   4.295   2.428
 5556SOL     OW17566   6.909   0.665   4.776
 5556SOL    HW117567   6.957   0.625   4.854
 5556SOL    HW217568   6.887   0.761   4.796
 5557SOL     OW17569   3.299   6.223   1.848
 5557SOL    HW117570   3.346   6.189   1.930
 5557SOL    HW217571   3.209   6.257   1.874
 5558SOL     OW17572   3.895   4.822   6.768
 5558SOL    HW117573   3.833   4.747   6.789
 5558SOL    HW217574   3.878   4.854   6.675
 5559SOL     OW17575   2.014   0.302   2.682
 5559SOL    HW117576   1.963   0.222   2.650
 5559SOL    HW217577   2.105   0.302   2.641
 5560SOL     OW17578   0.883   5.902   2.984
 5560SOL    HW117579   0.945   5.938   2.913
 5560SOL    HW217580   0.916   5.813   3.015
 5561SOL     OW17581   3.159   6.947   3.968
 5561SOL    HW117582   3.189   6.898   4.051
 5561SOL    HW217583   3.136   0.019   3.992
 5562SOL     OW17584   4.046   3.853   1.302
 5562SOL    HW117585   4.079   3.885   1.213
 5562SOL    HW217586   4.109   3.882   1.374
 5563SOL     OW17587   2.721   4.655   2.902
 5563SOL    HW117588   2.679   4.653   2.992
 5563SOL    HW217589   2.786   4.731   2.896
 5564SOL     OW17590   5.295   0.809   5.879
 5564SOL    HW117591   5.308   0.746   5.802
 5564SOL    HW217592   5.362   0.883   5.873
 5565SOL     OW17593   3.050   2.245   6.592
 5565SOL    HW117594   3.004   2.303   6.525
 5565SOL    HW217595   3.032   2.279   6.684
 5566SOL     OW17596   1.340   3.224   6.765
 5566SOL    HW117597   1.337   3.173   6.679
 5566SOL    HW217598   1.261   3.285   6.770
 5567SOL     OW17599   6.931   4.552   1.517
 5567SOL    HW117600   6.885   4.567   1.605
 5567SOL    HW217601   6.872   4.498   1.457
 5568SOL     OW17602   4.594   6.212   1.641
 5568SOL    HW117603   4.530   6.209   1.565
 5568SOL    HW217604   4.677   6.162   1.617
 5569SOL     OW17605   2.258   3.002   4.152
 5569SOL    HW117606   2.226   3.010   4.246
 5569SOL    HW217607   2.308   2.916   4.140
 5570SOL     OW17608   0.343   3.784   3.009
 5570SOL    HW117609   0.352   3.860   2.946
 5570SOL    HW217610   0.294   3.814   3.091
 5571SOL     OW17611   6.442   5.097   1.911
 5571SOL    HW117612   6.352   5.055   1.923
 5571SOL    HW217613   6.446   5.142   1.822
 5572SOL     OW17614   0.921   3.181   4.987
 5572SOL    HW117615   0.942   3.251   5.055
 5572SOL    HW217616   1.006   3.151   4.943
 5573SOL     OW17617   2.916   5.426   4.278
 5573SOL    HW117618   2.887   5.377   4.360
 5573SOL    HW217619   3.016   5.420   4.270
 5574SOL     OW17620   6.823   2.313   6.403
 5574SOL    HW117621   6.916   2.344   6.422
 5574SOL    HW217622   6.826   2.226   6.356
 5575SOL     OW17623   0.708   0.026   1.513
 5575SOL    HW117624   0.623   0.030   1.567
 5575SOL    HW217625   0.780   0.076   1.560
 5576SOL     OW17626   2.214   4.085   3.649
 5576SOL    HW117627   2.221   4.033   3.734
 5576SOL    HW217628   2.167   4.171   3.666
 5577SOL     OW17629   1.447   3.307   6.301
 5577SOL    HW117630   1.450   3.407   6.302
 5577SOL    HW217631   1.470   3.273   6.393
 5578SOL     OW17632   3.835   3.375   2.872
 5578SOL    HW117633   3.869   3.282   2.864
 5578SOL    HW217634   3.908   3.440   2.849
 5579SOL     OW17635   0.308   2.731   1.667
 5579SOL    HW117636   0.214   2.727   1.701
 5579SOL    HW217637   0.333   2.826   1.648
 5580SOL     OW17638   5.264   1.948   5.369
 5580SOL    HW117639   5.184   1.974   5.424
 5580SOL    HW217640   5.244   1.861   5.322
 5581SOL     OW17641   0.786   1.906   0.110
 5581SOL    HW117642   0.843   1.987   0.097
 5581SOL    HW217643   0.827   1.847   0.180
 5582SOL     OW17644   2.380   2.654   6.620
 5582SOL    HW117645   2.400   2.557   6.630
 5582SOL    HW217646   2.372   2.676   6.522
 5583SOL     OW17647   5.454   0.972   2.083
 5583SOL    HW117648   5.426   1.067   2.090
 5583SOL    HW217649   5.548   0.962   2.116
 5584SOL     OW17650   0.194   4.211   5.178
 5584SOL    HW117651   0.123   4.281   5.167
 5584SOL    HW217652   0.277   4.254   5.213
 5585SOL     OW17653   4.900   4.835   1.883
 5585SOL    HW117654   4.993   4.808   1.908
 5585SOL    HW217655   4.840   4.822   1.962
 5586SOL     OW17656   6.699   2.659   6.510
 5586SOL    HW117657   6.720   2.738   6.568
 5586SOL    HW217658   6.781   2.604   6.497
 5587SOL     OW17659   5.030   0.409   6.408
 5587SOL    HW117660   5.011   0.314   6.435
 5587SOL    HW217661   5.083   0.454   6.480
 5588SOL     OW17662   3.382   6.592   1.348
 5588SOL    HW117663   3.471   6.548   1.331
 5588SOL    HW217664   3.327   6.532   1.406
 5589SOL     OW17665   5.758   4.763   6.387
 5589SOL    HW117666   5.712   4.804   6.308
 5589SOL    HW217667   5.857   4.772   6.376
 5590SOL     OW17668   5.839   5.593   4.410
 5590SOL    HW117669   5.812   5.621   4.318
 5590SOL    HW217670   5.769   5.620   4.476
 5591SOL     OW17671   6.054   1.729   1.400
 5591SOL    HW117672   6.054   1.827   1.418
 5591SOL    HW217673   6.142   1.690   1.427
 5592SOL     OW17674   0.796   4.655   3.554
 5592SOL    HW117675   0.883   4.636   3.509
 5592SOL    HW217676   0.806   4.646   3.653
 5593SOL     OW17677   6.346   1.895   0.391
 5593SOL    HW117678   6.273   1.947   0.435
 5593SOL    HW217679   6.374   1.820   0.451
 5594SOL     OW17680   5.500   2.083   5.380
 5594SOL    HW117681   5.560   2.086   5.299
 5594SOL    HW217682   5.427   2.017   5.365
 5595SOL     OW17683   0.997   2.461   5.618
 5595SOL    HW117684   0.990   2.431   5.523
 5595SOL    HW217685   1.093   2.481   5.639
 5596SOL     OW17686   4.431   6.489   2.361
 5596SOL    HW117687   4.484   6.573   2.351
 5596SOL    HW217688   4.474   6.431   2.430
 5597SOL     OW17689   4.863   3.289   3.233
 5597SOL    HW117690   4.864   3.367   3.171
 5597SOL    HW217691   4.945   3.291   3.291
 5598SOL     OW17692   5.173   2.029   4.638
 5598SOL    HW117693   5.153   2.127   4.637
 5598SOL    HW217694   5.234   2.008   4.561
 5599SOL     OW17695   0.422   2.060   3.959
 5599SOL    HW117696   0.361   1.983   3.939
 5599SOL    HW217697   0.498   2.028   4.015
 5600SOL     OW17698   1.514   2.474   4.190
 5600SOL    HW117699   1.506   2.455   4.092
 5600SOL    HW217700   1.489   2.569   4.207
 5601SOL     OW17701   2.428   1.272   5.546
 5601SOL    HW117702   2.461   1.178   5.550
 5601SOL    HW217703   2.431   1.312   5.638
 5602SOL     OW17704   0.951   1.567   0.962
 5602SOL    HW117705   0.881   1.509   1.003
 5602SOL    HW217706   1.031   1.512   0.939
 5603SOL     OW17707   5.356   2.372   6.723
 5603SOL    HW117708   5.367   2.469   6.700
 5603SOL    HW217709   5.420   2.348   6.796
 5604SOL     OW17710   6.096   1.879   5.578
 5604SOL    HW117711   6.174   1.832   5.618
 5604SOL    HW217712   6.049   1.817   5.515
 5605SOL     OW17713   0.542   1.923   4.687
 5605SOL    HW117714   0.540   1.825   4.707
 5605SOL    HW217715   0.477   1.944   4.614
 5606SOL     OW17716   4.320   0.105   1.795
 5606SOL    HW117717   4.317   0.107   1.895
 5606SOL    HW217718   4.403   0.058   1.765
 5607SOL     OW17719   5.356   1.907   1.706
 5607SOL    HW117720   5.388   1.997   1.737
 5607SOL    HW217721   5.424   1.838   1.729
 5608SOL     OW17722   4.143   0.002   5.081
 5608SOL    HW117723   4.148   6.926   5.064
 5608SOL    HW217724   4.076   0.043   5.019
 5609SOL     OW17725   2.860   6.622   6.529
 5609SOL    HW117726   2.862   6.535   6.578
 5609SOL    HW217727   2.771   6.666   6.543
 5610SOL     OW17728   5.013   0.668   0.332
 5610SOL    HW117729   5.022   0.624   0.422
 5610SOL    HW217730   5.063   0.754   0.331
 5611SOL     OW17731   1.367   4.754   3.426
 5611SOL    HW117732   1.361   4.654   3.426
 5611SOL    HW217733   1.349   4.789   3.519
 5612SOL     OW17734   2.546   0.468   5.479
 5612SOL    HW117735   2.459   0.419   5.481
 5612SOL    HW217736   2.546   0.531   5.402
 5613SOL     OW17737   4.416   4.569   1.764
 5613SOL    HW117738   4.494   4.505   1.759
 5613SOL    HW217739   4.334   4.524   1.731
 5614SOL     OW17740   4.673   2.340   3.043
 5614SOL    HW117741   4.612   2.305   2.971
 5614SOL    HW217742   4.646   2.302   3.131
 5615SOL     OW17743   1.596   0.721   0.355
 5615SOL    HW117744   1.663   0.653   0.386
 5615SOL    HW217745   1.565   0.698   0.264
 5616SOL     OW17746   2.180   0.734   4.262
 5616SOL    HW117747   2.172   0.817   4.208
 5616SOL    HW217748   2.101   0.676   4.247
 5617SOL     OW17749   1.994   0.640   4.629
 5617SOL    HW117750   1.918   0.593   4.675
 5617SOL    HW217751   2.076   0.634   4.685
 5618SOL     OW17752   7.012   4.241   3.939
 5618SOL    HW117753   6.976   4.150   3.959
 5618SOL    HW217754   0.060   4.234   3.868
 5619SOL     OW17755   2.184   3.876   5.704
 5619SOL    HW117756   2.280   3.882   5.729
 5619SOL    HW217757   2.136   3.959   5.735
 5620SOL     OW17758   3.756   2.255   6.780
 5620SOL    HW117759   3.833   2.303   6.736
 5620SOL    HW217760   3.750   2.283   6.876
 5621SOL     OW17761   1.712   2.067   5.413
 5621SOL    HW117762   1.633   2.022   5.454
 5621SOL    HW217763   1.740   2.017   5.331
 5622SOL     OW17764   5.073   0.581   6.062
 5622SOL    HW117765   5.012   0.625   6.128
 5622SOL    HW217766   5.040   0.600   5.969
 5623SOL     OW17767   1.542   6.052   6.682
 5623SOL    HW117768   1.641   6.039   6.675
 5623SOL    HW217769   1.519   6.094   6.770
 5624SOL     OW17770   1.055   4.651   3.453
 5624SOL    HW117771   1.040   4.749   3.442
 5624SOL    HW217772   1.148   4.628   3.426
 5625SOL     OW17773   6.580   2.896   4.807
 5625SOL    HW117774   6.492   2.927   4.771
 5625SOL    HW217775   6.645   2.972   4.807
 5626SOL     OW17776   3.462   0.183   4.933
 5626SOL    HW117777   3.549   0.157   4.891
 5626SOL    HW217778   3.420   0.103   4.976
 5627SOL     OW17779   1.344   6.224   1.497
 5627SOL    HW117780   1.292   6.170   1.432
 5627SOL    HW217781   1.302   6.217   1.588
 5628SOL     OW17782   2.214   1.884   4.811
 5628SOL    HW117783   2.267   1.799   4.807
 5628SOL    HW217784   2.134   1.875   4.752
 5629SOL     OW17785   3.530   3.779   2.574
 5629SOL    HW117786   3.538   3.701   2.512
 5629SOL    HW217787   3.506   3.861   2.521
 5630SOL     OW17788   0.807   4.463   1.438
 5630SOL    HW117789   0.784   4.400   1.363
 5630SOL    HW217790   0.806   4.557   1.404
 5631SOL     OW17791   4.557   0.970   0.328
 5631SOL    HW117792   4.528   0.987   0.233
 5631SOL    HW217793   4.495   0.904   0.370
 5632SOL     OW17794   4.433   3.811   6.704
 5632SOL    HW117795   4.454   3.907   6.685
 5632SOL    HW217796   4.515   3.765   6.738
 5633SOL     OW17797   6.544   2.744   4.420
 5633SOL    HW117798   6.617   2.680   4.398
 5633SOL    HW217799   6.582   2.824   4.466
 5634SOL     OW17800   3.951   5.387   4.104
 5634SOL    HW117801   3.954   5.477   4.148
 5634SOL    HW217802   3.979   5.396   4.009
 5635SOL     OW17803   2.648   2.422   4.920
 5635SOL    HW117804   2.692   2.383   5.001
 5635SOL    HW217805   2.666   2.363   4.841
 5636SOL     OW17806   4.696   5.530   2.876
 5636SOL    HW117807   4.744   5.617   2.869
 5636SOL    HW217808   4.628   5.536   2.950
 5637SOL     OW17809   5.643   6.656   3.673
 5637SOL    HW117810   5.694   6.734   3.637
 5637SOL    HW217811   5.686   6.571   3.642
 5638SOL     OW17812   5.101   2.552   6.546
 5638SOL    HW117813   5.072   2.456   6.545
 5638SOL    HW217814   5.038   2.606   6.490
 5639SOL     OW17815   1.673   1.484   6.330
 5639SOL    HW117816   1.761   1.525   6.354
 5639SOL    HW217817   1.599   1.545   6.359
 5640SOL     OW17818   2.559   0.323   3.397
 5640SOL    HW117819   2.505   0.303   3.315
 5640SOL    HW217820   2.636   0.260   3.403
 5641SOL     OW17821   6.550   5.209   5.722
 5641SOL    HW117822   6.466   5.240   5.679
 5641SOL    HW217823   6.549   5.235   5.819
 5642SOL     OW17824   1.294   2.052   6.023
 5642SOL    HW117825   1.208   2.085   5.984
 5642SOL    HW217826   1.315   1.962   5.985
 5643SOL     OW17827   6.089   2.344   4.415
 5643SOL    HW117828   6.011   2.361   4.475
 5643SOL    HW217829   6.171   2.326   4.470
 5644SOL     OW17830   3.315   0.234   6.667
 5644SOL    HW117831   3.257   0.224   6.586
 5644SOL    HW217832   3.411   0.236   6.639
 5645SOL     OW17833   5.815   3.225   4.058
 5645SOL    HW117834   5.821   3.274   3.971
 5645SOL    HW217835   5.885   3.260   4.120
 5646SOL     OW17836   1.708   4.287   2.880
 5646SOL    HW117837   1.654   4.370   2.890
 5646SOL    HW217838   1.801   4.302   2.914
 5647SOL     OW17839   6.813   5.728   3.150
 5647SOL    HW117840   6.898   5.759   3.107
 5647SOL    HW217841   6.817   5.630   3.165
 5648SOL     OW17842   4.212   6.443   2.701
 5648SOL    HW117843   4.147   6.437   2.777
 5648SOL    HW217844   4.298   6.399   2.728
 5649SOL     OW17845   0.495   6.310   4.017
 5649SOL    HW117846   0.537   6.379   4.075
 5649SOL    HW217847   0.559   6.286   3.943
 5650SOL     OW17848   6.779   4.004   0.572
 5650SOL    HW117849   6.690   3.992   0.527
 5650SOL    HW217850   6.852   3.985   0.507
 5651SOL     OW17851   1.549   0.448   1.394
 5651SOL    HW117852   1.554   0.376   1.464
 5651SOL    HW217853   1.471   0.431   1.334
 5652SOL     OW17854   1.416   5.656   1.507
 5652SOL    HW117855   1.336   5.712   1.524
 5652SOL    HW217856   1.408   5.570   1.558
 5653SOL     OW17857   0.377   6.740   1.445
 5653SOL    HW117858   0.291   6.736   1.496
 5653SOL    HW217859   0.392   6.834   1.414
 5654SOL     OW17860   2.489   6.082   4.990
 5654SOL    HW117861   2.434   6.116   5.066
 5654SOL    HW217862   2.490   5.982   4.992
 5655SOL     OW17863   6.460   3.169   4.421
 5655SOL    HW117864   6.419   3.196   4.334
 5655SOL    HW217865   6.402   3.101   4.466
 5656SOL     OW17866   0.470   3.131   0.226
 5656SOL    HW117867   0.413   3.054   0.196
 5656SOL    HW217868   0.495   3.187   0.147
 5657SOL     OW17869   4.556   5.501   5.063
 5657SOL    HW117870   4.651   5.471   5.053
 5657SOL    HW217871   4.505   5.431   5.114
 5658SOL     OW17872   2.079   1.916   5.670
 5658SOL    HW117873   2.114   1.947   5.759
 5658SOL    HW217874   2.148   1.859   5.625
 5659SOL     OW17875   3.961   4.254   6.296
 5659SOL    HW117876   3.880   4.280   6.244
 5659SOL    HW217877   4.026   4.331   6.296
 5660SOL     OW17878   4.125   0.793   6.640
 5660SOL    HW117879   4.171   0.748   6.564
 5660SOL    HW217880   4.136   0.892   6.631
 5661SOL     OW17881   1.296   5.179   5.834
 5661SOL    HW117882   1.273   5.226   5.749
 5661SOL    HW217883   1.319   5.084   5.815
 5662SOL     OW17884   2.260   6.224   2.445
 5662SOL    HW117885   2.327   6.163   2.403
 5662SOL    HW217886   2.270   6.316   2.408
 5663SOL     OW17887   0.910   2.618   0.414
 5663SOL    HW117888   0.961   2.605   0.499
 5663SOL    HW217889   0.960   2.578   0.337
 5664SOL     OW17890   5.132   4.038   4.314
 5664SOL    HW117891   5.129   3.939   4.326
 5664SOL    HW217892   5.097   4.062   4.223
 5665SOL     OW17893   2.355   1.127   1.083
 5665SOL    HW117894   2.336   1.218   1.121
 5665SOL    HW217895   2.276   1.067   1.099
 5666SOL     OW17896   5.390   1.387   4.833
 5666SOL    HW117897   5.344   1.475   4.823
 5666SOL    HW217898   5.336   1.328   4.893
 5667SOL     OW17899   2.485   5.175   5.076
 5667SOL    HW117900   2.563   5.118   5.104
 5667SOL    HW217901   2.504   5.215   4.987
 5668SOL     OW17902   5.246   3.190   3.418
 5668SOL    HW117903   5.293   3.137   3.348
 5668SOL    HW217904   5.254   3.144   3.506
 5669SOL     OW17905   6.496   4.327   6.629
 5669SOL    HW117906   6.504   4.292   6.723
 5669SOL    HW217907   6.415   4.385   6.622
 5670SOL     OW17908   1.167   2.080   2.355
 5670SOL    HW117909   1.139   2.171   2.324
 5670SOL    HW217910   1.088   2.032   2.393
 5671SOL     OW17911   0.195   6.790   3.446
 5671SOL    HW117912   0.220   6.734   3.525
 5671SOL    HW217913   0.108   6.835   3.462
 5672SOL     OW17914   5.020   3.592   5.603
 5672SOL    HW117915   5.062   3.596   5.694
 5672SOL    HW217916   4.922   3.573   5.612
 5673SOL     OW17917   0.685   0.559   1.000
 5673SOL    HW117918   0.681   0.578   0.902
 5673SOL    HW217919   0.601   0.512   1.028
 5674SOL     OW17920   1.877   5.414   5.659
 5674SOL    HW117921   1.891   5.327   5.612
 5674SOL    HW217922   1.966   5.452   5.685
 5675SOL     OW17923   2.042   1.893   0.405
 5675SOL    HW117924   1.956   1.844   0.391
 5675SOL    HW217925   2.080   1.919   0.316
 5676SOL     OW17926   2.856   2.104   1.537
 5676SOL    HW117927   2.903   2.017   1.552
 5676SOL    HW217928   2.895   2.150   1.457
 5677SOL     OW17929   6.892   0.688   1.379
 5677SOL    HW117930   6.852   0.596   1.371
 5677SOL    HW217931   6.831   0.746   1.433
 5678SOL     OW17932   3.484   2.007   2.014
 5678SOL    HW117933   3.447   2.006   1.922
 5678SOL    HW217934   3.568   2.062   2.017
 5679SOL     OW17935   6.119   3.441   5.392
 5679SOL    HW117936   6.033   3.397   5.366
 5679SOL    HW217937   6.112   3.475   5.486
 5680SOL     OW17938   1.521   5.993   5.378
 5680SOL    HW117939   1.474   5.915   5.337
 5680SOL    HW217940   1.617   5.992   5.351
 5681SOL     OW17941   1.244   4.008   3.587
 5681SOL    HW117942   1.295   4.004   3.673
 5681SOL    HW217943   1.172   3.939   3.588
 5682SOL     OW17944   2.182   4.269   1.633
 5682SOL    HW117945   2.117   4.228   1.569
 5682SOL    HW217946   2.136   4.340   1.686
 5683SOL     OW17947   6.157   1.411   6.491
 5683SOL    HW117948   6.112   1.472   6.557
 5683SOL    HW217949   6.245   1.382   6.528
 5684SOL     OW17950   1.874   2.885   5.614
 5684SOL    HW117951   1.787   2.907   5.570
 5684SOL    HW217952   1.927   2.969   5.628
 5685SOL     OW17953   2.605   1.723   3.790
 5685SOL    HW117954   2.612   1.743   3.888
 5685SOL    HW217955   2.673   1.654   3.765
 5686SOL     OW17956   3.689   6.215   6.178
 5686SOL    HW117957   3.782   6.194   6.209
 5686SOL    HW217958   3.624   6.193   6.252
 5687SOL     OW17959   2.347   6.487   6.252
 5687SOL    HW117960   2.306   6.483   6.161
 5687SOL    HW217961   2.385   6.398   6.276
 5688SOL     OW17962   2.448   2.676   3.256
 5688SOL    HW117963   2.457   2.725   3.170
 5688SOL    HW217964   2.423   2.581   3.238
 5689SOL     OW17965   0.357   2.003   1.741
 5689SOL    HW117966   0.319   2.042   1.825
 5689SOL    HW217967   0.387   2.078   1.681
 5690SOL     OW17968   1.530   5.789   0.392
 5690SOL    HW117969   1.564   5.805   0.299
 5690SOL    HW217970   1.431   5.777   0.389
 5691SOL     OW17971   3.091   1.057   2.657
 5691SOL    HW117972   3.109   1.145   2.699
 5691SOL    HW217973   2.994   1.036   2.663
 5692SOL     OW17974   4.400   5.042   1.317
 5692SOL    HW117975   4.433   4.997   1.400
 5692SOL    HW217976   4.447   5.004   1.237
 5693SOL     OW17977   3.684   1.013   1.350
 5693SOL    HW117978   3.658   1.013   1.253
 5693SOL    HW217979   3.650   1.096   1.393
 5694SOL     OW17980   0.866   6.441   1.963
 5694SOL    HW117981   0.965   6.433   1.976
 5694SOL    HW217982   0.819   6.374   2.019
 5695SOL     OW17983   1.674   0.509   0.975
 5695SOL    HW117984   1.576   0.493   0.985
 5695SOL    HW217985   1.713   0.533   1.064
 5696SOL     OW17986   1.411   0.038   3.839
 5696SOL    HW117987   1.481   0.090   3.791
 5696SOL    HW217988   1.444   0.013   3.930
 5697SOL     OW17989   6.310   2.960   0.498
 5697SOL    HW117990   6.225   2.949   0.447
 5697SOL    HW217991   6.386   2.923   0.444
 5698SOL     OW17992   2.574   2.397   3.914
 5698SOL    HW117993   2.543   2.492   3.909
 5698SOL    HW217994   2.640   2.380   3.841
 5699SOL     OW17995   2.212   2.504   2.881
 5699SOL    HW117996   2.152   2.576   2.846
 5699SOL    HW217997   2.157   2.424   2.906
 5700SOL     OW17998   6.271   0.901   3.456
 5700SOL    HW117999   6.237   0.807   3.452
 5700SOL    HW218000   6.264   0.935   3.550
 5701SOL     OW18001   0.371   0.878   1.412
 5701SOL    HW118002   0.297   0.811   1.414
 5701SOL    HW218003   0.457   0.833   1.435
 5702SOL     OW18004   2.661   6.741   4.383
 5702SOL    HW118005   2.624   6.814   4.326
 5702SOL    HW218006   2.754   6.763   4.410
 5703SOL     OW18007   0.062   2.901   6.752
 5703SOL    HW118008   0.065   2.918   6.850
 5703SOL    HW218009   0.019   2.812   6.735
 5704SOL     OW18010   5.134   4.155   3.827
 5704SOL    HW118011   5.077   4.117   3.900
 5704SOL    HW218012   5.191   4.228   3.864
 5705SOL     OW18013   6.289   6.724   5.608
 5705SOL    HW118014   6.321   6.711   5.514
 5705SOL    HW218015   6.231   6.805   5.613
 5706SOL     OW18016   5.042   2.213   0.044
 5706SOL    HW118017   5.103   2.213   0.123
 5706SOL    HW218018   4.949   2.239   0.073
 5707SOL     OW18019   5.900   5.808   2.392
 5707SOL    HW118020   5.862   5.716   2.390
 5707SOL    HW218021   5.885   5.849   2.482
 5708SOL     OW18022   4.496   5.771   2.921
 5708SOL    HW118023   4.580   5.820   2.943
 5708SOL    HW218024   4.494   5.751   2.823
 5709SOL     OW18025   0.792   1.622   2.642
 5709SOL    HW118026   0.844   1.619   2.556
 5709SOL    HW218027   0.699   1.653   2.623
 5710SOL     OW18028   2.727   2.138   1.050
 5710SOL    HW118029   2.745   2.223   1.001
 5710SOL    HW218030   2.811   2.083   1.051
 5711SOL     OW18031   5.399   2.413   2.046
 5711SOL    HW118032   5.339   2.419   1.966
 5711SOL    HW218033   5.377   2.487   2.109
 5712SOL     OW18034   6.281   6.465   1.374
 5712SOL    HW118035   6.296   6.563   1.358
 5712SOL    HW218036   6.368   6.420   1.390
 5713SOL     OW18037   2.542   6.517   0.500
 5713SOL    HW118038   2.563   6.600   0.450
 5713SOL    HW218039   2.626   6.482   0.543
 5714SOL     OW18040   6.053   6.991   1.305
 5714SOL    HW118041   6.108   6.982   1.222
 5714SOL    HW218042   6.106   0.019   1.374
 5715SOL     OW18043   0.753   0.202   1.166
 5715SOL    HW118044   0.852   0.212   1.166
 5715SOL    HW218045   0.713   0.272   1.225
 5716SOL     OW18046   6.627   4.564   5.727
 5716SOL    HW118047   6.546   4.506   5.740
 5716SOL    HW218048   6.600   4.652   5.690
 5717SOL     OW18049   1.185   4.880   2.814
 5717SOL    HW118050   1.204   4.975   2.793
 5717SOL    HW218051   1.090   4.871   2.844
 5718SOL     OW18052   0.857   3.268   0.285
 5718SOL    HW118053   0.780   3.331   0.294
 5718SOL    HW218054   0.931   3.313   0.235
 5719SOL     OW18055   2.337   3.886   0.753
 5719SOL    HW118056   2.402   3.811   0.762
 5719SOL    HW218057   2.387   3.973   0.748
 5720SOL     OW18058   2.589   4.481   6.088
 5720SOL    HW118059   2.634   4.422   6.154
 5720SOL    HW218060   2.614   4.453   5.995
 5721SOL     OW18061   3.683   4.217   0.311
 5721SOL    HW118062   3.619   4.209   0.388
 5721SOL    HW218063   3.700   4.126   0.274
 5722SOL     OW18064   0.890   1.257   5.609
 5722SOL    HW118065   0.832   1.330   5.645
 5722SOL    HW218066   0.986   1.278   5.626
 5723SOL     OW18067   4.373   3.108   6.875
 5723SOL    HW118068   4.310   3.184   6.891
 5723SOL    HW218069   4.466   3.142   6.863
 5724SOL     OW18070   6.069   2.682   3.717
 5724SOL    HW118071   6.052   2.594   3.761
 5724SOL    HW218072   6.018   2.754   3.765
 5725SOL     OW18073   6.687   4.107   4.306
 5725SOL    HW118074   6.776   4.075   4.341
 5725SOL    HW218075   6.701   4.152   4.218
 5726SOL     OW18076   5.434   4.702   2.655
 5726SOL    HW118077   5.444   4.800   2.634
 5726SOL    HW218078   5.366   4.690   2.727
 5727SOL     OW18079   0.592   2.188   5.137
 5727SOL    HW118080   0.630   2.149   5.053
 5727SOL    HW218081   0.577   2.115   5.203
 5728SOL     OW18082   4.803   6.566   5.052
 5728SOL    HW118083   4.711   6.604   5.069
 5728SOL    HW218084   4.866   6.602   5.120
 5729SOL     OW18085   1.931   1.989   5.191
 5729SOL    HW118086   1.983   2.026   5.114
 5729SOL    HW218087   1.992   1.938   5.252
 5730SOL     OW18088   6.587   4.304   5.089
 5730SOL    HW118089   6.618   4.210   5.097
 5730SOL    HW218090   6.587   4.332   4.993
 5731SOL     OW18091   0.253   6.311   2.117
 5731SOL    HW118092   0.328   6.346   2.061
 5731SOL    HW218093   0.190   6.259   2.058
 5732SOL     OW18094   1.008   6.999   3.411
 5732SOL    HW118095   1.097   6.986   3.367
 5732SOL    HW218096   1.014   0.053   3.476
 5733SOL     OW18097   3.640   0.801   5.626
 5733SOL    HW118098   3.618   0.704   5.621
 5733SOL    HW218099   3.593   0.850   5.553
 5734SOL     OW18100   2.109   6.432   3.101
 5734SOL    HW118101   2.180   6.369   3.132
 5734SOL    HW218102   2.143   6.485   3.023
 5735SOL     OW18103   2.982   1.522   2.000
 5735SOL    HW118104   3.047   1.527   2.075
 5735SOL    HW218105   3.030   1.533   1.913
 5736SOL     OW18106   1.766   4.998   0.315
 5736SOL    HW118107   1.715   4.990   0.229
 5736SOL    HW218108   1.702   5.007   0.391
 5737SOL     OW18109   5.091   4.717   0.847
 5737SOL    HW118110   5.035   4.710   0.929
 5737SOL    HW218111   5.040   4.765   0.775
 5738SOL     OW18112   1.468   3.806   5.920
 5738SOL    HW118113   1.392   3.863   5.951
 5738SOL    HW218114   1.456   3.713   5.955
 5739SOL     OW18115   0.727   1.018   0.952
 5739SOL    HW118116   0.811   0.977   0.918
 5739SOL    HW218117   0.684   0.957   1.018
 5740SOL     OW18118   4.153   5.500   6.450
 5740SOL    HW118119   4.108   5.438   6.386
 5740SOL    HW218120   4.093   5.519   6.527
 5741SOL     OW18121   0.700   4.939   3.523
 5741SOL    HW118122   0.609   4.934   3.482
 5741SOL    HW218123   0.731   4.848   3.549
 5742SOL     OW18124   6.373   6.525   4.259
 5742SOL    HW118125   6.382   6.477   4.346
 5742SOL    HW218126   6.450   6.502   4.200
 5743SOL     OW18127   1.842   6.516   5.217
 5743SOL    HW118128   1.860   6.419   5.206
 5743SOL    HW218129   1.805   6.532   5.309
 5744SOL     OW18130   5.554   6.822   2.283
 5744SOL    HW118131   5.596   6.738   2.247
 5744SOL    HW218132   5.625   6.882   2.319
 5745SOL     OW18133   0.911   1.946   3.920
 5745SOL    HW118134   1.003   1.926   3.954
 5745SOL    HW218135   0.879   2.032   3.960
 5746SOL     OW18136   5.693   3.635   0.154
 5746SOL    HW118137   5.672   3.610   0.060
 5746SOL    HW218138   5.627   3.592   0.216
 5747SOL     OW18139   1.131   6.125   3.208
 5747SOL    HW118140   1.033   6.118   3.191
 5747SOL    HW218141   1.147   6.176   3.292
 5748SOL     OW18142   2.592   6.158   2.904
 5748SOL    HW118143   2.529   6.081   2.909
 5748SOL    HW218144   2.628   6.179   2.995
 5749SOL     OW18145   2.307   1.583   3.549
 5749SOL    HW118146   2.262   1.651   3.607
 5749SOL    HW218147   2.403   1.575   3.575
 5750SOL     OW18148   6.832   5.482   2.744
 5750SOL    HW118149   6.810   5.572   2.708
 5750SOL    HW218150   6.828   5.415   2.670
 5751SOL     OW18151   2.709   4.286   6.242
 5751SOL    HW118152   2.803   4.269   6.214
 5751SOL    HW218153   2.683   4.218   6.311
 5752SOL     OW18154   6.218   0.195   6.817
 5752SOL    HW118155   6.168   0.246   6.887
 5752SOL    HW218156   6.273   0.259   6.763
 5753SOL     OW18157   3.664   2.263   0.285
 5753SOL    HW118158   3.639   2.296   0.377
 5753SOL    HW218159   3.755   2.297   0.261
 5754SOL     OW18160   6.355   4.581   0.920
 5754SOL    HW118161   6.416   4.636   0.977
 5754SOL    HW218162   6.261   4.614   0.930
 5755SOL     OW18163   3.556   3.816   1.789
 5755SOL    HW118164   3.601   3.891   1.741
 5755SOL    HW218165   3.586   3.729   1.751
 5756SOL     OW18166   0.153   6.333   4.480
 5756SOL    HW118167   0.165   6.312   4.383
 5756SOL    HW218168   0.228   6.294   4.533
 5757SOL     OW18169   0.443   5.367   1.464
 5757SOL    HW118170   0.435   5.371   1.364
 5757SOL    HW218171   0.370   5.309   1.500
 5758SOL     OW18172   0.946   1.810   5.471
 5758SOL    HW118173   1.036   1.855   5.471
 5758SOL    HW218174   0.954   1.719   5.432
 5759SOL     OW18175   4.998   2.115   5.031
 5759SOL    HW118176   5.092   2.147   5.025
 5759SOL    HW218177   4.988   2.059   5.114
 5760SOL     OW18178   1.634   5.715   1.931
 5760SOL    HW118179   1.681   5.795   1.894
 5760SOL    HW218180   1.540   5.712   1.897
 5761SOL     OW18181   4.758   0.371   4.971
 5761SOL    HW118182   4.736   0.343   5.065
 5761SOL    HW218183   4.849   0.412   4.969
 5762SOL     OW18184   5.682   5.751   1.236
 5762SOL    HW118185   5.701   5.681   1.305
 5762SOL    HW218186   5.615   5.715   1.170
 5763SOL     OW18187   1.152   1.162   1.242
 5763SOL    HW118188   1.234   1.215   1.266
 5763SOL    HW218189   1.070   1.216   1.261
 5764SOL     OW18190   4.458   3.706   5.532
 5764SOL    HW118191   4.427   3.801   5.538
 5764SOL    HW218192   4.539   3.693   5.589
 5765SOL     OW18193   5.705   4.885   0.617
 5765SOL    HW118194   5.789   4.833   0.598
 5765SOL    HW218195   5.694   4.958   0.550
 5766SOL     OW18196   2.989   1.470   3.482
 5766SOL    HW118197   2.896   1.507   3.488
 5766SOL    HW218198   3.024   1.454   3.574
 5767SOL     OW18199   0.213   6.408   1.258
 5767SOL    HW118200   0.198   6.443   1.350
 5767SOL    HW218201   0.240   6.312   1.263
 5768SOL     OW18202   6.522   0.854   2.999
 5768SOL    HW118203   6.508   0.894   2.908
 5768SOL    HW218204   6.558   0.761   2.990
 5769SOL     OW18205   2.288   5.447   3.678
 5769SOL    HW118206   2.267   5.351   3.660
 5769SOL    HW218207   2.387   5.458   3.689
 5770SOL     OW18208   6.243   0.063   1.842
 5770SOL    HW118209   6.218   7.010   1.781
 5770SOL    HW218210   6.331   0.101   1.813
 5771SOL     OW18211   1.057   1.732   2.261
 5771SOL    HW118212   0.985   1.787   2.218
 5771SOL    HW218213   1.113   1.689   2.191
 5772SOL     OW18214   6.553   4.207   6.875
 5772SOL    HW118215   6.616   4.259   6.933
 5772SOL    HW218216   6.460   4.214   6.912
 5773SOL     OW18217   5.798   5.777   4.053
 5773SOL    HW118218   5.826   5.825   3.970
 5773SOL    HW218219   5.736   5.703   4.029
 5774SOL     OW18220   2.708   5.299   3.000
 5774SOL    HW118221   2.775   5.344   3.059
 5774SOL    HW218222   2.754   5.231   2.943
 5775SOL     OW18223   6.998   0.310   0.716
 5775SOL    HW118224   7.009   0.233   0.778
 5775SOL    HW218225   0.010   0.394   0.760
 5776SOL     OW18226   5.188   1.192   5.752
 5776SOL    HW118227   5.258   1.160   5.689
 5776SOL    HW218228   5.166   1.119   5.817
 5777SOL     OW18229   6.257   0.639   5.305
 5777SOL    HW118230   6.310   0.719   5.277
 5777SOL    HW218231   6.216   0.596   5.225
 5778SOL     OW18232   2.735   0.118   3.712
 5778SOL    HW118233   2.804   0.047   3.699
 5778SOL    HW218234   2.775   0.195   3.762
 5779SOL     OW18235   4.247   1.137   2.566
 5779SOL    HW118236   4.205   1.128   2.657
 5779SOL    HW218237   4.323   1.073   2.557
 5780SOL     OW18238   6.189   3.802   1.343
 5780SOL    HW118239   6.271   3.858   1.329
 5780SOL    HW218240   6.108   3.853   1.315
 5781SOL     OW18241   2.194   5.168   5.039
 5781SOL    HW118242   2.286   5.179   5.075
 5781SOL    HW218243   2.128   5.174   5.115
 5782SOL     OW18244   2.615   1.176   3.153
 5782SOL    HW118245   2.530   1.127   3.137
 5782SOL    HW218246   2.692   1.113   3.141
 5783SOL     OW18247   2.305   6.629   1.020
 5783SOL    HW118248   2.285   6.609   1.116
 5783SOL    HW218249   2.227   6.600   0.964
 5784SOL     OW18250   1.784   5.441   7.000
 5784SOL    HW118251   1.860   5.472   0.036
 5784SOL    HW218252   1.786   5.341   6.993
 5785SOL     OW18253   2.555   1.416   0.379
 5785SOL    HW118254   2.525   1.489   0.442
 5785SOL    HW218255   2.531   1.327   0.418
 5786SOL     OW18256   1.418   3.427   0.764
 5786SOL    HW118257   1.347   3.484   0.805
 5786SOL    HW218258   1.432   3.345   0.821
 5787SOL     OW18259   0.068   3.200   5.763
 5787SOL    HW118260   0.036   3.158   5.678
 5787SOL    HW218261   0.028   3.152   5.841
 5788SOL     OW18262   1.795   2.573   1.930
 5788SOL    HW118263   1.821   2.628   1.851
 5788SOL    HW218264   1.703   2.536   1.916
 5789SOL     OW18265   3.125   5.270   6.879
 5789SOL    HW118266   3.152   5.251   6.785
 5789SOL    HW218267   3.104   5.367   6.890
 5790SOL     OW18268   6.325   5.598   3.570
 5790SOL    HW118269   6.381   5.622   3.491
 5790SOL    HW218270   6.368   5.633   3.653
 5791SOL     OW18271   3.976   1.244   2.212
 5791SOL    HW118272   4.066   1.245   2.256
 5791SOL    HW218273   3.941   1.337   2.202
 5792SOL     OW18274   4.688   2.543   2.714
 5792SOL    HW118275   4.681   2.612   2.787
 5792SOL    HW218276   4.602   2.492   2.707
 5793SOL     OW18277   3.965   2.321   6.340
 5793SOL    HW118278   3.964   2.419   6.359
 5793SOL    HW218279   3.872   2.289   6.323
 5794SOL     OW18280   3.687   6.383   0.028
 5794SOL    HW118281   3.677   6.462   0.088
 5794SOL    HW218282   3.715   6.303   0.082
 5795SOL     OW18283   2.447   6.018   1.650
 5795SOL    HW118284   2.466   6.088   1.581
 5795SOL    HW218285   2.494   5.933   1.625
 5796SOL     OW18286   5.328   0.846   6.498
 5796SOL    HW118287   5.313   0.823   6.594
 5796SOL    HW218288   5.248   0.895   6.462
 5797SOL     OW18289   6.663   2.645   0.987
 5797SOL    HW118290   6.698   2.648   1.081
 5797SOL    HW218291   6.587   2.709   0.978
 5798SOL     OW18292   1.829   3.663   4.767
 5798SOL    HW118293   1.879   3.680   4.852
 5798SOL    HW218294   1.799   3.568   4.765
 5799SOL     OW18295   2.778   0.140   3.422
 5799SOL    HW118296   2.740   0.081   3.351
 5799SOL    HW218297   2.736   0.117   3.510
 5800SOL     OW18298   1.942   0.257   1.398
 5800SOL    HW118299   1.992   0.280   1.315
 5800SOL    HW218300   1.864   0.199   1.375
 5801SOL     OW18301   1.987   1.657   1.888
 5801SOL    HW118302   1.933   1.590   1.939
 5801SOL    HW218303   1.936   1.743   1.883
 5802SOL     OW18304   0.948   0.112   1.981
 5802SOL    HW118305   1.000   0.197   1.991
 5802SOL    HW218306   0.863   0.120   2.033
 5803SOL     OW18307   0.557   5.696   4.129
 5803SOL    HW118308   0.463   5.663   4.122
 5803SOL    HW218309   0.557   5.784   4.177
 5804SOL     OW18310   6.303   1.899   3.210
 5804SOL    HW118311   6.215   1.908   3.163
 5804SOL    HW218312   6.293   1.926   3.306
 5805SOL     OW18313   1.536   2.757   2.140
 5805SOL    HW118314   1.491   2.676   2.102
 5805SOL    HW218315   1.588   2.803   2.068
 5806SOL     OW18316   6.520   4.068   2.002
 5806SOL    HW118317   6.532   4.054   2.100
 5806SOL    HW218318   6.573   4.000   1.952
 5807SOL     OW18319   1.851   1.018   1.762
 5807SOL    HW118320   1.933   0.992   1.712
 5807SOL    HW218321   1.875   1.082   1.835
 5808SOL     OW18322   6.733   0.800   5.732
 5808SOL    HW118323   6.799   0.847   5.674
 5808SOL    HW218324   6.754   0.818   5.828
 5809SOL     OW18325   6.962   2.513   5.253
 5809SOL    HW118326   6.901   2.486   5.179
 5809SOL    HW218327   7.020   2.589   5.223
 5810SOL     OW18328   3.115   6.737   4.996
 5810SOL    HW118329   3.097   6.830   5.026
 5810SOL    HW218330   3.165   6.688   5.067
 5811SOL     OW18331   4.152   4.454   6.297
 5811SOL    HW118332   4.154   4.553   6.313
 5811SOL    HW218333   4.221   4.409   6.354
 5812SOL     OW18334   5.377   2.765   6.360
 5812SOL    HW118335   5.309   2.834   6.383
 5812SOL    HW218336   5.463   2.810   6.334
 5813SOL     OW18337   4.903   5.597   0.762
 5813SOL    HW118338   4.899   5.503   0.795
 5813SOL    HW218339   4.838   5.653   0.813
 5814SOL     OW18340   5.697   0.944   2.196
 5814SOL    HW118341   5.768   0.932   2.126
 5814SOL    HW218342   5.727   0.902   2.282
 5815SOL     OW18343   6.116   3.055   3.843
 5815SOL    HW118344   6.058   3.107   3.780
 5815SOL    HW218345   6.205   3.038   3.799
 5816SOL     OW18346   0.249   3.967   2.670
 5816SOL    HW118347   0.231   3.944   2.574
 5816SOL    HW218348   0.211   4.057   2.690
 5817SOL     OW18349   5.868   3.640   3.225
 5817SOL    HW118350   5.917   3.582   3.160
 5817SOL    HW218351   5.835   3.722   3.178
 5818SOL     OW18352   2.655   0.846   4.436
 5818SOL    HW118353   2.584   0.892   4.382
 5818SOL    HW218354   2.726   0.812   4.375
 5819SOL     OW18355   3.844   4.343   0.506
 5819SOL    HW118356   3.781   4.353   0.429
 5819SOL    HW218357   3.900   4.261   0.493
 5820SOL     OW18358   6.185   6.247   2.843
 5820SOL    HW118359   6.187   6.171   2.908
 5820SOL    HW218360   6.173   6.211   2.751
 5821SOL     OW18361   0.145   6.957   1.784
 5821SOL    HW118362   0.109   6.954   1.877
 5821SOL    HW218363   0.129   0.025   1.745
 5822SOL     OW18364   1.373   3.833   3.058
 5822SOL    HW118365   1.386   3.894   3.136
 5822SOL    HW218366   1.363   3.739   3.092
 5823SOL     OW18367   1.763   6.293   3.713
 5823SOL    HW118368   1.854   6.324   3.686
 5823SOL    HW218369   1.699   6.369   3.707
 5824SOL     OW18370   1.506   6.804   2.325
 5824SOL    HW118371   1.586   6.744   2.320
 5824SOL    HW218372   1.483   6.836   2.233
 5825SOL     OW18373   5.029   1.826   4.010
 5825SOL    HW118374   5.027   1.797   3.914
 5825SOL    HW218375   5.070   1.755   4.066
 5826SOL     OW18376   1.466   6.691   5.658
 5826SOL    HW118377   1.500   6.636   5.582
 5826SOL    HW218378   1.422   6.774   5.623
 5827SOL     OW18379   2.090   4.313   3.699
 5827SOL    HW118380   2.008   4.299   3.754
 5827SOL    HW218381   2.079   4.394   3.642
 5828SOL     OW18382   3.874   0.927   5.507
 5828SOL    HW118383   3.881   1.022   5.540
 5828SOL    HW218384   3.784   0.890   5.531
 5829SOL     OW18385   2.280   0.413   3.191
 5829SOL    HW118386   2.247   0.323   3.166
 5829SOL    HW218387   2.376   0.422   3.164
 5830SOL     OW18388   4.077   5.244   4.296
 5830SOL    HW118389   4.067   5.309   4.221
 5830SOL    HW218390   4.034   5.158   4.273
 5831SOL     OW18391   1.739   1.964   4.991
 5831SOL    HW118392   1.794   1.980   4.909
 5831SOL    HW218393   1.800   1.947   5.069
 5832SOL     OW18394   2.948   5.350   2.292
 5832SOL    HW118395   2.871   5.390   2.242
 5832SOL    HW218396   2.915   5.309   2.377
 5833SOL     OW18397   3.711   5.292   0.113
 5833SOL    HW118398   3.660   5.213   0.080
 5833SOL    HW218399   3.788   5.261   0.169
 5834SOL     OW18400   6.024   2.695   6.676
 5834SOL    HW118401   6.110   2.691   6.626
 5834SOL    HW218402   5.986   2.787   6.669
 5835SOL     OW18403   4.927   2.070   2.773
 5835SOL    HW118404   4.871   2.134   2.719
 5835SOL    HW218405   5.004   2.119   2.813
 5836SOL     OW18406   5.442   5.973   2.549
 5836SOL    HW118407   5.419   6.041   2.480
 5836SOL    HW218408   5.366   5.908   2.559
 5837SOL     OW18409   2.848   5.152   6.279
 5837SOL    HW118410   2.791   5.160   6.361
 5837SOL    HW218411   2.792   5.165   6.198
 5838SOL     OW18412   3.863   2.728   0.392
 5838SOL    HW118413   3.846   2.643   0.440
 5838SOL    HW218414   3.909   2.793   0.453
 5839SOL     OW18415   1.665   2.113   0.567
 5839SOL    HW118416   1.741   2.166   0.606
 5839SOL    HW218417   1.613   2.070   0.641
 5840SOL     OW18418   0.155   3.553   3.606
 5840SOL    HW118419   0.169   3.518   3.699
 5840SOL    HW218420   0.152   3.476   3.542
 5841SOL     OW18421   5.022   0.994   0.652
 5841SOL    HW118422   5.047   1.004   0.556
 5841SOL    HW218423   4.936   1.043   0.669
 5842SOL     OW18424   2.676   1.739   1.069
 5842SOL    HW118425   2.649   1.821   1.019
 5842SOL    HW218426   2.691   1.664   1.005
 5843SOL     OW18427   2.923   3.430   0.897
 5843SOL    HW118428   2.997   3.401   0.835
 5843SOL    HW218429   2.922   3.530   0.903
 5844SOL     OW18430   0.426   5.872   4.746
 5844SOL    HW118431   0.339   5.896   4.790
 5844SOL    HW218432   0.408   5.838   4.654
 5845SOL     OW18433   1.527   6.970   2.544
 5845SOL    HW118434   1.561   0.040   2.523
 5845SOL    HW218435   1.525   6.916   2.460
 5846SOL     OW18436   0.283   3.846   5.639
 5846SOL    HW118437   0.344   3.835   5.717
 5846SOL    HW218438   0.329   3.901   5.569
 5847SOL     OW18439   1.608   4.220   6.389
 5847SOL    HW118440   1.546   4.146   6.417
 5847SOL    HW218441   1.691   4.181   6.349
 5848SOL     OW18442   1.605   5.577   2.250
 5848SOL    HW118443   1.596   5.584   2.151
 5848SOL    HW218444   1.700   5.559   2.274
 5849SOL     OW18445   3.044   5.979   6.138
 5849SOL    HW118446   2.979   5.957   6.210
 5849SOL    HW218447   2.999   6.035   6.068
 5850SOL     OW18448   0.691   1.403   2.387
 5850SOL    HW118449   0.748   1.340   2.336
 5850SOL    HW218450   0.646   1.467   2.323
 5851SOL     OW18451   6.281   3.741   4.282
 5851SOL    HW118452   6.255   3.836   4.269
 5851SOL    HW218453   6.252   3.687   4.203
 5852SOL     OW18454   5.018   4.374   2.276
 5852SOL    HW118455   4.959   4.436   2.327
 5852SOL    HW218456   5.107   4.417   2.261
 5853SOL     OW18457   4.747   4.882   6.324
 5853SOL    HW118458   4.816   4.850   6.259
 5853SOL    HW218459   4.735   4.981   6.314
 5854SOL     OW18460   3.666   5.235   5.465
 5854SOL    HW118461   3.657   5.159   5.401
 5854SOL    HW218462   3.668   5.322   5.415
 5855SOL     OW18463   2.360   2.793   3.005
 5855SOL    HW118464   2.371   2.865   2.936
 5855SOL    HW218465   2.265   2.762   3.006
 5856SOL     OW18466   1.229   5.888   3.127
 5856SOL    HW118467   1.294   5.847   3.191
 5856SOL    HW218468   1.198   5.976   3.163
 5857SOL     OW18469   5.505   5.037   6.614
 5857SOL    HW118470   5.536   5.067   6.524
 5857SOL    HW218471   5.506   5.115   6.677
 5858SOL     OW18472   1.675   0.897   2.612
 5858SOL    HW118473   1.708   0.842   2.689
 5858SOL    HW218474   1.730   0.979   2.604
 5859SOL     OW18475   5.653   5.622   1.492
 5859SOL    HW118476   5.574   5.577   1.450
 5859SOL    HW218477   5.624   5.670   1.575
 5860SOL     OW18478   0.515   4.023   3.000
 5860SOL    HW118479   0.522   4.118   2.969
 5860SOL    HW218480   0.506   4.021   3.099
 5861SOL     OW18481   4.782   1.197   5.151
 5861SOL    HW118482   4.877   1.226   5.147
 5861SOL    HW218483   4.770   1.110   5.102
 5862SOL     OW18484   6.515   5.544   2.859
 5862SOL    HW118485   6.576   5.517   2.785
 5862SOL    HW218486   6.429   5.579   2.820
 5863SOL     OW18487   4.116   6.876   6.872
 5863SOL    HW118488   4.077   6.830   6.793
 5863SOL    HW218489   4.051   6.944   6.907
 5864SOL     OW18490   3.378   4.174   2.279
 5864SOL    HW118491   3.449   4.157   2.210
 5864SOL    HW218492   3.288   4.165   2.237
 5865SOL     OW18493   6.677   0.321   6.307
 5865SOL    HW118494   6.601   0.381   6.280
 5865SOL    HW218495   6.672   0.304   6.405
 5866SOL     OW18496   3.138   3.025   2.858
 5866SOL    HW118497   3.228   3.033   2.816
 5866SOL    HW218498   3.126   2.933   2.895
 5867SOL     OW18499   2.832   1.594   1.503
 5867SOL    HW118500   2.842   1.622   1.598
 5867SOL    HW218501   2.806   1.673   1.447
 5868SOL     OW18502   0.746   1.244   6.660
 5868SOL    HW118503   0.838   1.242   6.699
 5868SOL    HW218504   0.745   1.194   6.574
 5869SOL     OW18505   1.427   6.166   3.547
 5869SOL    HW118506   1.502   6.155   3.482
 5869SOL    HW218507   1.461   6.150   3.640
 5870SOL     OW18508   3.668   6.072   4.553
 5870SOL    HW118509   3.616   6.084   4.468
 5870SOL    HW218510   3.766   6.080   4.533
 5871SOL     OW18511   3.194   3.067   3.818
 5871SOL    HW118512   3.189   3.009   3.899
 5871SOL    HW218513   3.233   3.015   3.742
 5872SOL     OW18514   4.640   5.742   0.647
 5872SOL    HW118515   4.598   5.660   0.687
 5872SOL    HW218516   4.690   5.791   0.718
 5873SOL     OW18517   4.482   6.155   2.490
 5873SOL    HW118518   4.389   6.188   2.474
 5873SOL    HW218519   4.532   6.222   2.546
 5874SOL     OW18520   0.917   4.239   5.397
 5874SOL    HW118521   1.011   4.270   5.410
 5874SOL    HW218522   0.899   4.159   5.455
 5875SOL     OW18523   3.631   1.979   1.520
 5875SOL    HW118524   3.629   1.883   1.548
 5875SOL    HW218525   3.684   1.987   1.435
 5876SOL     OW18526   3.445   2.988   1.591
 5876SOL    HW118527   3.472   3.018   1.500
 5876SOL    HW218528   3.354   2.947   1.588
 5877SOL     OW18529   5.599   4.511   1.146
 5877SOL    HW118530   5.616   4.576   1.220
 5877SOL    HW218531   5.642   4.424   1.168
 5878SOL     OW18532   2.232   4.683   2.413
 5878SOL    HW118533   2.311   4.632   2.449
 5878SOL    HW218534   2.260   4.777   2.392
 5879SOL     OW18535   0.491   4.138   4.231
 5879SOL    HW118536   0.526   4.097   4.147
 5879SOL    HW218537   0.501   4.073   4.307
 5880SOL     OW18538   3.469   5.594   0.352
 5880SOL    HW118539   3.458   5.682   0.306
 5880SOL    HW218540   3.445   5.521   0.288
 5881SOL     OW18541   1.582   5.807   4.575
 5881SOL    HW118542   1.655   5.812   4.644
 5881SOL    HW218543   1.525   5.727   4.593
 5882SOL     OW18544   4.969   0.806   2.616
 5882SOL    HW118545   5.015   0.895   2.613
 5882SOL    HW218546   5.012   0.748   2.684
 5883SOL     OW18547   0.084   3.202   5.461
 5883SOL    HW118548   0.094   3.276   5.395
 5883SOL    HW218549   0.173   3.160   5.478
 5884SOL     OW18550   0.668   1.407   3.634
 5884SOL    HW118551   0.697   1.502   3.633
 5884SOL    HW218552   0.681   1.367   3.543
 5885SOL     OW18553   5.912   6.969   0.908
 5885SOL    HW118554   5.943   6.914   0.830
 5885SOL    HW218555   5.989   7.016   0.949
 5886SOL     OW18556   0.077   1.111   6.739
 5886SOL    HW118557   0.137   1.043   6.698
 5886SOL    HW218558   0.013   1.067   6.801
 5887SOL     OW18559   4.460   6.362   2.814
 5887SOL    HW118560   4.520   6.288   2.843
 5887SOL    HW218561   4.461   6.435   2.882
 5888SOL     OW18562   1.114   0.228   3.117
 5888SOL    HW118563   1.090   0.300   3.051
 5888SOL    HW218564   1.031   0.178   3.143
 5889SOL     OW18565   2.675   0.366   0.155
 5889SOL    HW118566   2.668   0.317   0.241
 5889SOL    HW218567   2.767   0.356   0.118
 5890SOL     OW18568   3.403   5.120   5.781
 5890SOL    HW118569   3.477   5.111   5.714
 5890SOL    HW218570   3.436   5.173   5.859
 5891SOL     OW18571   1.788   3.460   6.713
 5891SOL    HW118572   1.781   3.456   6.813
 5891SOL    HW218573   1.883   3.475   6.687
 5892SOL     OW18574   1.668   0.279   2.353
 5892SOL    HW118575   1.662   0.297   2.255
 5892SOL    HW218576   1.682   0.365   2.402
 5893SOL     OW18577   1.946   0.927   3.030
 5893SOL    HW118578   1.907   0.981   3.105
 5893SOL    HW218579   2.002   0.853   3.068
 5894SOL     OW18580   0.818   3.359   3.721
 5894SOL    HW118581   0.893   3.323   3.665
 5894SOL    HW218582   0.833   3.334   3.817
 5895SOL     OW18583   5.307   3.741   3.626
 5895SOL    HW118584   5.355   3.820   3.588
 5895SOL    HW218585   5.240   3.707   3.560
 5896SOL     OW18586   4.439   2.345   5.599
 5896SOL    HW118587   4.360   2.384   5.552
 5896SOL    HW218588   4.520   2.400   5.578
 5897SOL     OW18589   4.047   0.069   1.848
 5897SOL    HW118590   4.144   0.076   1.825
 5897SOL    HW218591   4.029   0.124   1.929
 5898SOL     OW18592   1.805   0.086   2.493
 5898SOL    HW118593   1.852   0.010   2.450
 5898SOL    HW218594   1.766   0.146   2.423
 5899SOL     OW18595   5.093   6.955   3.816
 5899SOL    HW118596   5.172   6.930   3.759
 5899SOL    HW218597   5.113   0.017   3.865
 5900SOL     OW18598   4.388   5.041   2.321
 5900SOL    HW118599   4.417   4.966   2.380
 5900SOL    HW218600   4.288   5.045   2.319
 5901SOL     OW18601   3.406   0.049   5.421
 5901SOL    HW118602   3.398   6.983   5.374
 5901SOL    HW218603   3.437   0.118   5.357
 5902SOL     OW18604   6.428   0.900   6.765
 5902SOL    HW118605   6.406   0.947   6.680
 5902SOL    HW218606   6.344   0.884   6.817
 5903SOL     OW18607   0.035   3.173   6.630
 5903SOL    HW118608   7.000   3.220   6.563
 5903SOL    HW218609   7.011   3.090   6.661
 5904SOL     OW18610   0.241   4.251   2.531
 5904SOL    HW118611   0.224   4.261   2.629
 5904SOL    HW218612   0.249   4.341   2.489
 5905SOL     OW18613   6.581   4.872   2.123
 5905SOL    HW118614   6.639   4.953   2.132
 5905SOL    HW218615   6.543   4.867   2.031
 5906SOL     OW18616   6.791   1.712   3.947
 5906SOL    HW118617   6.785   1.618   3.983
 5906SOL    HW218618   6.786   1.710   3.848
 5907SOL     OW18619   1.986   0.277   2.142
 5907SOL    HW118620   2.042   0.339   2.088
 5907SOL    HW218621   1.999   0.296   2.240
 5908SOL     OW18622   0.103   2.471   6.163
 5908SOL    HW118623   0.020   2.492   6.111
 5908SOL    HW218624   0.163   2.414   6.107
 5909SOL     OW18625   6.825   4.033   0.930
 5909SOL    HW118626   6.896   3.993   0.987
 5909SOL    HW218627   6.759   3.962   0.903
 5910SOL     OW18628   2.213   1.708   3.771
 5910SOL    HW118629   2.257   1.775   3.831
 5910SOL    HW218630   2.115   1.726   3.766
 5911SOL     OW18631   0.280   5.519   6.339
 5911SOL    HW118632   0.211   5.467   6.289
 5911SOL    HW218633   0.267   5.504   6.437
 5912SOL     OW18634   0.896   0.988   3.829
 5912SOL    HW118635   0.914   1.086   3.824
 5912SOL    HW218636   0.851   0.966   3.916
 5913SOL     OW18637   6.093   1.310   7.008
 5913SOL    HW118638   6.113   1.309   6.910
 5913SOL    HW218639   6.112   1.401   0.023
 5914SOL     OW18640   0.187   6.390   0.517
 5914SOL    HW118641   0.154   6.296   0.526
 5914SOL    HW218642   0.249   6.411   0.593
 5915SOL     OW18643   3.925   1.773   6.067
 5915SOL    HW118644   3.997   1.842   6.063
 5915SOL    HW218645   3.942   1.712   6.144
 5916SOL     OW18646   0.780   6.534   2.245
 5916SOL    HW118647   0.776   6.632   2.263
 5916SOL    HW218648   0.861   6.513   2.190
 5917SOL     OW18649   3.288   4.905   0.465
 5917SOL    HW118650   3.281   4.815   0.507
 5917SOL    HW218651   3.378   4.945   0.484
 5918SOL     OW18652   2.844   6.474   5.378
 5918SOL    HW118653   2.883   6.415   5.449
 5918SOL    HW218654   2.786   6.419   5.317
 5919SOL     OW18655   3.206   3.170   4.364
 5919SOL    HW118656   3.184   3.130   4.453
 5919SOL    HW218657   3.204   3.270   4.372
 5920SOL     OW18658   5.619   0.668   5.314
 5920SOL    HW118659   5.666   0.687   5.400
 5920SOL    HW218660   5.618   0.751   5.258
 5921SOL     OW18661   3.001   4.612   6.249
 5921SOL    HW118662   2.952   4.630   6.164
 5921SOL    HW218663   3.053   4.528   6.241
 5922SOL     OW18664   5.080   3.571   2.630
 5922SOL    HW118665   5.120   3.640   2.690
 5922SOL    HW218666   5.153   3.531   2.573
 5923SOL     OW18667   6.504   0.366   3.458
 5923SOL    HW118668   6.419   0.319   3.482
 5923SOL    HW218669   6.580   0.301   3.463
 5924SOL     OW18670   5.402   6.987   3.358
 5924SOL    HW118671   5.401   6.968   3.260
 5924SOL    HW218672   5.369   6.906   3.408
 5925SOL     OW18673   4.423   0.497   1.227
 5925SOL    HW118674   4.342   0.455   1.185
 5925SOL    HW218675   4.406   0.511   1.324
 5926SOL     OW18676   4.912   4.973   4.082
 5926SOL    HW118677   4.822   4.957   4.042
 5926SOL    HW218678   4.916   5.067   4.119
 5927SOL     OW18679   0.781   4.535   1.809
 5927SOL    HW118680   0.731   4.551   1.895
 5927SOL    HW218681   0.876   4.512   1.830
 5928SOL     OW18682   2.860   0.755   0.134
 5928SOL    HW118683   2.876   0.819   0.209
 5928SOL    HW218684   2.887   0.797   0.048
 5929SOL     OW18685   1.652   1.022   6.784
 5929SOL    HW118686   1.649   1.122   6.774
 5929SOL    HW218687   1.594   0.980   6.714
 5930SOL     OW18688   1.610   3.375   2.078
 5930SOL    HW118689   1.582   3.444   2.145
 5930SOL    HW218690   1.587   3.406   1.986
 5931SOL     OW18691   5.119   6.560   2.679
 5931SOL    HW118692   5.046   6.498   2.648
 5931SOL    HW218693   5.079   6.639   2.725
 5932SOL     OW18694   2.801   0.860   6.168
 5932SOL    HW118695   2.759   0.943   6.132
 5932SOL    HW218696   2.759   0.836   6.255
 5933SOL     OW18697   6.310   6.076   4.202
 5933SOL    HW118698   6.401   6.037   4.210
 5933SOL    HW218699   6.268   6.082   4.293
 5934SOL     OW18700   3.150   3.562   6.390
 5934SOL    HW118701   3.247   3.538   6.394
 5934SOL    HW218702   3.097   3.493   6.439
 5935SOL     OW18703   1.331   5.793   5.870
 5935SOL    HW118704   1.395   5.721   5.895
 5935SOL    HW218705   1.239   5.755   5.864
 5936SOL     OW18706   3.087   3.063   2.052
 5936SOL    HW118707   3.021   3.061   2.127
 5936SOL    HW218708   3.043   3.102   1.970
 5937SOL     OW18709   0.215   3.174   1.480
 5937SOL    HW118710   0.217   3.272   1.499
 5937SOL    HW218711   0.120   3.142   1.483
 5938SOL     OW18712   0.550   4.635   4.323
 5938SOL    HW118713   0.469   4.599   4.371
 5938SOL    HW218714   0.610   4.560   4.298
 5939SOL     OW18715   3.490   1.055   4.936
 5939SOL    HW118716   3.531   0.999   4.862
 5939SOL    HW218717   3.466   1.145   4.900
 5940SOL     OW18718   5.470   5.626   2.196
 5940SOL    HW118719   5.528   5.659   2.121
 5940SOL    HW218720   5.378   5.663   2.186
 5941SOL     OW18721   0.200   2.508   2.600
 5941SOL    HW118722   0.142   2.558   2.665
 5941SOL    HW218723   0.292   2.500   2.638
 5942SOL     OW18724   5.126   3.032   6.114
 5942SOL    HW118725   5.130   3.108   6.049
 5942SOL    HW218726   5.182   2.956   6.080
 5943SOL     OW18727   3.001   4.255   1.707
 5943SOL    HW118728   2.936   4.323   1.741
 5943SOL    HW218729   2.952   4.182   1.660
 5944SOL     OW18730   0.027   3.605   6.730
 5944SOL    HW118731   0.077   3.526   6.765
 5944SOL    HW218732   0.073   3.689   6.761
 5945SOL     OW18733   6.808   5.892   4.932
 5945SOL    HW118734   6.807   5.867   4.835
 5945SOL    HW218735   6.818   5.991   4.941
 5946SOL     OW18736   3.075   4.074   0.692
 5946SOL    HW118737   3.105   4.024   0.611
 5946SOL    HW218738   3.039   4.164   0.664
 5947SOL     OW18739   3.539   3.277   4.611
 5947SOL    HW118740   3.520   3.225   4.527
 5947SOL    HW218741   3.624   3.327   4.600
 5948SOL     OW18742   4.767   3.593   1.781
 5948SOL    HW118743   4.857   3.549   1.775
 5948SOL    HW218744   4.772   3.669   1.845
 5949SOL     OW18745   6.787   4.074   2.667
 5949SOL    HW118746   6.851   4.136   2.621
 5949SOL    HW218747   6.816   3.979   2.654
 5950SOL     OW18748   4.140   0.426   5.093
 5950SOL    HW118749   4.070   0.471   5.038
 5950SOL    HW218750   4.098   0.380   5.171
 5951SOL     OW18751   0.401   3.717   6.506
 5951SOL    HW118752   0.361   3.693   6.417
 5951SOL    HW218753   0.499   3.731   6.496
 5952SOL     OW18754   4.059   4.600   0.918
 5952SOL    HW118755   3.975   4.650   0.938
 5952SOL    HW218756   4.067   4.522   0.980
 5953SOL     OW18757   6.740   2.966   5.212
 5953SOL    HW118758   6.654   2.958   5.261
 5953SOL    HW218759   6.785   3.052   5.237
 5954SOL     OW18760   1.695   6.096   4.177
 5954SOL    HW118761   1.763   6.036   4.134
 5954SOL    HW218762   1.672   6.061   4.268
 5955SOL     OW18763   5.404   3.471   0.647
 5955SOL    HW118764   5.390   3.373   0.636
 5955SOL    HW218765   5.498   3.490   0.673
 5956SOL     OW18766   5.305   2.271   5.469
 5956SOL    HW118767   5.385   2.216   5.445
 5956SOL    HW218768   5.239   2.269   5.394
 5957SOL     OW18769   0.773   1.756   3.075
 5957SOL    HW118770   0.692   1.766   3.016
 5957SOL    HW218771   0.855   1.767   3.020
 5958SOL     OW18772   3.577   6.960   2.434
 5958SOL    HW118773   3.556   6.984   2.339
 5958SOL    HW218774   3.647   7.021   2.470
 5959SOL     OW18775   4.956   2.588   4.239
 5959SOL    HW118776   4.940   2.495   4.205
 5959SOL    HW218777   4.958   2.588   4.339
 5960SOL     OW18778   4.016   0.333   6.274
 5960SOL    HW118779   4.111   0.364   6.281
 5960SOL    HW218780   3.973   0.373   6.194
 5961SOL     OW18781   2.822   2.270   3.315
 5961SOL    HW118782   2.814   2.350   3.375
 5961SOL    HW218783   2.878   2.200   3.359
 5962SOL     OW18784   4.917   6.117   1.149
 5962SOL    HW118785   4.827   6.157   1.133
 5962SOL    HW218786   4.975   6.133   1.069
 5963SOL     OW18787   3.306   4.463   0.053
 5963SOL    HW118788   3.368   4.463   6.996
 5963SOL    HW218789   3.324   4.544   0.108
 5964SOL     OW18790   2.600   6.819   2.505
 5964SOL    HW118791   2.696   6.817   2.479
 5964SOL    HW218792   2.546   6.772   2.435
 5965SOL     OW18793   1.862   0.614   7.009
 5965SOL    HW118794   1.859   0.697   6.954
 5965SOL    HW218795   1.768   0.584   0.006
 5966SOL     OW18796   2.502   0.939   4.735
 5966SOL    HW118797   2.536   1.030   4.712
 5966SOL    HW218798   2.479   0.889   4.652
 5967SOL     OW18799   3.403   1.941   4.271
 5967SOL    HW118800   3.305   1.953   4.289
 5967SOL    HW218801   3.446   1.901   4.352
 5968SOL     OW18802   5.770   2.695   1.622
 5968SOL    HW118803   5.775   2.712   1.523
 5968SOL    HW218804   5.741   2.600   1.637
 5969SOL     OW18805   5.329   0.822   0.143
 5969SOL    HW118806   5.246   0.767   0.141
 5969SOL    HW218807   5.306   0.919   0.133
 5970SOL     OW18808   0.189   3.059   0.825
 5970SOL    HW118809   0.255   3.015   0.885
 5970SOL    HW218810   0.102   3.072   0.873
 5971SOL     OW18811   6.939   6.745   3.732
 5971SOL    HW118812   0.011   6.714   3.745
 5971SOL    HW218813   6.879   6.695   3.794
 5972SOL     OW18814   4.745   4.907   0.873
 5972SOL    HW118815   4.716   4.966   0.797
 5972SOL    HW218816   4.742   4.812   0.844
 5973SOL     OW18817   2.734   2.042   2.761
 5973SOL    HW118818   2.803   2.108   2.732
 5973SOL    HW218819   2.642   2.079   2.744
 5974SOL     OW18820   5.428   2.057   5.664
 5974SOL    HW118821   5.422   2.099   5.573
 5974SOL    HW218822   5.339   2.062   5.709
 5975SOL     OW18823   4.744   4.965   0.525
 5975SOL    HW118824   4.744   4.940   0.428
 5975SOL    HW218825   4.651   4.992   0.552
 5976SOL     OW18826   2.444   3.454   5.824
 5976SOL    HW118827   2.461   3.373   5.880
 5976SOL    HW218828   2.469   3.536   5.875
 5977SOL     OW18829   6.180   4.149   0.392
 5977SOL    HW118830   6.222   4.147   0.301
 5977SOL    HW218831   6.170   4.055   0.426
 5978SOL     OW18832   2.490   3.965   0.358
 5978SOL    HW118833   2.587   3.986   0.355
 5978SOL    HW218834   2.468   3.898   0.287
 5979SOL     OW18835   5.628   0.693   1.734
 5979SOL    HW118836   5.693   0.747   1.680
 5979SOL    HW218837   5.598   0.614   1.681
 5980SOL     OW18838   2.971   3.126   1.047
 5980SOL    HW118839   2.939   3.090   1.134
 5980SOL    HW218840   3.032   3.203   1.062
 5981SOL     OW18841   2.934   2.492   0.801
 5981SOL    HW118842   2.895   2.421   0.744
 5981SOL    HW218843   3.034   2.488   0.797
 5982SOL     OW18844   5.872   2.900   0.852
 5982SOL    HW118845   5.788   2.954   0.846
 5982SOL    HW218846   5.849   2.803   0.860
 5983SOL     OW18847   7.018   1.073   3.345
 5983SOL    HW118848   6.921   1.093   3.360
 5983SOL    HW218849   0.006   0.979   3.314
 5984SOL     OW18850   6.368   0.006   3.657
 5984SOL    HW118851   6.274   0.014   3.689
 5984SOL    HW218852   6.422   6.977   3.724
 5985SOL     OW18853   5.732   3.093   3.034
 5985SOL    HW118854   5.720   3.104   2.935
 5985SOL    HW218855   5.752   3.182   3.075
 5986SOL     OW18856   4.144   3.627   4.971
 5986SOL    HW118857   4.117   3.685   5.048
 5986SOL    HW218858   4.092   3.653   4.889
 5987SOL     OW18859   6.882   0.036   5.387
 5987SOL    HW118860   6.832   6.998   5.450
 5987SOL    HW218861   6.824   0.058   5.309
 5988SOL     OW18862   1.132   2.422   6.119
 5988SOL    HW118863   1.205   2.358   6.140
 5988SOL    HW218864   1.061   2.416   6.189
 5989SOL     OW18865   0.557   6.061   6.301
 5989SOL    HW118866   0.605   6.094   6.382
 5989SOL    HW218867   0.623   6.048   6.227
 5990SOL     OW18868   3.595   5.063   1.808
 5990SOL    HW118869   3.593   4.972   1.850
 5990SOL    HW218870   3.656   5.062   1.729
 5991SOL     OW18871   4.784   6.791   1.116
 5991SOL    HW118872   4.844   6.756   1.187
 5991SOL    HW218873   4.835   6.796   1.030
 5992SOL     OW18874   4.040   6.022   2.080
 5992SOL    HW118875   4.018   5.941   2.134
 5992SOL    HW218876   4.018   6.104   2.133
 5993SOL     OW18877   6.222   1.916   0.089
 5993SOL    HW118878   6.300   1.898   0.030
 5993SOL    HW218879   6.248   1.902   0.185
 5994SOL     OW18880   0.644   3.649   0.516
 5994SOL    HW118881   0.651   3.586   0.439
 5994SOL    HW218882   0.727   3.704   0.521
 5995SOL     OW18883   4.748   4.102   1.393
 5995SOL    HW118884   4.693   4.160   1.454
 5995SOL    HW218885   4.741   4.007   1.422
 5996SOL     OW18886   2.743   5.609   1.396
 5996SOL    HW118887   2.834   5.641   1.422
 5996SOL    HW218888   2.715   5.653   1.311
 5997SOL     OW18889   6.328   0.080   4.017
 5997SOL    HW118890   6.324   0.161   3.957
 5997SOL    HW218891   6.257   0.086   4.087
 5998SOL     OW18892   5.899   6.268   1.192
 5998SOL    HW118893   5.903   6.176   1.231
 5998SOL    HW218894   5.818   6.315   1.227
 5999SOL     OW18895   5.169   2.868   1.345
 5999SOL    HW118896   5.142   2.864   1.442
 5999SOL    HW218897   5.181   2.963   1.318
 6000SOL     OW18898   0.635   4.083   1.237
 6000SOL    HW118899   0.641   4.036   1.324
 6000SOL    HW218900   0.627   4.016   1.163
 6001SOL     OW18901   6.850   5.130   5.892
 6001SOL    HW118902   6.756   5.165   5.895
 6001SOL    HW218903   6.913   5.206   5.877
 6002SOL     OW18904   5.996   4.839   4.911
 6002SOL    HW118905   5.900   4.813   4.903
 6002SOL    HW218906   6.038   4.841   4.820
 6003SOL     OW18907   0.951   2.811   4.830
 6003SOL    HW118908   1.007   2.847   4.755
 6003SOL    HW218909   0.935   2.714   4.816
 6004SOL     OW18910   4.874   2.867   4.372
 6004SOL    HW118911   4.803   2.852   4.304
 6004SOL    HW218912   4.840   2.929   4.443
 6005SOL     OW18913   3.958   5.130   6.419
 6005SOL    HW118914   3.887   5.165   6.480
 6005SOL    HW218915   4.015   5.206   6.388
 6006SOL     OW18916   3.046   6.194   5.867
 6006SOL    HW118917   2.993   6.269   5.829
 6006SOL    HW218918   3.009   6.107   5.835
 6007SOL     OW18919   2.640   5.783   6.292
 6007SOL    HW118920   2.647   5.727   6.210
 6007SOL    HW218921   2.560   5.843   6.285
 6008SOL     OW18922   3.316   4.087   6.173
 6008SOL    HW118923   3.238   4.025   6.163
 6008SOL    HW218924   3.322   4.147   6.093
 6009SOL     OW18925   3.614   4.869   3.099
 6009SOL    HW118926   3.663   4.831   3.020
 6009SOL    HW218927   3.676   4.875   3.177
 6010SOL     OW18928   0.647   5.609   4.459
 6010SOL    HW118929   0.652   5.544   4.535
 6010SOL    HW218930   0.686   5.568   4.377
 6011SOL     OW18931   6.455   2.177   1.417
 6011SOL    HW118932   6.464   2.241   1.493
 6011SOL    HW218933   6.529   2.111   1.420
 6012SOL     OW18934   6.858   0.432   6.014
 6012SOL    HW118935   6.873   0.479   6.101
 6012SOL    HW218936   6.874   0.334   6.026
 6013SOL     OW18937   5.862   1.762   2.135
 6013SOL    HW118938   5.820   1.780   2.046
 6013SOL    HW218939   5.954   1.801   2.138
 6014SOL     OW18940   3.727   3.737   3.930
 6014SOL    HW118941   3.728   3.700   4.022
 6014SOL    HW218942   3.819   3.763   3.903
 6015SOL     OW18943   5.732   1.405   4.161
 6015SOL    HW118944   5.742   1.310   4.190
 6015SOL    HW218945   5.673   1.409   4.081
 6016SOL     OW18946   4.764   0.959   4.382
 6016SOL    HW118947   4.724   0.928   4.469
 6016SOL    HW218948   4.804   1.050   4.395
 6017SOL     OW18949   6.873   2.190   5.375
 6017SOL    HW118950   6.939   2.230   5.312
 6017SOL    HW218951   6.916   2.175   5.464
 6018SOL     OW18952   2.489   1.175   5.161
 6018SOL    HW118953   2.522   1.233   5.236
 6018SOL    HW218954   2.478   1.081   5.195
 6019SOL     OW18955   6.747   3.827   0.099
 6019SOL    HW118956   6.712   3.827   0.005
 6019SOL    HW218957   6.817   3.756   0.108
 6020SOL     OW18958   0.935   4.854   6.791
 6020SOL    HW118959   1.016   4.899   6.752
 6020SOL    HW218960   0.925   4.881   6.886
 6021SOL     OW18961   5.406   6.809   3.744
 6021SOL    HW118962   5.491   6.763   3.719
 6021SOL    HW218963   5.329   6.747   3.729
 6022SOL     OW18964   6.219   1.649   1.692
 6022SOL    HW118965   6.260   1.635   1.602
 6022SOL    HW218966   6.126   1.611   1.693
 6023SOL     OW18967   4.137   0.401   2.233
 6023SOL    HW118968   4.127   0.356   2.144
 6023SOL    HW218969   4.225   0.449   2.236
 6024SOL     OW18970   1.045   5.804   0.125
 6024SOL    HW118971   1.019   5.707   0.121
 6024SOL    HW218972   1.132   5.816   0.078
 6025SOL     OW18973   3.266   0.631   4.679
 6025SOL    HW118974   3.314   0.570   4.742
 6025SOL    HW218975   3.224   0.706   4.732
 6026SOL     OW18976   6.095   4.861   4.659
 6026SOL    HW118977   6.052   4.772   4.641
 6026SOL    HW218978   6.047   4.932   4.607
 6027SOL     OW18979   5.980   4.273   6.580
 6027SOL    HW118980   6.039   4.202   6.619
 6027SOL    HW218981   6.011   4.295   6.488
 6028SOL     OW18982   5.826   5.567   6.118
 6028SOL    HW118983   5.891   5.491   6.109
 6028SOL    HW218984   5.769   5.571   6.036
 6029SOL     OW18985   2.075   0.722   3.145
 6029SOL    HW118986   2.156   0.691   3.094
 6029SOL    HW218987   2.020   0.642   3.170
 6030SOL     OW18988   5.541   3.541   4.286
 6030SOL    HW118989   5.505   3.512   4.197
 6030SOL    HW218990   5.576   3.635   4.279
 6031SOL     OW18991   0.551   6.208   4.905
 6031SOL    HW118992   0.618   6.179   4.973
 6031SOL    HW218993   0.581   6.180   4.814
 6032SOL     OW18994   3.460   6.165   3.222
 6032SOL    HW118995   3.480   6.263   3.222
 6032SOL    HW218996   3.367   6.149   3.255
 6033SOL     OW18997   1.759   1.762   2.589
 6033SOL    HW118998   1.666   1.732   2.611
 6033SOL    HW218999   1.755   1.837   2.523
 6034SOL     OW19000   0.616   0.399   0.236
 6034SOL    HW119001   0.664   0.370   0.153
 6034SOL    HW219002   0.517   0.393   0.221
 6035SOL     OW19003   2.151   0.577   2.821
 6035SOL    HW119004   2.221   0.619   2.880
 6035SOL    HW219005   2.111   0.498   2.868
 6036SOL     OW19006   6.617   3.116   1.098
 6036SOL    HW119007   6.634   3.199   1.151
 6036SOL    HW219008   6.626   3.036   1.158
 6037SOL     OW19009   5.115   1.768   6.982
 6037SOL    HW119010   5.148   1.826   6.908
 6037SOL    HW219011   5.021   1.739   6.964
 6038SOL     OW19012   0.323   1.762   5.801
 6038SOL    HW119013   0.248   1.827   5.793
 6038SOL    HW219014   0.374   1.758   5.715
 6039SOL     OW19015   3.856   3.423   3.415
 6039SOL    HW119016   3.927   3.484   3.449
 6039SOL    HW219017   3.895   3.332   3.400
 6040SOL     OW19018   0.614   1.491   0.361
 6040SOL    HW119019   0.567   1.574   0.392
 6040SOL    HW219020   0.571   1.459   0.276
 6041SOL     OW19021   2.479   3.188   5.924
 6041SOL    HW119022   2.399   3.139   5.959
 6041SOL    HW219023   2.504   3.151   5.835
 6042SOL     OW19024   3.579   5.901   3.545
 6042SOL    HW119025   3.491   5.901   3.498
 6042SOL    HW219026   3.589   5.986   3.597
 6043SOL     OW19027   2.281   0.316   3.506
 6043SOL    HW119028   2.283   0.248   3.433
 6043SOL    HW219029   2.373   0.355   3.516
 6044SOL     OW19030   0.792   3.086   1.674
 6044SOL    HW119031   0.693   3.073   1.668
 6044SOL    HW219032   0.812   3.163   1.734
 6045SOL     OW19033   4.795   2.061   3.095
 6045SOL    HW119034   4.826   2.120   3.021
 6045SOL    HW219035   4.696   2.070   3.106
 6046SOL     OW19036   3.600   2.894   2.181
 6046SOL    HW119037   3.506   2.925   2.171
 6046SOL    HW219038   3.629   2.848   2.096
 6047SOL     OW19039   5.961   1.809   1.143
 6047SOL    HW119040   6.003   1.769   1.224
 6047SOL    HW219041   5.969   1.746   1.066
 6048SOL     OW19042   6.138   5.987   4.418
 6048SOL    HW119043   6.097   5.975   4.327
 6048SOL    HW219044   6.204   5.914   4.434
 6049SOL     OW19045   4.511   5.085   5.518
 6049SOL    HW119046   4.590   5.112   5.463
 6049SOL    HW219047   4.540   5.017   5.586
 6050SOL     OW19048   3.650   6.311   1.612
 6050SOL    HW119049   3.710   6.238   1.646
 6050SOL    HW219050   3.671   6.397   1.659
 6051SOL     OW19051   0.845   1.240   3.245
 6051SOL    HW119052   0.842   1.168   3.175
 6051SOL    HW219053   0.913   1.309   3.220
 6052SOL     OW19054   5.189   6.484   0.508
 6052SOL    HW119055   5.210   6.389   0.531
 6052SOL    HW219056   5.159   6.533   0.590
 6053SOL     OW19057   4.015   3.140   6.443
 6053SOL    HW119058   3.932   3.087   6.430
 6053SOL    HW219059   4.061   3.111   6.527
 6054SOL     OW19060   3.966   4.096   0.973
 6054SOL    HW119061   3.994   4.131   0.884
 6054SOL    HW219062   3.870   4.120   0.990
 6055SOL     OW19063   3.282   4.378   0.556
 6055SOL    HW119064   3.235   4.341   0.636
 6055SOL    HW219065   3.356   4.317   0.529
 6056SOL     OW19066   5.298   5.975   4.704
 6056SOL    HW119067   5.285   5.879   4.681
 6056SOL    HW219068   5.396   5.996   4.706
 6057SOL     OW19069   4.560   6.978   4.271
 6057SOL    HW119070   4.564   0.033   4.209
 6057SOL    HW219071   4.496   6.999   4.346
 6058SOL     OW19072   5.390   2.563   5.906
 6058SOL    HW119073   5.340   2.518   5.833
 6058SOL    HW219074   5.352   2.536   5.995
 6059SOL     OW19075   3.846   3.057   0.093
 6059SOL    HW119076   3.884   3.091   0.179
 6059SOL    HW219077   3.762   3.106   0.071
 6060SOL     OW19078   2.663   3.320   6.794
 6060SOL    HW119079   2.576   3.360   6.824
 6060SOL    HW219080   2.680   3.235   6.843
 6061SOL     OW19081   3.307   5.100   0.022
 6061SOL    HW119082   3.406   5.087   0.015
 6061SOL    HW219083   3.277   5.168   6.978
 6062SOL     OW19084   1.893   2.134   0.009
 6062SOL    HW119085   1.938   2.197   6.967
 6062SOL    HW219086   1.873   2.048   6.984
 6063SOL     OW19087   4.695   3.905   6.138
 6063SOL    HW119088   4.683   3.905   6.237
 6063SOL    HW219089   4.649   3.985   6.099
 6064SOL     OW19090   0.451   5.730   0.887
 6064SOL    HW119091   0.484   5.739   0.793
 6064SOL    HW219092   0.394   5.648   0.894
 6065SOL     OW19093   0.628   6.739   2.464
 6065SOL    HW119094   0.593   6.650   2.493
 6065SOL    HW219095   0.568   6.811   2.496
 6066SOL     OW19096   5.389   5.675   3.242
 6066SOL    HW119097   5.353   5.684   3.335
 6066SOL    HW219098   5.317   5.698   3.176
 6067SOL     OW19099   5.802   6.947   6.085
 6067SOL    HW119100   5.895   6.924   6.053
 6067SOL    HW219101   5.743   6.960   6.006
 6068SOL     OW19102   4.628   1.970   5.119
 6068SOL    HW119103   4.644   2.068   5.107
 6068SOL    HW219104   4.546   1.944   5.067
 6069SOL     OW19105   0.075   3.852   6.245
 6069SOL    HW119106   0.035   3.791   6.314
 6069SOL    HW219107   0.055   3.947   6.268
 6070SOL     OW19108   2.790   1.420   0.648
 6070SOL    HW119109   2.746   1.402   0.737
 6070SOL    HW219110   2.742   1.368   0.577
 6071SOL     OW19111   6.216   0.740   5.580
 6071SOL    HW119112   6.225   0.697   5.490
 6071SOL    HW219113   6.126   0.784   5.587
 6072SOL     OW19114   7.009   2.716   0.647
 6072SOL    HW119115   6.952   2.656   0.703
 6072SOL    HW219116   0.004   2.672   0.559
 6073SOL     OW19117   4.560   2.599   0.575
 6073SOL    HW119118   4.644   2.627   0.622
 6073SOL    HW219119   4.565   2.626   0.479
 6074SOL     OW19120   0.533   6.411   2.250
 6074SOL    HW119121   0.525   6.318   2.214
 6074SOL    HW219122   0.628   6.441   2.246
 6075SOL     OW19123   4.994   6.867   6.823
 6075SOL    HW119124   5.077   6.836   6.775
 6075SOL    HW219125   4.942   6.927   6.763
 6076SOL     OW19126   1.443   5.048   3.464
 6076SOL    HW119127   1.422   5.030   3.560
 6076SOL    HW219128   1.524   4.995   3.438
 6077SOL     OW19129   5.046   6.752   1.807
 6077SOL    HW119130   5.050   6.716   1.900
 6077SOL    HW219131   4.989   6.693   1.750
 6078SOL     OW19132   3.920   3.468   0.821
 6078SOL    HW119133   3.906   3.551   0.875
 6078SOL    HW219134   4.002   3.421   0.855
 6079SOL     OW19135   3.376   3.492   6.714
 6079SOL    HW119136   3.381   3.551   6.794
 6079SOL    HW219137   3.289   3.444   6.714
 6080SOL     OW19138   6.918   4.820   6.868
 6080SOL    HW119139   6.864   4.903   6.887
 6080SOL    HW219140   6.872   4.741   6.908
 6081SOL     OW19141   1.527   3.613   4.202
 6081SOL    HW119142   1.623   3.638   4.213
 6081SOL    HW219143   1.498   3.557   4.280
 6082SOL     OW19144   4.782   0.929   0.864
 6082SOL    HW119145   4.790   1.000   0.794
 6082SOL    HW219146   4.691   0.933   0.905
 6083SOL     OW19147   4.485   0.250   6.507
 6083SOL    HW119148   4.488   0.322   6.438
 6083SOL    HW219149   4.510   0.288   6.596
 6084SOL     OW19150   0.309   6.762   2.719
 6084SOL    HW119151   0.245   6.691   2.694
 6084SOL    HW219152   0.334   6.753   2.816
 6085SOL     OW19153   0.602   6.444   0.851
 6085SOL    HW119154   0.675   6.512   0.842
 6085SOL    HW219155   0.624   6.364   0.795
 6086SOL     OW19156   3.534   4.155   6.359
 6086SOL    HW119157   3.461   4.132   6.294
 6086SOL    HW219158   3.562   4.073   6.408
 6087SOL     OW19159   5.146   6.830   1.007
 6087SOL    HW119160   5.056   6.873   0.998
 6087SOL    HW219161   5.214   6.886   0.960
 6088SOL     OW19162   5.358   6.077   3.270
 6088SOL    HW119163   5.418   5.997   3.269
 6088SOL    HW219164   5.358   6.117   3.362
 6089SOL     OW19165   6.431   3.857   3.569
 6089SOL    HW119166   6.331   3.864   3.572
 6089SOL    HW219167   6.471   3.916   3.640
 6090SOL     OW19168   3.841   6.066   3.994
 6090SOL    HW119169   3.910   5.994   3.996
 6090SOL    HW219170   3.846   6.115   3.907
 6091SOL     OW19171   1.850   1.189   2.002
 6091SOL    HW119172   1.934   1.138   2.017
 6091SOL    HW219173   1.774   1.144   2.049
 6092SOL     OW19174   3.488   6.161   1.422
 6092SOL    HW119175   3.547   6.225   1.472
 6092SOL    HW219176   3.410   6.136   1.479
 6093SOL     OW19177   2.287   2.084   1.964
 6093SOL    HW119178   2.268   2.001   1.911
 6093SOL    HW219179   2.326   2.153   1.903
 6094SOL     OW19180   0.321   6.128   4.664
 6094SOL    HW119181   0.387   6.053   4.672
 6094SOL    HW219182   0.367   6.215   4.683
 6095SOL     OW19183   4.512   5.308   1.291
 6095SOL    HW119184   4.457   5.226   1.308
 6095SOL    HW219185   4.464   5.388   1.328
 6096SOL     OW19186   5.581   6.431   3.021
 6096SOL    HW119187   5.658   6.372   3.046
 6096SOL    HW219188   5.501   6.406   3.076
 6097SOL     OW19189   1.842   5.544   1.997
 6097SOL    HW119190   1.906   5.590   2.058
 6097SOL    HW219191   1.760   5.601   1.985
 6098SOL     OW19192   6.475   1.091   4.891
 6098SOL    HW119193   6.484   1.190   4.899
 6098SOL    HW219194   6.411   1.069   4.817
 6099SOL     OW19195   4.031   0.738   6.267
 6099SOL    HW119196   3.958   0.694   6.214
 6099SOL    HW219197   4.048   0.829   6.230
 6100SOL     OW19198   0.341   6.377   4.964
 6100SOL    HW119199   0.410   6.310   4.938
 6100SOL    HW219200   0.328   6.443   4.890
 6101SOL     OW19201   6.472   2.992   1.378
 6101SOL    HW119202   6.436   2.927   1.446
 6101SOL    HW219203   6.569   2.974   1.363
 6102SOL     OW19204   4.437   6.759   2.654
 6102SOL    HW119205   4.427   6.824   2.729
 6102SOL    HW219206   4.508   6.692   2.677
 6103SOL     OW19207   0.128   1.582   1.800
 6103SOL    HW119208   0.218   1.539   1.799
 6103SOL    HW219209   0.136   1.675   1.764
 6104SOL     OW19210   6.770   0.641   4.220
 6104SOL    HW119211   6.858   0.687   4.232
 6104SOL    HW219212   6.726   0.675   4.137
 6105SOL     OW19213   3.182   4.636   5.289
 6105SOL    HW119214   3.093   4.618   5.248
 6105SOL    HW219215   3.198   4.573   5.364
 6106SOL     OW19216   6.164   5.274   6.243
 6106SOL    HW119217   6.203   5.227   6.322
 6106SOL    HW219218   6.211   5.361   6.229
 6107SOL     OW19219   5.662   4.781   5.505
 6107SOL    HW119220   5.628   4.826   5.422
 6107SOL    HW219221   5.626   4.828   5.586
 6108SOL     OW19222   2.400   1.542   1.051
 6108SOL    HW119223   2.394   1.623   1.110
 6108SOL    HW219224   2.351   1.466   1.094
 6109SOL     OW19225   6.295   6.834   3.416
 6109SOL    HW119226   6.246   6.890   3.349
 6109SOL    HW219227   6.356   6.892   3.470
 6110SOL     OW19228   2.085   2.041   4.474
 6110SOL    HW119229   2.020   2.075   4.405
 6110SOL    HW219230   2.040   1.972   4.531
 6111SOL     OW19231   1.943   4.735   0.997
 6111SOL    HW119232   2.010   4.730   1.071
 6111SOL    HW219233   1.962   4.663   0.930
 6112SOL     OW19234   5.207   0.194   2.416
 6112SOL    HW119235   5.245   0.252   2.344
 6112SOL    HW219236   5.108   0.208   2.421
 6113SOL     OW19237   2.171   5.637   0.066
 6113SOL    HW119238   2.132   5.605   7.001
 6113SOL    HW219239   2.125   5.590   0.142
 6114SOL     OW19240   5.080   1.613   1.375
 6114SOL    HW119241   5.170   1.650   1.353
 6114SOL    HW219242   5.044   1.656   1.458
 6115SOL     OW19243   0.877   0.583   5.356
 6115SOL    HW119244   0.975   0.569   5.339
 6115SOL    HW219245   0.865   0.625   5.446
 6116SOL     OW19246   5.255   1.766   5.618
 6116SOL    HW119247   5.308   1.805   5.694
 6116SOL    HW219248   5.261   1.827   5.539
 6117SOL     OW19249   1.630   2.294   0.832
 6117SOL    HW119250   1.623   2.379   0.884
 6117SOL    HW219251   1.561   2.229   0.865
 6118SOL     OW19252   6.353   0.421   0.261
 6118SOL    HW119253   6.365   0.510   0.217
 6118SOL    HW219254   6.443   0.381   0.278
 6119SOL     OW19255   6.612   1.662   1.072
 6119SOL    HW119256   6.683   1.595   1.094
 6119SOL    HW219257   6.654   1.751   1.055
 6120SOL     OW19258   2.307   0.546   5.152
 6120SOL    HW119259   2.263   0.635   5.138
 6120SOL    HW219260   2.240   0.473   5.139
 6121SOL     OW19261   0.660   3.032   4.578
 6121SOL    HW119262   0.641   3.115   4.525
 6121SOL    HW219263   0.688   3.057   4.670
 6122SOL     OW19264   5.264   5.403   5.902
 6122SOL    HW119265   5.278   5.482   5.962
 6122SOL    HW219266   5.269   5.319   5.955
 6123SOL     OW19267   5.591   1.755   4.768
 6123SOL    HW119268   5.548   1.837   4.807
 6123SOL    HW219269   5.545   1.731   4.683
 6124SOL     OW19270   2.590   6.765   3.721
 6124SOL    HW119271   2.533   6.844   3.699
 6124SOL    HW219272   2.532   6.687   3.746
 6125SOL     OW19273   2.188   1.869   6.675
 6125SOL    HW119274   2.262   1.817   6.633
 6125SOL    HW219275   2.105   1.860   6.620
 6126SOL     OW19276   6.303   2.788   5.524
 6126SOL    HW119277   6.380   2.817   5.468
 6126SOL    HW219278   6.241   2.865   5.538
 6127SOL     OW19279   3.944   2.231   1.801
 6127SOL    HW119280   3.858   2.276   1.825
 6127SOL    HW219281   4.017   2.267   1.859
 6128SOL     OW19282   6.205   5.827   0.458
 6128SOL    HW119283   6.296   5.858   0.431
 6128SOL    HW219284   6.197   5.728   0.442
 6129SOL     OW19285   1.504   5.377   2.722
 6129SOL    HW119286   1.520   5.423   2.635
 6129SOL    HW219287   1.592   5.351   2.763
 6130SOL     OW19288   5.700   2.107   0.604
 6130SOL    HW119289   5.693   2.063   0.514
 6130SOL    HW219290   5.756   2.051   0.664
 6131SOL     OW19291   6.766   1.709   2.467
 6131SOL    HW119292   6.805   1.657   2.391
 6131SOL    HW219293   6.796   1.668   2.554
 6132SOL     OW19294   3.490   1.378   6.443
 6132SOL    HW119295   3.415   1.438   6.473
 6132SOL    HW219296   3.457   1.320   6.369
 6133SOL     OW19297   1.688   1.344   3.758
 6133SOL    HW119298   1.720   1.332   3.853
 6133SOL    HW219299   1.767   1.361   3.699
 6134SOL     OW19300   5.715   6.642   6.482
 6134SOL    HW119301   5.777   6.697   6.425
 6134SOL    HW219302   5.737   6.656   6.578
 6135SOL     OW19303   6.382   6.944   6.866
 6135SOL    HW119304   6.358   6.848   6.875
 6135SOL    HW219305   6.302   6.995   6.833
 6136SOL     OW19306   1.501   2.975   2.556
 6136SOL    HW119307   1.563   3.046   2.524
 6136SOL    HW219308   1.524   2.888   2.513
 6137SOL     OW19309   6.906   4.351   1.847
 6137SOL    HW119310   6.859   4.440   1.850
 6137SOL    HW219311   6.932   4.330   1.753
 6138SOL     OW19312   3.558   0.144   1.873
 6138SOL    HW119313   3.555   0.240   1.843
 6138SOL    HW219314   3.605   0.139   1.962
 6139SOL     OW19315   1.769   0.863   5.569
 6139SOL    HW119316   1.826   0.782   5.554
 6139SOL    HW219317   1.679   0.849   5.528
 6140SOL     OW19318   1.545   6.956   3.204
 6140SOL    HW119319   1.605   6.896   3.150
 6140SOL    HW219320   1.485   7.007   3.142
 6141SOL     OW19321   0.401   0.844   5.674
 6141SOL    HW119322   0.401   0.746   5.655
 6141SOL    HW219323   0.338   0.863   5.750
 6142SOL     OW19324   0.611   0.363   1.324
 6142SOL    HW119325   0.566   0.403   1.244
 6142SOL    HW219326   0.606   0.427   1.400
 6143SOL     OW19327   6.827   4.182   5.378
 6143SOL    HW119328   6.856   4.105   5.322
 6143SOL    HW219329   6.733   4.167   5.408
 6144SOL     OW19330   4.106   5.119   3.048
 6144SOL    HW119331   4.008   5.129   3.067
 6144SOL    HW219332   4.155   5.200   3.081
 6145SOL     OW19333   5.161   3.164   4.222
 6145SOL    HW119334   5.080   3.109   4.241
 6145SOL    HW219335   5.155   3.202   4.130
 6146SOL     OW19336   5.343   7.011   4.997
 6146SOL    HW119337   5.345   0.012   4.900
 6146SOL    HW219338   5.285   6.931   5.011
 6147SOL     OW19339   1.884   2.424   3.641
 6147SOL    HW119340   1.901   2.437   3.544
 6147SOL    HW219341   1.939   2.348   3.675
 6148SOL     OW19342   3.383   5.859   0.250
 6148SOL    HW119343   3.365   5.912   0.167
 6148SOL    HW219344   3.355   5.911   0.330
 6149SOL     OW19345   2.933   0.205   1.941
 6149SOL    HW119346   2.932   0.250   2.030
 6149SOL    HW219347   2.959   0.271   1.870
 6150SOL     OW19348   6.357   4.195   6.416
 6150SOL    HW119349   6.308   4.235   6.339
 6150SOL    HW219350   6.448   4.235   6.422
 6151SOL     OW19351   4.474   4.510   4.334
 6151SOL    HW119352   4.514   4.560   4.258
 6151SOL    HW219353   4.382   4.545   4.353
 6152SOL     OW19354   1.087   4.796   4.325
 6152SOL    HW119355   1.115   4.703   4.352
 6152SOL    HW219356   1.000   4.818   4.368
 6153SOL     OW19357   5.152   5.024   0.718
 6153SOL    HW119358   5.175   4.962   0.643
 6153SOL    HW219359   5.062   5.063   0.702
 6154SOL     OW19360   5.883   3.301   2.054
 6154SOL    HW119361   5.937   3.216   2.052
 6154SOL    HW219362   5.803   3.288   2.111
 6155SOL     OW19363   1.639   1.666   2.989
 6155SOL    HW119364   1.694   1.732   2.938
 6155SOL    HW219365   1.683   1.645   3.076
 6156SOL     OW19366   5.091   4.825   1.365
 6156SOL    HW119367   5.010   4.784   1.323
 6156SOL    HW219368   5.073   4.845   1.461
 6157SOL     OW19369   1.376   2.342   2.387
 6157SOL    HW119370   1.370   2.256   2.438
 6157SOL    HW219371   1.300   2.348   2.322
 6158SOL     OW19372   3.063   3.037   5.638
 6158SOL    HW119373   3.138   2.994   5.688
 6158SOL    HW219374   2.976   3.013   5.682
 6159SOL     OW19375   5.813   2.931   0.407
 6159SOL    HW119376   5.824   3.005   0.341
 6159SOL    HW219377   5.851   2.847   0.370
 6160SOL     OW19378   0.658   0.065   6.975
 6160SOL    HW119379   0.634   0.014   6.892
 6160SOL    HW219380   0.579   0.068   0.014
 6161SOL     OW19381   4.567   2.765   6.418
 6161SOL    HW119382   4.529   2.687   6.467
 6161SOL    HW219383   4.588   2.838   6.484
 6162SOL     OW19384   6.428   5.446   3.114
 6162SOL    HW119385   6.453   5.479   3.022
 6162SOL    HW219386   6.511   5.431   3.167
 6163SOL     OW19387   5.692   5.551   3.611
 6163SOL    HW119388   5.666   5.489   3.686
 6163SOL    HW219389   5.731   5.498   3.536
 6164SOL     OW19390   3.594   4.207   4.831
 6164SOL    HW119391   3.503   4.168   4.821
 6164SOL    HW219392   3.587   4.306   4.846
 6165SOL     OW19393   3.912   1.743   0.338
 6165SOL    HW119394   3.988   1.804   0.316
 6165SOL    HW219395   3.871   1.770   0.425
 6166SOL     OW19396   1.305   1.965   6.782
 6166SOL    HW119397   1.320   2.051   6.733
 6166SOL    HW219398   1.372   1.957   6.855
 6167SOL     OW19399   1.316   3.968   3.331
 6167SOL    HW119400   1.315   3.970   3.431
 6167SOL    HW219401   1.228   3.998   3.296
 6168SOL     OW19402   0.351   3.838   4.174
 6168SOL    HW119403   0.258   3.862   4.146
 6168SOL    HW219404   0.347   3.778   4.254
 6169SOL     OW19405   2.432   6.725   0.296
 6169SOL    HW119406   2.371   6.724   0.217
 6169SOL    HW219407   2.459   6.819   0.318
 6170SOL     OW19408   3.685   4.623   6.812
 6170SOL    HW119409   3.662   4.596   6.719
 6170SOL    HW219410   3.715   4.544   6.864
 6171SOL     OW19411   2.018   4.504   2.431
 6171SOL    HW119412   2.081   4.574   2.465
 6171SOL    HW219413   2.070   4.421   2.408
 6172SOL     OW19414   1.088   6.102   2.817
 6172SOL    HW119415   1.036   6.187   2.806
 6172SOL    HW219416   1.126   6.075   2.728
 6173SOL     OW19417   1.351   5.637   2.660
 6173SOL    HW119418   1.290   5.558   2.663
 6173SOL    HW219419   1.437   5.612   2.615
 6174SOL     OW19420   5.550   5.196   3.085
 6174SOL    HW119421   5.557   5.277   3.026
 6174SOL    HW219422   5.483   5.133   3.048
 6175SOL     OW19423   5.012   0.281   3.132
 6175SOL    HW119424   5.089   0.283   3.195
 6175SOL    HW219425   4.981   0.375   3.114
 6176SOL     OW19426   6.322   3.530   5.914
 6176SOL    HW119427   6.243   3.537   5.853
 6176SOL    HW219428   6.350   3.435   5.921
 6177SOL     OW19429   5.833   2.283   0.326
 6177SOL    HW119430   5.913   2.338   0.351
 6177SOL    HW219431   5.863   2.205   0.271
 6178SOL     OW19432   5.607   3.527   0.884
 6178SOL    HW119433   5.652   3.443   0.912
 6178SOL    HW219434   5.675   3.592   0.851
 6179SOL     OW19435   6.736   2.340   5.781
 6179SOL    HW119436   6.721   2.303   5.873
 6179SOL    HW219437   6.681   2.289   5.715
 6180SOL     OW19438   4.290   6.780   0.984
 6180SOL    HW119439   4.210   6.721   0.969
 6180SOL    HW219440   4.277   6.832   1.069
 6181SOL     OW19441   5.092   6.490   6.666
 6181SOL    HW119442   5.072   6.423   6.594
 6181SOL    HW219443   5.182   6.471   6.705
 6182SOL     OW19444   4.842   6.758   6.489
 6182SOL    HW119445   4.768   6.701   6.453
 6182SOL    HW219446   4.869   6.825   6.420
 6183SOL     OW19447   3.319   0.360   3.328
 6183SOL    HW119448   3.347   0.403   3.241
 6183SOL    HW219449   3.227   0.323   3.318
 6184SOL     OW19450   0.266   0.025   6.467
 6184SOL    HW119451   0.222   6.972   6.416
 6184SOL    HW219452   0.352   0.049   6.423
 6185SOL     OW19453   6.848   3.654   6.209
 6185SOL    HW119454   6.876   3.586   6.140
 6185SOL    HW219455   6.897   3.637   6.294
 6186SOL     OW19456   5.364   0.385   5.000
 6186SOL    HW119457   5.324   0.445   4.930
 6186SOL    HW219458   5.424   0.318   4.956
 6187SOL     OW19459   4.567   4.622   4.100
 6187SOL    HW119460   4.644   4.570   4.065
 6187SOL    HW219461   4.595   4.717   4.114
 6188SOL     OW19462   2.779   6.553   1.355
 6188SOL    HW119463   2.858   6.607   1.382
 6188SOL    HW219464   2.705   6.614   1.326
 6189SOL     OW19465   5.206   4.938   3.598
 6189SOL    HW119466   5.299   4.926   3.565
 6189SOL    HW219467   5.193   5.033   3.629
 6190SOL     OW19468   5.681   2.525   6.923
 6190SOL    HW119469   5.701   2.607   6.869
 6190SOL    HW219470   5.693   2.444   6.866
 6191SOL     OW19471   6.169   1.554   0.052
 6191SOL    HW119472   6.132   1.632   0.002
 6191SOL    HW219473   6.269   1.556   0.049
 6192SOL     OW19474   2.800   2.823   6.553
 6192SOL    HW119475   2.881   2.880   6.565
 6192SOL    HW219476   2.819   2.731   6.588
 6193SOL     OW19477   5.076   0.443   1.645
 6193SOL    HW119478   5.027   0.525   1.616
 6193SOL    HW219479   5.126   0.405   1.567
 6194SOL     OW19480   2.464   0.610   0.518
 6194SOL    HW119481   2.536   0.604   0.449
 6194SOL    HW219482   2.374   0.602   0.474
 6195SOL     OW19483   3.214   0.417   6.368
 6195SOL    HW119484   3.181   0.325   6.388
 6195SOL    HW219485   3.143   0.484   6.390
 6196SOL     OW19486   0.723   1.460   6.297
 6196SOL    HW119487   0.820   1.443   6.315
 6196SOL    HW219488   0.689   1.393   6.231
 6197SOL     OW19489   2.223   3.538   0.453
 6197SOL    HW119490   2.263   3.520   0.543
 6197SOL    HW219491   2.289   3.590   0.398
 6198SOL     OW19492   3.898   4.865   2.362
 6198SOL    HW119493   3.836   4.840   2.288
 6198SOL    HW219494   3.907   4.965   2.365
 6199SOL     OW19495   1.632   6.584   6.940
 6199SOL    HW119496   1.613   6.663   6.998
 6199SOL    HW219497   1.630   6.612   6.844
 6200SOL     OW19498   4.203   1.095   6.575
 6200SOL    HW119499   4.124   1.147   6.541
 6200SOL    HW219500   4.259   1.066   6.498
 6201SOL     OW19501   1.934   3.866   5.668
 6201SOL    HW119502   1.895   3.782   5.707
 6201SOL    HW219503   2.033   3.857   5.663
 6202SOL     OW19504   3.627   1.782   0.868
 6202SOL    HW119505   3.577   1.867   0.854
 6202SOL    HW219506   3.567   1.705   0.849
 6203SOL     OW19507   5.068   1.162   4.047
 6203SOL    HW119508   5.095   1.113   4.130
 6203SOL    HW219509   4.978   1.131   4.017
 6204SOL     OW19510   2.166   6.170   5.451
 6204SOL    HW119511   2.253   6.177   5.501
 6204SOL    HW219512   2.091   6.188   5.514
 6205SOL     OW19513   5.026   5.877   0.045
 6205SOL    HW119514   4.945   5.825   0.070
 6205SOL    HW219515   5.001   5.973   0.032
 6206SOL     OW19516   5.584   0.021   2.629
 6206SOL    HW119517   5.568   0.103   2.684
 6206SOL    HW219518   5.640   0.045   2.550
 6207SOL     OW19519   1.423   4.267   4.973
 6207SOL    HW119520   1.483   4.213   4.913
 6207SOL    HW219521   1.392   4.349   4.924
 6208SOL     OW19522   5.897   6.367   6.168
 6208SOL    HW119523   5.804   6.380   6.135
 6208SOL    HW219524   5.896   6.360   6.268
 6209SOL     OW19525   4.315   6.312   0.549
 6209SOL    HW119526   4.408   6.292   0.519
 6209SOL    HW219527   4.318   6.377   0.625
 6210SOL     OW19528   5.449   4.275   3.748
 6210SOL    HW119529   5.432   4.193   3.693
 6210SOL    HW219530   5.513   4.334   3.701
 6211SOL     OW19531   2.835   0.006   4.524
 6211SOL    HW119532   2.767   0.008   4.597
 6211SOL    HW219533   2.859   6.933   4.504
 6212SOL     OW19534   6.746   6.640   3.884
 6212SOL    HW119535   6.671   6.672   3.825
 6212SOL    HW219536   6.734   6.543   3.901
 6213SOL     OW19537   6.344   0.365   6.612
 6213SOL    HW119538   6.271   0.360   6.544
 6213SOL    HW219539   6.349   0.458   6.649
 6214SOL     OW19540   6.588   4.277   2.701
 6214SOL    HW119541   6.638   4.190   2.705
 6214SOL    HW219542   6.529   4.285   2.781
 6215SOL     OW19543   3.095   2.984   0.840
 6215SOL    HW119544   3.041   3.011   0.920
 6215SOL    HW219545   3.183   2.947   0.870
 6216SOL     OW19546   5.512   1.801   2.230
 6216SOL    HW119547   5.590   1.863   2.232
 6216SOL    HW219548   5.536   1.715   2.276
 6217SOL     OW19549   5.071   2.773   1.116
 6217SOL    HW119550   5.096   2.821   1.200
 6217SOL    HW219551   5.144   2.710   1.091
 6218SOL     OW19552   2.685   5.029   4.555
 6218SOL    HW119553   2.722   4.936   4.563
 6218SOL    HW219554   2.683   5.056   4.459
 6219SOL     OW19555   0.980   2.456   5.334
 6219SOL    HW119556   1.040   2.500   5.267
 6219SOL    HW219557   0.885   2.465   5.304
 6220SOL     OW19558   2.078   4.696   5.197
 6220SOL    HW119559   2.026   4.621   5.158
 6220SOL    HW219560   2.016   4.764   5.236
 6221SOL     OW19561   3.845   4.947   4.361
 6221SOL    HW119562   3.781   4.962   4.437
 6221SOL    HW219563   3.926   4.900   4.395
 6222SOL     OW19564   6.580   6.862   1.887
 6222SOL    HW119565   6.587   6.916   1.803
 6222SOL    HW219566   6.484   6.858   1.916
 6223SOL     OW19567   5.583   2.775   4.695
 6223SOL    HW119568   5.644   2.854   4.706
 6223SOL    HW219569   5.538   2.755   4.782
 6224SOL     OW19570   2.699   1.621   5.373
 6224SOL    HW119571   2.644   1.701   5.397
 6224SOL    HW219572   2.719   1.622   5.275
 6225SOL     OW19573   3.660   3.099   0.551
 6225SOL    HW119574   3.645   3.024   0.487
 6225SOL    HW219575   3.722   3.070   0.624
 6226SOL     OW19576   5.598   0.726   4.744
 6226SOL    HW119577   5.578   0.817   4.709
 6226SOL    HW219578   5.675   0.686   4.694
 6227SOL     OW19579   3.684   4.809   6.070
 6227SOL    HW119580   3.700   4.905   6.092
 6227SOL    HW219581   3.743   4.781   5.994
 6228SOL     OW19582   0.286   1.159   3.295
 6228SOL    HW119583   0.261   1.236   3.235
 6228SOL    HW219584   0.205   1.104   3.313
 6229SOL     OW19585   2.434   2.654   2.580
 6229SOL    HW119586   2.419   2.559   2.607
 6229SOL    HW219587   2.517   2.688   2.622
 6230SOL     OW19588   2.209   2.349   4.184
 6230SOL    HW119589   2.188   2.262   4.229
 6230SOL    HW219590   2.256   2.332   4.098
 6231SOL     OW19591   0.002   5.667   1.489
 6231SOL    HW119592   0.077   5.604   1.471
 6231SOL    HW219593   6.942   5.615   1.512
 6232SOL     OW19594   0.264   0.588   0.524
 6232SOL    HW119595   0.303   0.603   0.433
 6232SOL    HW219596   0.252   0.676   0.570
 6233SOL     OW19597   4.636   2.184   6.862
 6233SOL    HW119598   4.646   2.263   6.922
 6233SOL    HW219599   4.670   2.102   6.907
 6234SOL     OW19600   1.931   1.706   3.905
 6234SOL    HW119601   2.009   1.669   3.954
 6234SOL    HW219602   1.859   1.730   3.970
 6235SOL     OW19603   2.250   0.429   2.605
 6235SOL    HW119604   2.205   0.496   2.664
 6235SOL    HW219605   2.341   0.463   2.580
 6236SOL     OW19606   0.030   3.952   0.766
 6236SOL    HW119607   7.004   4.015   0.827
 6236SOL    HW219608   6.989   3.879   0.738
 6237SOL     OW19609   4.260   6.980   1.192
 6237SOL    HW119610   4.253   0.031   1.124
 6237SOL    HW219611   4.195   6.998   1.266
 6238SOL     OW19612   4.749   5.528   1.060
 6238SOL    HW119613   4.714   5.585   1.134
 6238SOL    HW219614   4.849   5.523   1.066
 6239SOL     OW19615   2.318   6.859   2.741
 6239SOL    HW119616   2.386   6.876   2.670
 6239SOL    HW219617   2.364   6.844   2.828
 6240SOL     OW19618   1.820   3.298   0.313
 6240SOL    HW119619   1.786   3.266   0.402
 6240SOL    HW219620   1.920   3.291   0.312
 6241SOL     OW19621   3.441   0.002   1.502
 6241SOL    HW119622   3.370   6.964   1.540
 6241SOL    HW219623   3.436   0.002   1.403
 6242SOL     OW19624   5.048   2.353   3.840
 6242SOL    HW119625   4.990   2.304   3.775
 6242SOL    HW219626   5.124   2.396   3.792
 6243SOL     OW19627   5.501   6.252   4.412
 6243SOL    HW119628   5.434   6.210   4.473
 6243SOL    HW219629   5.462   6.260   4.320
 6244SOL     OW19630   2.848   1.711   1.801
 6244SOL    HW119631   2.909   1.661   1.862
 6244SOL    HW219632   2.897   1.788   1.761
 6245SOL     OW19633   3.054   5.085   1.134
 6245SOL    HW119634   3.084   5.180   1.119
 6245SOL    HW219635   2.972   5.085   1.191
 6246SOL     OW19636   2.918   2.313   5.546
 6246SOL    HW119637   2.854   2.237   5.533
 6246SOL    HW219638   2.957   2.338   5.457
 6247SOL     OW19639   0.294   6.240   3.267
 6247SOL    HW119640   0.271   6.154   3.221
 6247SOL    HW219641   0.393   6.250   3.270
 6248SOL     OW19642   0.506   4.922   1.135
 6248SOL    HW119643   0.418   4.941   1.089
 6248SOL    HW219644   0.528   4.998   1.196
 6249SOL     OW19645   0.083   4.023   6.995
 6249SOL    HW119646   0.075   3.937   0.023
 6249SOL    HW219647   7.015   4.052   6.963
 6250SOL     OW19648   6.083   6.237   6.954
 6250SOL    HW119649   6.142   6.308   6.993
 6250SOL    HW219650   6.125   6.200   6.872
 6251SOL     OW19651   4.523   1.547   0.590
 6251SOL    HW119652   4.433   1.567   0.628
 6251SOL    HW219653   4.560   1.628   0.545
 6252SOL     OW19654   2.956   6.234   5.137
 6252SOL    HW119655   2.867   6.215   5.177
 6252SOL    HW219656   2.953   6.213   5.039
 6253SOL     OW19657   2.299   3.903   1.818
 6253SOL    HW119658   2.207   3.943   1.822
 6253SOL    HW219659   2.355   3.942   1.891
 6254SOL     OW19660   5.488   0.025   0.381
 6254SOL    HW119661   5.395   0.054   0.358
 6254SOL    HW219662   5.549   0.104   0.379
 6255SOL     OW19663   0.314   1.552   2.355
 6255SOL    HW119664   0.242   1.485   2.373
 6255SOL    HW219665   0.375   1.518   2.284
 6256SOL     OW19666   3.968   4.826   2.626
 6256SOL    HW119667   3.971   4.919   2.663
 6256SOL    HW219668   3.910   4.825   2.545
 6257SOL     OW19669   5.287   2.730   0.117
 6257SOL    HW119670   5.225   2.798   0.078
 6257SOL    HW219671   5.260   2.639   0.086
 6258SOL     OW19672   4.507   2.125   2.071
 6258SOL    HW119673   4.464   2.092   2.155
 6258SOL    HW219674   4.563   2.205   2.091
 6259SOL     OW19675   3.108   2.234   1.770
 6259SOL    HW119676   3.065   2.161   1.822
 6259SOL    HW219677   3.068   2.322   1.796
 6260SOL     OW19678   3.735   3.978   6.930
 6260SOL    HW119679   3.821   4.025   6.912
 6260SOL    HW219680   3.750   3.880   6.935
 6261SOL     OW19681   4.035   1.401   0.475
 6261SOL    HW119682   3.942   1.376   0.500
 6261SOL    HW219683   4.044   1.400   0.375
 6262SOL     OW19684   1.185   4.659   6.679
 6262SOL    HW119685   1.202   4.605   6.761
 6262SOL    HW219686   1.156   4.751   6.705
 6263SOL     OW19687   6.791   6.803   0.530
 6263SOL    HW119688   6.799   6.902   0.541
 6263SOL    HW219689   6.753   6.764   0.614
 6264SOL     OW19690   2.495   1.691   0.398
 6264SOL    HW119691   2.419   1.750   0.427
 6264SOL    HW219692   2.579   1.746   0.392
 6265SOL     OW19693   4.159   3.431   1.509
 6265SOL    HW119694   4.181   3.359   1.442
 6265SOL    HW219695   4.190   3.519   1.475
 6266SOL     OW19696   3.149   0.415   2.981
 6266SOL    HW119697   3.059   0.427   2.941
 6266SOL    HW219698   3.219   0.442   2.915
 6267SOL     OW19699   3.474   0.317   6.272
 6267SOL    HW119700   3.377   0.321   6.297
 6267SOL    HW219701   3.530   0.326   6.355
 6268SOL     OW19702   3.788   4.887   2.882
 6268SOL    HW119703   3.863   4.821   2.879
 6268SOL    HW219704   3.818   4.969   2.931
 6269SOL     OW19705   5.938   5.409   1.289
 6269SOL    HW119706   6.022   5.371   1.250
 6269SOL    HW219707   5.957   5.500   1.326
 6270SOL     OW19708   0.904   0.608   4.716
 6270SOL    HW119709   0.843   0.662   4.656
 6270SOL    HW219710   0.871   0.613   4.810
 6271SOL     OW19711   0.016   1.492   0.609
 6271SOL    HW119712   0.108   1.494   0.646
 6271SOL    HW219713   6.997   1.402   0.626
 6272SOL     OW19714   2.214   2.365   3.513
 6272SOL    HW119715   2.139   2.299   3.514
 6272SOL    HW219716   2.183   2.450   3.470
 6273SOL     OW19717   3.464   1.483   1.540
 6273SOL    HW119718   3.400   1.466   1.466
 6273SOL    HW219719   3.514   1.399   1.561
 6274SOL     OW19720   3.458   6.702   5.745
 6274SOL    HW119721   3.495   6.648   5.820
 6274SOL    HW219722   3.389   6.648   5.696
 6275SOL     OW19723   1.711   0.280   4.803
 6275SOL    HW119724   1.646   0.226   4.858
 6275SOL    HW219725   1.691   0.265   4.706
 6276SOL     OW19726   1.620   5.567   3.838
 6276SOL    HW119727   1.699   5.570   3.899
 6276SOL    HW219728   1.613   5.477   3.796
 6277SOL     OW19729   5.169   3.062   2.864
 6277SOL    HW119730   5.088   3.085   2.918
 6277SOL    HW219731   5.205   2.973   2.894
 6278SOL     OW19732   5.206   0.287   4.238
 6278SOL    HW119733   5.157   0.318   4.319
 6278SOL    HW219734   5.300   0.261   4.264
 6279SOL     OW19735   4.137   1.917   0.407
 6279SOL    HW119736   4.237   1.919   0.409
 6279SOL    HW219737   4.101   1.991   0.464
 6280SOL     OW19738   0.342   4.785   5.552
 6280SOL    HW119739   0.252   4.754   5.583
 6280SOL    HW219740   0.410   4.764   5.622
 6281SOL     OW19741   2.131   0.350   5.088
 6281SOL    HW119742   2.071   0.275   5.117
 6281SOL    HW219743   2.084   0.406   5.019
 6282SOL     OW19744   2.538   6.643   4.070
 6282SOL    HW119745   2.504   6.625   3.978
 6282SOL    HW219746   2.616   6.584   4.090
 6283SOL     OW19747   6.810   2.510   4.995
 6283SOL    HW119748   6.845   2.600   5.022
 6283SOL    HW219749   6.842   2.488   4.904
 6284SOL     OW19750   1.369   4.603   5.506
 6284SOL    HW119751   1.422   4.520   5.492
 6284SOL    HW219752   1.271   4.582   5.497
 6285SOL     OW19753   1.437   3.576   3.141
 6285SOL    HW119754   1.368   3.557   3.210
 6285SOL    HW219755   1.522   3.528   3.163
 6286SOL     OW19756   5.004   0.658   3.313
 6286SOL    HW119757   5.063   0.618   3.383
 6286SOL    HW219758   5.015   0.758   3.313
 6287SOL     OW19759   4.720   4.106   1.783
 6287SOL    HW119760   4.809   4.139   1.815
 6287SOL    HW219761   4.648   4.139   1.844
 6288SOL     OW19762   5.514   3.514   0.303
 6288SOL    HW119763   5.422   3.478   0.288
 6288SOL    HW219764   5.560   3.459   0.374
 6289SOL     OW19765   1.523   1.532   3.653
 6289SOL    HW119766   1.577   1.462   3.700
 6289SOL    HW219767   1.579   1.576   3.583
 6290SOL     OW19768   4.932   3.827   3.237
 6290SOL    HW119769   4.873   3.908   3.230
 6290SOL    HW219770   5.017   3.844   3.187
 6291SOL     OW19771   3.533   4.073   3.631
 6291SOL    HW119772   3.592   4.116   3.700
 6291SOL    HW219773   3.446   4.047   3.674
 6292SOL     OW19774   1.340   1.229   2.194
 6292SOL    HW119775   1.387   1.160   2.249
 6292SOL    HW219776   1.404   1.270   2.129
 6293SOL     OW19777   4.569   6.809   0.521
 6293SOL    HW119778   4.600   6.767   0.436
 6293SOL    HW219779   4.583   6.908   0.516
 6294SOL     OW19780   4.427   5.145   2.868
 6294SOL    HW119781   4.469   5.074   2.925
 6294SOL    HW219782   4.355   5.192   2.920
 6295SOL     OW19783   6.039   6.070   6.175
 6295SOL    HW119784   6.044   6.165   6.145
 6295SOL    HW219785   5.958   6.057   6.232
 6296SOL     OW19786   6.056   1.036   2.906
 6296SOL    HW119787   5.964   1.007   2.931
 6296SOL    HW219788   6.123   0.968   2.938
 6297SOL     OW19789   6.059   6.346   5.786
 6297SOL    HW119790   6.101   6.405   5.856
 6297SOL    HW219791   6.061   6.393   5.698
 6298SOL     OW19792   0.649   2.994   5.295
 6298SOL    HW119793   0.578   2.990   5.223
 6298SOL    HW219794   0.731   2.948   5.262
 6299SOL     OW19795   6.385   2.998   6.773
 6299SOL    HW119796   6.324   3.014   6.850
 6299SOL    HW219797   6.403   2.900   6.765
 6300SOL     OW19798   4.877   0.681   3.590
 6300SOL    HW119799   4.814   0.654   3.517
 6300SOL    HW219800   4.969   0.647   3.569
 6301SOL     OW19801   3.124   6.755   0.750
 6301SOL    HW119802   3.069   6.732   0.830
 6301SOL    HW219803   3.135   6.855   0.745
 6302SOL     OW19804   1.473   1.260   3.280
 6302SOL    HW119805   1.435   1.175   3.242
 6302SOL    HW219806   1.400   1.312   3.324
 6303SOL     OW19807   1.642   6.176   4.796
 6303SOL    HW119808   1.640   6.242   4.722
 6303SOL    HW219809   1.658   6.224   4.883
 6304SOL     OW19810   2.883   1.211   6.900
 6304SOL    HW119811   2.812   1.237   6.966
 6304SOL    HW219812   2.901   1.288   6.839
 6305SOL     OW19813   6.818   6.996   1.388
 6305SOL    HW119814   6.753   6.961   1.321
 6305SOL    HW219815   6.886   6.926   1.410
 6306SOL     OW19816   6.416   3.037   3.784
 6306SOL    HW119817   6.415   3.053   3.686
 6306SOL    HW219818   6.461   2.949   3.803
 6307SOL     OW19819   2.047   5.072   0.301
 6307SOL    HW119820   2.087   4.983   0.278
 6307SOL    HW219821   1.948   5.069   0.288
 6308SOL     OW19822   3.067   2.005   5.003
 6308SOL    HW119823   3.156   2.017   5.049
 6308SOL    HW219824   3.025   2.095   4.990
 6309SOL     OW19825   5.680   2.060   4.125
 6309SOL    HW119826   5.738   2.125   4.174
 6309SOL    HW219827   5.634   2.107   4.050
 6310SOL     OW19828   1.496   4.832   4.579
 6310SOL    HW119829   1.440   4.857   4.500
 6310SOL    HW219830   1.584   4.795   4.548
 6311SOL     OW19831   5.931   0.619   4.852
 6311SOL    HW119832   5.870   0.618   4.773
 6311SOL    HW219833   5.880   0.592   4.934
 6312SOL     OW19834   4.026   5.147   5.538
 6312SOL    HW119835   3.989   5.211   5.471
 6312SOL    HW219836   3.986   5.056   5.523
 6313SOL     OW19837   2.464   5.764   3.336
 6313SOL    HW119838   2.532   5.723   3.398
 6313SOL    HW219839   2.509   5.789   3.250
 6314SOL     OW19840   2.828   6.412   2.758
 6314SOL    HW119841   2.774   6.496   2.748
 6314SOL    HW219842   2.807   6.350   2.682
 6315SOL     OW19843   3.220   3.766   0.047
 6315SOL    HW119844   3.297   3.829   0.043
 6315SOL    HW219845   3.147   3.799   7.009
 6316SOL     OW19846   4.523   2.856   5.588
 6316SOL    HW119847   4.555   2.893   5.501
 6316SOL    HW219848   4.449   2.791   5.571
 6317SOL     OW19849   4.978   6.704   3.960
 6317SOL    HW119850   5.054   6.654   4.001
 6317SOL    HW219851   4.965   6.791   4.008
 6318SOL     OW19852   2.436   2.203   4.987
 6318SOL    HW119853   2.503   2.276   4.995
 6318SOL    HW219854   2.346   2.242   4.965
 6319SOL     OW19855   0.676   1.898   3.759
 6319SOL    HW119856   0.655   1.986   3.715
 6319SOL    HW219857   0.772   1.898   3.787
 6320SOL     OW19858   5.643   3.754   3.025
 6320SOL    HW119859   5.715   3.740   2.956
 6320SOL    HW219860   5.661   3.838   3.075
 6321SOL     OW19861   2.722   4.580   0.528
 6321SOL    HW119862   2.627   4.605   0.547
 6321SOL    HW219863   2.726   4.483   0.503
 6322SOL     OW19864   0.746   1.061   6.433
 6322SOL    HW119865   0.693   1.004   6.496
 6322SOL    HW219866   0.739   1.025   6.340
 6323SOL     OW19867   3.486   2.708   0.493
 6323SOL    HW119868   3.533   2.775   0.435
 6323SOL    HW219869   3.527   2.708   0.584
 6324SOL     OW19870   4.233   1.414   6.274
 6324SOL    HW119871   4.318   1.366   6.298
 6324SOL    HW219872   4.191   1.450   6.358
 6325SOL     OW19873   0.958   2.386   2.539
 6325SOL    HW119874   0.872   2.348   2.573
 6325SOL    HW219875   1.033   2.359   2.600
 6326SOL     OW19876   4.962   5.629   1.430
 6326SOL    HW119877   5.040   5.679   1.466
 6326SOL    HW219878   4.959   5.537   1.469
 6327SOL     OW19879   6.025   5.706   5.601
 6327SOL    HW119880   5.968   5.731   5.679
 6327SOL    HW219881   5.968   5.663   5.531
 6328SOL     OW19882   2.928   4.104   6.712
 6328SOL    HW119883   2.999   4.150   6.659
 6328SOL    HW219884   2.898   4.022   6.663
 6329SOL     OW19885   0.902   1.587   3.263
 6329SOL    HW119886   0.979   1.535   3.226
 6329SOL    HW219887   0.855   1.635   3.189
 6330SOL     OW19888   3.923   1.300   0.221
 6330SOL    HW119889   4.001   1.294   0.159
 6330SOL    HW219890   3.930   1.227   0.290
 6331SOL     OW19891   6.473   2.646   1.770
 6331SOL    HW119892   6.559   2.617   1.728
 6331SOL    HW219893   6.453   2.589   1.850
 6332SOL     OW19894   6.211   5.531   1.589
 6332SOL    HW119895   6.298   5.511   1.633
 6332SOL    HW219896   6.226   5.554   1.493
 6333SOL     OW19897   3.797   4.834   3.303
 6333SOL    HW119898   3.790   4.907   3.371
 6333SOL    HW219899   3.832   4.751   3.347
 6334SOL     OW19900   2.063   1.026   2.469
 6334SOL    HW119901   2.006   1.001   2.548
 6334SOL    HW219902   2.052   0.958   2.397
 6335SOL     OW19903   6.629   1.211   6.347
 6335SOL    HW119904   6.605   1.198   6.251
 6335SOL    HW219905   6.717   1.260   6.354
 6336SOL     OW19906   6.921   2.617   4.461
 6336SOL    HW119907   6.877   2.600   4.549
 6336SOL    HW219908   6.946   2.530   4.419
 6337SOL     OW19909   6.179   4.459   5.650
 6337SOL    HW119910   6.158   4.376   5.598
 6337SOL    HW219911   6.096   4.512   5.664
 6338SOL     OW19912   3.614   1.125   3.285
 6338SOL    HW119913   3.528   1.097   3.243
 6338SOL    HW219914   3.672   1.170   3.216
 6339SOL     OW19915   0.332   1.802   3.927
 6339SOL    HW119916   0.282   1.771   3.846
 6339SOL    HW219917   0.427   1.774   3.920
 6340SOL     OW19918   2.237   5.418   4.221
 6340SOL    HW119919   2.271   5.431   4.128
 6340SOL    HW219920   2.140   5.439   4.224
 6341SOL     OW19921   0.241   4.436   3.571
 6341SOL    HW119922   0.341   4.433   3.578
 6341SOL    HW219923   0.215   4.492   3.493
 6342SOL     OW19924   1.099   2.543   1.214
 6342SOL    HW119925   1.092   2.643   1.222
 6342SOL    HW219926   1.046   2.501   1.287
 6343SOL     OW19927   3.675   1.405   6.788
 6343SOL    HW119928   3.596   1.376   6.734
 6343SOL    HW219929   3.644   1.458   6.867
 6344SOL     OW19930   0.977   4.406   4.470
 6344SOL    HW119931   1.035   4.457   4.534
 6344SOL    HW219932   0.903   4.465   4.439
 6345SOL     OW19933   3.714   1.110   2.194
 6345SOL    HW119934   3.812   1.124   2.208
 6345SOL    HW219935   3.679   1.178   2.129
 6346SOL     OW19936   0.686   4.066   3.540
 6346SOL    HW119937   0.670   3.974   3.505
 6346SOL    HW219938   0.609   4.094   3.598
 6347SOL     OW19939   3.081   7.021   0.784
 6347SOL    HW119940   2.986   0.022   0.804
 6347SOL    HW219941   3.141   0.075   0.812
 6348SOL     OW19942   0.766   3.365   4.252
 6348SOL    HW119943   0.706   3.357   4.331
 6348SOL    HW219944   0.740   3.446   4.198
 6349SOL     OW19945   2.779   0.637   0.391
 6349SOL    HW119946   2.788   0.684   0.304
 6349SOL    HW219947   2.766   0.539   0.376
 6350SOL     OW19948   1.495   5.972   2.099
 6350SOL    HW119949   1.537   6.063   2.088
 6350SOL    HW219950   1.562   5.901   2.078
 6351SOL     OW19951   0.036   1.420   2.508
 6351SOL    HW119952   6.998   1.466   2.442
 6351SOL    HW219953   7.019   1.429   2.599
 6352SOL     OW19954   0.218   5.298   2.311
 6352SOL    HW119955   0.213   5.199   2.298
 6352SOL    HW219956   0.127   5.333   2.332
 6353SOL     OW19957   0.323   0.026   0.973
 6353SOL    HW119958   0.303   6.953   0.953
 6353SOL    HW219959   0.301   0.082   0.893
 6354SOL     OW19960   0.648   6.535   3.315
 6354SOL    HW119961   0.588   6.606   3.352
 6354SOL    HW219962   0.708   6.575   3.245
 6355SOL     OW19963   2.005   2.834   3.235
 6355SOL    HW119964   2.005   2.910   3.170
 6355SOL    HW219965   2.060   2.758   3.199
 6356SOL     OW19966   3.621   3.992   1.598
 6356SOL    HW119967   3.566   4.052   1.541
 6356SOL    HW219968   3.672   3.928   1.539
 6357SOL     OW19969   4.241   2.289   0.254
 6357SOL    HW119970   4.175   2.216   0.240
 6357SOL    HW219971   4.216   2.368   0.197
 6358SOL     OW19972   0.203   2.325   3.371
 6358SOL    HW119973   0.194   2.247   3.432
 6358SOL    HW219974   0.269   2.303   3.299
 6359SOL     OW19975   6.837   0.487   6.539
 6359SOL    HW119976   6.793   0.399   6.560
 6359SOL    HW219977   6.767   0.556   6.524
 6360SOL     OW19978   2.958   5.536   3.882
 6360SOL    HW119979   3.058   5.525   3.888
 6360SOL    HW219980   2.914   5.453   3.917
 6361SOL     OW19981   4.296   5.874   5.928
 6361SOL    HW119982   4.365   5.843   5.861
 6361SOL    HW219983   4.246   5.952   5.890
 6362SOL     OW19984   5.945   5.330   6.084
 6362SOL    HW119985   5.961   5.257   6.017
 6362SOL    HW219986   5.989   5.305   6.171
 6363SOL     OW19987   1.560   6.068   4.415
 6363SOL    HW119988   1.464   6.056   4.386
 6363SOL    HW219989   1.576   6.015   4.498
 6364SOL     OW19990   2.540   2.706   5.786
 6364SOL    HW119991   2.541   2.617   5.740
 6364SOL    HW219992   2.451   2.720   5.829
 6365SOL     OW19993   4.742   6.505   3.100
 6365SOL    HW119994   4.648   6.536   3.089
 6365SOL    HW219995   4.804   6.573   3.060
 6366SOL     OW19996   0.398   5.692   5.228
 6366SOL    HW119997   0.418   5.737   5.315
 6366SOL    HW219998   0.299   5.694   5.212
 6367SOL     OW19999   5.160   6.762   4.303
 6367SOL    HW120000   5.087   6.722   4.357
 6367SOL    HW220001   5.141   6.859   4.287
 6368SOL     OW20002   3.159   6.960   4.600
 6368SOL    HW120003   3.087   0.008   4.604
 6368SOL    HW220004   3.244   7.002   4.570
 6369SOL     OW20005   2.337   4.973   4.194
 6369SOL    HW120006   2.378   5.055   4.235
 6369SOL    HW220007   2.400   4.896   4.203
 6370SOL     OW20008   6.084   2.426   1.482
 6370SOL    HW120009   6.021   2.500   1.457
 6370SOL    HW220010   6.082   2.356   1.412
 6371SOL     OW20011   4.777   2.248   2.339
 6371SOL    HW120012   4.780   2.148   2.337
 6371SOL    HW220013   4.705   2.279   2.277
 6372SOL     OW20014   3.176   5.916   2.129
 6372SOL    HW120015   3.083   5.936   2.160
 6372SOL    HW220016   3.222   6.002   2.105
 6373SOL     OW20017   4.540   3.924   6.382
 6373SOL    HW120018   4.442   3.927   6.364
 6373SOL    HW220019   4.556   3.929   6.481
 6374SOL     OW20020   2.954   3.226   2.796
 6374SOL    HW120021   2.997   3.136   2.802
 6374SOL    HW220022   2.889   3.237   2.872
 6375SOL     OW20023   1.322   6.321   2.598
 6375SOL    HW120024   1.324   6.329   2.498
 6375SOL    HW220025   1.347   6.409   2.639
 6376SOL     OW20026   6.608   2.347   5.099
 6376SOL    HW120027   6.590   2.368   5.195
 6376SOL    HW220028   6.656   2.423   5.056
 6377SOL     OW20029   0.576   1.318   4.603
 6377SOL    HW120030   0.599   1.254   4.676
 6377SOL    HW220031   0.660   1.358   4.567
 6378SOL     OW20032   4.720   4.200   4.019
 6378SOL    HW120033   4.673   4.212   4.107
 6378SOL    HW220034   4.679   4.261   3.951
 6379SOL     OW20035   2.340   4.257   3.474
 6379SOL    HW120036   2.316   4.175   3.525
 6379SOL    HW220037   2.258   4.294   3.430
 6380SOL     OW20038   0.210   0.725   5.971
 6380SOL    HW120039   0.281   0.762   6.032
 6380SOL    HW220040   0.125   0.714   6.022
 6381SOL     OW20041   3.015   3.918   2.809
 6381SOL    HW120042   2.980   3.953   2.722
 6381SOL    HW220043   3.110   3.891   2.798
 6382SOL     OW20044   1.194   3.526   5.718
 6382SOL    HW120045   1.219   3.553   5.811
 6382SOL    HW220046   1.276   3.523   5.661
 6383SOL     OW20047   2.495   1.164   4.271
 6383SOL    HW120048   2.561   1.220   4.222
 6383SOL    HW220049   2.493   1.072   4.232
 6384SOL     OW20050   0.006   4.486   2.867
 6384SOL    HW120051   0.035   4.428   2.791
 6384SOL    HW220052   7.004   4.429   2.945
 6385SOL     OW20053   0.661   4.965   4.798
 6385SOL    HW120054   0.630   5.050   4.756
 6385SOL    HW220055   0.717   4.987   4.878
 6386SOL     OW20056   2.859   5.058   1.313
 6386SOL    HW120057   2.835   5.147   1.351
 6386SOL    HW220058   2.801   4.987   1.354
 6387SOL     OW20059   6.475   0.817   5.286
 6387SOL    HW120060   6.480   0.908   5.244
 6387SOL    HW220061   6.495   0.826   5.384
 6388SOL     OW20062   3.293   4.977   2.262
 6388SOL    HW120063   3.381   4.941   2.294
 6388SOL    HW220064   3.274   4.942   2.170
 6389SOL     OW20065   1.351   5.514   3.407
 6389SOL    HW120066   1.291   5.589   3.433
 6389SOL    HW220067   1.355   5.507   3.308
 6390SOL     OW20068   0.777   3.073   4.217
 6390SOL    HW120069   0.765   3.172   4.225
 6390SOL    HW220070   0.871   3.049   4.240
 6391SOL     OW20071   3.009   1.732   0.301
 6391SOL    HW120072   3.099   1.752   0.338
 6391SOL    HW220073   3.005   1.637   0.270
 6392SOL     OW20074   1.886   6.635   3.993
 6392SOL    HW120075   1.847   6.544   4.003
 6392SOL    HW220076   1.984   6.632   4.013
 6393SOL     OW20077   6.183   5.909   0.110
 6393SOL    HW120078   6.260   5.944   0.162
 6393SOL    HW220079   6.098   5.948   0.146
 6394SOL     OW20080   2.392   4.865   0.265
 6394SOL    HW120081   2.419   4.946   0.212
 6394SOL    HW220082   2.437   4.784   0.228
 6395SOL     OW20083   6.387   1.641   0.896
 6395SOL    HW120084   6.441   1.642   0.980
 6395SOL    HW220085   6.293   1.615   0.918
 6396SOL     OW20086   5.092   4.304   5.518
 6396SOL    HW120087   5.133   4.337   5.433
 6396SOL    HW220088   5.148   4.230   5.556
 6397SOL     OW20089   6.850   1.168   0.841
 6397SOL    HW120090   6.878   1.207   0.753
 6397SOL    HW220091   6.751   1.178   0.851
 6398SOL     OW20092   3.304   1.511   1.214
 6398SOL    HW120093   3.356   1.596   1.222
 6398SOL    HW220094   3.363   1.433   1.236
 6399SOL     OW20095   2.332   5.446   6.862
 6399SOL    HW120096   2.396   5.468   6.788
 6399SOL    HW220097   2.285   5.529   6.891
 6400SOL     OW20098   2.619   5.640   3.509
 6400SOL    HW120099   2.680   5.633   3.588
 6400SOL    HW220100   2.629   5.557   3.453
 6401SOL     OW20101   0.600   4.585   3.907
 6401SOL    HW120102   0.554   4.511   3.956
 6401SOL    HW220103   0.546   4.669   3.915
 6402SOL     OW20104   2.504   0.916   2.977
 6402SOL    HW120105   2.538   0.873   2.894
 6402SOL    HW220106   2.463   1.004   2.954
 6403SOL     OW20107   0.836   5.139   6.808
 6403SOL    HW120108   0.780   5.061   6.836
 6403SOL    HW220109   0.796   5.181   6.727
 6404SOL     OW20110   5.474   1.352   3.404
 6404SOL    HW120111   5.383   1.366   3.444
 6404SOL    HW220112   5.483   1.409   3.322
 6405SOL     OW20113   2.677   1.714   2.462
 6405SOL    HW120114   2.736   1.777   2.512
 6405SOL    HW220115   2.725   1.628   2.448
 6406SOL     OW20116   2.353   1.506   3.915
 6406SOL    HW120117   2.324   1.583   3.857
 6406SOL    HW220118   2.426   1.537   3.976
 6407SOL     OW20119   3.802   5.587   5.702
 6407SOL    HW120120   3.875   5.535   5.745
 6407SOL    HW220121   3.716   5.536   5.710
 6408SOL     OW20122   5.828   1.210   6.672
 6408SOL    HW120123   5.768   1.162   6.736
 6408SOL    HW220124   5.903   1.149   6.645
 6409SOL     OW20125   0.574   3.980   1.863
 6409SOL    HW120126   0.665   3.951   1.892
 6409SOL    HW220127   0.535   4.042   1.931
 6410SOL     OW20128   1.509   1.301   0.815
 6410SOL    HW120129   1.602   1.264   0.809
 6410SOL    HW220130   1.485   1.345   0.729
 6411SOL     OW20131   0.710   1.073   3.424
 6411SOL    HW120132   0.761   1.026   3.496
 6411SOL    HW220133   0.772   1.132   3.372
 6412SOL     OW20134   0.403   2.585   5.172
 6412SOL    HW120135   0.320   2.620   5.215
 6412SOL    HW220136   0.379   2.510   5.110
 6413SOL     OW20137   6.681   4.276   0.489
 6413SOL    HW120138   6.671   4.347   0.559
 6413SOL    HW220139   6.689   4.187   0.534
 6414SOL     OW20140   5.847   6.612   2.539
 6414SOL    HW120141   5.837   6.640   2.444
 6414SOL    HW220142   5.786   6.666   2.596
 6415SOL     OW20143   1.711   1.407   1.755
 6415SOL    HW120144   1.679   1.312   1.763
 6415SOL    HW220145   1.657   1.454   1.685
 6416SOL     OW20146   1.406   0.453   6.476
 6416SOL    HW120147   1.313   0.417   6.477
 6416SOL    HW220148   1.447   0.437   6.386
 6417SOL     OW20149   0.597   6.809   3.384
 6417SOL    HW120150   0.541   6.889   3.407
 6417SOL    HW220151   0.678   6.808   3.443
 6418SOL     OW20152   6.647   6.121   2.205
 6418SOL    HW120153   6.638   6.070   2.291
 6418SOL    HW220154   6.663   6.218   2.224
 6419SOL     OW20155   3.495   4.944   1.529
 6419SOL    HW120156   3.465   5.025   1.581
 6419SOL    HW220157   3.483   4.862   1.585
 6420SOL     OW20158   2.170   4.499   6.504
 6420SOL    HW120159   2.193   4.402   6.492
 6420SOL    HW220160   2.071   4.510   6.491
 6421SOL     OW20161   5.799   1.325   1.459
 6421SOL    HW120162   5.710   1.361   1.490
 6421SOL    HW220163   5.786   1.233   1.422
 6422SOL     OW20164   5.829   1.311   3.484
 6422SOL    HW120165   5.810   1.215   3.466
 6422SOL    HW220166   5.904   1.342   3.424
 6423SOL     OW20167   5.088   3.465   0.594
 6423SOL    HW120168   5.048   3.554   0.571
 6423SOL    HW220169   5.180   3.477   0.630
 6424SOL     OW20170   6.690   4.211   5.714
 6424SOL    HW120171   6.723   4.305   5.700
 6424SOL    HW220172   6.656   4.202   5.808
 6425SOL     OW20173   0.740   5.057   2.283
 6425SOL    HW120174   0.692   4.995   2.345
 6425SOL    HW220175   0.767   5.140   2.332
 6426SOL     OW20176   0.940   2.706   3.548
 6426SOL    HW120177   1.034   2.730   3.574
 6426SOL    HW220178   0.894   2.663   3.626
 6427SOL     OW20179   1.776   3.646   5.241
 6427SOL    HW120180   1.732   3.698   5.169
 6427SOL    HW220181   1.809   3.708   5.313
 6428SOL     OW20182   6.887   3.444   2.183
 6428SOL    HW120183   6.847   3.390   2.257
 6428SOL    HW220184   6.964   3.394   2.144
 6429SOL     OW20185   1.132   0.022   3.891
 6429SOL    HW120186   1.104   6.958   3.933
 6429SOL    HW220187   1.232   0.024   3.884
 6430SOL     OW20188   5.645   2.261   1.115
 6430SOL    HW120189   5.601   2.250   1.026
 6430SOL    HW220190   5.744   2.267   1.102
 6431SOL     OW20191   5.398   6.839   2.488
 6431SOL    HW120192   5.437   6.891   2.564
 6431SOL    HW220193   5.459   6.843   2.409
 6432SOL     OW20194   4.982   3.252   0.891
 6432SOL    HW120195   5.010   3.346   0.910
 6432SOL    HW220196   4.983   3.235   0.793
 6433SOL     OW20197   2.899   4.026   1.579
 6433SOL    HW120198   2.821   4.041   1.517
 6433SOL    HW220199   2.949   3.945   1.550
 6434SOL     OW20200   1.179   4.013   0.779
 6434SOL    HW120201   1.228   4.099   0.772
 6434SOL    HW220202   1.238   3.938   0.749
 6435SOL     OW20203   4.443   4.066   6.614
 6435SOL    HW120204   4.526   4.098   6.660
 6435SOL    HW220205   4.401   4.142   6.565
 6436SOL     OW20206   1.825   2.871   3.649
 6436SOL    HW120207   1.784   2.788   3.687
 6436SOL    HW220208   1.832   2.863   3.550
 6437SOL     OW20209   1.399   0.020   6.506
 6437SOL    HW120210   1.441   0.107   6.529
 6437SOL    HW220211   1.367   0.021   6.411
 6438SOL     OW20212   0.813   4.038   3.806
 6438SOL    HW120213   0.778   4.054   3.713
 6438SOL    HW220214   0.875   3.960   3.805
 6439SOL     OW20215   1.547   6.964   1.419
 6439SOL    HW120216   1.554   6.902   1.340
 6439SOL    HW220217   1.452   6.965   1.451
 6440SOL     OW20218   1.533   1.909   2.749
 6440SOL    HW120219   1.464   1.926   2.820
 6440SOL    HW220220   1.506   1.831   2.694
 6441SOL     OW20221   1.991   0.962   3.676
 6441SOL    HW120222   1.998   1.026   3.600
 6441SOL    HW220223   1.895   0.935   3.689
 6442SOL     OW20224   2.680   1.750   4.042
 6442SOL    HW120225   2.627   1.685   4.096
 6442SOL    HW220226   2.742   1.801   4.102
 6443SOL     OW20227   2.652   2.054   0.527
 6443SOL    HW120228   2.556   2.032   0.511
 6443SOL    HW220229   2.710   1.988   0.478
 6444SOL     OW20230   0.458   1.236   2.900
 6444SOL    HW120231   0.506   1.319   2.927
 6444SOL    HW220232   0.520   1.158   2.906
 6445SOL     OW20233   4.030   2.989   5.407
 6445SOL    HW120234   4.061   3.083   5.390
 6445SOL    HW220235   3.931   2.988   5.417
 6446SOL     OW20236   6.410   1.278   6.997
 6446SOL    HW120237   6.485   1.225   0.014
 6446SOL    HW220238   6.324   1.229   7.010
 6447SOL     OW20239   1.633   0.499   2.502
 6447SOL    HW120240   1.691   0.521   2.581
 6447SOL    HW220241   1.616   0.582   2.450
 6448SOL     OW20242   5.578   2.426   3.211
 6448SOL    HW120243   5.585   2.346   3.271
 6448SOL    HW220244   5.546   2.396   3.121
 6449SOL     OW20245   3.116   3.340   0.739
 6449SOL    HW120246   3.107   3.267   0.672
 6449SOL    HW220247   3.177   3.311   0.813
 6450SOL     OW20248   5.830   3.662   0.794
 6450SOL    HW120249   5.841   3.673   0.893
 6450SOL    HW220250   5.865   3.743   0.748
 6451SOL     OW20251   2.905   5.902   5.093
 6451SOL    HW120252   2.988   5.863   5.134
 6451SOL    HW220253   2.896   5.869   4.999
 6452SOL     OW20254   3.691   6.395   4.037
 6452SOL    HW120255   3.711   6.343   4.119
 6452SOL    HW220256   3.605   6.363   3.997
 6453SOL     OW20257   1.730   5.983   6.217
 6453SOL    HW120258   1.682   6.070   6.234
 6453SOL    HW220259   1.669   5.907   6.237
 6454SOL     OW20260   3.328   1.612   4.380
 6454SOL    HW120261   3.298   1.618   4.475
 6454SOL    HW220262   3.268   1.668   4.323
 6455SOL     OW20263   5.877   2.831   5.054
 6455SOL    HW120264   5.807   2.868   4.993
 6455SOL    HW220265   5.964   2.825   5.006
 6456SOL     OW20266   0.293   0.397   3.341
 6456SOL    HW120267   0.271   0.399   3.243
 6456SOL    HW220268   0.392   0.406   3.352
 6457SOL     OW20269   6.630   2.379   0.742
 6457SOL    HW120270   6.659   2.459   0.690
 6457SOL    HW220271   6.592   2.408   0.829
 6458SOL     OW20272   1.623   5.753   3.309
 6458SOL    HW120273   1.617   5.697   3.226
 6458SOL    HW220274   1.680   5.833   3.291
 6459SOL     OW20275   5.348   4.567   6.698
 6459SOL    HW120276   5.286   4.642   6.675
 6459SOL    HW220277   5.356   4.559   6.797
 6460SOL     OW20278   3.433   4.972   6.355
 6460SOL    HW120279   3.389   4.900   6.410
 6460SOL    HW220280   3.466   5.044   6.415
 6461SOL     OW20281   3.838   4.977   4.819
 6461SOL    HW120282   3.841   5.074   4.843
 6461SOL    HW220283   3.930   4.938   4.828
 6462SOL     OW20284   2.014   3.858   4.669
 6462SOL    HW120285   1.954   3.807   4.731
 6462SOL    HW220286   2.066   3.926   4.722
 6463SOL     OW20287   1.782   4.110   6.177
 6463SOL    HW120288   1.773   4.080   6.082
 6463SOL    HW220289   1.791   4.030   6.236
 6464SOL     OW20290   0.377   5.191   2.981
 6464SOL    HW120291   0.474   5.185   2.958
 6464SOL    HW220292   0.338   5.274   2.941
 6465SOL     OW20293   6.302   1.879   3.520
 6465SOL    HW120294   6.254   1.964   3.497
 6465SOL    HW220295   6.390   1.901   3.562
 6466SOL     OW20296   0.058   2.278   5.227
 6466SOL    HW120297   0.121   2.265   5.150
 6466SOL    HW220298   0.025   2.372   5.228
 6467SOL     OW20299   2.469   0.922   6.424
 6467SOL    HW120300   2.406   0.967   6.487
 6467SOL    HW220301   2.449   0.950   6.330
 6468SOL     OW20302   5.067   5.718   0.962
 6468SOL    HW120303   5.030   5.675   0.880
 6468SOL    HW220304   5.060   5.655   1.039
 6469SOL     OW20305   6.930   1.227   5.536
 6469SOL    HW120306   6.920   1.205   5.439
 6469SOL    HW220307   7.021   1.199   5.567
 6470SOL     OW20308   6.157   6.944   5.671
 6470SOL    HW120309   6.061   6.918   5.659
 6470SOL    HW220310   6.169   0.018   5.646
 6471SOL     OW20311   6.058   4.936   6.114
 6471SOL    HW120312   6.087   4.841   6.125
 6471SOL    HW220313   6.081   4.987   6.197
 6472SOL     OW20314   0.876   5.995   1.832
 6472SOL    HW120315   0.820   5.968   1.910
 6472SOL    HW220316   0.828   5.975   1.747
 6473SOL     OW20317   1.915   1.864   6.431
 6473SOL    HW120318   1.943   1.768   6.423
 6473SOL    HW220319   1.818   1.869   6.453
 6474SOL     OW20320   1.710   3.065   5.033
 6474SOL    HW120321   1.737   3.151   4.989
 6474SOL    HW220322   1.722   3.073   5.132
 6475SOL     OW20323   4.068   6.280   4.027
 6475SOL    HW120324   4.096   6.292   3.932
 6475SOL    HW220325   3.984   6.226   4.032
 6476SOL     OW20326   4.556   4.846   2.502
 6476SOL    HW120327   4.559   4.936   2.544
 6476SOL    HW220328   4.644   4.827   2.457
 6477SOL     OW20329   6.632   5.814   0.627
 6477SOL    HW120330   6.612   5.718   0.645
 6477SOL    HW220331   6.727   5.834   0.650
 6478SOL     OW20332   5.382   6.611   1.553
 6478SOL    HW120333   5.317   6.543   1.519
 6478SOL    HW220334   5.452   6.628   1.483
 6479SOL     OW20335   4.140   5.106   2.235
 6479SOL    HW120336   4.074   5.159   2.288
 6479SOL    HW220337   4.095   5.069   2.153
 6480SOL     OW20338   2.925   2.237   0.397
 6480SOL    HW120339   3.010   2.290   0.396
 6480SOL    HW220340   2.848   2.297   0.416
 6481SOL     OW20341   4.227   0.861   1.403
 6481SOL    HW120342   4.145   0.916   1.387
 6481SOL    HW220343   4.308   0.920   1.397
 6482SOL     OW20344   6.943   0.189   6.637
 6482SOL    HW120345   6.968   0.093   6.646
 6482SOL    HW220346   7.020   0.240   6.598
 6483SOL     OW20347   1.327   6.571   2.722
 6483SOL    HW120348   1.244   6.603   2.677
 6483SOL    HW220349   1.347   6.630   2.800
 6484SOL     OW20350   4.647   6.764   3.597
 6484SOL    HW120351   4.687   6.720   3.517
 6484SOL    HW220352   4.599   6.847   3.568
 6485SOL     OW20353   1.894   2.455   3.092
 6485SOL    HW120354   1.958   2.531   3.098
 6485SOL    HW220355   1.940   2.375   3.054
 6486SOL     OW20356   1.499   3.394   3.624
 6486SOL    HW120357   1.597   3.383   3.642
 6486SOL    HW220358   1.449   3.391   3.711
 6487SOL     OW20359   5.871   6.706   4.378
 6487SOL    HW120360   5.959   6.710   4.425
 6487SOL    HW220361   5.863   6.619   4.329
 6488SOL     OW20362   3.261   5.467   5.633
 6488SOL    HW120363   3.188   5.417   5.586
 6488SOL    HW220364   3.224   5.509   5.716
 6489SOL     OW20365   2.148   1.902   5.316
 6489SOL    HW120366   2.163   1.865   5.408
 6489SOL    HW220367   2.171   1.999   5.314
 6490SOL     OW20368   3.482   1.541   0.370
 6490SOL    HW120369   3.552   1.609   0.346
 6490SOL    HW220370   3.486   1.465   0.306
 6491SOL     OW20371   4.283   1.914   6.870
 6491SOL    HW120372   4.268   1.908   6.771
 6491SOL    HW220373   4.197   1.894   6.918
 6492SOL     OW20374   5.907   6.174   0.121
 6492SOL    HW120375   5.930   6.127   0.206
 6492SOL    HW220376   5.990   6.188   0.067
 6493SOL     OW20377   1.170   6.373   5.806
 6493SOL    HW120378   1.237   6.446   5.810
 6493SOL    HW220379   1.173   6.328   5.717
 6494SOL     OW20380   1.000   0.597   3.181
 6494SOL    HW120381   0.912   0.616   3.225
 6494SOL    HW220382   1.054   0.681   3.178
 6495SOL     OW20383   5.435   4.789   3.014
 6495SOL    HW120384   5.410   4.885   3.024
 6495SOL    HW220385   5.364   4.742   2.961
 6496SOL     OW20386   0.699   0.095   2.548
 6496SOL    HW120387   0.640   0.021   2.581
 6496SOL    HW220388   0.795   0.065   2.553
 6497SOL     OW20389   1.562   4.082   0.193
 6497SOL    HW120390   1.507   4.055   0.114
 6497SOL    HW220391   1.523   4.164   0.234
 6498SOL     OW20392   2.396   4.398   4.120
 6498SOL    HW120393   2.405   4.364   4.027
 6498SOL    HW220394   2.321   4.350   4.166
 6499SOL     OW20395   5.557   1.277   3.657
 6499SOL    HW120396   5.527   1.289   3.562
 6499SOL    HW220397   5.654   1.300   3.664
 6500SOL     OW20398   4.774   4.689   3.801
 6500SOL    HW120399   4.792   4.669   3.897
 6500SOL    HW220400   4.856   4.667   3.747
 6501SOL     OW20401   6.559   3.948   1.120
 6501SOL    HW120402   6.642   3.928   1.172
 6501SOL    HW220403   6.566   4.039   1.079
 6502SOL     OW20404   1.007   5.098   3.009
 6502SOL    HW120405   1.099   5.092   2.970
 6502SOL    HW220406   0.960   5.011   3.000
 6503SOL     OW20407   4.676   6.739   4.649
 6503SOL    HW120408   4.595   6.719   4.703
 6503SOL    HW220409   4.756   6.741   4.709
 6504SOL     OW20410   3.320   0.754   0.482
 6504SOL    HW120411   3.316   0.770   0.580
 6504SOL    HW220412   3.242   0.699   0.454
 6505SOL     OW20413   6.243   4.861   1.234
 6505SOL    HW120414   6.276   4.767   1.220
 6505SOL    HW220415   6.248   4.883   1.332
 6506SOL     OW20416   2.059   3.140   1.020
 6506SOL    HW120417   1.981   3.187   1.062
 6506SOL    HW220418   2.044   3.133   0.921
 6507SOL     OW20419   2.231   6.868   1.615
 6507SOL    HW120420   2.202   6.894   1.707
 6507SOL    HW220421   2.195   6.934   1.549
 6508SOL     OW20422   2.522   1.842   3.296
 6508SOL    HW120423   2.470   1.757   3.289
 6508SOL    HW220424   2.460   1.920   3.292
 6509SOL     OW20425   0.869   2.895   4.503
 6509SOL    HW120426   0.778   2.936   4.512
 6509SOL    HW220427   0.928   2.955   4.449
 6510SOL     OW20428   6.003   4.898   6.383
 6510SOL    HW120429   5.961   4.981   6.420
 6510SOL    HW220430   6.040   4.844   6.457
 6511SOL     OW20431   6.514   6.252   6.483
 6511SOL    HW120432   6.511   6.161   6.440
 6511SOL    HW220433   6.592   6.257   6.546
 6512SOL     OW20434   4.853   6.600   3.719
 6512SOL    HW120435   4.768   6.636   3.682
 6512SOL    HW220436   4.878   6.651   3.801
 6513SOL     OW20437   4.017   6.260   2.247
 6513SOL    HW120438   4.066   6.345   2.263
 6513SOL    HW220439   3.968   6.234   2.331
 6514SOL     OW20440   3.989   0.238   4.100
 6514SOL    HW120441   3.989   0.158   4.041
 6514SOL    HW220442   4.019   0.319   4.049
 6515SOL     OW20443   0.735   0.114   4.864
 6515SOL    HW120444   0.756   0.211   4.880
 6515SOL    HW220445   0.641   0.105   4.833
 6516SOL     OW20446   0.724   1.665   5.187
 6516SOL    HW120447   0.824   1.669   5.188
 6516SOL    HW220448   0.691   1.623   5.272
 6517SOL     OW20449   0.751   1.366   0.117
 6517SOL    HW120450   0.810   1.446   0.128
 6517SOL    HW220451   0.657   1.395   0.103
 6518SOL     OW20452   6.531   6.608   1.507
 6518SOL    HW120453   6.446   6.661   1.510
 6518SOL    HW220454   6.510   6.511   1.516
 6519SOL     OW20455   1.928   2.216   4.299
 6519SOL    HW120456   1.906   2.146   4.231
 6519SOL    HW220457   1.849   2.277   4.311
 6520SOL     OW20458   5.924   5.648   1.428
 6520SOL    HW120459   5.941   5.731   1.374
 6520SOL    HW220460   5.828   5.647   1.457
 6521SOL     OW20461   0.004   1.671   5.058
 6521SOL    HW120462   0.009   1.757   5.109
 6521SOL    HW220463   6.951   1.676   4.992
 6522SOL     OW20464   2.555   5.484   6.089
 6522SOL    HW120465   2.474   5.544   6.084
 6522SOL    HW220466   2.600   5.481   6.000
 6523SOL     OW20467   1.843   2.091   6.045
 6523SOL    HW120468   1.844   2.125   6.139
 6523SOL    HW220469   1.897   2.153   5.987
 6524SOL     OW20470   4.131   3.400   3.557
 6524SOL    HW120471   4.158   3.348   3.475
 6524SOL    HW220472   4.095   3.337   3.626
 6525SOL     OW20473   0.525   2.871   3.668
 6525SOL    HW120474   0.527   2.826   3.579
 6525SOL    HW220475   0.608   2.925   3.681
 6526SOL     OW20476   1.355   6.472   5.055
 6526SOL    HW120477   1.377   6.427   4.968
 6526SOL    HW220478   1.277   6.532   5.042
 6527SOL     OW20479   1.479   0.123   4.857
 6527SOL    HW120480   1.485   0.045   4.795
 6527SOL    HW220481   1.387   0.162   4.853
 6528SOL     OW20482   0.127   1.550   4.474
 6528SOL    HW120483   0.028   1.555   4.490
 6528SOL    HW220484   0.147   1.477   4.409
 6529SOL     OW20485   6.882   1.605   1.824
 6529SOL    HW120486   6.875   1.659   1.908
 6529SOL    HW220487   6.978   1.597   1.797
 6530SOL     OW20488   0.068   1.699   0.347
 6530SOL    HW120489   0.049   1.609   0.386
 6530SOL    HW220490   0.012   1.713   0.265
 6531SOL     OW20491   5.132   2.818   4.290
 6531SOL    HW120492   5.045   2.864   4.304
 6531SOL    HW220493   5.120   2.743   4.225
 6532SOL     OW20494   6.624   1.546   6.162
 6532SOL    HW120495   6.723   1.549   6.143
 6532SOL    HW220496   6.601   1.456   6.198
 6533SOL     OW20497   4.483   0.246   1.440
 6533SOL    HW120498   4.529   0.264   1.353
 6533SOL    HW220499   4.524   0.303   1.511
 6534SOL     OW20500   2.016   3.897   1.022
 6534SOL    HW120501   1.936   3.949   0.991
 6534SOL    HW220502   2.071   3.870   0.943
 6535SOL     OW20503   0.356   3.491   5.199
 6535SOL    HW120504   0.429   3.553   5.226
 6535SOL    HW220505   0.292   3.480   5.274
 6536SOL     OW20506   6.256   2.237   0.035
 6536SOL    HW120507   6.234   2.183   0.117
 6536SOL    HW220508   6.353   2.227   0.014
 6537SOL     OW20509   0.511   6.805   0.034
 6537SOL    HW120510   0.513   6.903   0.051
 6537SOL    HW220511   0.461   6.760   0.108
 6538SOL     OW20512   3.061   3.027   0.167
 6538SOL    HW120513   3.113   2.948   0.135
 6538SOL    HW220514   3.014   3.070   0.089
 6539SOL     OW20515   2.479   1.604   6.733
 6539SOL    HW120516   2.407   1.616   6.802
 6539SOL    HW220517   2.567   1.590   6.779
 6540SOL     OW20518   2.640   1.488   4.871
 6540SOL    HW120519   2.726   1.480   4.821
 6540SOL    HW220520   2.657   1.532   4.959
 6541SOL     OW20521   2.117   2.493   6.248
 6541SOL    HW120522   2.083   2.572   6.197
 6541SOL    HW220523   2.130   2.416   6.186
 6542SOL     OW20524   5.865   4.194   3.986
 6542SOL    HW120525   5.864   4.116   3.924
 6542SOL    HW220526   5.795   4.181   4.057
 6543SOL     OW20527   6.714   5.899   6.680
 6543SOL    HW120528   6.704   5.988   6.723
 6543SOL    HW220529   6.730   5.910   6.582
 6544SOL     OW20530   6.216   6.439   4.055
 6544SOL    HW120531   6.269   6.463   4.136
 6544SOL    HW220532   6.165   6.519   4.023
 6545SOL     OW20533   4.978   1.749   5.724
 6545SOL    HW120534   4.956   1.677   5.790
 6545SOL    HW220535   5.064   1.727   5.678
 6546SOL     OW20536   3.271   4.910   5.680
 6546SOL    HW120537   3.311   4.991   5.723
 6546SOL    HW220538   3.278   4.919   5.580
 6547SOL     OW20539   5.141   2.228   6.816
 6547SOL    HW120540   5.210   2.295   6.789
 6547SOL    HW220541   5.127   2.233   6.915
 6548SOL     OW20542   6.863   4.474   5.693
 6548SOL    HW120543   6.926   4.546   5.721
 6548SOL    HW220544   6.768   4.505   5.705
 6549SOL     OW20545   3.457   2.012   0.830
 6549SOL    HW120546   3.529   2.034   0.896
 6549SOL    HW220547   3.392   2.088   0.825
 6550SOL     OW20548   0.626   5.883   3.282
 6550SOL    HW120549   0.708   5.827   3.274
 6550SOL    HW220550   0.583   5.892   3.192
 6551SOL     OW20551   2.121   4.903   1.803
 6551SOL    HW120552   2.175   4.977   1.842
 6551SOL    HW220553   2.180   4.844   1.748
 6552SOL     OW20554   3.093   5.151   5.441
 6552SOL    HW120555   3.009   5.101   5.458
 6552SOL    HW220556   3.073   5.249   5.435
 6553SOL     OW20557   0.972   3.258   2.812
 6553SOL    HW120558   0.898   3.200   2.778
 6553SOL    HW220559   0.975   3.254   2.912
 6554SOL     OW20560   6.535   2.445   5.382
 6554SOL    HW120561   6.620   2.494   5.401
 6554SOL    HW220562   6.466   2.471   5.450
 6555SOL     OW20563   0.922   0.988   1.923
 6555SOL    HW120564   1.020   0.972   1.937
 6555SOL    HW220565   0.879   1.007   2.011
 6556SOL     OW20566   3.971   6.110   4.566
 6556SOL    HW120567   3.987   6.204   4.535
 6556SOL    HW220568   3.965   6.109   4.666
 6557SOL     OW20569   6.813   5.166   1.110
 6557SOL    HW120570   6.731   5.209   1.072
 6557SOL    HW220571   6.894   5.208   1.070
 6558SOL     OW20572   6.515   5.717   6.732
 6558SOL    HW120573   6.582   5.792   6.725
 6558SOL    HW220574   6.477   5.716   6.824
 6559SOL     OW20575   4.001   3.830   0.718
 6559SOL    HW120576   4.020   3.828   0.817
 6559SOL    HW220577   3.945   3.910   0.696
 6560SOL     OW20578   3.896   2.352   0.218
 6560SOL    HW120579   3.967   2.282   0.207
 6560SOL    HW220580   3.934   2.442   0.193
 6561SOL     OW20581   4.063   3.260   3.310
 6561SOL    HW120582   4.043   3.227   3.218
 6561SOL    HW220583   4.026   3.195   3.377
 6562SOL     OW20584   6.391   3.926   6.492
 6562SOL    HW120585   6.357   4.017   6.469
 6562SOL    HW220586   6.402   3.872   6.408
 6563SOL     OW20587   0.900   5.364   1.935
 6563SOL    HW120588   0.961   5.410   2.001
 6563SOL    HW220589   0.853   5.289   1.980
 6564SOL     OW20590   1.064   4.888   2.000
 6564SOL    HW120591   1.140   4.823   1.994
 6564SOL    HW220592   1.093   4.967   2.054
 6565SOL     OW20593   6.517   2.724   6.067
 6565SOL    HW120594   6.517   2.757   6.161
 6565SOL    HW220595   6.429   2.680   6.047
 6566SOL     OW20596   3.406   6.560   1.044
 6566SOL    HW120597   3.320   6.564   0.993
 6566SOL    HW220598   3.391   6.514   1.131
 6567SOL     OW20599   5.501   2.822   1.530
 6567SOL    HW120600   5.572   2.768   1.576
 6567SOL    HW220601   5.486   2.787   1.438
 6568SOL     OW20602   4.093   4.169   1.474
 6568SOL    HW120603   4.110   4.076   1.508
 6568SOL    HW220604   4.084   4.168   1.375
 6569SOL     OW20605   0.948   4.243   6.883
 6569SOL    HW120606   0.908   4.260   6.973
 6569SOL    HW220607   0.983   4.150   6.879
 6570SOL     OW20608   5.969   2.197   1.624
 6570SOL    HW120609   5.876   2.232   1.629
 6570SOL    HW220610   6.029   2.266   1.584
 6571SOL     OW20611   2.954   5.585   3.355
 6571SOL    HW120612   2.866   5.623   3.326
 6571SOL    HW220613   2.973   5.502   3.303
 6572SOL     OW20614   0.568   4.293   5.824
 6572SOL    HW120615   0.496   4.226   5.807
 6572SOL    HW220616   0.527   4.384   5.833
 6573SOL     OW20617   2.317   1.401   2.314
 6573SOL    HW120618   2.251   1.445   2.375
 6573SOL    HW220619   2.269   1.365   2.234
 6574SOL     OW20620   3.164   4.903   2.919
 6574SOL    HW120621   3.210   4.950   2.994
 6574SOL    HW220622   3.225   4.834   2.880
 6575SOL     OW20623   1.024   1.897   2.505
 6575SOL    HW120624   0.927   1.923   2.510
 6575SOL    HW220625   1.033   1.815   2.448
 6576SOL     OW20626   1.311   6.034   6.264
 6576SOL    HW120627   1.216   6.029   6.295
 6576SOL    HW220628   1.314   6.038   6.164
 6577SOL     OW20629   6.680   2.402   3.700
 6577SOL    HW120630   6.614   2.335   3.665
 6577SOL    HW220631   6.722   2.365   3.783
 6578SOL     OW20632   6.248   5.006   3.899
 6578SOL    HW120633   6.159   4.965   3.919
 6578SOL    HW220634   6.321   4.943   3.925
 6579SOL     OW20635   6.789   4.047   3.114
 6579SOL    HW120636   6.771   4.145   3.129
 6579SOL    HW220637   6.743   3.994   3.186
 6580SOL     OW20638   5.949   2.038   2.058
 6580SOL    HW120639   5.979   2.024   1.964
 6580SOL    HW220640   6.024   2.016   2.120
 6581SOL     OW20641   3.112   1.948   6.712
 6581SOL    HW120642   3.175   1.993   6.649
 6581SOL    HW220643   3.122   1.849   6.703
 6582SOL     OW20644   6.170   0.601   3.023
 6582SOL    HW120645   6.194   0.601   2.926
 6582SOL    HW220646   6.192   0.512   3.063
 6583SOL     OW20647   5.411   1.732   6.147
 6583SOL    HW120648   5.492   1.785   6.172
 6583SOL    HW220649   5.343   1.738   6.221
 6584SOL     OW20650   6.047   1.846   6.379
 6584SOL    HW120651   5.989   1.786   6.434
 6584SOL    HW220652   6.142   1.838   6.411
 6585SOL     OW20653   0.861   1.487   6.846
 6585SOL    HW120654   0.780   1.445   6.805
 6585SOL    HW220655   0.850   1.491   6.945
 6586SOL     OW20656   6.396   2.304   6.075
 6586SOL    HW120657   6.320   2.241   6.091
 6586SOL    HW220658   6.410   2.361   6.156
 6587SOL     OW20659   2.352   6.365   3.253
 6587SOL    HW120660   2.430   6.318   3.212
 6587SOL    HW220661   2.380   6.458   3.279
 6588SOL     OW20662   1.484   2.970   0.295
 6588SOL    HW120663   1.393   3.010   0.301
 6588SOL    HW220664   1.545   3.031   0.244
 6589SOL     OW20665   4.411   1.676   5.637
 6589SOL    HW120666   4.326   1.633   5.608
 6589SOL    HW220667   4.424   1.662   5.735
 6590SOL     OW20668   0.141   1.357   5.375
 6590SOL    HW120669   0.057   1.412   5.376
 6590SOL    HW220670   0.213   1.407   5.325
 6591SOL     OW20671   5.801   0.954   2.968
 6591SOL    HW120672   5.731   0.892   2.933
 6591SOL    HW220673   5.784   0.970   3.066
 6592SOL     OW20674   4.822   5.442   4.988
 6592SOL    HW120675   4.908   5.413   5.031
 6592SOL    HW220676   4.779   5.363   4.945
 6593SOL     OW20677   3.609   1.631   2.530
 6593SOL    HW120678   3.587   1.714   2.582
 6593SOL    HW220679   3.636   1.656   2.437
 6594SOL     OW20680   5.423   0.141   6.693
 6594SOL    HW120681   5.470   0.066   6.646
 6594SOL    HW220682   5.449   0.141   6.789
 6595SOL     OW20683   1.646   3.518   1.307
 6595SOL    HW120684   1.555   3.505   1.347
 6595SOL    HW220685   1.653   3.609   1.268
 6596SOL     OW20686   4.358   6.774   5.239
 6596SOL    HW120687   4.315   6.767   5.149
 6596SOL    HW220688   4.372   6.870   5.263
 6597SOL     OW20689   0.495   5.455   5.206
 6597SOL    HW120690   0.427   5.403   5.155
 6597SOL    HW220691   0.464   5.549   5.218
 6598SOL     OW20692   1.666   5.497   5.250
 6598SOL    HW120693   1.629   5.422   5.195
 6598SOL    HW220694   1.658   5.474   5.347
 6599SOL     OW20695   4.175   4.423   5.686
 6599SOL    HW120696   4.267   4.438   5.723
 6599SOL    HW220697   4.131   4.512   5.670
 6600SOL     OW20698   4.679   5.818   3.846
 6600SOL    HW120699   4.604   5.855   3.790
 6600SOL    HW220700   4.744   5.891   3.867
 6601SOL     OW20701   0.437   0.073   0.101
 6601SOL    HW120702   0.375   0.111   0.032
 6601SOL    HW220703   0.405   0.099   0.192
 6602SOL     OW20704   6.478   1.539   1.589
 6602SOL    HW120705   6.538   1.580   1.658
 6602SOL    HW220706   6.441   1.611   1.531
 6603SOL     OW20707   2.134   3.700   3.233
 6603SOL    HW120708   2.166   3.740   3.319
 6603SOL    HW220709   2.150   3.764   3.158
 6604SOL     OW20710   3.492   5.755   2.604
 6604SOL    HW120711   3.583   5.790   2.584
 6604SOL    HW220712   3.478   5.668   2.556
 6605SOL     OW20713   5.827   5.858   7.002
 6605SOL    HW120714   5.788   5.811   6.922
 6605SOL    HW220715   5.811   5.957   6.993
 6606SOL     OW20716   5.247   1.180   2.465
 6606SOL    HW120717   5.243   1.122   2.384
 6606SOL    HW220718   5.162   1.169   2.518
 6607SOL     OW20719   1.517   1.684   2.217
 6607SOL    HW120720   1.495   1.604   2.273
 6607SOL    HW220721   1.436   1.742   2.208
 6608SOL     OW20722   5.742   3.604   3.938
 6608SOL    HW120723   5.775   3.619   4.031
 6608SOL    HW220724   5.651   3.563   3.941
 6609SOL     OW20725   5.659   1.278   6.092
 6609SOL    HW120726   5.623   1.194   6.132
 6609SOL    HW220727   5.585   1.343   6.077
 6610SOL     OW20728   2.125   0.565   6.757
 6610SOL    HW120729   2.045   0.514   6.789
 6610SOL    HW220730   2.130   0.653   6.805
 6611SOL     OW20731   5.794   2.452   2.605
 6611SOL    HW120732   5.765   2.361   2.634
 6611SOL    HW220733   5.747   2.475   2.519
 6612SOL     OW20734   1.908   6.562   6.809
 6612SOL    HW120735   1.822   6.511   6.801
 6612SOL    HW220736   1.947   6.577   6.718
 6613SOL     OW20737   5.072   4.888   1.646
 6613SOL    HW120738   4.978   4.879   1.679
 6613SOL    HW220739   5.111   4.974   1.680
 6614SOL     OW20740   4.739   5.698   6.322
 6614SOL    HW120741   4.639   5.707   6.320
 6614SOL    HW220742   4.778   5.743   6.242
 6615SOL     OW20743   0.999   3.999   5.210
 6615SOL    HW120744   1.065   4.048   5.266
 6615SOL    HW220745   0.969   4.058   5.135
 6616SOL     OW20746   4.920   0.695   4.716
 6616SOL    HW120747   5.011   0.710   4.677
 6616SOL    HW220748   4.928   0.681   4.815
 6617SOL     OW20749   3.907   0.009   5.606
 6617SOL    HW120750   3.955   6.997   5.525
 6617SOL    HW220751   3.825   0.059   5.578
 6618SOL     OW20752   0.900   4.331   1.636
 6618SOL    HW120753   0.835   4.256   1.644
 6618SOL    HW220754   0.864   4.399   1.572
 6619SOL     OW20755   5.071   5.750   2.456
 6619SOL    HW120756   4.995   5.689   2.478
 6619SOL    HW220757   5.040   5.845   2.455
 6620SOL     OW20758   1.575   2.735   5.680
 6620SOL    HW120759   1.539   2.809   5.737
 6620SOL    HW220760   1.580   2.765   5.585
 6621SOL     OW20761   2.746   4.180   0.210
 6621SOL    HW120762   2.766   4.277   0.204
 6621SOL    HW220763   2.831   4.128   0.206
 6622SOL     OW20764   6.760   6.188   0.456
 6622SOL    HW120765   6.846   6.179   0.406
 6622SOL    HW220766   6.723   6.280   0.442
 6623SOL     OW20767   3.305   3.503   2.284
 6623SOL    HW120768   3.337   3.557   2.206
 6623SOL    HW220769   3.264   3.564   2.352
 6624SOL     OW20770   4.295   4.696   4.361
 6624SOL    HW120771   4.212   4.692   4.417
 6624SOL    HW220772   4.360   4.760   4.403
 6625SOL     OW20773   6.125   0.713   0.047
 6625SOL    HW120774   6.222   0.723   0.069
 6625SOL    HW220775   6.078   0.670   0.125
 6626SOL     OW20776   3.899   5.281   3.559
 6626SOL    HW120777   3.936   5.332   3.481
 6626SOL    HW220778   3.875   5.344   3.633
 6627SOL     OW20779   2.116   6.942   0.840
 6627SOL    HW120780   2.182   6.931   0.915
 6627SOL    HW220781   2.030   6.896   0.864
 6628SOL     OW20782   4.150   5.580   3.201
 6628SOL    HW120783   4.137   5.572   3.102
 6628SOL    HW220784   4.195   5.667   3.221
 6629SOL     OW20785   3.146   4.992   0.759
 6629SOL    HW120786   3.123   4.990   0.661
 6629SOL    HW220787   3.167   5.086   0.786
 6630SOL     OW20788   3.276   1.827   0.302
 6630SOL    HW120789   3.277   1.796   0.207
 6630SOL    HW220790   3.293   1.925   0.305
 6631SOL     OW20791   5.153   0.599   2.310
 6631SOL    HW120792   5.092   0.539   2.258
 6631SOL    HW220793   5.218   0.642   2.249
 6632SOL     OW20794   0.021   1.113   1.373
 6632SOL    HW120795   6.957   1.087   1.328
 6632SOL    HW220796   0.094   1.116   1.305
 6633SOL     OW20797   1.385   6.485   0.896
 6633SOL    HW120798   1.323   6.474   0.974
 6633SOL    HW220799   1.401   6.396   0.854
 6634SOL     OW20800   6.938   2.762   6.335
 6634SOL    HW120801   6.850   2.781   6.379
 6634SOL    HW220802   6.922   2.739   6.239
 6635SOL     OW20803   4.535   4.470   3.266
 6635SOL    HW120804   4.489   4.454   3.178
 6635SOL    HW220805   4.611   4.534   3.253
 6636SOL     OW20806   2.161   2.612   4.207
 6636SOL    HW120807   2.153   2.512   4.214
 6636SOL    HW220808   2.127   2.642   4.118
 6637SOL     OW20809   0.112   0.087   1.154
 6637SOL    HW120810   0.040   0.018   1.158
 6637SOL    HW220811   0.191   0.050   1.104
 6638SOL     OW20812   2.472   5.857   5.736
 6638SOL    HW120813   2.376   5.884   5.746
 6638SOL    HW220814   2.484   5.804   5.652
 6639SOL     OW20815   5.664   5.512   6.748
 6639SOL    HW120816   5.722   5.453   6.805
 6639SOL    HW220817   5.633   5.461   6.668
 6640SOL     OW20818   6.178   2.717   3.120
 6640SOL    HW120819   6.100   2.688   3.177
 6640SOL    HW220820   6.231   2.786   3.170
 6641SOL     OW20821   2.118   4.318   6.111
 6641SOL    HW120822   2.106   4.417   6.106
 6641SOL    HW220823   2.211   4.294   6.085
 6642SOL     OW20824   0.372   5.964   6.900
 6642SOL    HW120825   0.441   5.911   6.850
 6642SOL    HW220826   0.417   6.026   6.964
 6643SOL     OW20827   4.998   4.741   6.523
 6643SOL    HW120828   5.072   4.726   6.588
 6643SOL    HW220829   4.930   4.803   6.564
 6644SOL     OW20830   3.000   4.839   2.061
 6644SOL    HW120831   3.097   4.824   2.039
 6644SOL    HW220832   2.945   4.767   2.019
 6645SOL     OW20833   0.383   5.242   5.634
 6645SOL    HW120834   0.459   5.180   5.654
 6645SOL    HW220835   0.299   5.189   5.622
 6646SOL     OW20836   2.316   5.532   3.971
 6646SOL    HW120837   2.294   5.516   3.875
 6646SOL    HW220838   2.293   5.627   3.995
 6647SOL     OW20839   3.349   2.053   1.796
 6647SOL    HW120840   3.274   2.113   1.823
 6647SOL    HW220841   3.419   2.106   1.749
 6648SOL     OW20842   5.215   5.672   2.211
 6648SOL    HW120843   5.146   5.710   2.272
 6648SOL    HW220844   5.198   5.574   2.199
 6649SOL     OW20845   4.159   2.318   6.547
 6649SOL    HW120846   4.247   2.341   6.505
 6649SOL    HW220847   4.093   2.294   6.475
 6650SOL     OW20848   3.984   1.742   3.188
 6650SOL    HW120849   3.917   1.794   3.241
 6650SOL    HW220850   4.047   1.806   3.143
 6651SOL     OW20851   0.559   2.740   6.677
 6651SOL    HW120852   0.656   2.736   6.701
 6651SOL    HW220853   0.533   2.657   6.627
 6652SOL     OW20854   6.889   5.797   2.405
 6652SOL    HW120855   6.831   5.746   2.340
 6652SOL    HW220856   6.842   5.803   2.493
 6653SOL     OW20857   3.361   3.868   4.217
 6653SOL    HW120858   3.369   3.967   4.229
 6653SOL    HW220859   3.423   3.838   4.144
 6654SOL     OW20860   2.373   3.301   1.610
 6654SOL    HW120861   2.372   3.386   1.662
 6654SOL    HW220862   2.438   3.237   1.651
 6655SOL     OW20863   2.835   6.512   2.074
 6655SOL    HW120864   2.769   6.553   2.010
 6655SOL    HW220865   2.866   6.425   2.038
 6656SOL     OW20866   6.674   2.472   1.253
 6656SOL    HW120867   6.599   2.513   1.305
 6656SOL    HW220868   6.753   2.533   1.255
 6657SOL     OW20869   3.075   6.403   6.420
 6657SOL    HW120870   3.110   6.406   6.327
 6657SOL    HW220871   3.042   6.311   6.440
 6658SOL     OW20872   5.420   1.192   5.263
 6658SOL    HW120873   5.458   1.110   5.307
 6658SOL    HW220874   5.363   1.164   5.186
 6659SOL     OW20875   2.040   2.950   0.158
 6659SOL    HW120876   2.100   2.880   0.119
 6659SOL    HW220877   1.990   2.912   0.235
 6660SOL     OW20878   7.012   6.922   2.902
 6660SOL    HW120879   0.069   6.980   2.925
 6660SOL    HW220880   6.930   6.979   2.897
 6661SOL     OW20881   0.412   6.227   3.582
 6661SOL    HW120882   0.497   6.218   3.635
 6661SOL    HW220883   0.408   6.153   3.515
 6662SOL     OW20884   1.544   1.933   6.902
 6662SOL    HW120885   1.533   1.966   6.995
 6662SOL    HW220886   1.590   1.844   6.903
 6663SOL     OW20887   0.088   5.916   2.509
 6663SOL    HW120888   0.062   6.005   2.546
 6663SOL    HW220889   0.010   5.875   2.461
 6664SOL     OW20890   1.499   0.999   2.777
 6664SOL    HW120891   1.555   0.993   2.694
 6664SOL    HW220892   1.553   0.972   2.856
 6665SOL     OW20893   2.195   6.566   2.897
 6665SOL    HW120894   2.198   6.540   2.801
 6665SOL    HW220895   2.249   6.649   2.912
 6666SOL     OW20896   6.100   0.343   6.482
 6666SOL    HW120897   6.076   0.264   6.426
 6666SOL    HW220898   6.025   0.362   6.546
 6667SOL     OW20899   6.600   4.422   4.830
 6667SOL    HW120900   6.663   4.490   4.793
 6667SOL    HW220901   6.597   4.343   4.770
 6668SOL     OW20902   0.846   4.730   1.613
 6668SOL    HW120903   0.862   4.808   1.674
 6668SOL    HW220904   0.832   4.648   1.667
 6669SOL     OW20905   1.863   5.768   2.908
 6669SOL    HW120906   1.938   5.771   2.842
 6669SOL    HW220907   1.900   5.756   3.000
 6670SOL     OW20908   3.612   4.907   0.329
 6670SOL    HW120909   3.572   4.986   0.375
 6670SOL    HW220910   3.652   4.846   0.397
 6671SOL     OW20911   6.582   3.229   4.823
 6671SOL    HW120912   6.530   3.293   4.766
 6671SOL    HW220913   6.602   3.271   4.911
 6672SOL     OW20914   1.148   1.311   5.672
 6672SOL    HW120915   1.161   1.225   5.721
 6672SOL    HW220916   1.205   1.311   5.590
 6673SOL     OW20917   4.594   4.716   1.554
 6673SOL    HW120918   4.590   4.666   1.641
 6673SOL    HW220919   4.574   4.653   1.479
 6674SOL     OW20920   0.634   6.518   4.201
 6674SOL    HW120921   0.668   6.612   4.205
 6674SOL    HW220922   0.711   6.454   4.197
 6675SOL     OW20923   6.057   4.760   0.347
 6675SOL    HW120924   6.039   4.696   0.421
 6675SOL    HW220925   5.993   4.743   0.272
 6676SOL     OW20926   0.712   2.304   6.178
 6676SOL    HW120927   0.635   2.368   6.177
 6676SOL    HW220928   0.760   2.309   6.091
 6677SOL     OW20929   1.035   3.223   0.525
 6677SOL    HW120930   1.041   3.294   0.595
 6677SOL    HW220931   0.975   3.253   0.451
 6678SOL     OW20932   0.534   2.899   5.834
 6678SOL    HW120933   0.531   2.951   5.748
 6678SOL    HW220934   0.578   2.811   5.817
 6679SOL     OW20935   2.121   2.221   4.646
 6679SOL    HW120936   2.215   2.254   4.647
 6679SOL    HW220937   2.113   2.142   4.585
 6680SOL     OW20938   3.297   6.649   6.363
 6680SOL    HW120939   3.341   6.559   6.371
 6680SOL    HW220940   3.333   6.711   6.432
 6681SOL     OW20941   5.372   5.372   0.551
 6681SOL    HW120942   5.385   5.467   0.579
 6681SOL    HW220943   5.387   5.311   0.630
 6682SOL     OW20944   0.348   5.457   2.080
 6682SOL    HW120945   0.365   5.435   2.176
 6682SOL    HW220946   0.410   5.405   2.022
 6683SOL     OW20947   5.010   1.791   4.431
 6683SOL    HW120948   4.919   1.770   4.467
 6683SOL    HW220949   5.037   1.722   4.363
 6684SOL     OW20950   1.928   6.741   2.561
 6684SOL    HW120951   1.939   6.771   2.656
 6684SOL    HW220952   1.876   6.655   2.559
 6685SOL     OW20953   4.999   3.280   6.633
 6685SOL    HW120954   4.907   3.253   6.604
 6685SOL    HW220955   5.003   3.284   6.733
 6686SOL     OW20956   6.482   3.910   2.903
 6686SOL    HW120957   6.472   3.894   2.804
 6686SOL    HW220958   6.514   4.003   2.918
 6687SOL     OW20959   1.298   2.071   0.710
 6687SOL    HW120960   1.297   2.086   0.611
 6687SOL    HW220961   1.214   2.027   0.739
 6688SOL     OW20962   0.718   4.553   2.488
 6688SOL    HW120963   0.806   4.584   2.453
 6688SOL    HW220964   0.685   4.476   2.432
 6689SOL     OW20965   4.832   4.912   0.221
 6689SOL    HW120966   4.866   4.820   0.199
 6689SOL    HW220967   4.733   4.908   0.235
 6690SOL     OW20968   2.036   2.378   0.835
 6690SOL    HW120969   2.133   2.376   0.856
 6690SOL    HW220970   2.003   2.473   0.839
 6691SOL     OW20971   2.638   4.702   1.320
 6691SOL    HW120972   2.668   4.636   1.251
 6691SOL    HW220973   2.712   4.718   1.385
 6692SOL     OW20974   3.429   4.071   5.508
 6692SOL    HW120975   3.405   4.126   5.428
 6692SOL    HW220976   3.487   4.124   5.569
 6693SOL     OW20977   4.098   3.468   5.213
 6693SOL    HW120978   4.061   3.442   5.124
 6693SOL    HW220979   4.178   3.527   5.200
 6694SOL     OW20980   3.764   5.708   0.913
 6694SOL    HW120981   3.705   5.645   0.963
 6694SOL    HW220982   3.855   5.669   0.905
 6695SOL     OW20983   1.549   1.571   6.894
 6695SOL    HW120984   1.452   1.580   6.914
 6695SOL    HW220985   1.591   1.506   6.957
 6696SOL     OW20986   1.927   2.912   2.139
 6696SOL    HW120987   2.008   2.856   2.156
 6696SOL    HW220988   1.953   3.008   2.138
 6697SOL     OW20989   4.839   1.130   3.261
 6697SOL    HW120990   4.838   1.163   3.167
 6697SOL    HW220991   4.853   1.031   3.262
 6698SOL     OW20992   3.611   3.391   0.101
 6698SOL    HW120993   3.530   3.449   0.094
 6698SOL    HW220994   3.653   3.381   0.011
 6699SOL     OW20995   2.056   4.362   6.952
 6699SOL    HW120996   2.107   4.288   6.997
 6699SOL    HW220997   1.978   4.387   7.009
 6700SOL     OW20998   0.301   5.566   0.638
 6700SOL    HW120999   0.224   5.610   0.591
 6700SOL    HW221000   0.272   5.540   0.731
 6701SOL     OW21001   0.236   2.105   0.817
 6701SOL    HW121002   0.137   2.097   0.803
 6701SOL    HW221003   0.284   2.046   0.753
 6702SOL     OW21004   3.076   1.795   1.348
 6702SOL    HW121005   3.149   1.815   1.283
 6702SOL    HW221006   2.988   1.794   1.301
 6703SOL     OW21007   0.139   1.765   6.730
 6703SOL    HW121008   0.117   1.785   6.826
 6703SOL    HW221009   0.054   1.750   6.679
 6704SOL     OW21010   5.274   1.822   2.372
 6704SOL    HW121011   5.221   1.737   2.365
 6704SOL    HW221012   5.366   1.807   2.335
 6705SOL     OW21013   5.609   1.614   0.120
 6705SOL    HW121014   5.648   1.585   0.033
 6705SOL    HW221015   5.510   1.628   0.109
 6706SOL     OW21016   0.329   4.350   6.322
 6706SOL    HW121017   0.279   4.272   6.285
 6706SOL    HW221018   0.266   4.408   6.374
 6707SOL     OW21019   1.155   6.009   2.557
 6707SOL    HW121020   1.148   6.080   2.487
 6707SOL    HW221021   1.232   5.948   2.535
 6708SOL     OW21022   1.832   6.186   1.625
 6708SOL    HW121023   1.764   6.116   1.604
 6708SOL    HW221024   1.785   6.267   1.662
 6709SOL     OW21025   4.705   1.384   2.606
 6709SOL    HW121026   4.666   1.299   2.572
 6709SOL    HW221027   4.695   1.456   2.537
 6710SOL     OW21028   3.155   2.398   0.417
 6710SOL    HW121029   3.141   2.495   0.437
 6710SOL    HW221030   3.248   2.384   0.382
 6711SOL     OW21031   3.924   4.584   0.566
 6711SOL    HW121032   3.919   4.489   0.536
 6711SOL    HW221033   3.972   4.589   0.654
 6712SOL     OW21034   3.883   5.802   0.040
 6712SOL    HW121035   3.812   5.822   0.107
 6712SOL    HW221036   3.842   5.785   6.973
 6713SOL     OW21037   2.076   2.051   1.548
 6713SOL    HW121038   2.079   2.090   1.641
 6713SOL    HW221039   2.114   2.117   1.483
 6714SOL     OW21040   6.316   0.755   4.337
 6714SOL    HW121041   6.221   0.737   4.363
 6714SOL    HW221042   6.357   0.671   4.302
 6715SOL     OW21043   0.395   1.162   1.104
 6715SOL    HW121044   0.472   1.100   1.089
 6715SOL    HW221045   0.366   1.158   1.200
 6716SOL     OW21046   2.022   6.395   0.893
 6716SOL    HW121047   2.055   6.308   0.856
 6716SOL    HW221048   2.055   6.470   0.836
 6717SOL     OW21049   4.022   1.669   6.676
 6717SOL    HW121050   3.981   1.615   6.750
 6717SOL    HW221051   4.070   1.748   6.715
 6718SOL     OW21052   3.107   0.269   0.434
 6718SOL    HW121053   3.029   0.259   0.495
 6718SOL    HW221054   3.156   0.182   0.427
 6719SOL     OW21055   6.726   0.181   5.151
 6719SOL    HW121056   6.724   0.245   5.228
 6719SOL    HW221057   6.783   0.218   5.078
 6720SOL     OW21058   2.032   4.445   1.757
 6720SOL    HW121059   2.030   4.487   1.848
 6720SOL    HW221060   1.978   4.501   1.694
 6721SOL     OW21061   5.581   6.145   3.879
 6721SOL    HW121062   5.650   6.191   3.823
 6721SOL    HW221063   5.499   6.128   3.824
 6722SOL     OW21064   4.296   3.358   6.708
 6722SOL    HW121065   4.207   3.404   6.710
 6722SOL    HW221066   4.304   3.306   6.623
 6723SOL     OW21067   4.585   6.405   2.583
 6723SOL    HW121068   4.531   6.389   2.665
 6723SOL    HW221069   4.657   6.472   2.604
 6724SOL     OW21070   3.155   5.170   4.854
 6724SOL    HW121071   3.222   5.218   4.799
 6724SOL    HW221072   3.100   5.110   4.795
 6725SOL     OW21073   0.228   4.507   2.398
 6725SOL    HW121074   0.265   4.587   2.445
 6725SOL    HW221075   0.146   4.533   2.347
 6726SOL     OW21076   2.530   2.123   3.334
 6726SOL    HW121077   2.511   2.146   3.238
 6726SOL    HW221078   2.603   2.182   3.369
 6727SOL     OW21079   3.564   3.648   6.923
 6727SOL    HW121080   3.486   3.611   6.973
 6727SOL    HW221081   3.533   3.723   6.864
 6728SOL     OW21082   4.269   1.358   3.699
 6728SOL    HW121083   4.318   1.437   3.736
 6728SOL    HW221084   4.335   1.288   3.672
 6729SOL     OW21085   5.759   0.593   2.205
 6729SOL    HW121086   5.848   0.553   2.181
 6729SOL    HW221087   5.764   0.634   2.296
 6730SOL     OW21088   2.444   0.821   0.698
 6730SOL    HW121089   2.446   0.734   0.648
 6730SOL    HW221090   2.450   0.897   0.634
 6731SOL     OW21091   2.709   4.722   1.769
 6731SOL    HW121092   2.784   4.697   1.830
 6731SOL    HW221093   2.671   4.639   1.727
 6732SOL     OW21094   2.280   4.912   1.134
 6732SOL    HW121095   2.260   4.955   1.222
 6732SOL    HW221096   2.243   4.969   1.061
 6733SOL     OW21097   5.472   6.020   5.446
 6733SOL    HW121098   5.498   6.015   5.543
 6733SOL    HW221099   5.481   5.929   5.405
 6734SOL     OW21100   2.480   3.648   5.639
 6734SOL    HW121101   2.530   3.636   5.553
 6734SOL    HW221102   2.468   3.558   5.683
 6735SOL     OW21103   0.146   5.245   6.122
 6735SOL    HW121104   0.109   5.303   6.194
 6735SOL    HW221105   0.204   5.174   6.162
 6736SOL     OW21106   2.137   3.797   2.247
 6736SOL    HW121107   2.222   3.812   2.197
 6736SOL    HW221108   2.077   3.738   2.194
 6737SOL     OW21109   2.368   0.864   1.292
 6737SOL    HW121110   2.423   0.945   1.273
 6737SOL    HW221111   2.288   0.863   1.233
 6738SOL     OW21112   3.121   1.362   2.647
 6738SOL    HW121113   3.199   1.414   2.680
 6738SOL    HW221114   3.046   1.369   2.713
 6739SOL     OW21115   3.639   6.390   4.881
 6739SOL    HW121116   3.608   6.296   4.863
 6739SOL    HW221117   3.621   6.413   4.977
 6740SOL     OW21118   0.315   2.193   4.355
 6740SOL    HW121119   0.331   2.254   4.433
 6740SOL    HW221120   0.333   2.099   4.383
 6741SOL     OW21121   6.245   0.052   6.120
 6741SOL    HW121122   6.198   0.123   6.172
 6741SOL    HW221123   6.264   6.996   6.180
 6742SOL     OW21124   6.272   6.110   6.318
 6742SOL    HW121125   6.175   6.092   6.304
 6742SOL    HW221126   6.315   6.133   6.231
 6743SOL     OW21127   4.554   3.098   0.819
 6743SOL    HW121128   4.481   3.031   0.828
 6743SOL    HW221129   4.613   3.094   0.900
 6744SOL     OW21130   5.015   4.668   5.572
 6744SOL    HW121131   4.975   4.605   5.505
 6744SOL    HW221132   5.011   4.626   5.663
 6745SOL     OW21133   6.946   4.407   3.570
 6745SOL    HW121134   6.921   4.487   3.625
 6745SOL    HW221135   0.021   4.387   3.583
 6746SOL     OW21136   0.241   1.213   0.884
 6746SOL    HW121137   0.325   1.210   0.938
 6746SOL    HW221138   0.173   1.151   0.924
 6747SOL     OW21139   5.376   6.310   5.905
 6747SOL    HW121140   5.377   6.322   5.806
 6747SOL    HW221141   5.284   6.323   5.940
 6748SOL     OW21142   0.157   0.148   2.044
 6748SOL    HW121143   0.128   0.244   2.033
 6748SOL    HW221144   0.214   0.140   2.125
 6749SOL     OW21145   3.470   6.092   1.001
 6749SOL    HW121146   3.410   6.085   1.081
 6749SOL    HW221147   3.550   6.034   1.014
 6750SOL     OW21148   2.711   3.289   5.348
 6750SOL    HW121149   2.787   3.254   5.402
 6750SOL    HW221150   2.658   3.212   5.311
 6751SOL     OW21151   3.229   1.955   5.467
 6751SOL    HW121152   3.313   1.936   5.415
 6751SOL    HW221153   3.177   2.027   5.421
 6752SOL     OW21154   6.420   1.513   0.316
 6752SOL    HW121155   6.402   1.416   0.299
 6752SOL    HW221156   6.457   1.555   0.233
 6753SOL     OW21157   5.160   1.938   6.784
 6753SOL    HW121158   5.143   2.035   6.805
 6753SOL    HW221159   5.252   1.928   6.746
 6754SOL     OW21160   5.810   0.768   0.181
 6754SOL    HW121161   5.742   0.829   0.224
 6754SOL    HW221162   5.871   0.732   0.251
 6755SOL     OW21163   4.652   2.229   3.301
 6755SOL    HW121164   4.630   2.310   3.355
 6755SOL    HW221165   4.722   2.176   3.348
 6756SOL     OW21166   5.310   4.544   4.423
 6756SOL    HW121167   5.280   4.449   4.417
 6756SOL    HW221168   5.388   4.558   4.362
 6757SOL     OW21169   5.799   5.256   1.737
 6757SOL    HW121170   5.768   5.251   1.642
 6757SOL    HW221171   5.727   5.297   1.793
 6758SOL     OW21172   5.556   2.865   2.752
 6758SOL    HW121173   5.562   2.812   2.667
 6758SOL    HW221174   5.462   2.863   2.785
 6759SOL     OW21175   0.019   4.706   3.555
 6759SOL    HW121176   7.021   4.701   3.653
 6759SOL    HW221177   0.058   4.796   3.534
 6760SOL     OW21178   7.009   3.985   4.899
 6760SOL    HW121179   6.988   4.068   4.951
 6760SOL    HW221180   6.987   3.905   4.955
 6761SOL     OW21181   5.300   3.370   6.757
 6761SOL    HW121182   5.347   3.433   6.818
 6761SOL    HW221183   5.208   3.351   6.793
 6762SOL     OW21184   5.927   4.967   4.453
 6762SOL    HW121185   6.007   4.926   4.410
 6762SOL    HW221186   5.844   4.925   4.417
 6763SOL     OW21187   5.460   6.637   5.846
 6763SOL    HW121188   5.405   6.574   5.792
 6763SOL    HW221189   5.472   6.601   5.938
 6764SOL     OW21190   2.131   3.993   6.905
 6764SOL    HW121191   2.192   4.042   6.842
 6764SOL    HW221192   2.183   3.955   6.981
 6765SOL     OW21193   5.678   5.331   2.692
 6765SOL    HW121194   5.632   5.352   2.779
 6765SOL    HW221195   5.716   5.239   2.696
 6766SOL     OW21196   1.400   1.408   5.386
 6766SOL    HW121197   1.472   1.348   5.419
 6766SOL    HW221198   1.426   1.447   5.298
 6767SOL     OW21199   0.153   2.176   6.129
 6767SOL    HW121200   0.061   2.140   6.111
 6767SOL    HW221201   0.167   2.181   6.228
 6768SOL     OW21202   0.262   0.253   5.516
 6768SOL    HW121203   0.180   0.203   5.542
 6768SOL    HW221204   0.303   0.294   5.598
 6769SOL     OW21205   2.092   3.287   6.440
 6769SOL    HW121206   2.105   3.229   6.360
 6769SOL    HW221207   2.017   3.251   6.495
 6770SOL     OW21208   0.063   1.923   3.223
 6770SOL    HW121209   0.011   1.839   3.238
 6770SOL    HW221210   0.119   1.943   3.303
 6771SOL     OW21211   4.059   1.084   2.792
 6771SOL    HW121212   3.999   1.162   2.808
 6771SOL    HW221213   4.007   1.011   2.748
 6772SOL     OW21214   0.987   0.873   2.288
 6772SOL    HW121215   0.929   0.933   2.233
 6772SOL    HW221216   0.932   0.798   2.326
 6773SOL     OW21217   1.022   6.816   1.001
 6773SOL    HW121218   1.014   6.769   1.089
 6773SOL    HW221219   1.026   6.748   0.927
 6774SOL     OW21220   2.558   2.129   6.066
 6774SOL    HW121221   2.549   2.093   5.973
 6774SOL    HW221222   2.655   2.144   6.087
 6775SOL     OW21223   0.657   2.847   4.915
 6775SOL    HW121224   0.649   2.751   4.892
 6775SOL    HW221225   0.746   2.881   4.883
 6776SOL     OW21226   3.862   3.644   3.223
 6776SOL    HW121227   3.844   3.651   3.321
 6776SOL    HW221228   3.787   3.596   3.179
 6777SOL     OW21229   0.124   6.366   6.326
 6777SOL    HW121230   0.134   6.414   6.240
 6777SOL    HW221231   0.028   6.337   6.338
 6778SOL     OW21232   5.986   6.209   1.823
 6778SOL    HW121233   6.054   6.155   1.773
 6778SOL    HW221234   6.027   6.297   1.850
 6779SOL     OW21235   5.129   4.138   6.473
 6779SOL    HW121236   5.141   4.113   6.377
 6779SOL    HW221237   5.198   4.207   6.498
 6780SOL     OW21238   3.955   1.791   2.851
 6780SOL    HW121239   3.983   1.887   2.853
 6780SOL    HW221240   3.993   1.747   2.769
 6781SOL     OW21241   6.226   2.117   3.410
 6781SOL    HW121242   6.272   2.204   3.429
 6781SOL    HW221243   6.139   2.136   3.365
 6782SOL     OW21244   0.046   2.252   2.897
 6782SOL    HW121245   0.084   2.160   2.892
 6782SOL    HW221246   0.016   2.270   2.991
 6783SOL     OW21247   0.331   5.794   6.269
 6783SOL    HW121248   0.299   5.705   6.300
 6783SOL    HW221249   0.303   5.864   6.335
 6784SOL     OW21250   1.588   4.193   1.311
 6784SOL    HW121251   1.643   4.225   1.234
 6784SOL    HW221252   1.497   4.236   1.307
 6785SOL     OW21253   5.726   5.203   4.237
 6785SOL    HW121254   5.788   5.178   4.312
 6785SOL    HW221255   5.656   5.133   4.227
 6786SOL     OW21256   5.624   2.086   5.883
 6786SOL    HW121257   5.596   2.175   5.847
 6786SOL    HW221258   5.574   2.014   5.834
 6787SOL     OW21259   3.112   2.054   0.560
 6787SOL    HW121260   3.112   1.960   0.595
 6787SOL    HW221261   3.050   2.061   0.482
 6788SOL     OW21262   0.462   4.591   1.676
 6788SOL    HW121263   0.473   4.643   1.592
 6788SOL    HW221264   0.513   4.505   1.669
 6789SOL     OW21265   5.455   4.582   3.245
 6789SOL    HW121266   5.368   4.551   3.206
 6789SOL    HW221267   5.502   4.639   3.178
 6790SOL     OW21268   0.662   4.876   6.671
 6790SOL    HW121269   0.623   4.909   6.757
 6790SOL    HW221270   0.762   4.874   6.678
 6791SOL     OW21271   3.108   6.596   2.732
 6791SOL    HW121272   3.200   6.558   2.727
 6791SOL    HW221273   3.057   6.570   2.650
 6792SOL     OW21274   4.344   6.876   5.806
 6792SOL    HW121275   4.289   6.958   5.823
 6792SOL    HW221276   4.441   6.898   5.811
 6793SOL     OW21277   2.207   3.593   6.019
 6793SOL    HW121278   2.251   3.569   6.105
 6793SOL    HW221279   2.257   3.669   5.977
 6794SOL     OW21280   6.031   2.311   5.384
 6794SOL    HW121281   6.044   2.344   5.291
 6794SOL    HW221282   5.955   2.359   5.427
 6795SOL     OW21283   1.149   0.928   1.581
 6795SOL    HW121284   1.225   0.993   1.582
 6795SOL    HW221285   1.112   0.923   1.488
 6796SOL     OW21286   6.858   1.543   2.681
 6796SOL    HW121287   6.814   1.613   2.737
 6796SOL    HW221288   6.883   1.465   2.738
 6797SOL     OW21289   1.196   3.291   1.072
 6797SOL    HW121290   1.267   3.240   1.025
 6797SOL    HW221291   1.131   3.226   1.114
 6798SOL     OW21292   5.045   0.751   1.739
 6798SOL    HW121293   5.079   0.702   1.819
 6798SOL    HW221294   5.109   0.824   1.715
 6799SOL     OW21295   5.862   6.548   3.474
 6799SOL    HW121296   5.783   6.595   3.435
 6799SOL    HW221297   5.932   6.615   3.498
 6800SOL     OW21298   6.408   3.481   1.177
 6800SOL    HW121299   6.366   3.428   1.103
 6800SOL    HW221300   6.337   3.508   1.242
 6801SOL     OW21301   0.815   6.475   6.667
 6801SOL    HW121302   0.791   6.451   6.573
 6801SOL    HW221303   0.861   6.397   6.710
 6802SOL     OW21304   3.065   4.697   1.755
 6802SOL    HW121305   2.997   4.663   1.820
 6802SOL    HW221306   3.129   4.624   1.733
 6803SOL     OW21307   5.210   5.614   6.050
 6803SOL    HW121308   5.259   5.591   6.134
 6803SOL    HW221309   5.230   5.708   6.024
 6804SOL     OW21310   3.796   5.300   2.716
 6804SOL    HW121311   3.699   5.275   2.718
 6804SOL    HW221312   3.820   5.336   2.626
 6805SOL     OW21313   0.301   4.296   4.348
 6805SOL    HW121314   0.376   4.242   4.309
 6805SOL    HW221315   0.305   4.389   4.312
 6806SOL     OW21316   6.139   3.261   1.548
 6806SOL    HW121317   6.049   3.235   1.512
 6806SOL    HW221318   6.209   3.241   1.479
 6807SOL     OW21319   3.175   4.036   2.116
 6807SOL    HW121320   3.132   3.967   2.174
 6807SOL    HW221321   3.135   4.032   2.025
 6808SOL     OW21322   3.260   0.916   3.992
 6808SOL    HW121323   3.201   0.896   3.913
 6808SOL    HW221324   3.303   1.006   3.981
 6809SOL     OW21325   5.877   2.947   6.633
 6809SOL    HW121326   5.883   2.968   6.535
 6809SOL    HW221327   5.839   3.026   6.682
 6810SOL     OW21328   2.996   0.648   4.466
 6810SOL    HW121329   2.937   0.569   4.484
 6810SOL    HW221330   3.081   0.637   4.518
 6811SOL     OW21331   6.233   0.773   0.702
 6811SOL    HW121332   6.312   0.758   0.761
 6811SOL    HW221333   6.233   0.867   0.670
 6812SOL     OW21334   3.512   4.609   5.302
 6812SOL    HW121335   3.479   4.672   5.231
 6812SOL    HW221336   3.516   4.658   5.390
 6813SOL     OW21337   0.136   3.633   2.515
 6813SOL    HW121338   0.053   3.582   2.542
 6813SOL    HW221339   0.113   3.729   2.504
 6814SOL     OW21340   5.880   0.816   0.522
 6814SOL    HW121341   5.898   0.745   0.589
 6814SOL    HW221342   5.786   0.851   0.534
 6815SOL     OW21343   0.987   5.738   6.469
 6815SOL    HW121344   0.976   5.690   6.382
 6815SOL    HW221345   1.049   5.687   6.528
 6816SOL     OW21346   6.831   0.284   4.101
 6816SOL    HW121347   6.801   0.309   4.193
 6816SOL    HW221348   6.910   0.223   4.107
 6817SOL     OW21349   4.274   1.799   1.258
 6817SOL    HW121350   4.310   1.706   1.262
 6817SOL    HW221351   4.299   1.849   1.342
 6818SOL     OW21352   1.224   6.924   4.943
 6818SOL    HW121353   1.266   6.861   5.008
 6818SOL    HW221354   1.246   7.018   4.969
 6819SOL     OW21355   4.661   4.454   1.804
 6819SOL    HW121356   4.750   4.452   1.849
 6819SOL    HW221357   4.610   4.371   1.827
 6820SOL     OW21358   2.763   5.154   2.097
 6820SOL    HW121359   2.681   5.097   2.089
 6820SOL    HW221360   2.834   5.120   2.035
 6821SOL     OW21361   3.700   2.749   5.303
 6821SOL    HW121362   3.687   2.773   5.207
 6821SOL    HW221363   3.775   2.683   5.311
 6822SOL     OW21364   5.902   3.323   5.292
 6822SOL    HW121365   5.811   3.310   5.331
 6822SOL    HW221366   5.895   3.363   5.201
 6823SOL     OW21367   0.216   2.771   5.261
 6823SOL    HW121368   0.226   2.779   5.360
 6823SOL    HW221369   0.264   2.846   5.216
 6824SOL     OW21370   0.734   6.912   5.208
 6824SOL    HW121371   0.762   6.907   5.112
 6824SOL    HW221372   0.769   6.832   5.257
 6825SOL     OW21373   4.117   4.144   1.190
 6825SOL    HW121374   4.059   4.136   1.109
 6825SOL    HW221375   4.212   4.129   1.165
 6826SOL     OW21376   6.056   6.956   3.861
 6826SOL    HW121377   6.077   7.010   3.943
 6826SOL    HW221378   5.976   6.993   3.816
 6827SOL     OW21379   4.784   5.702   5.279
 6827SOL    HW121380   4.731   5.652   5.347
 6827SOL    HW221381   4.731   5.711   5.195
 6828SOL     OW21382   3.361   2.087   2.626
 6828SOL    HW121383   3.310   2.069   2.542
 6828SOL    HW221384   3.449   2.128   2.603
 6829SOL     OW21385   3.988   6.957   2.936
 6829SOL    HW121386   3.990   6.914   3.026
 6829SOL    HW221387   3.930   0.017   2.939
 6830SOL     OW21388   4.184   4.867   2.394
 6830SOL    HW121389   4.137   4.951   2.367
 6830SOL    HW221390   4.140   4.830   2.476
 6831SOL     OW21391   1.268   1.788   6.166
 6831SOL    HW121392   1.362   1.788   6.131
 6831SOL    HW221393   1.223   1.874   6.142
 6832SOL     OW21394   2.527   2.380   6.424
 6832SOL    HW121395   2.570   2.401   6.511
 6832SOL    HW221396   2.448   2.440   6.410
 6833SOL     OW21397   3.694   5.359   6.149
 6833SOL    HW121398   3.640   5.373   6.232
 6833SOL    HW221399   3.639   5.379   6.069
 6834SOL     OW21400   6.128   6.786   6.709
 6834SOL    HW121401   6.122   6.754   6.804
 6834SOL    HW221402   6.080   6.721   6.649
 6835SOL     OW21403   2.458   0.910   4.153
 6835SOL    HW121404   2.370   0.910   4.105
 6835SOL    HW221405   2.530   0.878   4.091
 6836SOL     OW21406   1.489   4.906   6.668
 6836SOL    HW121407   1.520   4.896   6.574
 6836SOL    HW221408   1.517   4.996   6.703
 6837SOL     OW21409   6.323   0.675   2.316
 6837SOL    HW121410   6.416   0.695   2.285
 6837SOL    HW221411   6.325   0.599   2.381
 6838SOL     OW21412   2.755   4.222   5.463
 6838SOL    HW121413   2.822   4.270   5.406
 6838SOL    HW221414   2.676   4.282   5.479
 6839SOL     OW21415   6.114   3.277   4.476
 6839SOL    HW121416   6.045   3.295   4.546
 6839SOL    HW221417   6.126   3.178   4.466
 6840SOL     OW21418   2.990   6.423   4.476
 6840SOL    HW121419   3.073   6.463   4.516
 6840SOL    HW221420   3.015   6.366   4.398
 6841SOL     OW21421   5.291   6.707   1.199
 6841SOL    HW121422   5.226   6.751   1.136
 6841SOL    HW221423   5.354   6.650   1.146
 6842SOL     OW21424   0.158   3.546   5.025
 6842SOL    HW121425   0.064   3.533   5.056
 6842SOL    HW221426   0.222   3.512   5.094
 6843SOL     OW21427   4.172   2.018   1.519
 6843SOL    HW121428   4.102   1.950   1.539
 6843SOL    HW221429   4.143   2.107   1.556
 6844SOL     OW21430   3.552   5.567   4.370
 6844SOL    HW121431   3.496   5.616   4.302
 6844SOL    HW221432   3.550   5.469   4.350
 6845SOL     OW21433   3.805   4.444   1.067
 6845SOL    HW121434   3.723   4.501   1.074
 6845SOL    HW221435   3.829   4.432   0.971
 6846SOL     OW21436   3.274   2.910   2.479
 6846SOL    HW121437   3.202   2.966   2.437
 6846SOL    HW221438   3.249   2.813   2.471
 6847SOL     OW21439   6.344   3.829   1.750
 6847SOL    HW121440   6.253   3.826   1.710
 6847SOL    HW221441   6.336   3.829   1.850
 6848SOL     OW21442   6.554   6.777   3.715
 6848SOL    HW121443   6.467   6.791   3.761
 6848SOL    HW221444   6.539   6.731   3.628
 6849SOL     OW21445   3.486   6.796   4.295
 6849SOL    HW121446   3.493   6.699   4.273
 6849SOL    HW221447   3.402   6.812   4.347
 6850SOL     OW21448   5.540   3.308   1.140
 6850SOL    HW121449   5.446   3.300   1.106
 6850SOL    HW221450   5.602   3.262   1.077
 6851SOL     OW21451   1.444   5.677   5.294
 6851SOL    HW121452   1.419   5.726   5.210
 6851SOL    HW221453   1.506   5.602   5.272
 6852SOL     OW21454   0.499   4.755   1.876
 6852SOL    HW121455   0.469   4.713   1.790
 6852SOL    HW221456   0.560   4.692   1.924
 6853SOL     OW21457   6.740   3.781   5.785
 6853SOL    HW121458   6.833   3.812   5.807
 6853SOL    HW221459   6.716   3.704   5.844
 6854SOL     OW21460   0.262   1.941   6.537
 6854SOL    HW121461   0.267   2.024   6.593
 6854SOL    HW221462   0.217   1.869   6.589
 6855SOL     OW21463   3.302   6.092   1.605
 6855SOL    HW121464   3.213   6.118   1.567
 6855SOL    HW221465   3.316   6.139   1.692
 6856SOL     OW21466   0.029   4.431   5.238
 6856SOL    HW121467   0.013   4.529   5.231
 6856SOL    HW221468   7.014   4.397   5.324
 6857SOL     OW21469   4.561   1.403   5.787
 6857SOL    HW121470   4.462   1.393   5.798
 6857SOL    HW221471   4.581   1.481   5.728
 6858SOL     OW21472   3.823   3.206   5.218
 6858SOL    HW121473   3.728   3.235   5.211
 6858SOL    HW221474   3.844   3.185   5.313
 6859SOL     OW21475   3.702   7.004   0.349
 6859SOL    HW121476   3.647   6.957   0.418
 6859SOL    HW221477   3.683   6.965   0.259
 6860SOL     OW21478   4.908   4.674   0.099
 6860SOL    HW121479   4.992   4.640   0.059
 6860SOL    HW221480   4.843   4.698   0.027
 6861SOL     OW21481   5.657   4.534   0.826
 6861SOL    HW121482   5.596   4.475   0.772
 6861SOL    HW221483   5.648   4.510   0.923
 6862SOL     OW21484   3.806   5.777   3.638
 6862SOL    HW121485   3.717   5.814   3.611
 6862SOL    HW221486   3.816   5.785   3.737
 6863SOL     OW21487   0.297   2.925   4.299
 6863SOL    HW121488   0.331   2.933   4.392
 6863SOL    HW221489   0.214   2.868   4.298
 6864SOL     OW21490   4.446   5.713   5.409
 6864SOL    HW121491   4.406   5.632   5.365
 6864SOL    HW221492   4.454   5.786   5.342
 6865SOL     OW21493   5.685   3.348   4.571
 6865SOL    HW121494   5.675   3.287   4.492
 6865SOL    HW221495   5.782   3.353   4.597
 6866SOL     OW21496   0.384   3.682   2.127
 6866SOL    HW121497   0.336   3.610   2.077
 6866SOL    HW221498   0.476   3.650   2.152
 6867SOL     OW21499   2.282   4.547   2.152
 6867SOL    HW121500   2.376   4.560   2.120
 6867SOL    HW221501   2.275   4.575   2.248
 6868SOL     OW21502   1.987   5.443   5.156
 6868SOL    HW121503   2.045   5.371   5.195
 6868SOL    HW221504   1.892   5.427   5.184
 6869SOL     OW21505   6.151   3.954   5.235
 6869SOL    HW121506   6.192   3.868   5.204
 6869SOL    HW221507   6.159   4.023   5.163
 6870SOL     OW21508   5.235   4.070   2.687
 6870SOL    HW121509   5.151   4.018   2.675
 6870SOL    HW221510   5.272   4.095   2.597
 6871SOL     OW21511   5.230   0.343   1.931
 6871SOL    HW121512   5.201   0.382   1.844
 6871SOL    HW221513   5.240   0.244   1.920
 6872SOL     OW21514   2.907   3.622   6.854
 6872SOL    HW121515   2.826   3.608   6.796
 6872SOL    HW221516   2.898   3.567   6.937
 6873SOL     OW21517   5.236   4.179   5.896
 6873SOL    HW121518   5.276   4.165   5.805
 6873SOL    HW221519   5.138   4.160   5.892
 6874SOL     OW21520   0.785   2.663   5.496
 6874SOL    HW121521   0.689   2.636   5.499
 6874SOL    HW221522   0.842   2.588   5.529
 6875SOL     OW21523   2.520   2.095   4.063
 6875SOL    HW121524   2.553   2.087   3.969
 6875SOL    HW221525   2.528   2.190   4.094
 6876SOL     OW21526   3.481   6.337   6.056
 6876SOL    HW121527   3.404   6.275   6.073
 6876SOL    HW221528   3.567   6.289   6.076
 6877SOL     OW21529   2.706   4.457   6.909
 6877SOL    HW121530   2.684   4.512   6.829
 6877SOL    HW221531   2.721   4.362   6.882
 6878SOL     OW21532   1.621   1.797   4.786
 6878SOL    HW121533   1.544   1.738   4.809
 6878SOL    HW221534   1.651   1.845   4.868
 6879SOL     OW21535   0.852   1.368   5.988
 6879SOL    HW121536   0.877   1.275   6.018
 6879SOL    HW221537   0.922   1.432   6.019
 6880SOL     OW21538   1.776   4.483   4.934
 6880SOL    HW121539   1.742   4.404   4.984
 6880SOL    HW221540   1.876   4.481   4.933
 6881SOL     OW21541   6.726   4.731   1.327
 6881SOL    HW121542   6.769   4.821   1.324
 6881SOL    HW221543   6.773   4.670   1.264
 6882SOL     OW21544   2.122   6.882   5.124
 6882SOL    HW121545   2.193   6.882   5.054
 6882SOL    HW221546   2.165   6.894   5.214
 6883SOL     OW21547   3.325   5.553   1.462
 6883SOL    HW121548   3.416   5.536   1.499
 6883SOL    HW221549   3.292   5.642   1.494
 6884SOL     OW21550   2.894   4.875   2.951
 6884SOL    HW121551   2.994   4.868   2.942
 6884SOL    HW221552   2.871   4.897   3.046
 6885SOL     OW21553   3.521   5.334   5.102
 6885SOL    HW121554   3.446   5.285   5.146
 6885SOL    HW221555   3.525   5.309   5.005
 6886SOL     OW21556   5.734   2.203   2.782
 6886SOL    HW121557   5.715   2.146   2.862
 6886SOL    HW221558   5.745   2.145   2.701
 6887SOL     OW21559   5.323   0.601   4.821
 6887SOL    HW121560   5.279   0.691   4.825
 6887SOL    HW221561   5.422   0.612   4.833
 6888SOL     OW21562   5.574   6.081   4.710
 6888SOL    HW121563   5.512   6.147   4.752
 6888SOL    HW221564   5.667   6.118   4.708
 6889SOL     OW21565   1.731   4.091   5.697
 6889SOL    HW121566   1.688   4.067   5.610
 6889SOL    HW221567   1.792   4.017   5.726
 6890SOL     OW21568   2.233   0.760   0.206
 6890SOL    HW121569   2.308   0.703   0.173
 6890SOL    HW221570   2.149   0.705   0.209
 6891SOL     OW21571   3.465   4.946   4.382
 6891SOL    HW121572   3.535   4.925   4.451
 6891SOL    HW221573   3.480   4.889   4.301
 6892SOL     OW21574   3.934   0.815   3.941
 6892SOL    HW121575   4.015   0.848   3.892
 6892SOL    HW221576   3.854   0.867   3.912
 6893SOL     OW21577   5.810   6.889   2.089
 6893SOL    HW121578   5.873   6.922   2.019
 6893SOL    HW221579   5.732   6.952   2.096
 6894SOL     OW21580   6.080   4.353   6.284
 6894SOL    HW121581   6.006   4.417   6.304
 6894SOL    HW221582   6.050   4.288   6.214
 6895SOL     OW21583   4.052   5.325   6.264
 6895SOL    HW121584   4.004   5.351   6.180
 6895SOL    HW221585   4.123   5.259   6.242
 6896SOL     OW21586   4.472   6.802   3.159
 6896SOL    HW121587   4.425   6.767   3.240
 6896SOL    HW221588   4.522   6.885   3.182
 6897SOL     OW21589   3.531   1.984   0.584
 6897SOL    HW121590   3.505   2.001   0.679
 6897SOL    HW221591   3.497   1.894   0.556
 6898SOL     OW21592   4.274   1.433   2.689
 6898SOL    HW121593   4.214   1.450   2.768
 6898SOL    HW221594   4.275   1.335   2.668
 6899SOL     OW21595   5.072   6.374   0.086
 6899SOL    HW121596   5.029   6.426   0.160
 6899SOL    HW221597   5.171   6.389   0.088
 6900SOL     OW21598   4.115   1.661   5.393
 6900SOL    HW121599   4.079   1.641   5.302
 6900SOL    HW221600   4.055   1.727   5.438
 6901SOL     OW21601   1.245   0.533   6.841
 6901SOL    HW121602   1.183   0.589   6.896
 6901SOL    HW221603   1.194   0.490   6.767
 6902SOL     OW21604   6.600   5.321   0.996
 6902SOL    HW121605   6.604   5.332   0.897
 6902SOL    HW221606   6.510   5.351   1.029
 6903SOL     OW21607   4.414   3.522   0.980
 6903SOL    HW121608   4.508   3.519   0.947
 6903SOL    HW221609   4.364   3.594   0.931
 6904SOL     OW21610   0.528   1.760   2.936
 6904SOL    HW121611   0.503   1.676   2.887
 6904SOL    HW221612   0.446   1.798   2.979
 6905SOL     OW21613   4.179   5.172   1.494
 6905SOL    HW121614   4.119   5.093   1.484
 6905SOL    HW221615   4.253   5.167   1.427
 6906SOL     OW21616   4.259   6.114   3.283
 6906SOL    HW121617   4.210   6.027   3.283
 6906SOL    HW221618   4.355   6.098   3.258
 6907SOL     OW21619   3.613   1.707   1.567
 6907SOL    HW121620   3.554   1.634   1.535
 6907SOL    HW221621   3.708   1.686   1.543
 6908SOL     OW21622   0.670   6.863   6.277
 6908SOL    HW121623   0.661   6.796   6.202
 6908SOL    HW221624   0.642   6.820   6.363
 6909SOL     OW21625   4.778   3.360   6.896
 6909SOL    HW121626   4.841   3.437   6.907
 6909SOL    HW221627   4.699   3.390   6.842
 6910SOL     OW21628   6.930   1.524   2.287
 6910SOL    HW121629   6.913   1.443   2.232
 6910SOL    HW221630   7.011   1.571   2.253
 6911SOL     OW21631   3.878   0.846   5.027
 6911SOL    HW121632   3.978   0.850   5.034
 6911SOL    HW221633   3.844   0.771   5.084
 6912SOL     OW21634   4.880   5.301   0.841
 6912SOL    HW121635   4.854   5.256   0.927
 6912SOL    HW221636   4.882   5.234   0.767
 6913SOL     OW21637   5.282   5.345   5.485
 6913SOL    HW121638   5.365   5.376   5.531
 6913SOL    HW221639   5.260   5.252   5.513
 6914SOL     OW21640   6.336   5.010   0.849
 6914SOL    HW121641   6.292   5.052   0.770
 6914SOL    HW221642   6.424   4.971   0.822
 6915SOL     OW21643   0.900   5.752   1.102
 6915SOL    HW121644   0.815   5.702   1.117
 6915SOL    HW221645   0.930   5.738   1.007
 6916SOL     OW21646   6.786   1.262   6.805
 6916SOL    HW121647   6.831   1.173   6.795
 6916SOL    HW221648   6.762   1.277   6.901
 6917SOL     OW21649   4.594   6.938   6.691
 6917SOL    HW121650   4.521   6.961   6.755
 6917SOL    HW221651   4.555   6.914   6.602
 6918SOL     OW21652   2.144   3.107   3.495
 6918SOL    HW121653   2.137   3.207   3.486
 6918SOL    HW221654   2.121   3.064   3.408
 6919SOL     OW21655   1.932   6.483   3.295
 6919SOL    HW121656   1.882   6.398   3.311
 6919SOL    HW221657   1.991   6.473   3.215
 6920SOL     OW21658   4.885   6.258   5.124
 6920SOL    HW121659   4.891   6.216   5.033
 6920SOL    HW221660   4.855   6.353   5.114
 6921SOL     OW21661   0.083   0.052   3.192
 6921SOL    HW121662   0.049   6.980   3.199
 6921SOL    HW221663   0.129   0.064   3.104
 6922SOL     OW21664   1.662   5.544   0.399
 6922SOL    HW121665   1.652   5.508   0.306
 6922SOL    HW221666   1.595   5.617   0.413
 6923SOL     OW21667   4.696   6.556   4.436
 6923SOL    HW121668   4.669   6.593   4.346
 6923SOL    HW221669   4.689   6.629   4.504
 6924SOL     OW21670   0.135   5.954   1.140
 6924SOL    HW121671   0.210   5.888   1.143
 6924SOL    HW221672   0.168   6.043   1.172
 6925SOL     OW21673   5.930   5.914   2.649
 6925SOL    HW121674   6.025   5.936   2.627
 6925SOL    HW221675   5.906   5.955   2.738
 6926SOL     OW21676   2.901   3.612   4.928
 6926SOL    HW121677   2.922   3.558   4.846
 6926SOL    HW221678   2.874   3.551   5.002
 6927SOL     OW21679   4.424   3.857   5.841
 6927SOL    HW121680   4.513   3.873   5.800
 6927SOL    HW221681   4.432   3.858   5.940
 6928SOL     OW21682   5.865   6.888   6.336
 6928SOL    HW121683   5.816   6.926   6.257
 6928SOL    HW221684   5.862   6.954   6.411
 6929SOL     OW21685   3.335   5.403   0.168
 6929SOL    HW121686   3.250   5.424   0.119
 6929SOL    HW221687   3.328   5.312   0.209
 6930SOL     OW21688   1.171   6.230   3.453
 6930SOL    HW121689   1.268   6.218   3.475
 6930SOL    HW221690   1.137   6.312   3.499
 6931SOL     OW21691   1.656   1.240   1.374
 6931SOL    HW121692   1.742   1.207   1.412
 6931SOL    HW221693   1.638   1.332   1.407
 6932SOL     OW21694   2.675   2.619   0.857
 6932SOL    HW121695   2.756   2.572   0.821
 6932SOL    HW221696   2.653   2.696   0.798
 6933SOL     OW21697   3.759   6.543   6.625
 6933SOL    HW121698   3.665   6.563   6.652
 6933SOL    HW221699   3.818   6.547   6.706
 6934SOL     OW21700   6.040   3.522   6.311
 6934SOL    HW121701   6.126   3.484   6.348
 6934SOL    HW221702   6.016   3.604   6.362
 6935SOL     OW21703   4.412   5.448   3.315
 6935SOL    HW121704   4.504   5.426   3.348
 6935SOL    HW221705   4.345   5.430   3.388
 6936SOL     OW21706   1.920   4.607   1.533
 6936SOL    HW121707   1.986   4.662   1.482
 6936SOL    HW221708   1.914   4.516   1.492
 6937SOL     OW21709   4.536   6.538   5.687
 6937SOL    HW121710   4.470   6.570   5.755
 6937SOL    HW221711   4.523   6.440   5.672
 6938SOL     OW21712   4.945   2.021   4.786
 6938SOL    HW121713   5.033   2.022   4.739
 6938SOL    HW221714   4.956   2.059   4.878
 6939SOL     OW21715   0.998   4.324   2.529
 6939SOL    HW121716   0.973   4.337   2.625
 6939SOL    HW221717   1.033   4.231   2.516
 6940SOL     OW21718   4.374   0.656   5.201
 6940SOL    HW121719   4.361   0.655   5.102
 6940SOL    HW221720   4.319   0.583   5.243
 6941SOL     OW21721   3.776   3.001   3.077
 6941SOL    HW121722   3.855   3.054   3.048
 6941SOL    HW221723   3.783   2.981   3.175
 6942SOL     OW21724   6.546   1.673   0.106
 6942SOL    HW121725   6.612   1.717   0.167
 6942SOL    HW221726   6.510   1.740   0.042
 6943SOL     OW21727   4.838   6.152   6.314
 6943SOL    HW121728   4.906   6.197   6.256
 6943SOL    HW221729   4.747   6.188   6.293
 6944SOL     OW21730   1.597   6.332   5.870
 6944SOL    HW121731   1.498   6.344   5.875
 6944SOL    HW221732   1.620   6.271   5.795
 6945SOL     OW21733   5.040   2.521   6.131
 6945SOL    HW121734   5.109   2.542   6.201
 6945SOL    HW221735   5.076   2.452   6.069
 6946SOL     OW21736   6.270   4.287   3.386
 6946SOL    HW121737   6.197   4.319   3.326
 6946SOL    HW221738   6.231   4.238   3.464
 6947SOL     OW21739   3.573   6.918   2.810
 6947SOL    HW121740   3.654   6.860   2.820
 6947SOL    HW221741   3.525   6.923   2.898
 6948SOL     OW21742   3.985   1.664   5.152
 6948SOL    HW121743   3.919   1.605   5.106
 6948SOL    HW221744   4.011   1.738   5.090
 6949SOL     OW21745   5.236   0.582   2.553
 6949SOL    HW121746   5.183   0.564   2.470
 6949SOL    HW221747   5.322   0.531   2.549
 6950SOL     OW21748   1.793   0.846   3.415
 6950SOL    HW121749   1.751   0.855   3.505
 6950SOL    HW221750   1.766   0.759   3.374
 6951SOL     OW21751   6.047   5.227   5.809
 6951SOL    HW121752   6.059   5.133   5.778
 6951SOL    HW221753   5.952   5.255   5.794
 6952SOL     OW21754   0.591   4.728   4.652
 6952SOL    HW121755   0.615   4.808   4.706
 6952SOL    HW221756   0.493   4.729   4.633
 6953SOL     OW21757   5.236   1.621   4.787
 6953SOL    HW121758   5.187   1.554   4.732
 6953SOL    HW221759   5.289   1.681   4.728
 6954SOL     OW21760   0.878   4.107   3.110
 6954SOL    HW121761   0.845   4.167   3.183
 6954SOL    HW221762   0.834   4.017   3.117
 6955SOL     OW21763   6.514   5.565   2.527
 6955SOL    HW121764   6.448   5.602   2.593
 6955SOL    HW221765   6.484   5.474   2.498
 6956SOL     OW21766   3.405   4.753   1.704
 6956SOL    HW121767   3.499   4.739   1.736
 6956SOL    HW221768   3.345   4.770   1.783
 6957SOL     OW21769   0.704   4.274   0.504
 6957SOL    HW121770   0.763   4.311   0.432
 6957SOL    HW221771   0.626   4.227   0.463
 6958SOL     OW21772   2.490   3.782   6.268
 6958SOL    HW121773   2.432   3.849   6.315
 6958SOL    HW221774   2.557   3.831   6.211
 6959SOL     OW21775   3.160   1.184   4.407
 6959SOL    HW121776   3.094   1.255   4.384
 6959SOL    HW221777   3.211   1.210   4.489
 6960SOL     OW21778   0.127   4.895   0.024
 6960SOL    HW121779   0.045   4.869   6.997
 6960SOL    HW221780   0.183   4.956   6.988
 6961SOL     OW21781   6.893   1.403   2.916
 6961SOL    HW121782   6.939   1.337   2.975
 6961SOL    HW221783   6.794   1.388   2.921
 6962SOL     OW21784   4.479   3.757   0.414
 6962SOL    HW121785   4.412   3.751   0.487
 6962SOL    HW221786   4.439   3.722   0.329
 6963SOL     OW21787   6.450   5.673   1.999
 6963SOL    HW121788   6.490   5.763   1.984
 6963SOL    HW221789   6.359   5.684   2.040
 6964SOL     OW21790   4.010   6.435   5.261
 6964SOL    HW121791   3.971   6.408   5.349
 6964SOL    HW221792   4.091   6.379   5.241
 6965SOL     OW21793   6.511   2.766   6.337
 6965SOL    HW121794   6.479   2.842   6.394
 6965SOL    HW221795   6.575   2.710   6.389
 6966SOL     OW21796   4.644   2.612   3.954
 6966SOL    HW121797   4.615   2.518   3.974
 6966SOL    HW221798   4.623   2.634   3.859
 6967SOL     OW21799   2.096   0.831   6.190
 6967SOL    HW121800   2.171   0.765   6.203
 6967SOL    HW221801   2.127   0.906   6.131
 6968SOL     OW21802   5.001   6.995   2.173
 6968SOL    HW121803   4.955   6.918   2.129
 6968SOL    HW221804   5.044   6.964   2.258
 6969SOL     OW21805   3.443   1.734   1.255
 6969SOL    HW121806   3.492   1.771   1.176
 6969SOL    HW221807   3.492   1.758   1.338
 6970SOL     OW21808   4.958   3.705   0.527
 6970SOL    HW121809   4.867   3.667   0.516
 6970SOL    HW221810   4.951   3.802   0.550
 6971SOL     OW21811   5.358   0.699   2.119
 6971SOL    HW121812   5.421   0.642   2.067
 6971SOL    HW221813   5.399   0.789   2.136
 6972SOL     OW21814   5.527   4.645   4.581
 6972SOL    HW121815   5.443   4.635   4.528
 6972SOL    HW221816   5.594   4.697   4.527
 6973SOL     OW21817   2.023   4.954   3.716
 6973SOL    HW121818   2.114   4.915   3.703
 6973SOL    HW221819   2.025   5.017   3.793
 6974SOL     OW21820   3.533   3.820   4.955
 6974SOL    HW121821   3.570   3.842   4.865
 6974SOL    HW221822   3.445   3.773   4.945
 6975SOL     OW21823   3.987   1.694   5.826
 6975SOL    HW121824   3.904   1.649   5.793
 6975SOL    HW221825   3.970   1.732   5.917
 6976SOL     OW21826   2.348   5.211   6.574
 6976SOL    HW121827   2.342   5.183   6.478
 6976SOL    HW221828   2.417   5.155   6.620
 6977SOL     OW21829   3.768   2.146   3.159
 6977SOL    HW121830   3.854   2.192   3.135
 6977SOL    HW221831   3.709   2.208   3.209
 6978SOL     OW21832   6.322   0.487   3.295
 6978SOL    HW121833   6.389   0.449   3.358
 6978SOL    HW221834   6.270   0.559   3.342
 6979SOL     OW21835   0.595   4.516   2.759
 6979SOL    HW121836   0.595   4.502   2.660
 6979SOL    HW221837   0.641   4.602   2.780
 6980SOL     OW21838   3.160   1.093   4.830
 6980SOL    HW121839   3.216   1.137   4.760
 6980SOL    HW221840   3.067   1.132   4.827
 6981SOL     OW21841   3.019   5.009   6.706
 6981SOL    HW121842   3.089   4.937   6.707
 6981SOL    HW221843   2.928   4.967   6.700
 6982SOL     OW21844   0.245   7.000   4.744
 6982SOL    HW121845   0.178   0.027   4.689
 6982SOL    HW221846   0.243   6.903   4.720
 6983SOL     OW21847   6.294   0.684   3.962
 6983SOL    HW121848   6.214   0.624   3.952
 6983SOL    HW221849   6.352   0.649   4.036
 6984SOL     OW21850   1.831   1.185   6.191
 6984SOL    HW121851   1.738   1.210   6.166
 6984SOL    HW221852   1.887   1.175   6.108
 6985SOL     OW21853   5.400   5.962   1.538
 6985SOL    HW121854   5.433   5.920   1.453
 6985SOL    HW221855   5.427   5.905   1.616
 6986SOL     OW21856   1.947   0.032   4.843
 6986SOL    HW121857   2.030   7.003   4.819
 6986SOL    HW221858   1.954   0.064   4.937
 6987SOL     OW21859   0.412   3.420   6.405
 6987SOL    HW121860   0.342   3.452   6.342
 6987SOL    HW221861   0.386   3.331   6.442
 6988SOL     OW21862   5.107   0.748   4.107
 6988SOL    HW121863   5.110   0.811   4.029
 6988SOL    HW221864   5.069   0.795   4.186
 6989SOL     OW21865   1.799   2.595   4.014
 6989SOL    HW121866   1.720   2.633   4.062
 6989SOL    HW221867   1.876   2.658   4.022
 6990SOL     OW21868   3.904   3.189   0.346
 6990SOL    HW121869   3.821   3.244   0.351
 6990SOL    HW221870   3.970   3.222   0.414
 6991SOL     OW21871   3.972   4.565   5.430
 6991SOL    HW121872   3.995   4.469   5.409
 6991SOL    HW221873   3.906   4.567   5.504
 6992SOL     OW21874   5.185   6.772   5.067
 6992SOL    HW121875   5.139   6.704   5.124
 6992SOL    HW221876   5.159   6.760   4.972
 6993SOL     OW21877   0.258   0.375   3.073
 6993SOL    HW121878   0.162   0.382   3.102
 6993SOL    HW221879   0.262   0.349   2.976
 6994SOL     OW21880   1.511   2.412   0.252
 6994SOL    HW121881   1.532   2.507   0.277
 6994SOL    HW221882   1.578   2.380   0.185
 6995SOL     OW21883   0.380   5.756   2.932
 6995SOL    HW121884   0.352   5.738   2.838
 6995SOL    HW221885   0.480   5.757   2.938
 6996SOL     OW21886   2.309   6.890   6.071
 6996SOL    HW121887   2.281   6.841   5.989
 6996SOL    HW221888   2.253   6.972   6.083
 6997SOL     OW21889   4.516   0.403   4.650
 6997SOL    HW121890   4.508   0.502   4.660
 6997SOL    HW221891   4.497   0.359   4.738
 6998SOL     OW21892   1.377   2.913   3.248
 6998SOL    HW121893   1.412   2.826   3.213
 6998SOL    HW221894   1.434   2.944   3.325
 6999SOL     OW21895   3.433   2.169   6.362
 6999SOL    HW121896   3.459   2.229   6.286
 6999SOL    HW221897   3.500   2.175   6.435
 7000SOL     OW21898   0.103   6.465   1.509
 7000SOL    HW121899   0.008   6.437   1.524
 7000SOL    HW221900   0.133   6.520   1.586
 7001SOL     OW21901   2.689   2.381   5.783
 7001SOL    HW121902   2.777   2.362   5.740
 7001SOL    HW221903   2.698   2.373   5.882
 7002SOL     OW21904   1.599   4.761   3.270
 7002SOL    HW121905   1.551   4.772   3.357
 7002SOL    HW221906   1.572   4.674   3.228
 7003SOL     OW21907   2.862   6.001   0.690
 7003SOL    HW121908   2.767   5.999   0.721
 7003SOL    HW221909   2.901   6.091   0.708
 7004SOL     OW21910   1.104   4.615   1.329
 7004SOL    HW121911   1.021   4.661   1.297
 7004SOL    HW221912   1.184   4.672   1.310
 7005SOL     OW21913   5.296   6.975   5.462
 7005SOL    HW121914   5.245   0.039   5.455
 7005SOL    HW221915   5.361   6.982   5.537
 7006SOL     OW21916   4.328   4.726   4.781
 7006SOL    HW121917   4.325   4.684   4.871
 7006SOL    HW221918   4.368   4.661   4.716
 7007SOL     OW21919   4.900   5.059   2.793
 7007SOL    HW121920   4.854   5.020   2.873
 7007SOL    HW221921   4.856   5.144   2.767
 7008SOL     OW21922   0.504   4.915   4.303
 7008SOL    HW121923   0.582   4.948   4.251
 7008SOL    HW221924   0.503   4.815   4.302
 7009SOL     OW21925   0.391   4.874   2.436
 7009SOL    HW121926   0.324   4.815   2.482
 7009SOL    HW221927   0.347   4.924   2.362
 7010SOL     OW21928   4.074   4.714   6.262
 7010SOL    HW121929   4.135   4.789   6.234
 7010SOL    HW221930   4.005   4.750   6.324
 7011SOL     OW21931   2.389   1.492   5.074
 7011SOL    HW121932   2.405   1.398   5.046
 7011SOL    HW221933   2.471   1.546   5.058
 7012SOL     OW21934   1.206   0.851   2.147
 7012SOL    HW121935   1.119   0.852   2.195
 7012SOL    HW221936   1.278   0.819   2.209
 7013SOL     OW21937   1.245   0.503   2.256
 7013SOL    HW121938   1.251   0.414   2.301
 7013SOL    HW221939   1.150   0.525   2.236
 7014SOL     OW21940   2.754   4.913   1.562
 7014SOL    HW121941   2.737   4.852   1.640
 7014SOL    HW221942   2.669   4.928   1.512
 7015SOL     OW21943   4.800   2.706   2.344
 7015SOL    HW121944   4.860   2.671   2.417
 7015SOL    HW221945   4.797   2.806   2.349
 7016SOL     OW21946   3.440   5.382   1.212
 7016SOL    HW121947   3.379   5.429   1.275
 7016SOL    HW221948   3.483   5.448   1.151
 7017SOL     OW21949   3.884   1.150   4.071
 7017SOL    HW121950   3.896   1.104   4.159
 7017SOL    HW221951   3.801   1.206   4.074
 7018SOL     OW21952   0.592   5.372   4.127
 7018SOL    HW121953   0.536   5.370   4.044
 7018SOL    HW221954   0.532   5.362   4.207
 7019SOL     OW21955   2.302   6.121   6.989
 7019SOL    HW121956   2.307   6.130   0.067
 7019SOL    HW221957   2.315   6.025   6.964
 7020SOL     OW21958   6.374   6.566   6.174
 7020SOL    HW121959   6.289   6.517   6.152
 7020SOL    HW221960   6.354   6.641   6.236
 7021SOL     OW21961   2.935   1.364   5.743
 7021SOL    HW121962   2.987   1.290   5.700
 7021SOL    HW221963   2.908   1.430   5.673
 7022SOL     OW21964   5.208   4.970   6.908
 7022SOL    HW121965   5.127   5.009   6.864
 7022SOL    HW221966   5.239   5.031   6.981
 7023SOL     OW21967   6.148   4.154   2.772
 7023SOL    HW121968   6.206   4.204   2.837
 7023SOL    HW221969   6.052   4.179   2.788
 7024SOL     OW21970   7.005   6.174   0.324
 7024SOL    HW121971   7.007   6.269   0.293
 7024SOL    HW221972   0.076   6.137   0.328
 7025SOL     OW21973   2.367   1.010   5.756
 7025SOL    HW121974   2.285   1.037   5.705
 7025SOL    HW221975   2.444   1.000   5.693
 7026SOL     OW21976   3.981   2.637   0.903
 7026SOL    HW121977   4.001   2.546   0.941
 7026SOL    HW221978   4.005   2.706   0.971
 7027SOL     OW21979   4.400   6.848   4.572
 7027SOL    HW121980   4.382   6.908   4.651
 7027SOL    HW221981   4.332   6.865   4.501
 7028SOL     OW21982   3.790   0.272   4.736
 7028SOL    HW121983   3.813   0.335   4.662
 7028SOL    HW221984   3.727   0.203   4.703
 7029SOL     OW21985   3.283   0.909   5.534
 7029SOL    HW121986   3.320   0.848   5.604
 7029SOL    HW221987   3.194   0.877   5.504
 7030SOL     OW21988   1.595   4.166   4.777
 7030SOL    HW121989   1.693   4.183   4.789
 7030SOL    HW221990   1.583   4.085   4.719
 7031SOL     OW21991   2.296   6.116   4.411
 7031SOL    HW121992   2.388   6.080   4.395
 7031SOL    HW221993   2.274   6.185   4.342
 7032SOL     OW21994   6.157   1.405   2.376
 7032SOL    HW121995   6.239   1.452   2.344
 7032SOL    HW221996   6.076   1.461   2.356
 7033SOL     OW21997   6.658   0.652   3.982
 7033SOL    HW121998   6.713   0.574   3.952
 7033SOL    HW221999   6.645   0.715   3.905
 7034SOL     OW22000   6.361   6.174   3.222
 7034SOL    HW122001   6.296   6.122   3.166
 7034SOL    HW222002   6.332   6.172   3.317
 7035SOL     OW22003   6.654   5.492   1.580
 7035SOL    HW122004   6.735   5.513   1.634
 7035SOL    HW222005   6.662   5.535   1.490
 7036SOL     OW22006   6.461   4.435   1.521
 7036SOL    HW122007   6.362   4.438   1.531
 7036SOL    HW222008   6.501   4.373   1.589
 7037SOL     OW22009   1.296   6.777   6.281
 7037SOL    HW122010   1.304   6.877   6.289
 7037SOL    HW222011   1.331   6.748   6.193
 7038SOL     OW22012   1.544   4.599   4.035
 7038SOL    HW122013   1.457   4.586   4.084
 7038SOL    HW222014   1.529   4.589   3.937
 7039SOL     OW22015   4.105   1.321   7.006
 7039SOL    HW122016   4.082   1.287   6.915
 7039SOL    HW222017   4.179   1.266   0.023
 7040SOL     OW22018   4.454   2.803   6.149
 7040SOL    HW122019   4.387   2.743   6.192
 7040SOL    HW222020   4.534   2.813   6.208
 7041SOL     OW22021   2.636   1.998   2.296
 7041SOL    HW122022   2.720   2.011   2.348
 7041SOL    HW222023   2.649   2.032   2.203
 7042SOL     OW22024   2.433   0.300   6.414
 7042SOL    HW122025   2.520   0.304   6.463
 7042SOL    HW222026   2.382   0.219   6.441
 7043SOL     OW22027   1.762   1.958   2.866
 7043SOL    HW122028   1.678   1.939   2.814
 7043SOL    HW222029   1.738   1.981   2.960
 7044SOL     OW22030   4.990   6.005   2.458
 7044SOL    HW122031   4.970   6.034   2.552
 7044SOL    HW222032   5.072   6.053   2.426
 7045SOL     OW22033   5.437   5.649   1.087
 7045SOL    HW122034   5.369   5.579   1.066
 7045SOL    HW222035   5.393   5.739   1.090
 7046SOL     OW22036   2.718   0.929   4.883
 7046SOL    HW122037   2.642   0.912   4.820
 7046SOL    HW222038   2.735   1.027   4.889
 7047SOL     OW22039   1.787   1.315   4.019
 7047SOL    HW122040   1.823   1.379   4.087
 7047SOL    HW222041   1.824   1.224   4.035
 7048SOL     OW22042   6.463   6.556   0.190
 7048SOL    HW122043   6.494   6.611   0.268
 7048SOL    HW222044   6.515   6.582   0.108
 7049SOL     OW22045   2.498   1.141   0.850
 7049SOL    HW122046   2.448   1.129   0.935
 7049SOL    HW222047   2.574   1.076   0.847
 7050SOL     OW22048   3.825   4.136   4.955
 7050SOL    HW122049   3.825   4.170   5.049
 7050SOL    HW222050   3.730   4.121   4.925
 7051SOL     OW22051   6.510   6.746   2.548
 7051SOL    HW122052   6.499   6.799   2.632
 7051SOL    HW222053   6.587   6.683   2.558
 7052SOL     OW22054   6.380   2.536   3.382
 7052SOL    HW122055   6.471   2.574   3.398
 7052SOL    HW222056   6.311   2.605   3.403
 7053SOL     OW22057   0.259   4.886   6.606
 7053SOL    HW122058   0.215   4.796   6.606
 7053SOL    HW222059   0.280   4.912   6.701
 7054SOL     OW22060   6.854   6.794   1.859
 7054SOL    HW122061   6.764   6.828   1.887
 7054SOL    HW222062   6.920   6.870   1.861
 7055SOL     OW22063   3.785   6.917   5.120
 7055SOL    HW122064   3.813   7.012   5.108
 7055SOL    HW222065   3.851   6.870   5.180
 7056SOL     OW22066   4.724   4.848   3.573
 7056SOL    HW122067   4.792   4.820   3.505
 7056SOL    HW222068   4.732   4.790   3.654
 7057SOL     OW22069   0.749   6.088   3.413
 7057SOL    HW122070   0.830   6.070   3.356
 7057SOL    HW222071   0.678   6.022   3.390
 7058SOL     OW22072   0.597   5.451   5.465
 7058SOL    HW122073   0.539   5.451   5.383
 7058SOL    HW222074   0.682   5.500   5.445
 7059SOL     OW22075   1.754   0.544   2.729
 7059SOL    HW122076   1.799   0.620   2.777
 7059SOL    HW222077   1.766   0.460   2.783
 7060SOL     OW22078   3.003   6.669   1.427
 7060SOL    HW122079   3.060   6.600   1.471
 7060SOL    HW222080   3.053   6.711   1.352
 7061SOL     OW22081   0.356   0.998   2.469
 7061SOL    HW122082   0.414   0.963   2.542
 7061SOL    HW222083   0.328   1.092   2.490
 7062SOL     OW22084   5.640   2.085   4.938
 7062SOL    HW122085   5.585   2.127   4.865
 7062SOL    HW222086   5.694   2.156   4.983
 7063SOL     OW22087   3.310   6.320   1.173
 7063SOL    HW122088   3.287   6.230   1.209
 7063SOL    HW222089   3.233   6.382   1.187
 7064SOL     OW22090   3.995   2.613   0.154
 7064SOL    HW122091   3.931   2.667   0.208
 7064SOL    HW222092   4.086   2.617   0.197
 7065SOL     OW22093   4.455   3.473   1.248
 7065SOL    HW122094   4.381   3.408   1.265
 7065SOL    HW222095   4.458   3.495   1.150
 7066SOL     OW22096   3.619   6.350   0.425
 7066SOL    HW122097   3.641   6.253   0.433
 7066SOL    HW222098   3.565   6.378   0.505
 7067SOL     OW22099   0.221   3.916   5.196
 7067SOL    HW122100   0.141   3.868   5.158
 7067SOL    HW222101   0.216   4.013   5.171
 7068SOL     OW22102   1.250   0.340   3.344
 7068SOL    HW122103   1.314   0.272   3.380
 7068SOL    HW222104   1.175   0.293   3.297
 7069SOL     OW22105   1.394   4.546   5.212
 7069SOL    HW122106   1.464   4.503   5.269
 7069SOL    HW222107   1.309   4.495   5.220
 7070SOL     OW22108   6.299   5.098   4.564
 7070SOL    HW122109   6.219   5.142   4.605
 7070SOL    HW222110   6.296   5.000   4.582
 7071SOL     OW22111   1.184   6.235   5.567
 7071SOL    HW122112   1.176   6.233   5.467
 7071SOL    HW222113   1.261   6.178   5.596
 7072SOL     OW22114   0.156   6.498   6.066
 7072SOL    HW122115   0.252   6.523   6.056
 7072SOL    HW222116   0.102   6.580   6.086
 7073SOL     OW22117   0.702   0.811   5.589
 7073SOL    HW122118   0.708   0.907   5.616
 7073SOL    HW222119   0.608   0.779   5.602
 7074SOL     OW22120   3.619   2.370   1.436
 7074SOL    HW122121   3.526   2.389   1.405
 7074SOL    HW222122   3.623   2.376   1.536
 7075SOL     OW22123   1.636   5.616   3.078
 7075SOL    HW122124   1.604   5.663   2.995
 7075SOL    HW222125   1.565   5.555   3.111
 7076SOL     OW22126   2.602   2.341   6.704
 7076SOL    HW122127   2.588   2.243   6.711
 7076SOL    HW222128   2.538   2.389   6.764
 7077SOL     OW22129   2.140   5.550   5.591
 7077SOL    HW122130   2.119   5.600   5.507
 7077SOL    HW222131   2.235   5.519   5.589
 7078SOL     OW22132   5.727   0.753   3.485
 7078SOL    HW122133   5.660   0.740   3.412
 7078SOL    HW222134   5.743   0.666   3.532
 7079SOL     OW22135   6.134   6.117   5.637
 7079SOL    HW122136   6.126   6.131   5.538
 7079SOL    HW222137   6.114   6.202   5.684
 7080SOL     OW22138   4.670   0.150   4.074
 7080SOL    HW122139   4.756   0.199   4.081
 7080SOL    HW222140   4.652   0.128   3.978
 7081SOL     OW22141   3.614   1.129   4.490
 7081SOL    HW122142   3.637   1.226   4.500
 7081SOL    HW222143   3.696   1.078   4.465
 7082SOL     OW22144   5.186   0.357   6.177
 7082SOL    HW122145   5.142   0.360   6.266
 7082SOL    HW222146   5.189   0.449   6.137
 7083SOL     OW22147   3.430   0.249   6.017
 7083SOL    HW122148   3.380   0.164   6.031
 7083SOL    HW222149   3.471   0.278   6.103
 7084SOL     OW22150   6.806   6.455   6.149
 7084SOL    HW122151   6.718   6.414   6.175
 7084SOL    HW222152   6.865   6.461   6.229
 7085SOL     OW22153   2.566   2.261   1.276
 7085SOL    HW122154   2.585   2.239   1.180
 7085SOL    HW222155   2.650   2.290   1.321
 7086SOL     OW22156   5.963   0.516   6.286
 7086SOL    HW122157   5.979   0.615   6.284
 7086SOL    HW222158   6.037   0.470   6.335
 7087SOL     OW22159   1.551   3.211   4.211
 7087SOL    HW122160   1.513   3.172   4.127
 7087SOL    HW222161   1.651   3.210   4.207
 7088SOL     OW22162   6.180   2.495   5.738
 7088SOL    HW122163   6.193   2.460   5.830
 7088SOL    HW222164   6.268   2.502   5.692
 7089SOL     OW22165   2.672   1.405   0.139
 7089SOL    HW122166   2.639   1.329   0.082
 7089SOL    HW222167   2.642   1.391   0.233
 7090SOL     OW22168   2.575   1.993   4.681
 7090SOL    HW122169   2.496   2.014   4.624
 7090SOL    HW222170   2.544   1.977   4.775
 7091SOL     OW22171   0.039   5.955   6.867
 7091SOL    HW122172   0.128   5.926   6.831
 7091SOL    HW222173   0.029   6.054   6.855
 7092SOL     OW22174   3.705   3.865   0.496
 7092SOL    HW122175   3.618   3.905   0.469
 7092SOL    HW222176   3.690   3.773   0.532
 7093SOL     OW22177   3.254   3.420   4.637
 7093SOL    HW122178   3.345   3.383   4.620
 7093SOL    HW222179   3.245   3.508   4.591
 7094SOL     OW22180   0.545   0.514   5.664
 7094SOL    HW122181   0.453   0.529   5.629
 7094SOL    HW222182   0.596   0.457   5.600
 7095SOL     OW22183   0.825   2.902   6.658
 7095SOL    HW122184   0.877   2.981   6.690
 7095SOL    HW222185   0.837   2.891   6.560
 7096SOL     OW22186   4.658   1.633   2.893
 7096SOL    HW122187   4.726   1.588   2.836
 7096SOL    HW222188   4.669   1.603   2.988
 7097SOL     OW22189   0.684   0.577   1.912
 7097SOL    HW122190   0.586   0.571   1.890
 7097SOL    HW222191   0.732   0.503   1.865
 7098SOL     OW22192   1.385   6.524   5.885
 7098SOL    HW122193   1.441   6.533   5.802
 7098SOL    HW222194   1.386   6.610   5.936
 7099SOL     OW22195   0.418   0.739   6.294
 7099SOL    HW122196   0.440   0.827   6.252
 7099SOL    HW222197   0.457   0.735   6.386
 7100SOL     OW22198   5.745   3.057   1.307
 7100SOL    HW122199   5.691   3.040   1.225
 7100SOL    HW222200   5.736   3.154   1.333
 7101SOL     OW22201   2.432   6.996   5.150
 7101SOL    HW122202   2.411   6.925   5.217
 7101SOL    HW222203   2.493   6.959   5.080
 7102SOL     OW22204   4.695   2.231   0.782
 7102SOL    HW122205   4.725   2.319   0.819
 7102SOL    HW222206   4.596   2.234   0.766
 7103SOL     OW22207   3.904   6.792   6.698
 7103SOL    HW122208   3.854   6.878   6.697
 7103SOL    HW222209   3.869   6.732   6.626
 7104SOL     OW22210   1.225   2.539   2.995
 7104SOL    HW122211   1.283   2.472   2.948
 7104SOL    HW222212   1.261   2.631   2.980
 7105SOL     OW22213   3.190   3.756   4.886
 7105SOL    HW122214   3.093   3.780   4.894
 7105SOL    HW222215   3.229   3.801   4.807
 7106SOL     OW22216   3.269   2.846   5.409
 7106SOL    HW122217   3.274   2.916   5.337
 7106SOL    HW222218   3.350   2.787   5.404
 7107SOL     OW22219   2.763   1.800   0.437
 7107SOL    HW122220   2.773   1.754   0.525
 7107SOL    HW222221   2.848   1.790   0.384
 7108SOL     OW22222   4.671   0.407   1.543
 7108SOL    HW122223   4.707   0.407   1.450
 7108SOL    HW222224   4.725   0.345   1.600
 7109SOL     OW22225   3.905   6.599   6.394
 7109SOL    HW122226   3.821   6.602   6.447
 7109SOL    HW222227   3.919   6.687   6.349
 7110SOL     OW22228   4.377   5.093   3.318
 7110SOL    HW122229   4.403   5.135   3.231
 7110SOL    HW222230   4.291   5.043   3.305
 7111SOL     OW22231   2.149   3.391   4.373
 7111SOL    HW122232   2.053   3.367   4.380
 7111SOL    HW222233   2.163   3.485   4.403
 7112SOL     OW22234   1.127   6.457   3.578
 7112SOL    HW122235   1.159   6.516   3.651
 7112SOL    HW222236   1.028   6.468   3.567
 7113SOL     OW22237   4.130   3.526   4.474
 7113SOL    HW122238   4.098   3.620   4.485
 7113SOL    HW222239   4.202   3.523   4.404
 7114SOL     OW22240   3.633   1.167   0.719
 7114SOL    HW122241   3.541   1.129   0.721
 7114SOL    HW222242   3.697   1.098   0.684
 7115SOL     OW22243   4.767   1.514   1.012
 7115SOL    HW122244   4.720   1.600   0.989
 7115SOL    HW222245   4.719   1.469   1.087
 7116SOL     OW22246   5.473   4.224   3.039
 7116SOL    HW122247   5.493   4.317   3.007
 7116SOL    HW222248   5.499   4.216   3.135
 7117SOL     OW22249   5.865   6.547   1.460
 7117SOL    HW122250   5.806   6.519   1.384
 7117SOL    HW222251   5.930   6.474   1.480
 7118SOL     OW22252   6.612   3.148   0.818
 7118SOL    HW122253   6.602   3.166   0.916
 7118SOL    HW222254   6.660   3.225   0.775
 7119SOL     OW22255   6.641   2.137   3.564
 7119SOL    HW122256   6.732   2.103   3.541
 7119SOL    HW222257   6.589   2.064   3.609
 7120SOL     OW22258   4.973   0.547   3.057
 7120SOL    HW122259   4.974   0.577   3.152
 7120SOL    HW222260   5.064   0.555   3.018
 7121SOL     OW22261   3.597   6.585   2.702
 7121SOL    HW122262   3.590   6.605   2.604
 7121SOL    HW222263   3.661   6.650   2.744
 7122SOL     OW22264   5.854   0.855   6.865
 7122SOL    HW122265   5.849   0.756   6.878
 7122SOL    HW222266   5.934   0.891   6.912
 7123SOL     OW22267   2.323   5.337   1.319
 7123SOL    HW122268   2.330   5.311   1.222
 7123SOL    HW222269   2.403   5.391   1.344
 7124SOL     OW22270   0.396   4.884   0.445
 7124SOL    HW122271   0.425   4.796   0.483
 7124SOL    HW222272   0.477   4.938   0.420
 7125SOL     OW22273   6.017   6.482   2.930
 7125SOL    HW122274   6.056   6.523   3.013
 7125SOL    HW222275   6.072   6.403   2.904
 7126SOL     OW22276   1.428   4.297   0.307
 7126SOL    HW122277   1.367   4.326   0.381
 7126SOL    HW222278   1.523   4.310   0.335
 7127SOL     OW22279   3.561   6.563   4.652
 7127SOL    HW122280   3.610   6.503   4.716
 7127SOL    HW222281   3.498   6.622   4.702
 7128SOL     OW22282   2.932   4.073   1.054
 7128SOL    HW122283   2.887   4.011   0.990
 7128SOL    HW222284   2.963   4.155   1.005
 7129SOL     OW22285   2.729   0.174   1.422
 7129SOL    HW122286   2.770   0.090   1.457
 7129SOL    HW222287   2.657   0.152   1.357
 7130SOL     OW22288   2.237   4.637   3.212
 7130SOL    HW122289   2.206   4.726   3.178
 7130SOL    HW222290   2.256   4.576   3.135
 7131SOL     OW22291   2.523   0.783   3.215
 7131SOL    HW122292   2.615   0.759   3.184
 7131SOL    HW222293   2.484   0.851   3.154
 7132SOL     OW22294   3.191   4.058   3.151
 7132SOL    HW122295   3.101   4.033   3.115
 7132SOL    HW222296   3.189   4.055   3.251
 7133SOL     OW22297   5.322   5.048   3.044
 7133SOL    HW122298   5.242   5.042   3.103
 7133SOL    HW222299   5.293   5.045   2.948
 7134SOL     OW22300   5.398   4.025   4.224
 7134SOL    HW122301   5.323   4.046   4.287
 7134SOL    HW222302   5.453   4.108   4.209
 7135SOL     OW22303   0.884   2.357   4.847
 7135SOL    HW122304   0.815   2.429   4.854
 7135SOL    HW222305   0.975   2.398   4.853
 7136SOL     OW22306   2.169   1.625   7.004
 7136SOL    HW122307   2.091   1.564   7.016
 7136SOL    HW222308   2.254   1.575   7.021
 7137SOL     OW22309   4.040   0.606   4.382
 7137SOL    HW122310   4.006   0.682   4.438
 7137SOL    HW222311   4.049   0.636   4.287
 7138SOL     OW22312   2.071   4.283   0.870
 7138SOL    HW122313   2.045   4.379   0.868
 7138SOL    HW222314   2.108   4.256   0.781
 7139SOL     OW22315   3.678   2.219   1.222
 7139SOL    HW122316   3.640   2.279   1.292
 7139SOL    HW222317   3.740   2.153   1.266
 7140SOL     OW22318   6.261   3.712   5.202
 7140SOL    HW122319   6.269   3.694   5.300
 7140SOL    HW222320   6.347   3.689   5.156
 7141SOL     OW22321   2.746   6.682   0.393
 7141SOL    HW122322   2.820   6.714   0.452
 7141SOL    HW222323   2.760   6.716   0.300
 7142SOL     OW22324   3.942   5.636   4.195
 7142SOL    HW122325   4.030   5.679   4.175
 7142SOL    HW222326   3.870   5.705   4.197
 7143SOL     OW22327   2.000   3.678   4.972
 7143SOL    HW122328   2.017   3.582   4.994
 7143SOL    HW222329   2.064   3.735   5.023
 7144SOL     OW22330   0.771   2.586   3.746
 7144SOL    HW122331   0.706   2.646   3.792
 7144SOL    HW222332   0.721   2.515   3.696
 7145SOL     OW22333   4.513   0.096   0.163
 7145SOL    HW122334   4.495   0.031   0.236
 7145SOL    HW222335   4.426   0.125   0.121
 7146SOL     OW22336   3.134   5.349   0.448
 7146SOL    HW122337   3.076   5.316   0.522
 7146SOL    HW222338   3.179   5.271   0.404
 7147SOL     OW22339   0.291   0.711   3.455
 7147SOL    HW122340   0.302   0.615   3.427
 7147SOL    HW222341   0.335   0.726   3.543
 7148SOL     OW22342   1.235   0.682   1.667
 7148SOL    HW122343   1.206   0.770   1.629
 7148SOL    HW222344   1.199   0.672   1.760
 7149SOL     OW22345   6.156   1.686   3.382
 7149SOL    HW122346   6.211   1.654   3.305
 7149SOL    HW222347   6.210   1.750   3.437
 7150SOL     OW22348   6.484   3.070   0.086
 7150SOL    HW122349   6.535   3.104   0.165
 7150SOL    HW222350   6.526   2.985   0.054
 7151SOL     OW22351   2.611   6.139   1.847
 7151SOL    HW122352   2.676   6.065   1.831
 7151SOL    HW222353   2.582   6.178   1.759
 7152SOL     OW22354   1.476   2.613   3.945
 7152SOL    HW122355   1.496   2.539   3.881
 7152SOL    HW222356   1.378   2.613   3.966
 7153SOL     OW22357   3.599   1.431   3.834
 7153SOL    HW122358   3.662   1.447   3.910
 7153SOL    HW222359   3.609   1.337   3.802
 7154SOL     OW22360   4.977   5.808   4.125
 7154SOL    HW122361   5.068   5.771   4.143
 7154SOL    HW222362   4.914   5.776   4.196
 7155SOL     OW22363   2.839   7.005   1.120
 7155SOL    HW122364   2.905   0.027   1.181
 7155SOL    HW222365   2.759   6.978   1.173
 7156SOL     OW22366   0.148   5.780   4.913
 7156SOL    HW122367   0.068   5.773   4.854
 7156SOL    HW222368   0.170   5.876   4.929
 7157SOL     OW22369   4.588   4.600   1.300
 7157SOL    HW122370   4.574   4.608   1.201
 7157SOL    HW222371   4.548   4.515   1.333
 7158SOL     OW22372   6.346   6.864   3.896
 7158SOL    HW122373   6.281   6.799   3.936
 7158SOL    HW222374   6.356   6.943   3.957
 7159SOL     OW22375   0.980   5.156   0.243
 7159SOL    HW122376   1.051   5.093   0.272
 7159SOL    HW222377   1.003   5.249   0.274
 7160SOL     OW22378   5.602   0.362   1.859
 7160SOL    HW122379   5.510   0.323   1.867
 7160SOL    HW222380   5.600   0.457   1.892
 7161SOL     OW22381   3.366   3.255   3.880
 7161SOL    HW122382   3.361   3.309   3.796
 7161SOL    HW222383   3.309   3.173   3.870
 7162SOL     OW22384   3.473   5.046   3.284
 7162SOL    HW122385   3.501   5.007   3.372
 7162SOL    HW222386   3.515   4.994   3.209
 7163SOL     OW22387   2.515   0.495   3.076
 7163SOL    HW122388   2.538   0.487   2.979
 7163SOL    HW222389   2.584   0.549   3.123
 7164SOL     OW22390   2.322   1.124   3.125
 7164SOL    HW122391   2.289   1.127   3.031
 7164SOL    HW222392   2.264   1.062   3.179
 7165SOL     OW22393   5.096   1.292   1.043
 7165SOL    HW122394   5.065   1.371   1.096
 7165SOL    HW222395   5.018   1.235   1.018
 7166SOL     OW22396   4.834   4.692   1.334
 7166SOL    HW122397   4.739   4.715   1.353
 7166SOL    HW222398   4.872   4.641   1.411
 7167SOL     OW22399   4.825   2.961   4.975
 7167SOL    HW122400   4.859   3.055   4.980
 7167SOL    HW222401   4.762   2.944   5.051
 7168SOL     OW22402   1.155   0.530   3.547
 7168SOL    HW122403   1.189   0.452   3.494
 7168SOL    HW222404   1.156   0.507   3.644
 7169SOL     OW22405   1.706   2.338   5.378
 7169SOL    HW122406   1.669   2.393   5.453
 7169SOL    HW222407   1.693   2.241   5.400
 7170SOL     OW22408   6.504   4.703   4.296
 7170SOL    HW122409   6.450   4.621   4.315
 7170SOL    HW222410   6.587   4.678   4.247
 7171SOL     OW22411   4.115   3.272   5.397
 7171SOL    HW122412   4.126   3.317   5.485
 7171SOL    HW222413   4.102   3.341   5.326
 7172SOL     OW22414   1.456   6.996   0.377
 7172SOL    HW122415   1.499   0.061   0.399
 7172SOL    HW222416   1.382   6.978   0.442
 7173SOL     OW22417   6.783   5.825   6.013
 7173SOL    HW122418   6.717   5.836   5.939
 7173SOL    HW222419   6.786   5.729   6.041
 7174SOL     OW22420   1.478   5.215   0.467
 7174SOL    HW122421   1.408   5.143   0.465
 7174SOL    HW222422   1.556   5.184   0.520
 7175SOL     OW22423   6.701   4.151   5.978
 7175SOL    HW122424   6.726   4.247   5.974
 7175SOL    HW222425   6.781   4.096   6.000
 7176SOL     OW22426   5.927   3.951   1.307
 7176SOL    HW122427   5.850   3.905   1.350
 7176SOL    HW222428   5.913   4.050   1.309
 7177SOL     OW22429   0.538   6.178   2.128
 7177SOL    HW122430   0.506   6.189   2.034
 7177SOL    HW222431   0.527   6.082   2.156
 7178SOL     OW22432   0.924   2.481   6.323
 7178SOL    HW122433   0.949   2.557   6.383
 7178SOL    HW222434   0.829   2.494   6.292
 7179SOL     OW22435   2.787   3.415   6.200
 7179SOL    HW122436   2.831   3.406   6.110
 7179SOL    HW222437   2.777   3.325   6.241
 7180SOL     OW22438   6.951   6.251   2.179
 7180SOL    HW122439   0.008   6.201   2.143
 7180SOL    HW222440   6.921   6.209   2.264
 7181SOL     OW22441   5.185   0.878   1.398
 7181SOL    HW122442   5.209   0.881   1.301
 7181SOL    HW222443   5.161   0.970   1.429
 7182SOL     OW22444   2.916   4.300   5.908
 7182SOL    HW122445   2.921   4.251   5.995
 7182SOL    HW222446   2.861   4.246   5.843
 7183SOL     OW22447   1.155   5.455   2.561
 7183SOL    HW122448   1.078   5.513   2.589
 7183SOL    HW222449   1.182   5.478   2.468
 7184SOL     OW22450   2.418   6.532   3.494
 7184SOL    HW122451   2.395   6.551   3.590
 7184SOL    HW222452   2.445   6.436   3.485
 7185SOL     OW22453   4.751   2.431   6.936
 7185SOL    HW122454   4.701   2.509   6.899
 7185SOL    HW222455   4.799   2.385   6.861
 7186SOL     OW22456   0.609   6.658   4.708
 7186SOL    HW122457   0.538   6.594   4.679
 7186SOL    HW222458   0.654   6.623   4.789
 7187SOL     OW22459   1.916   4.420   1.326
 7187SOL    HW122460   1.955   4.339   1.370
 7187SOL    HW222461   1.988   4.489   1.316
 7188SOL     OW22462   5.553   1.376   1.571
 7188SOL    HW122463   5.506   1.464   1.576
 7188SOL    HW222464   5.596   1.356   1.660
 7189SOL     OW22465   6.037   1.157   4.870
 7189SOL    HW122466   5.950   1.180   4.827
 7189SOL    HW222467   6.111   1.207   4.824
 7190SOL     OW22468   4.564   4.867   3.348
 7190SOL    HW122469   4.635   4.898   3.412
 7190SOL    HW222470   4.517   4.788   3.388
 7191SOL     OW22471   1.872   3.188   2.054
 7191SOL    HW122472   1.898   3.194   1.957
 7191SOL    HW222473   1.786   3.237   2.068
 7192SOL     OW22474   3.137   4.681   5.761
 7192SOL    HW122475   3.092   4.650   5.677
 7192SOL    HW222476   3.184   4.767   5.744
 7193SOL     OW22477   4.149   2.279   3.742
 7193SOL    HW122478   4.156   2.298   3.644
 7193SOL    HW222479   4.060   2.237   3.761
 7194SOL     OW22480   2.703   1.773   2.134
 7194SOL    HW122481   2.663   1.752   2.223
 7194SOL    HW222482   2.634   1.814   2.075
 7195SOL     OW22483   0.982   5.709   1.385
 7195SOL    HW122484   0.978   5.613   1.414
 7195SOL    HW222485   1.025   5.715   1.295
 7196SOL     OW22486   3.307   3.254   2.410
 7196SOL    HW122487   3.393   3.234   2.459
 7196SOL    HW222488   3.307   3.349   2.381
 7197SOL     OW22489   0.097   1.944   5.825
 7197SOL    HW122490   0.085   2.038   5.793
 7197SOL    HW222491   0.025   1.886   5.786
 7198SOL     OW22492   1.423   6.361   6.898
 7198SOL    HW122493   1.419   6.441   6.958
 7198SOL    HW222494   1.469   6.387   6.813
 7199SOL     OW22495   6.641   6.559   3.044
 7199SOL    HW122496   6.700   6.479   3.029
 7199SOL    HW222497   6.546   6.529   3.054
 7200SOL     OW22498   1.941   1.003   1.233
 7200SOL    HW122499   1.864   1.052   1.191
 7200SOL    HW222500   2.024   1.022   1.182
 7201SOL     OW22501   2.354   4.322   3.838
 7201SOL    HW122502   2.270   4.358   3.798
 7201SOL    HW222503   2.381   4.238   3.790
 7202SOL     OW22504   3.757   0.989   6.527
 7202SOL    HW122505   3.805   0.904   6.549
 7202SOL    HW222506   3.783   1.059   6.593
 7203SOL     OW22507   5.410   1.046   6.893
 7203SOL    HW122508   5.506   1.031   6.869
 7203SOL    HW222509   5.374   1.123   6.841
 7204SOL     OW22510   6.393   1.659   3.146
 7204SOL    HW122511   6.364   1.750   3.174
 7204SOL    HW222512   6.450   1.666   3.064
 7205SOL     OW22513   2.015   5.002   2.094
 7205SOL    HW122514   1.977   4.970   2.180
 7205SOL    HW222515   1.951   5.064   2.049
 7206SOL     OW22516   6.126   0.935   1.670
 7206SOL    HW122517   6.129   0.947   1.571
 7206SOL    HW222518   6.149   1.022   1.715
 7207SOL     OW22519   3.638   6.776   1.855
 7207SOL    HW122520   3.663   6.852   1.794
 7207SOL    HW222521   3.668   6.797   1.948
 7208SOL     OW22522   3.269   0.518   5.582
 7208SOL    HW122523   3.277   0.419   5.574
 7208SOL    HW222524   3.174   0.543   5.604
 7209SOL     OW22525   4.170   3.382   4.877
 7209SOL    HW122526   4.156   3.471   4.920
 7209SOL    HW222527   4.265   3.375   4.845
 7210SOL     OW22528   4.411   0.667   4.051
 7210SOL    HW122529   4.314   0.644   4.058
 7210SOL    HW222530   4.464   0.608   4.112
 7211SOL     OW22531   1.423   5.466   3.133
 7211SOL    HW122532   1.447   5.380   3.177
 7211SOL    HW222533   1.359   5.448   3.058
 7212SOL     OW22534   5.820   6.443   4.256
 7212SOL    HW122535   5.723   6.467   4.249
 7212SOL    HW222536   5.863   6.450   4.166
 7213SOL     OW22537   5.423   1.132   5.625
 7213SOL    HW122538   5.466   1.216   5.590
 7213SOL    HW222539   5.399   1.073   5.548
 7214SOL     OW22540   1.787   5.074   4.796
 7214SOL    HW122541   1.812   4.979   4.813
 7214SOL    HW222542   1.747   5.082   4.704
 7215SOL     OW22543   1.349   3.797   3.791
 7215SOL    HW122544   1.418   3.778   3.861
 7215SOL    HW222545   1.289   3.869   3.824
 7216SOL     OW22546   2.133   0.952   1.591
 7216SOL    HW122547   2.125   0.887   1.667
 7216SOL    HW222548   2.129   0.902   1.504
 7217SOL     OW22549   0.860   3.082   2.308
 7217SOL    HW122550   0.832   2.999   2.259
 7217SOL    HW222551   0.781   3.120   2.356
 7218SOL     OW22552   5.120   2.663   5.650
 7218SOL    HW122553   5.210   2.705   5.636
 7218SOL    HW222554   5.075   2.706   5.728
 7219SOL     OW22555   3.631   0.834   2.187
 7219SOL    HW122556   3.726   0.804   2.175
 7219SOL    HW222557   3.626   0.933   2.184
 7220SOL     OW22558   6.747   0.881   3.172
 7220SOL    HW122559   6.754   0.950   3.244
 7220SOL    HW222560   6.665   0.896   3.118
 7221SOL     OW22561   5.829   5.938   6.008
 7221SOL    HW122562   5.874   5.947   6.097
 7221SOL    HW222563   5.839   6.023   5.956
 7222SOL     OW22564   0.081   6.153   1.961
 7222SOL    HW122565   0.149   6.124   1.894
 7222SOL    HW222566   0.002   6.091   1.957
 7223SOL     OW22567   3.345   1.164   5.561
 7223SOL    HW122568   3.287   1.240   5.530
 7223SOL    HW222569   3.314   1.079   5.518
 7224SOL     OW22570   4.725   7.008   4.560
 7224SOL    HW122571   4.769   6.997   4.471
 7224SOL    HW222572   4.667   6.928   4.579
 7225SOL     OW22573   2.644   6.077   0.219
 7225SOL    HW122574   2.672   6.087   0.315
 7225SOL    HW222575   2.545   6.091   0.212
 7226SOL     OW22576   6.598   6.938   1.201
 7226SOL    HW122577   6.558   6.847   1.210
 7226SOL    HW222578   6.622   6.954   1.105
 7227SOL     OW22579   6.574   2.141   7.009
 7227SOL    HW122580   6.578   2.091   0.074
 7227SOL    HW222581   6.645   2.211   7.007
 7228SOL     OW22582   1.315   0.537   3.078
 7228SOL    HW122583   1.243   0.498   3.135
 7228SOL    HW222584   1.275   0.574   2.994
 7229SOL     OW22585   0.749   0.603   3.622
 7229SOL    HW122586   0.777   0.509   3.605
 7229SOL    HW222587   0.692   0.635   3.547
 7230SOL     OW22588   5.358   4.014   2.962
 7230SOL    HW122589   5.401   4.096   2.998
 7230SOL    HW222590   5.368   4.012   2.862
 7231SOL     OW22591   5.034   1.080   6.554
 7231SOL    HW122592   5.040   1.024   6.472
 7231SOL    HW222593   5.125   1.118   6.575
 7232SOL     OW22594   3.492   4.444   1.391
 7232SOL    HW122595   3.423   4.512   1.414
 7232SOL    HW222596   3.554   4.431   1.468
 7233SOL     OW22597   6.506   2.108   6.309
 7233SOL    HW122598   6.451   2.032   6.277
 7233SOL    HW222599   6.450   2.191   6.314
 7234SOL     OW22600   6.105   1.987   2.505
 7234SOL    HW122601   6.196   1.992   2.465
 7234SOL    HW222602   6.046   1.930   2.448
 7235SOL     OW22603   5.898   3.793   5.257
 7235SOL    HW122604   5.955   3.874   5.267
 7235SOL    HW222605   5.946   3.725   5.200
 7236SOL     OW22606   3.010   0.562   3.207
 7236SOL    HW122607   3.018   0.535   3.302
 7236SOL    HW222608   3.029   0.484   3.148
 7237SOL     OW22609   6.236   5.931   5.920
 7237SOL    HW122610   6.199   5.856   5.976
 7237SOL    HW222611   6.160   5.986   5.885
 7238SOL     OW22612   1.484   1.153   1.175
 7238SOL    HW122613   1.509   1.189   1.265
 7238SOL    HW222614   1.424   1.218   1.129
 7239SOL     OW22615   3.824   1.582   1.929
 7239SOL    HW122616   3.734   1.605   1.891
 7239SOL    HW222617   3.887   1.659   1.916
 7240SOL     OW22618   2.880   4.791   0.444
 7240SOL    HW122619   2.808   4.724   0.461
 7240SOL    HW222620   2.886   4.855   0.521
 7241SOL     OW22621   3.503   0.527   4.984
 7241SOL    HW122622   3.499   0.572   5.073
 7241SOL    HW222623   3.412   0.493   4.961
 7242SOL     OW22624   4.731   4.640   6.916
 7242SOL    HW122625   4.669   4.576   6.961
 7242SOL    HW222626   4.689   4.675   6.833
 7243SOL     OW22627   0.549   5.208   6.853
 7243SOL    HW122628   0.534   5.285   6.914
 7243SOL    HW222629   0.603   5.138   6.900
 7244SOL     OW22630   5.983   0.952   1.176
 7244SOL    HW122631   5.885   0.976   1.175
 7244SOL    HW222632   6.020   0.961   1.084
 7245SOL     OW22633   0.332   2.122   3.656
 7245SOL    HW122634   0.258   2.189   3.659
 7245SOL    HW222635   0.355   2.094   3.750
 7246SOL     OW22636   0.323   6.092   5.864
 7246SOL    HW122637   0.294   6.094   5.959
 7246SOL    HW222638   0.249   6.127   5.806
 7247SOL     OW22639   3.649   5.617   2.840
 7247SOL    HW122640   3.602   5.677   2.905
 7247SOL    HW222641   3.592   5.604   2.759
 7248SOL     OW22642   3.054   0.790   4.789
 7248SOL    HW122643   3.008   0.760   4.873
 7248SOL    HW222644   3.040   0.888   4.777
 7249SOL     OW22645   6.103   5.679   6.813
 7249SOL    HW122646   6.180   5.741   6.831
 7249SOL    HW222647   6.076   5.634   6.897
 7250SOL     OW22648   3.084   4.269   6.575
 7250SOL    HW122649   3.175   4.287   6.537
 7250SOL    HW222650   3.017   4.329   6.531
 7251SOL     OW22651   5.773   0.556   5.079
 7251SOL    HW122652   5.683   0.597   5.096
 7251SOL    HW222653   5.824   0.552   5.164
 7252SOL     OW22654   3.728   3.752   5.133
 7252SOL    HW122655   3.655   3.784   5.073
 7252SOL    HW222656   3.770   3.830   5.180
 7253SOL     OW22657   5.256   5.867   1.097
 7253SOL    HW122658   5.219   5.914   1.177
 7253SOL    HW222659   5.182   5.818   1.051
 7254SOL     OW22660   4.741   5.991   5.419
 7254SOL    HW122661   4.685   6.019   5.341
 7254SOL    HW222662   4.817   5.935   5.386
 7255SOL     OW22663   3.736   3.717   2.230
 7255SOL    HW122664   3.718   3.690   2.324
 7255SOL    HW222665   3.721   3.639   2.169
 7256SOL     OW22666   4.935   4.825   4.307
 7256SOL    HW122667   5.010   4.768   4.274
 7256SOL    HW222668   4.906   4.886   4.233
 7257SOL     OW22669   5.828   4.241   3.359
 7257SOL    HW122670   5.736   4.245   3.319
 7257SOL    HW222671   5.896   4.242   3.285
 7258SOL     OW22672   3.656   6.897   4.817
 7258SOL    HW122673   3.661   6.853   4.907
 7258SOL    HW222674   3.565   6.884   4.779
 7259SOL     OW22675   2.162   5.650   5.850
 7259SOL    HW122676   2.163   5.596   5.766
 7259SOL    HW222677   2.175   5.747   5.828
 7260SOL     OW22678   3.787   2.010   1.846
 7260SOL    HW122679   3.866   2.072   1.844
 7260SOL    HW222680   3.710   2.056   1.889
 7261SOL     OW22681   1.271   4.011   2.004
 7261SOL    HW122682   1.184   4.054   1.981
 7261SOL    HW222683   1.311   3.969   1.922
 7262SOL     OW22684   6.143   2.240   5.042
 7262SOL    HW122685   6.142   2.332   5.002
 7262SOL    HW222686   6.237   2.216   5.066
 7263SOL     OW22687   4.326   6.311   2.083
 7263SOL    HW122688   4.340   6.384   2.149
 7263SOL    HW222689   4.237   6.321   2.039
 7264SOL     OW22690   1.076   6.539   5.529
 7264SOL    HW122691   1.120   6.451   5.514
 7264SOL    HW222692   0.994   6.526   5.586
 7265SOL     OW22693   4.101   4.203   5.844
 7265SOL    HW122694   4.014   4.156   5.857
 7265SOL    HW222695   4.087   4.285   5.789
 7266SOL     OW22696   5.750   1.618   1.850
 7266SOL    HW122697   5.773   1.708   1.814
 7266SOL    HW222698   5.683   1.628   1.924
 7267SOL     OW22699   0.069   3.621   4.518
 7267SOL    HW122700   0.029   3.538   4.556
 7267SOL    HW222701   0.002   3.695   4.520
 7268SOL     OW22702   3.188   6.748   1.233
 7268SOL    HW122703   3.233   6.836   1.213
 7268SOL    HW222704   3.256   6.683   1.265
 7269SOL     OW22705   1.871   6.865   1.667
 7269SOL    HW122706   1.818   6.790   1.628
 7269SOL    HW222707   1.860   6.866   1.767
 7270SOL     OW22708   3.035   1.364   2.379
 7270SOL    HW122709   3.057   1.351   2.476
 7270SOL    HW222710   3.110   1.412   2.334
 7271SOL     OW22711   6.205   4.035   4.191
 7271SOL    HW122712   6.164   4.015   4.102
 7271SOL    HW222713   6.140   4.014   4.263
 7272SOL     OW22714   5.567   2.227   1.361
 7272SOL    HW122715   5.587   2.246   1.264
 7272SOL    HW222716   5.533   2.311   1.404
 7273SOL     OW22717   5.795   5.766   6.301
 7273SOL    HW122718   5.834   5.691   6.247
 7273SOL    HW222719   5.794   5.740   6.398
 7274SOL     OW22720   6.832   4.654   5.357
 7274SOL    HW122721   6.856   4.673   5.262
 7274SOL    HW222722   6.744   4.606   5.360
 7275SOL     OW22723   5.997   0.164   1.139
 7275SOL    HW122724   5.953   0.247   1.175
 7275SOL    HW222725   5.983   0.089   1.203
 7276SOL     OW22726   2.627   2.048   3.817
 7276SOL    HW122727   2.682   1.986   3.761
 7276SOL    HW222728   2.627   2.139   3.777
 7277SOL     OW22729   5.606   1.615   4.364
 7277SOL    HW122730   5.643   1.554   4.293
 7277SOL    HW222731   5.593   1.706   4.325
 7278SOL     OW22732   2.692   1.621   3.412
 7278SOL    HW122733   2.721   1.562   3.337
 7278SOL    HW222734   2.636   1.696   3.376
 7279SOL     OW22735   4.327   4.572   0.889
 7279SOL    HW122736   4.354   4.510   0.816
 7279SOL    HW222737   4.227   4.576   0.895
 7280SOL     OW22738   6.279   2.203   5.527
 7280SOL    HW122739   6.280   2.182   5.625
 7280SOL    HW222740   6.267   2.301   5.514
 7281SOL     OW22741   4.006   5.489   1.605
 7281SOL    HW122742   4.081   5.512   1.667
 7281SOL    HW222743   3.948   5.419   1.648
 7282SOL     OW22744   6.378   3.799   2.398
 7282SOL    HW122745   6.413   3.734   2.330
 7282SOL    HW222746   6.287   3.771   2.426
 7283SOL     OW22747   4.516   4.797   2.779
 7283SOL    HW122748   4.576   4.866   2.820
 7283SOL    HW222749   4.532   4.794   2.680
 7284SOL     OW22750   0.285   1.756   2.502
 7284SOL    HW122751   0.299   1.676   2.443
 7284SOL    HW222752   0.188   1.773   2.512
 7285SOL     OW22753   4.894   3.182   1.818
 7285SOL    HW122754   4.914   3.134   1.733
 7285SOL    HW222755   4.811   3.145   1.859
 7286SOL     OW22756   6.968   1.681   3.243
 7286SOL    HW122757   6.878   1.714   3.272
 7286SOL    HW222758   6.978   1.585   3.266
 7287SOL     OW22759   2.690   1.875   3.073
 7287SOL    HW122760   2.788   1.881   3.094
 7287SOL    HW222761   2.638   1.880   3.158
 7288SOL     OW22762   2.431   1.619   2.495
 7288SOL    HW122763   2.525   1.650   2.482
 7288SOL    HW222764   2.395   1.655   2.581
 7289SOL     OW22765   6.824   1.734   1.347
 7289SOL    HW122766   6.881   1.704   1.424
 7289SOL    HW222767   6.819   1.834   1.346
 7290SOL     OW22768   3.868   1.089   4.696
 7290SOL    HW122769   3.867   1.174   4.748
 7290SOL    HW222770   3.962   1.054   4.691
 7291SOL     OW22771   2.737   0.987   0.856
 7291SOL    HW122772   2.730   0.923   0.779
 7291SOL    HW222773   2.815   0.962   0.913
 7292SOL     OW22774   2.483   0.500   2.522
 7292SOL    HW122775   2.549   0.568   2.491
 7292SOL    HW222776   2.477   0.426   2.455
 7293SOL     OW22777   0.059   1.620   3.859
 7293SOL    HW122778   6.998   1.643   3.909
 7293SOL    HW222779   0.043   1.629   3.761
 7294SOL     OW22780   3.398   6.066   2.058
 7294SOL    HW122781   3.417   6.003   2.133
 7294SOL    HW222782   3.470   6.058   1.989
 7295SOL     OW22783   5.957   4.532   1.032
 7295SOL    HW122784   5.962   4.563   1.127
 7295SOL    HW222785   5.896   4.593   0.980
 7296SOL     OW22786   4.992   5.087   1.887
 7296SOL    HW122787   4.956   4.995   1.895
 7296SOL    HW222788   4.921   5.153   1.911
 7297SOL     OW22789   4.091   0.037   1.380
 7297SOL    HW122790   4.152   0.051   1.458
 7297SOL    HW222791   4.005   0.086   1.395
 7298SOL     OW22792   4.053   5.003   0.211
 7298SOL    HW122793   4.140   5.002   0.162
 7298SOL    HW222794   3.998   4.924   0.185
 7299SOL     OW22795   1.171   2.727   6.569
 7299SOL    HW122796   1.247   2.668   6.541
 7299SOL    HW222797   1.129   2.692   6.652
 7300SOL     OW22798   0.249   5.024   2.250
 7300SOL    HW122799   0.317   5.027   2.177
 7300SOL    HW222800   0.187   4.947   2.235
 7301SOL     OW22801   4.319   1.755   6.360
 7301SOL    HW122802   4.294   1.842   6.317
 7301SOL    HW222803   4.392   1.711   6.306
 7302SOL     OW22804   5.646   2.304   6.149
 7302SOL    HW122805   5.672   2.259   6.063
 7302SOL    HW222806   5.640   2.236   6.222
 7303SOL     OW22807   2.560   1.997   1.971
 7303SOL    HW122808   2.582   2.025   1.877
 7303SOL    HW222809   2.470   2.032   1.996
 7304SOL     OW22810   2.624   5.734   0.690
 7304SOL    HW122811   2.599   5.638   0.674
 7304SOL    HW222812   2.702   5.738   0.751
 7305SOL     OW22813   6.363   1.241   0.317
 7305SOL    HW122814   6.351   1.148   0.283
 7305SOL    HW222815   6.335   1.246   0.413
 7306SOL     OW22816   0.699   2.792   1.780
 7306SOL    HW122817   0.670   2.880   1.817
 7306SOL    HW222818   0.783   2.804   1.728
 7307SOL     OW22819   2.038   0.411   0.605
 7307SOL    HW122820   2.062   0.449   0.694
 7307SOL    HW222821   2.022   0.313   0.614
 7308SOL     OW22822   4.548   1.356   2.838
 7308SOL    HW122823   4.642   1.382   2.818
 7308SOL    HW222824   4.486   1.404   2.776
 7309SOL     OW22825   2.542   4.989   3.649
 7309SOL    HW122826   2.480   4.915   3.621
 7309SOL    HW222827   2.517   5.020   3.741
 7310SOL     OW22828   2.290   2.990   6.048
 7310SOL    HW122829   2.330   2.940   5.972
 7310SOL    HW222830   2.330   2.958   6.134
 7311SOL     OW22831   0.389   6.246   6.178
 7311SOL    HW122832   0.303   6.204   6.207
 7311SOL    HW222833   0.465   6.196   6.220
 7312SOL     OW22834   6.772   2.282   3.933
 7312SOL    HW122835   6.739   2.197   3.974
 7312SOL    HW222836   6.748   2.359   3.993
 7313SOL     OW22837   2.563   0.797   2.715
 7313SOL    HW122838   2.524   0.759   2.631
 7313SOL    HW222839   2.646   0.848   2.693
 7314SOL     OW22840   0.655   4.627   5.902
 7314SOL    HW122841   0.746   4.639   5.943
 7314SOL    HW222842   0.586   4.630   5.975
 7315SOL     OW22843   2.076   4.966   2.631
 7315SOL    HW122844   2.057   4.929   2.722
 7315SOL    HW222845   1.990   4.997   2.589
 7316SOL     OW22846   3.728   1.912   1.277
 7316SOL    HW122847   3.798   1.983   1.276
 7316SOL    HW222848   3.750   1.842   1.210
 7317SOL     OW22849   4.020   2.117   0.209
 7317SOL    HW122850   4.063   2.037   0.251
 7317SOL    HW222851   3.957   2.087   0.138
 7318SOL     OW22852   5.510   6.248   0.496
 7318SOL    HW122853   5.413   6.256   0.522
 7318SOL    HW222854   5.553   6.338   0.499
 7319SOL     OW22855   5.641   6.124   6.540
 7319SOL    HW122856   5.547   6.144   6.512
 7319SOL    HW222857   5.672   6.040   6.494
 7320SOL     OW22858   0.714   2.233   1.208
 7320SOL    HW122859   0.696   2.322   1.167
 7320SOL    HW222860   0.651   2.166   1.170
 7321SOL     OW22861   1.120   1.378   6.515
 7321SOL    HW122862   1.064   1.425   6.446
 7321SOL    HW222863   1.069   1.374   6.601
 7322SOL     OW22864   1.146   3.410   3.461
 7322SOL    HW122865   1.103   3.453   3.381
 7322SOL    HW222866   1.230   3.364   3.432
 7323SOL     OW22867   0.825   2.812   0.742
 7323SOL    HW122868   0.884   2.736   0.717
 7323SOL    HW222869   0.821   2.820   0.842
 7324SOL     OW22870   5.592   4.158   3.957
 7324SOL    HW122871   5.586   4.059   3.945
 7324SOL    HW222872   5.519   4.202   3.905
 7325SOL     OW22873   4.247   1.421   5.989
 7325SOL    HW122874   4.233   1.395   6.085
 7325SOL    HW222875   4.199   1.357   5.929
 7326SOL     OW22876   3.724   0.871   0.667
 7326SOL    HW122877   3.791   0.812   0.712
 7326SOL    HW222878   3.644   0.881   0.725
 7327SOL     OW22879   1.559   4.519   3.175
 7327SOL    HW122880   1.548   4.522   3.076
 7327SOL    HW222881   1.524   4.433   3.210
 7328SOL     OW22882   4.587   4.911   4.700
 7328SOL    HW122883   4.664   4.851   4.720
 7328SOL    HW222884   4.538   4.934   4.784
 7329SOL     OW22885   3.063   3.361   1.183
 7329SOL    HW122886   3.017   3.426   1.122
 7329SOL    HW222887   3.003   3.340   1.260
 7330SOL     OW22888   2.712   3.289   1.770
 7330SOL    HW122889   2.654   3.215   1.738
 7330SOL    HW222890   2.663   3.376   1.765
 7331SOL     OW22891   5.396   2.838   2.401
 7331SOL    HW122892   5.385   2.935   2.375
 7331SOL    HW222893   5.489   2.823   2.433
 7332SOL     OW22894   3.087   6.378   6.142
 7332SOL    HW122895   3.038   6.320   6.078
 7332SOL    HW222896   3.052   6.472   6.135
 7333SOL     OW22897   0.576   0.950   1.208
 7333SOL    HW122898   0.654   0.943   1.270
 7333SOL    HW222899   0.494   0.915   1.253
 7334SOL     OW22900   2.904   6.163   4.046
 7334SOL    HW122901   2.876   6.067   4.042
 7334SOL    HW222902   2.850   6.216   3.981
 7335SOL     OW22903   6.908   3.719   2.113
 7335SOL    HW122904   7.001   3.754   2.104
 7335SOL    HW222905   6.911   3.623   2.140
 7336SOL     OW22906   2.300   6.478   2.300
 7336SOL    HW122907   2.345   6.417   2.235
 7336SOL    HW222908   2.202   6.479   2.282
 7337SOL     OW22909   2.411   1.371   3.114
 7337SOL    HW122910   2.500   1.362   3.068
 7337SOL    HW222911   2.373   1.280   3.129
 7338SOL     OW22912   5.103   3.550   1.220
 7338SOL    HW122913   5.056   3.617   1.277
 7338SOL    HW222914   5.077   3.563   1.124
 7339SOL     OW22915   6.887   6.157   4.817
 7339SOL    HW122916   6.937   6.125   4.737
 7339SOL    HW222917   6.845   6.246   4.797
 7340SOL     OW22918   2.993   0.004   0.536
 7340SOL    HW122919   3.044   0.017   0.621
 7340SOL    HW222920   2.969   6.930   0.526
 7341SOL     OW22921   6.776   5.394   4.460
 7341SOL    HW122922   6.736   5.303   4.455
 7341SOL    HW222923   6.736   5.452   4.389
 7342SOL     OW22924   1.477   4.989   0.894
 7342SOL    HW122925   1.489   4.894   0.864
 7342SOL    HW222926   1.435   4.991   0.984
 7343SOL     OW22927   5.137   2.801   2.535
 7343SOL    HW122928   5.110   2.707   2.555
 7343SOL    HW222929   5.227   2.802   2.492
 7344SOL     OW22930   2.559   1.227   6.995
 7344SOL    HW122931   2.550   1.143   0.028
 7344SOL    HW222932   2.583   1.203   6.901
 7345SOL     OW22933   3.779   5.316   0.519
 7345SOL    HW122934   3.792   5.305   0.420
 7345SOL    HW222935   3.705   5.381   0.537
 7346SOL     OW22936   3.888   4.700   1.748
 7346SOL    HW122937   3.795   4.699   1.786
 7346SOL    HW222938   3.952   4.732   1.818
 7347SOL     OW22939   6.640   2.818   2.772
 7347SOL    HW122940   6.609   2.902   2.817
 7347SOL    HW222941   6.560   2.763   2.746
 7348SOL     OW22942   0.988   2.212   5.041
 7348SOL    HW122943   0.942   2.272   4.976
 7348SOL    HW222944   1.075   2.253   5.069
 7349SOL     OW22945   3.789   1.350   0.546
 7349SOL    HW122946   3.703   1.349   0.596
 7349SOL    HW222947   3.800   1.263   0.496
 7350SOL     OW22948   2.322   1.110   2.841
 7350SOL    HW122949   2.225   1.092   2.829
 7350SOL    HW222950   2.363   1.132   2.752
 7351SOL     OW22951   4.400   4.517   6.752
 7351SOL    HW122952   4.318   4.556   6.710
 7351SOL    HW222953   4.384   4.506   6.851
 7352SOL     OW22954   6.644   1.469   3.679
 7352SOL    HW122955   6.547   1.454   3.700
 7352SOL    HW222956   6.663   1.440   3.585
 7353SOL     OW22957   4.696   2.278   4.796
 7353SOL    HW122958   4.733   2.311   4.708
 7353SOL    HW222959   4.626   2.208   4.778
 7354SOL     OW22960   6.317   4.376   5.142
 7354SOL    HW122961   6.409   4.340   5.159
 7354SOL    HW222962   6.318   4.432   5.059
 7355SOL     OW22963   1.178   4.286   2.171
 7355SOL    HW122964   1.239   4.364   2.183
 7355SOL    HW222965   1.202   4.215   2.237
 7356SOL     OW22966   6.083   1.301   5.126
 7356SOL    HW122967   6.015   1.357   5.173
 7356SOL    HW222968   6.072   1.310   5.027
 7357SOL     OW22969   6.781   1.632   0.674
 7357SOL    HW122970   6.831   1.716   0.652
 7357SOL    HW222971   6.836   1.553   0.647
 7358SOL     OW22972   2.838   0.842   3.906
 7358SOL    HW122973   2.889   0.928   3.915
 7358SOL    HW222974   2.833   0.817   3.809
 7359SOL     OW22975   3.560   3.216   3.135
 7359SOL    HW122976   3.554   3.198   3.233
 7359SOL    HW222977   3.603   3.139   3.089
 7360SOL     OW22978   0.254   2.794   5.931
 7360SOL    HW122979   0.276   2.744   6.014
 7360SOL    HW222980   0.325   2.863   5.914
 7361SOL     OW22981   5.251   6.798   2.023
 7361SOL    HW122982   5.262   6.896   2.039
 7361SOL    HW222983   5.288   6.775   1.933
 7362SOL     OW22984   1.981   6.719   5.658
 7362SOL    HW122985   2.023   6.809   5.670
 7362SOL    HW222986   1.902   6.712   5.720
 7363SOL     OW22987   4.848   2.679   6.474
 7363SOL    HW122988   4.762   2.713   6.435
 7363SOL    HW222989   4.900   2.757   6.510
 7364SOL     OW22990   5.429   0.895   1.803
 7364SOL    HW122991   5.417   0.916   1.900
 7364SOL    HW222992   5.512   0.839   1.792
 7365SOL     OW22993   3.471   0.675   2.354
 7365SOL    HW122994   3.446   0.588   2.311
 7365SOL    HW222995   3.507   0.737   2.284
 7366SOL     OW22996   0.904   5.351   6.960
 7366SOL    HW122997   0.885   5.270   6.904
 7366SOL    HW222998   0.980   5.331   7.022
 7367SOL     OW22999   5.068   3.352   6.906
 7367SOL    HW123000   5.034   3.277   6.962
 7367SOL    HW223001   5.048   3.439   6.950
 7368SOL     OW23002   3.171   3.594   3.517
 7368SOL    HW123003   3.137   3.687   3.528
 7368SOL    HW223004   3.252   3.594   3.459
 7369SOL     OW23005   4.505   2.582   0.293
 7369SOL    HW123006   4.481   2.623   0.205
 7369SOL    HW223007   4.604   2.590   0.306
 7370SOL     OW23008   1.824   6.360   1.066
 7370SOL    HW123009   1.895   6.360   0.995
 7370SOL    HW223010   1.794   6.266   1.082
 7371SOL     OW23011   2.407   4.974   4.568
 7371SOL    HW123012   2.503   4.998   4.583
 7371SOL    HW223013   2.380   4.902   4.632
 7372SOL     OW23014   3.262   6.748   6.089
 7372SOL    HW123015   3.237   6.699   6.006
 7372SOL    HW223016   3.289   6.682   6.160
 7373SOL     OW23017   3.876   0.767   1.641
 7373SOL    HW123018   3.972   0.739   1.640
 7373SOL    HW223019   3.859   0.819   1.725
 7374SOL     OW23020   1.943   3.439   6.172
 7374SOL    HW123021   1.947   3.376   6.250
 7374SOL    HW223022   2.009   3.410   6.102
 7375SOL     OW23023   0.968   6.831   2.926
 7375SOL    HW123024   0.889   6.884   2.895
 7375SOL    HW223025   0.938   6.741   2.956
 7376SOL     OW23026   2.802   4.101   5.715
 7376SOL    HW123027   2.755   4.017   5.687
 7376SOL    HW223028   2.837   4.148   5.634
 7377SOL     OW23029   4.542   4.951   1.109
 7377SOL    HW123030   4.613   4.994   1.054
 7377SOL    HW223031   4.549   4.852   1.100
 7378SOL     OW23032   6.648   2.237   5.520
 7378SOL    HW123033   6.740   2.212   5.489
 7378SOL    HW223034   6.608   2.303   5.456
 7379SOL     OW23035   3.619   1.259   1.542
 7379SOL    HW123036   3.626   1.198   1.621
 7379SOL    HW223037   3.708   1.300   1.523
 7380SOL     OW23038   6.917   2.738   5.091
 7380SOL    HW123039   6.980   2.787   5.031
 7380SOL    HW223040   6.856   2.803   5.136
 7381SOL     OW23041   5.638   2.483   0.381
 7381SOL    HW123042   5.603   2.462   0.472
 7381SOL    HW223043   5.689   2.404   0.346
 7382SOL     OW23044   6.868   6.343   3.865
 7382SOL    HW123045   6.962   6.341   3.831
 7382SOL    HW223046   6.869   6.334   3.965
 7383SOL     OW23047   6.668   6.196   3.779
 7383SOL    HW123048   6.679   6.148   3.692
 7383SOL    HW223049   6.736   6.268   3.786
 7384SOL     OW23050   5.745   1.355   2.239
 7384SOL    HW123051   5.821   1.416   2.262
 7384SOL    HW223052   5.722   1.300   2.320
 7385SOL     OW23053   4.637   0.241   1.849
 7385SOL    HW123054   4.570   0.216   1.778
 7385SOL    HW223055   4.725   0.261   1.805
 7386SOL     OW23056   6.984   2.478   5.921
 7386SOL    HW123057   7.011   2.572   5.902
 7386SOL    HW223058   6.890   2.475   5.953
 7387SOL     OW23059   3.992   5.489   3.398
 7387SOL    HW123060   3.937   5.573   3.402
 7387SOL    HW223061   4.055   5.495   3.320
 7388SOL     OW23062   6.622   4.899   4.610
 7388SOL    HW123063   6.625   4.871   4.706
 7388SOL    HW223064   6.531   4.880   4.573
 7389SOL     OW23065   0.882   3.963   5.575
 7389SOL    HW123066   0.819   3.940   5.501
 7389SOL    HW223067   0.837   3.944   5.663
 7390SOL     OW23068   2.211   6.458   5.357
 7390SOL    HW123069   2.185   6.362   5.366
 7390SOL    HW223070   2.208   6.484   5.261
 7391SOL     OW23071   6.887   3.189   0.553
 7391SOL    HW123072   6.814   3.154   0.494
 7391SOL    HW223073   6.913   3.119   0.619
 7392SOL     OW23074   2.564   4.671   3.135
 7392SOL    HW123075   2.614   4.685   3.220
 7392SOL    HW223076   2.521   4.580   3.136
 7393SOL     OW23077   0.725   3.523   1.471
 7393SOL    HW123078   0.639   3.539   1.422
 7393SOL    HW223079   0.737   3.593   1.541
 7394SOL     OW23080   2.695   3.621   6.384
 7394SOL    HW123081   2.618   3.676   6.353
 7394SOL    HW223082   2.715   3.551   6.316
 7395SOL     OW23083   1.227   6.341   0.298
 7395SOL    HW123084   1.307   6.287   0.273
 7395SOL    HW223085   1.251   6.406   0.370
 7396SOL     OW23086   0.953   7.005   0.411
 7396SOL    HW123087   0.877   6.964   0.361
 7396SOL    HW223088   0.918   0.039   0.486
 7397SOL     OW23089   6.713   5.109   4.845
 7397SOL    HW123090   6.728   5.055   4.927
 7397SOL    HW223091   6.644   5.179   4.863
 7398SOL     OW23092   3.938   5.774   3.404
 7398SOL    HW123093   3.896   5.789   3.493
 7398SOL    HW223094   3.874   5.801   3.332
 7399SOL     OW23095   4.739   4.013   5.016
 7399SOL    HW123096   4.692   4.101   5.022
 7399SOL    HW223097   4.778   4.002   4.924
 7400SOL     OW23098   2.100   5.225   6.884
 7400SOL    HW123099   2.193   5.256   6.863
 7400SOL    HW223100   2.037   5.255   6.813
 7401SOL     OW23101   6.252   1.587   4.451
 7401SOL    HW123102   6.258   1.592   4.351
 7401SOL    HW223103   6.304   1.509   4.484
 7402SOL     OW23104   2.218   6.625   3.368
 7402SOL    HW123105   2.296   6.632   3.431
 7402SOL    HW223106   2.203   6.529   3.344
 7403SOL     OW23107   1.826   3.574   1.568
 7403SOL    HW123108   1.826   3.481   1.604
 7403SOL    HW223109   1.791   3.574   1.475
 7404SOL     OW23110   1.367   1.404   2.616
 7404SOL    HW123111   1.277   1.446   2.616
 7404SOL    HW223112   1.359   1.306   2.631
 7405SOL     OW23113   2.674   4.767   6.085
 7405SOL    HW123114   2.765   4.775   6.045
 7405SOL    HW223115   2.649   4.671   6.092
 7406SOL     OW23116   0.490   5.522   1.713
 7406SOL    HW123117   0.510   5.615   1.682
 7406SOL    HW223118   0.469   5.464   1.635
 7407SOL     OW23119   1.989   0.462   6.294
 7407SOL    HW123120   1.933   0.524   6.240
 7407SOL    HW223121   1.955   0.460   6.388
 7408SOL     OW23122   0.732   3.663   5.477
 7408SOL    HW123123   0.709   3.580   5.425
 7408SOL    HW223124   0.738   3.741   5.414
 7409SOL     OW23125   2.911   5.918   5.804
 7409SOL    HW123126   2.893   5.821   5.784
 7409SOL    HW223127   2.826   5.970   5.793
 7410SOL     OW23128   5.778   5.605   0.648
 7410SOL    HW123129   5.690   5.632   0.688
 7410SOL    HW223130   5.770   5.513   0.610
 7411SOL     OW23131   4.676   5.601   5.537
 7411SOL    HW123132   4.585   5.637   5.514
 7411SOL    HW223133   4.684   5.592   5.636
 7412SOL     OW23134   1.288   2.259   0.190
 7412SOL    HW123135   1.265   2.269   0.093
 7412SOL    HW223136   1.359   2.325   0.214
 7413SOL     OW23137   6.907   3.297   4.520
 7413SOL    HW123138   6.906   3.210   4.569
 7413SOL    HW223139   6.826   3.304   4.462
 7414SOL     OW23140   0.044   5.399   3.216
 7414SOL    HW123141   0.035   5.482   3.271
 7414SOL    HW223142   0.113   5.413   3.145
 7415SOL     OW23143   2.448   1.759   2.768
 7415SOL    HW123144   2.545   1.784   2.768
 7415SOL    HW223145   2.392   1.840   2.750
 7416SOL     OW23146   5.047   6.324   4.159
 7416SOL    HW123147   5.095   6.411   4.150
 7416SOL    HW223148   5.053   6.293   4.254
 7417SOL     OW23149   0.495   6.168   0.312
 7417SOL    HW123150   0.458   6.257   0.338
 7417SOL    HW223151   0.587   6.157   0.350
 7418SOL     OW23152   1.491   3.748   0.473
 7418SOL    HW123153   1.550   3.674   0.503
 7418SOL    HW223154   1.493   3.754   0.373
 7419SOL     OW23155   6.021   1.425   4.556
 7419SOL    HW123156   6.072   1.457   4.476
 7419SOL    HW223157   6.049   1.476   4.637
 7420SOL     OW23158   6.975   5.169   2.104
 7420SOL    HW123159   0.031   5.116   2.137
 7420SOL    HW223160   6.892   5.140   2.152
 7421SOL     OW23161   4.240   2.827   1.248
 7421SOL    HW123162   4.274   2.895   1.314
 7421SOL    HW223163   4.224   2.740   1.296
 7422SOL     OW23164   0.729   2.801   1.036
 7422SOL    HW123165   0.704   2.826   1.130
 7422SOL    HW223166   0.649   2.765   0.988
 7423SOL     OW23167   2.045   5.940   6.999
 7423SOL    HW123168   1.998   6.029   7.005
 7423SOL    HW223169   2.141   5.952   0.002
 7424SOL     OW23170   6.188   1.338   4.251
 7424SOL    HW123171   6.225   1.258   4.298
 7424SOL    HW223172   6.183   1.320   4.153
 7425SOL     OW23173   4.159   6.184   5.989
 7425SOL    HW123174   4.083   6.172   6.053
 7425SOL    HW223175   4.214   6.263   6.018
 7426SOL     OW23176   0.912   1.051   6.889
 7426SOL    HW123177   0.817   1.020   6.901
 7426SOL    HW223178   0.964   0.981   6.840
 7427SOL     OW23179   4.382   5.732   4.110
 7427SOL    HW123180   4.399   5.811   4.052
 7427SOL    HW223181   4.412   5.751   4.203
 7428SOL     OW23182   2.862   2.018   6.414
 7428SOL    HW123183   2.786   2.059   6.364
 7428SOL    HW223184   2.845   2.025   6.512
 7429SOL     OW23185   6.068   6.723   3.537
 7429SOL    HW123186   6.112   6.689   3.620
 7429SOL    HW223187   6.133   6.777   3.484
 7430SOL     OW23188   0.214   4.173   4.905
 7430SOL    HW123189   0.221   4.175   5.005
 7430SOL    HW223190   0.128   4.130   4.879
 7431SOL     OW23191   0.921   4.276   2.262
 7431SOL    HW123192   0.936   4.336   2.341
 7431SOL    HW223193   0.980   4.305   2.187
 7432SOL     OW23194   0.744   6.382   5.143
 7432SOL    HW123195   0.724   6.285   5.134
 7432SOL    HW223196   0.687   6.434   5.079
 7433SOL     OW23197   6.435   5.915   0.971
 7433SOL    HW123198   6.519   5.876   0.933
 7433SOL    HW223199   6.450   5.939   1.067
 7434SOL     OW23200   4.819   0.792   6.561
 7434SOL    HW123201   4.896   0.749   6.515
 7434SOL    HW223202   4.733   0.752   6.527
 7435SOL     OW23203   1.744   5.833   0.747
 7435SOL    HW123204   1.774   5.903   0.682
 7435SOL    HW223205   1.758   5.742   0.706
 7436SOL     OW23206   5.349   2.883   6.838
 7436SOL    HW123207   5.275   2.818   6.824
 7436SOL    HW223208   5.312   2.974   6.855
 7437SOL     OW23209   0.291   6.042   5.570
 7437SOL    HW123210   0.277   6.098   5.488
 7437SOL    HW223211   0.230   6.072   5.642
 7438SOL     OW23212   6.264   4.229   2.125
 7438SOL    HW123213   6.322   4.295   2.077
 7438SOL    HW223214   6.282   4.235   2.223
 7439SOL     OW23215   1.392   6.500   3.843
 7439SOL    HW123216   1.474   6.516   3.788
 7439SOL    HW223217   1.377   6.402   3.853
 7440SOL     OW23218   0.839   1.921   4.316
 7440SOL    HW123219   0.913   1.988   4.322
 7440SOL    HW223220   0.817   1.888   4.408
 7441SOL     OW23221   5.053   0.016   4.176
 7441SOL    HW123222   5.113   0.028   4.255
 7441SOL    HW223223   5.093   0.061   4.096
 7442SOL     OW23224   1.813   1.296   6.842
 7442SOL    HW123225   1.885   1.277   6.776
 7442SOL    HW223226   1.823   1.234   6.920
 7443SOL     OW23227   6.840   0.807   1.074
 7443SOL    HW123228   6.747   0.770   1.067
 7443SOL    HW223229   6.839   0.886   1.136
 7444SOL     OW23230   0.065   2.430   6.465
 7444SOL    HW123231   0.066   2.493   6.387
 7444SOL    HW223232   0.104   2.342   6.438
 7445SOL     OW23233   5.400   2.651   2.192
 7445SOL    HW123234   5.410   2.699   2.105
 7445SOL    HW223235   5.402   2.717   2.267
 7446SOL     OW23236   0.053   3.337   1.124
 7446SOL    HW123237   7.009   3.274   1.085
 7446SOL    HW223238   0.136   3.287   1.149
 7447SOL     OW23239   0.824   4.356   5.939
 7447SOL    HW123240   0.792   4.376   6.032
 7447SOL    HW223241   0.749   4.318   5.885
 7448SOL     OW23242   6.934   6.678   5.997
 7448SOL    HW123243   6.876   6.597   5.998
 7448SOL    HW223244   6.913   6.733   5.916
 7449SOL     OW23245   4.721   2.010   2.488
 7449SOL    HW123246   4.646   2.060   2.530
 7449SOL    HW223247   4.750   1.936   2.548
 7450SOL     OW23248   2.890   0.429   2.828
 7450SOL    HW123249   2.913   0.526   2.821
 7450SOL    HW223250   2.836   0.403   2.747
 7451SOL     OW23251   1.700   0.895   3.682
 7451SOL    HW123252   1.660   0.803   3.685
 7451SOL    HW223253   1.628   0.962   3.698
 7452SOL     OW23254   1.465   0.016   5.262
 7452SOL    HW123255   1.404   0.064   5.199
 7452SOL    HW223256   1.425   0.018   5.354
 7453SOL     OW23257   5.706   6.097   5.143
 7453SOL    HW123258   5.731   6.021   5.202
 7453SOL    HW223259   5.656   6.165   5.196
 7454SOL     OW23260   0.442   3.285   0.582
 7454SOL    HW123261   0.489   3.217   0.526
 7454SOL    HW223262   0.344   3.281   0.563
 7455SOL     OW23263   4.943   1.923   0.175
 7455SOL    HW123264   4.983   1.986   0.241
 7455SOL    HW223265   5.009   1.906   0.102
 7456SOL     OW23266   2.019   3.347   5.261
 7456SOL    HW123267   2.033   3.272   5.325
 7456SOL    HW223268   1.922   3.372   5.259
 7457SOL     OW23269   5.851   0.558   5.903
 7457SOL    HW123270   5.860   0.657   5.892
 7457SOL    HW223271   5.854   0.535   6.001
 7458SOL     OW23272   2.541   1.016   0.140
 7458SOL    HW123273   2.574   0.928   0.107
 7458SOL    HW223274   2.587   1.040   0.225
 7459SOL     OW23275   4.606   0.761   4.340
 7459SOL    HW123276   4.655   0.675   4.334
 7459SOL    HW223277   4.669   0.837   4.327
 7460SOL     OW23278   0.555   4.593   0.071
 7460SOL    HW123279   0.461   4.607   0.103
 7460SOL    HW223280   0.558   4.603   6.994
 7461SOL     OW23281   4.781   0.537   3.819
 7461SOL    HW123282   4.826   0.449   3.837
 7461SOL    HW223283   4.808   0.569   3.728
 7462SOL     OW23284   2.187   1.230   2.108
 7462SOL    HW123285   2.244   1.148   2.110
 7462SOL    HW223286   2.205   1.281   2.025
 7463SOL     OW23287   3.698   3.776   2.815
 7463SOL    HW123288   3.742   3.853   2.767
 7463SOL    HW223289   3.767   3.707   2.838
 7464SOL     OW23290   5.393   5.839   6.988
 7464SOL    HW123291   5.448   5.913   6.947
 7464SOL    HW223292   5.445   5.754   6.986
 7465SOL     OW23293   3.194   0.508   1.752
 7465SOL    HW123294   3.211   0.487   1.848
 7465SOL    HW223295   3.125   0.445   1.716
 7466SOL     OW23296   1.144   0.433   6.410
 7466SOL    HW123297   1.103   0.450   6.499
 7466SOL    HW223298   1.073   0.429   6.340
 7467SOL     OW23299   6.661   1.504   1.351
 7467SOL    HW123300   6.609   1.508   1.437
 7467SOL    HW223301   6.722   1.583   1.346
 7468SOL     OW23302   6.539   3.381   3.238
 7468SOL    HW123303   6.599   3.319   3.288
 7468SOL    HW223304   6.478   3.428   3.302
 7469SOL     OW23305   0.641   1.131   1.912
 7469SOL    HW123306   0.591   1.049   1.884
 7469SOL    HW223307   0.730   1.105   1.950
 7470SOL     OW23308   6.973   2.603   2.139
 7470SOL    HW123309   0.042   2.633   2.168
 7470SOL    HW223310   6.904   2.655   2.190
 7471SOL     OW23311   6.366   6.143   6.046
 7471SOL    HW123312   6.321   6.066   6.000
 7471SOL    HW223313   6.370   6.221   5.984
 7472SOL     OW23314   3.315   5.984   2.993
 7472SOL    HW123315   3.329   6.069   3.043
 7472SOL    HW223316   3.226   5.945   3.017
 7473SOL     OW23317   6.908   3.511   5.134
 7473SOL    HW123318   6.875   3.492   5.227
 7473SOL    HW223319   6.930   3.424   5.089
 7474SOL     OW23320   3.868   0.852   3.048
 7474SOL    HW123321   3.932   0.825   3.120
 7474SOL    HW223322   3.868   0.952   3.039
 7475SOL     OW23323   4.147   1.750   0.050
 7475SOL    HW123324   4.048   1.753   0.042
 7475SOL    HW223325   4.186   1.709   6.989
 7476SOL     OW23326   3.393   6.830   4.762
 7476SOL    HW123327   3.360   6.899   4.826
 7476SOL    HW223328   3.373   6.739   4.798
 7477SOL     OW23329   4.787   2.436   3.670
 7477SOL    HW123330   4.849   2.419   3.593
 7477SOL    HW223331   4.776   2.534   3.684
 7478SOL     OW23332   1.728   5.295   1.180
 7478SOL    HW123333   1.715   5.207   1.227
 7478SOL    HW223334   1.796   5.349   1.230
 7479SOL     OW23335   4.537   0.330   6.775
 7479SOL    HW123336   4.556   0.361   6.868
 7479SOL    HW223337   4.438   0.319   6.764
 7480SOL     OW23338   0.013   5.004   0.877
 7480SOL    HW123339   6.950   4.951   0.875
 7480SOL    HW223340   0.085   4.953   0.831
 7481SOL     OW23341   6.083   5.374   0.782
 7481SOL    HW123342   6.035   5.295   0.820
 7481SOL    HW223343   6.033   5.457   0.803
 7482SOL     OW23344   4.925   0.538   4.080
 7482SOL    HW123345   4.852   0.556   4.013
 7482SOL    HW223346   4.981   0.620   4.091
 7483SOL     OW23347   3.187   0.823   6.329
 7483SOL    HW123348   3.236   0.871   6.401
 7483SOL    HW223349   3.154   0.735   6.363
 7484SOL     OW23350   2.201   6.718   2.105
 7484SOL    HW123351   2.252   6.801   2.082
 7484SOL    HW223352   2.188   6.714   2.204
 7485SOL     OW23353   1.720   6.387   6.515
 7485SOL    HW123354   1.787   6.314   6.530
 7485SOL    HW223355   1.689   6.384   6.420
 7486SOL     OW23356   2.235   6.875   5.355
 7486SOL    HW123357   2.231   6.965   5.398
 7486SOL    HW223358   2.244   6.805   5.427
 7487SOL     OW23359   4.114   5.591   3.630
 7487SOL    HW123360   4.087   5.522   3.563
 7487SOL    HW223361   4.214   5.598   3.633
 7488SOL     OW23362   3.477   1.322   6.130
 7488SOL    HW123363   3.410   1.390   6.100
 7488SOL    HW223364   3.569   1.354   6.107
 7489SOL     OW23365   5.804   3.325   3.195
 7489SOL    HW123366   5.892   3.372   3.188
 7489SOL    HW223367   5.805   3.265   3.275
 7490SOL     OW23368   5.968   1.572   1.698
 7490SOL    HW123369   5.888   1.560   1.756
 7490SOL    HW223370   5.942   1.619   1.614
 7491SOL     OW23371   6.538   5.246   6.388
 7491SOL    HW123372   6.638   5.258   6.388
 7491SOL    HW223373   6.493   5.334   6.372
 7492SOL     OW23374   2.341   2.660   4.578
 7492SOL    HW123375   2.378   2.614   4.658
 7492SOL    HW223376   2.278   2.598   4.530
 7493SOL     OW23377   5.051   3.599   0.289
 7493SOL    HW123378   5.002   3.586   0.375
 7493SOL    HW223379   5.107   3.682   0.295
 7494SOL     OW23380   5.732   1.714   1.473
 7494SOL    HW123381   5.809   1.661   1.440
 7494SOL    HW223382   5.679   1.748   1.395
 7495SOL     OW23383   0.829   1.952   2.200
 7495SOL    HW123384   0.740   1.914   2.227
 7495SOL    HW223385   0.827   2.051   2.211
 7496SOL     OW23386   0.913   4.728   5.627
 7496SOL    HW123387   0.927   4.681   5.714
 7496SOL    HW223388   0.920   4.827   5.640
 7497SOL     OW23389   2.320   4.761   1.702
 7497SOL    HW123390   2.402   4.818   1.709
 7497SOL    HW223391   2.333   4.677   1.755
 7498SOL     OW23392   4.238   1.752   4.382
 7498SOL    HW123393   4.288   1.737   4.297
 7498SOL    HW223394   4.257   1.676   4.445
 7499SOL     OW23395   5.218   5.655   4.159
 7499SOL    HW123396   5.274   5.607   4.092
 7499SOL    HW223397   5.276   5.713   4.216
 7500SOL     OW23398   4.800   4.445   1.111
 7500SOL    HW123399   4.739   4.514   1.148
 7500SOL    HW223400   4.894   4.480   1.110
 7501SOL     OW23401   0.177   4.415   4.055
 7501SOL    HW123402   0.098   4.353   4.052
 7501SOL    HW223403   0.155   4.496   4.110
 7502SOL     OW23404   2.294   1.346   4.288
 7502SOL    HW123405   2.203   1.308   4.277
 7502SOL    HW223406   2.363   1.276   4.268
 7503SOL     OW23407   2.203   2.283   6.112
 7503SOL    HW123408   2.251   2.246   6.191
 7503SOL    HW223409   2.267   2.295   6.036
 7504SOL     OW23410   4.164   5.856   3.709
 7504SOL    HW123411   4.139   5.766   3.672
 7504SOL    HW223412   4.120   5.870   3.798
 7505SOL     OW23413   1.714   1.761   4.511
 7505SOL    HW123414   1.695   1.747   4.608
 7505SOL    HW223415   1.668   1.691   4.457
 7506SOL     OW23416   3.575   1.992   3.050
 7506SOL    HW123417   3.657   2.048   3.038
 7506SOL    HW223418   3.600   1.905   3.093
 7507SOL     OW23419   1.278   6.057   5.989
 7507SOL    HW123420   1.202   6.111   5.953
 7507SOL    HW223421   1.295   5.979   5.928
 7508SOL     OW23422   5.144   0.304   3.414
 7508SOL    HW123423   5.186   0.257   3.491
 7508SOL    HW223424   5.125   0.399   3.438
 7509SOL     OW23425   4.714   3.926   5.749
 7509SOL    HW123426   4.785   3.950   5.816
 7509SOL    HW223427   4.707   3.998   5.680
 7510SOL     OW23428   3.571   4.038   5.113
 7510SOL    HW123429   3.537   4.016   5.022
 7510SOL    HW223430   3.503   4.014   5.182
 7511SOL     OW23431   1.347   0.732   2.348
 7511SOL    HW123432   1.443   0.741   2.372
 7511SOL    HW223433   1.327   0.638   2.321
 7512SOL     OW23434   1.730   2.751   1.707
 7512SOL    HW123435   1.689   2.804   1.781
 7512SOL    HW223436   1.671   2.755   1.626
 7513SOL     OW23437   1.147   2.500   6.743
 7513SOL    HW123438   1.115   2.441   6.669
 7513SOL    HW223439   1.078   2.569   6.765
 7514SOL     OW23440   2.696   5.650   3.201
 7514SOL    HW123441   2.758   5.621   3.128
 7514SOL    HW223442   2.646   5.571   3.236
 7515SOL     OW23443   6.302   5.628   2.691
 7515SOL    HW123444   6.208   5.594   2.694
 7515SOL    HW223445   6.300   5.728   2.682
 7516SOL     OW23446   0.209   1.099   2.776
 7516SOL    HW123447   0.198   1.171   2.707
 7516SOL    HW223448   0.236   1.140   2.863
 7517SOL     OW23449   0.409   4.080   1.438
 7517SOL    HW123450   0.391   4.099   1.534
 7517SOL    HW223451   0.434   4.164   1.390
 7518SOL     OW23452   4.786   5.595   3.731
 7518SOL    HW123453   4.882   5.598   3.703
 7518SOL    HW223454   4.769   5.667   3.798
 7519SOL     OW23455   2.508   5.786   3.835
 7519SOL    HW123456   2.497   5.811   3.931
 7519SOL    HW223457   2.419   5.766   3.795
 7520SOL     OW23458   1.787   6.892   4.090
 7520SOL    HW123459   1.833   6.826   4.031
 7520SOL    HW223460   1.850   6.966   4.114
 7521SOL     OW23461   4.916   4.442   5.732
 7521SOL    HW123462   4.972   4.380   5.677
 7521SOL    HW223463   4.820   4.420   5.720
 7522SOL     OW23464   1.671   0.871   1.598
 7522SOL    HW123465   1.639   0.798   1.658
 7522SOL    HW223466   1.749   0.917   1.641
 7523SOL     OW23467   5.808   6.752   6.717
 7523SOL    HW123468   5.757   6.716   6.795
 7523SOL    HW223469   5.905   6.757   6.741
 7524SOL     OW23470   0.237   1.411   4.753
 7524SOL    HW123471   0.254   1.441   4.659
 7524SOL    HW223472   0.139   1.411   4.771
 7525SOL     OW23473   1.821   6.885   0.907
 7525SOL    HW123474   1.814   6.955   0.978
 7525SOL    HW223475   1.810   6.795   0.949
 7526SOL     OW23476   3.660   2.860   5.058
 7526SOL    HW123477   3.733   2.908   5.010
 7526SOL    HW223478   3.590   2.831   4.993
 7527SOL     OW23479   5.057   5.074   3.091
 7527SOL    HW123480   4.971   5.038   3.127
 7527SOL    HW223481   5.037   5.136   3.015
 7528SOL     OW23482   6.779   3.529   6.723
 7528SOL    HW123483   6.773   3.463   6.798
 7528SOL    HW223484   6.874   3.558   6.712
 7529SOL     OW23485   3.266   1.433   5.813
 7529SOL    HW123486   3.259   1.334   5.822
 7529SOL    HW223487   3.255   1.475   5.903
 7530SOL     OW23488   0.350   3.409   2.493
 7530SOL    HW123489   0.295   3.493   2.497
 7530SOL    HW223490   0.322   3.346   2.565
 7531SOL     OW23491   3.840   1.967   3.651
 7531SOL    HW123492   3.777   2.029   3.604
 7531SOL    HW223493   3.870   2.008   3.737
 7532SOL     OW23494   5.287   5.116   2.757
 7532SOL    HW123495   5.237   5.196   2.723
 7532SOL    HW223496   5.223   5.040   2.770
 7533SOL     OW23497   3.741   0.591   4.477
 7533SOL    HW123498   3.707   0.579   4.570
 7533SOL    HW223499   3.757   0.501   4.436
 7534SOL     OW23500   4.926   0.022   4.731
 7534SOL    HW123501   4.893   0.002   4.639
 7534SOL    HW223502   4.896   6.972   4.794
 7535SOL     OW23503   3.161   3.460   6.146
 7535SOL    HW123504   3.133   3.486   6.238
 7535SOL    HW223505   3.242   3.401   6.151
 7536SOL     OW23506   3.541   6.546   4.228
 7536SOL    HW123507   3.576   6.496   4.149
 7536SOL    HW223508   3.452   6.509   4.254
 7537SOL     OW23509   2.289   4.796   5.851
 7537SOL    HW123510   2.226   4.723   5.824
 7537SOL    HW223511   2.317   4.781   5.946
 7538SOL     OW23512   2.965   3.509   2.339
 7538SOL    HW123513   3.022   3.475   2.264
 7538SOL    HW223514   2.953   3.438   2.408
 7539SOL     OW23515   1.747   2.704   4.522
 7539SOL    HW123516   1.801   2.652   4.588
 7539SOL    HW223517   1.788   2.696   4.432
 7540SOL     OW23518   2.486   1.654   0.135
 7540SOL    HW123519   2.524   1.563   0.122
 7540SOL    HW223520   2.467   1.669   0.232
 7541SOL     OW23521   6.357   2.273   5.793
 7541SOL    HW123522   6.423   2.200   5.775
 7541SOL    HW223523   6.371   2.309   5.885
 7542SOL     OW23524   1.596   6.714   6.705
 7542SOL    HW123525   1.610   6.813   6.704
 7542SOL    HW223526   1.512   6.692   6.655
 7543SOL     OW23527   3.501   3.153   0.146
 7543SOL    HW123528   3.557   3.103   0.081
 7543SOL    HW223529   3.539   3.244   0.161
 7544SOL     OW23530   2.357   2.007   2.355
 7544SOL    HW123531   2.302   1.925   2.339
 7544SOL    HW223532   2.452   1.990   2.329
 7545SOL     OW23533   5.157   6.428   4.617
 7545SOL    HW123534   5.153   6.345   4.561
 7545SOL    HW223535   5.223   6.491   4.577
 7546SOL     OW23536   4.940   0.746   6.941
 7546SOL    HW123537   4.985   0.814   6.882
 7546SOL    HW223538   5.006   0.675   6.965
 7547SOL     OW23539   3.371   0.045   0.045
 7547SOL    HW123540   3.361   0.022   6.970
 7547SOL    HW223541   3.468   0.050   0.068
 7548SOL     OW23542   1.611   2.568   1.412
 7548SOL    HW123543   1.527   2.514   1.409
 7548SOL    HW223544   1.598   2.653   1.361
 7549SOL     OW23545   5.887   2.215   2.428
 7549SOL    HW123546   5.930   2.128   2.452
 7549SOL    HW223547   5.792   2.215   2.459
 7550SOL     OW23548   2.204   5.703   1.202
 7550SOL    HW123549   2.190   5.780   1.139
 7550SOL    HW223550   2.162   5.621   1.164
 7551SOL     OW23551   4.993   3.508   6.454
 7551SOL    HW123552   4.983   3.585   6.517
 7551SOL    HW223553   5.013   3.425   6.506
 7552SOL     OW23554   3.675   5.141   3.891
 7552SOL    HW123555   3.646   5.084   3.814
 7552SOL    HW223556   3.654   5.237   3.871
 7553SOL     OW23557   4.310   4.885   5.901
 7553SOL    HW123558   4.404   4.873   5.933
 7553SOL    HW223559   4.306   4.959   5.835
 7554SOL     OW23560   6.450   1.004   1.288
 7554SOL    HW123561   6.513   1.075   1.319
 7554SOL    HW223562   6.499   0.917   1.281
 7555SOL     OW23563   0.992   5.778   5.177
 7555SOL    HW123564   1.006   5.808   5.272
 7555SOL    HW223565   0.942   5.691   5.177
 7556SOL     OW23566   0.368   2.889   4.821
 7556SOL    HW123567   0.462   2.882   4.857
 7556SOL    HW223568   0.347   2.984   4.802
 7557SOL     OW23569   4.626   3.823   6.992
 7557SOL    HW123570   4.682   3.807   6.911
 7557SOL    HW223571   4.686   3.834   0.050
 7558SOL     OW23572   1.400   3.259   3.418
 7558SOL    HW123573   1.410   3.318   3.498
 7558SOL    HW223574   1.429   3.166   3.442
 7559SOL     OW23575   0.744   4.327   1.213
 7559SOL    HW123576   0.699   4.237   1.214
 7559SOL    HW223577   0.841   4.315   1.195
 7560SOL     OW23578   4.256   6.531   6.837
 7560SOL    HW123579   4.248   6.447   6.784
 7560SOL    HW223580   4.326   6.520   6.908
 7561SOL     OW23581   0.515   2.664   0.863
 7561SOL    HW123582   0.489   2.578   0.907
 7561SOL    HW223583   0.494   2.658   0.765
 7562SOL     OW23584   5.566   5.663   5.278
 7562SOL    HW123585   5.551   5.726   5.202
 7562SOL    HW223586   5.562   5.569   5.244
 7563SOL     OW23587   2.046   0.816   2.306
 7563SOL    HW123588   2.143   0.791   2.300
 7563SOL    HW223589   1.990   0.733   2.301
 7564SOL     OW23590   4.902   5.967   3.877
 7564SOL    HW123591   4.869   6.061   3.885
 7564SOL    HW223592   4.922   5.931   3.968
 7565SOL     OW23593   4.728   4.564   0.781
 7565SOL    HW123594   4.821   4.537   0.808
 7565SOL    HW223595   4.719   4.557   0.682
 7566SOL     OW23596   1.436   6.319   4.508
 7566SOL    HW123597   1.530   6.292   4.486
 7566SOL    HW223598   1.373   6.246   4.479
 7567SOL     OW23599   2.940   3.971   0.165
 7567SOL    HW123600   2.941   3.931   0.073
 7567SOL    HW223601   2.930   3.898   0.232
 7568SOL     OW23602   4.799   4.495   2.978
 7568SOL    HW123603   4.708   4.452   2.979
 7568SOL    HW223604   4.849   4.463   2.898
 7569SOL     OW23605   4.299   0.145   0.759
 7569SOL    HW123606   4.199   0.137   0.764
 7569SOL    HW223607   4.339   0.054   0.748
 7570SOL     OW23608   6.538   4.975   4.167
 7570SOL    HW123609   6.513   4.887   4.206
 7570SOL    HW223610   6.457   5.033   4.160
 7571SOL     OW23611   5.261   4.473   2.196
 7571SOL    HW123612   5.343   4.418   2.209
 7571SOL    HW223613   5.276   4.565   2.233
 7572SOL     OW23614   2.349   1.565   4.506
 7572SOL    HW123615   2.299   1.505   4.444
 7572SOL    HW223616   2.307   1.563   4.596
 7573SOL     OW23617   2.447   5.516   4.432
 7573SOL    HW123618   2.382   5.496   4.359
 7573SOL    HW223619   2.423   5.603   4.476
 7574SOL     OW23620   5.390   6.605   2.643
 7574SOL    HW123621   5.385   6.675   2.572
 7574SOL    HW223622   5.298   6.582   2.675
 7575SOL     OW23623   3.631   1.989   4.856
 7575SOL    HW123624   3.685   2.004   4.773
 7575SOL    HW223625   3.671   1.916   4.910
 7576SOL     OW23626   6.110   2.963   0.967
 7576SOL    HW123627   6.098   2.994   1.061
 7576SOL    HW223628   6.020   2.958   0.923
 7577SOL     OW23629   4.839   0.652   5.254
 7577SOL    HW123630   4.881   0.582   5.312
 7577SOL    HW223631   4.756   0.688   5.299
 7578SOL     OW23632   2.500   4.759   4.221
 7578SOL    HW123633   2.456   4.673   4.246
 7578SOL    HW223634   2.541   4.800   4.303
 7579SOL     OW23635   3.671   1.265   3.049
 7579SOL    HW123636   3.702   1.218   2.967
 7579SOL    HW223637   3.585   1.312   3.030
 7580SOL     OW23638   1.568   4.095   3.094
 7580SOL    HW123639   1.514   4.036   3.035
 7580SOL    HW223640   1.644   4.043   3.132
 7581SOL     OW23641   6.210   0.549   0.959
 7581SOL    HW123642   6.127   0.507   0.922
 7581SOL    HW223643   6.186   0.624   1.020
 7582SOL     OW23644   2.919   0.895   1.077
 7582SOL    HW123645   2.829   0.912   1.117
 7582SOL    HW223646   2.990   0.919   1.143
 7583SOL     OW23647   0.028   3.358   2.591
 7583SOL    HW123648   0.098   3.361   2.663
 7583SOL    HW223649   0.033   3.271   2.542
 7584SOL     OW23650   2.475   0.459   1.196
 7584SOL    HW123651   2.483   0.365   1.163
 7584SOL    HW223652   2.386   0.496   1.169
 7585SOL     OW23653   1.833   4.916   6.172
 7585SOL    HW123654   1.741   4.890   6.142
 7585SOL    HW223655   1.845   4.890   6.268
 7586SOL     OW23656   2.675   0.626   2.341
 7586SOL    HW123657   2.682   0.725   2.329
 7586SOL    HW223658   2.632   0.586   2.260
 7587SOL     OW23659   1.636   1.223   5.835
 7587SOL    HW123660   1.712   1.286   5.822
 7587SOL    HW223661   1.560   1.271   5.881
 7588SOL     OW23662   0.003   4.258   1.619
 7588SOL    HW123663   0.073   4.329   1.628
 7588SOL    HW223664   7.006   4.243   1.522
 7589SOL     OW23665   5.675   6.063   0.571
 7589SOL    HW123666   5.631   6.017   0.648
 7589SOL    HW223667   5.613   6.132   0.534
 7590SOL     OW23668   1.551   0.772   5.909
 7590SOL    HW123669   1.542   0.779   6.008
 7590SOL    HW223670   1.626   0.711   5.886
 7591SOL     OW23671   6.855   4.730   0.547
 7591SOL    HW123672   6.918   4.805   0.564
 7591SOL    HW223673   6.857   4.705   0.450
 7592SOL     OW23674   5.660   5.749   0.373
 7592SOL    HW123675   5.582   5.806   0.399
 7592SOL    HW223676   5.740   5.777   0.426
 7593SOL     OW23677   6.045   2.248   6.877
 7593SOL    HW123678   6.131   2.257   6.928
 7593SOL    HW223679   6.053   2.296   6.790
 7594SOL     OW23680   1.447   5.986   3.838
 7594SOL    HW123681   1.535   5.942   3.826
 7594SOL    HW223682   1.423   5.987   3.935
 7595SOL     OW23683   6.117   2.921   0.294
 7595SOL    HW123684   6.135   2.824   0.311
 7595SOL    HW223685   6.161   2.949   0.209
 7596SOL     OW23686   5.561   4.603   1.871
 7596SOL    HW123687   5.517   4.691   1.891
 7596SOL    HW223688   5.617   4.576   1.949
 7597SOL     OW23689   3.503   5.264   1.558
 7597SOL    HW123690   3.541   5.310   1.478
 7597SOL    HW223691   3.546   5.301   1.641
 7598SOL     OW23692   6.513   1.272   3.299
 7598SOL    HW123693   6.473   1.243   3.386
 7598SOL    HW223694   6.481   1.211   3.226
 7599SOL     OW23695   6.157   2.466   2.450
 7599SOL    HW123696   6.073   2.413   2.464
 7599SOL    HW223697   6.213   2.462   2.532
 7600SOL     OW23698   2.001   1.554   1.425
 7600SOL    HW123699   2.005   1.474   1.365
 7600SOL    HW223700   2.060   1.626   1.388
 7601SOL     OW23701   2.037   6.937   4.470
 7601SOL    HW123702   2.109   6.927   4.402
 7601SOL    HW223703   2.002   6.847   4.495
 7602SOL     OW23704   0.921   3.842   4.922
 7602SOL    HW123705   1.018   3.867   4.930
 7602SOL    HW223706   0.869   3.922   4.892
 7603SOL     OW23707   0.876   6.703   1.239
 7603SOL    HW123708   0.810   6.653   1.296
 7603SOL    HW223709   0.834   6.788   1.208
 7604SOL     OW23710   5.098   6.355   5.925
 7604SOL    HW123711   5.109   6.454   5.912
 7604SOL    HW223712   5.033   6.320   5.857
 7605SOL     OW23713   6.019   4.734   6.604
 7605SOL    HW123714   5.941   4.674   6.625
 7605SOL    HW223715   6.064   4.761   6.689
 7606SOL     OW23716   6.076   1.758   2.819
 7606SOL    HW123717   6.089   1.857   2.809
 7606SOL    HW223718   6.047   1.738   2.913
 7607SOL     OW23719   4.836   0.046   6.685
 7607SOL    HW123720   4.841   0.102   6.602
 7607SOL    HW223721   4.745   0.004   6.690
 7608SOL     OW23722   3.386   3.292   3.580
 7608SOL    HW123723   3.339   3.308   3.494
 7608SOL    HW223724   3.481   3.322   3.573
 7609SOL     OW23725   1.281   3.223   4.615
 7609SOL    HW123726   1.290   3.201   4.518
 7609SOL    HW223727   1.365   3.266   4.648
 7610SOL     OW23728   5.531   0.188   1.199
 7610SOL    HW123729   5.544   0.236   1.286
 7610SOL    HW223730   5.582   0.102   1.201
 7611SOL     OW23731   1.812   1.788   0.697
 7611SOL    HW123732   1.873   1.747   0.629
 7611SOL    HW223733   1.854   1.871   0.734
 7612SOL     OW23734   4.170   1.927   3.082
 7612SOL    HW123735   4.227   1.948   3.161
 7612SOL    HW223736   4.227   1.904   3.003
 7613SOL     OW23737   4.634   1.157   2.185
 7613SOL    HW123738   4.686   1.223   2.131
 7613SOL    HW223739   4.696   1.107   2.245
 7614SOL     OW23740   4.142   2.432   0.520
 7614SOL    HW123741   4.221   2.472   0.566
 7614SOL    HW223742   4.155   2.435   0.421
 7615SOL     OW23743   3.691   5.071   5.685
 7615SOL    HW123744   3.769   5.083   5.747
 7615SOL    HW223745   3.715   5.107   5.595
 7616SOL     OW23746   6.173   4.136   3.667
 7616SOL    HW123747   6.101   4.134   3.736
 7616SOL    HW223748   6.166   4.055   3.610
 7617SOL     OW23749   2.944   5.872   2.283
 7617SOL    HW123750   2.993   5.785   2.295
 7617SOL    HW223751   2.953   5.926   2.367
 7618SOL     OW23752   1.895   2.407   0.427
 7618SOL    HW123753   1.895   2.351   0.510
 7618SOL    HW223754   1.896   2.349   0.346
 7619SOL     OW23755   5.300   3.429   5.962
 7619SOL    HW123756   5.363   3.352   5.968
 7619SOL    HW223757   5.256   3.443   6.051
 7620SOL     OW23758   3.387   6.698   1.840
 7620SOL    HW123759   3.483   6.704   1.867
 7620SOL    HW223760   3.381   6.684   1.741
 7621SOL     OW23761   2.319   1.327   1.889
 7621SOL    HW123762   2.351   1.414   1.852
 7621SOL    HW223763   2.261   1.281   1.821
 7622SOL     OW23764   4.255   2.558   0.198
 7622SOL    HW123765   4.247   2.635   0.134
 7622SOL    HW223766   4.350   2.553   0.231
 7623SOL     OW23767   4.249   0.589   5.804
 7623SOL    HW123768   4.279   0.495   5.789
 7623SOL    HW223769   4.277   0.646   5.728
 7624SOL     OW23770   0.641   0.763   3.445
 7624SOL    HW123771   0.550   0.745   3.483
 7624SOL    HW223772   0.688   0.831   3.501
 7625SOL     OW23773   4.258   0.223   1.558
 7625SOL    HW123774   4.343   0.231   1.505
 7625SOL    HW223775   4.277   0.175   1.644
 7626SOL     OW23776   1.667   5.565   4.967
 7626SOL    HW123777   1.676   5.546   5.065
 7626SOL    HW223778   1.756   5.554   4.922
 7627SOL     OW23779   0.097   2.626   0.404
 7627SOL    HW123780   0.126   2.534   0.378
 7627SOL    HW223781   0.176   2.687   0.406
 7628SOL     OW23782   3.240   1.794   0.903
 7628SOL    HW123783   3.220   1.780   0.806
 7628SOL    HW223784   3.239   1.892   0.923
 7629SOL     OW23785   6.710   5.656   3.660
 7629SOL    HW123786   6.695   5.571   3.609
 7629SOL    HW223787   6.666   5.731   3.611
 7630SOL     OW23788   6.151   0.814   2.502
 7630SOL    HW123789   6.208   0.743   2.462
 7630SOL    HW223790   6.191   0.904   2.483
 7631SOL     OW23791   0.597   2.478   3.566
 7631SOL    HW123792   0.589   2.572   3.534
 7631SOL    HW223793   0.558   2.416   3.497
 7632SOL     OW23794   4.769   1.291   0.152
 7632SOL    HW123795   4.765   1.238   0.237
 7632SOL    HW223796   4.685   1.345   0.143
 7633SOL     OW23797   5.617   3.880   0.048
 7633SOL    HW123798   5.546   3.905   0.114
 7633SOL    HW223799   5.653   3.789   0.071
 7634SOL     OW23800   1.256   1.638   2.036
 7634SOL    HW123801   1.338   1.610   1.987
 7634SOL    HW223802   1.229   1.566   2.100
 7635SOL     OW23803   3.003   4.604   5.551
 7635SOL    HW123804   3.068   4.533   5.523
 7635SOL    HW223805   2.913   4.583   5.514
 7636SOL     OW23806   1.101   0.529   3.827
 7636SOL    HW123807   1.175   0.590   3.855
 7636SOL    HW223808   1.014   0.578   3.833
 7637SOL     OW23809   1.854   5.853   4.391
 7637SOL    HW123810   1.951   5.844   4.366
 7637SOL    HW223811   1.846   5.874   4.488
 7638SOL     OW23812   5.155   5.044   2.248
 7638SOL    HW123813   5.164   5.066   2.151
 7638SOL    HW223814   5.073   5.087   2.285
 7639SOL     OW23815   0.884   2.001   4.902
 7639SOL    HW123816   0.916   2.069   4.967
 7639SOL    HW223817   0.880   1.911   4.946
 7640SOL     OW23818   2.267   1.581   6.550
 7640SOL    HW123819   2.337   1.567   6.621
 7640SOL    HW223820   2.299   1.649   6.485
 7641SOL     OW23821   5.885   3.977   2.198
 7641SOL    HW123822   5.963   3.951   2.141
 7641SOL    HW223823   5.902   4.069   2.236
 7642SOL     OW23824   2.422   2.104   2.656
 7642SOL    HW123825   2.403   2.084   2.560
 7642SOL    HW223826   2.353   2.059   2.713
 7643SOL     OW23827   4.856   2.962   3.296
 7643SOL    HW123828   4.866   3.003   3.386
 7643SOL    HW223829   4.797   3.020   3.239
 7644SOL     OW23830   0.026   3.430   3.171
 7644SOL    HW123831   0.011   3.529   3.169
 7644SOL    HW223832   0.058   3.399   3.082
 7645SOL     OW23833   4.704   3.654   6.517
 7645SOL    HW123834   4.607   3.655   6.493
 7645SOL    HW223835   4.756   3.614   6.442
 7646SOL     OW23836   2.155   1.887   1.813
 7646SOL    HW123837   2.164   1.795   1.774
 7646SOL    HW223838   2.065   1.895   1.857
 7647SOL     OW23839   2.373   3.946   1.558
 7647SOL    HW123840   2.399   4.042   1.566
 7647SOL    HW223841   2.350   3.909   1.648
 7648SOL     OW23842   4.281   0.928   3.495
 7648SOL    HW123843   4.187   0.959   3.488
 7648SOL    HW223844   4.341   0.989   3.443
 7649SOL     OW23845   3.163   1.007   1.893
 7649SOL    HW123846   3.083   1.064   1.911
 7649SOL    HW223847   3.237   1.064   1.859
 7650SOL     OW23848   6.362   4.679   2.509
 7650SOL    HW123849   6.350   4.619   2.588
 7650SOL    HW223850   6.302   4.648   2.434
 7651SOL     OW23851   3.787   1.363   6.416
 7651SOL    HW123852   3.694   1.336   6.443
 7651SOL    HW223853   3.805   1.456   6.449
 7652SOL     OW23854   0.923   3.551   2.261
 7652SOL    HW123855   0.878   3.604   2.333
 7652SOL    HW223856   0.979   3.613   2.205
 7653SOL     OW23857   3.005   2.297   1.232
 7653SOL    HW123858   3.033   2.239   1.156
 7653SOL    HW223859   3.067   2.282   1.309
 7654SOL     OW23860   5.008   3.981   3.628
 7654SOL    HW123861   5.075   3.976   3.553
 7654SOL    HW223862   5.025   4.063   3.683
 7655SOL     OW23863   4.220   6.250   5.190
 7655SOL    HW123864   4.311   6.256   5.151
 7655SOL    HW223865   4.221   6.188   5.269
 7656SOL     OW23866   0.969   6.491   4.995
 7656SOL    HW123867   0.875   6.471   5.024
 7656SOL    HW223868   1.012   6.550   5.062
 7657SOL     OW23869   3.726   1.203   3.754
 7657SOL    HW123870   3.734   1.119   3.807
 7657SOL    HW223871   3.817   1.232   3.723
 7658SOL     OW23872   4.028   1.010   6.188
 7658SOL    HW123873   4.125   1.024   6.166
 7658SOL    HW223874   3.972   1.061   6.122
 7659SOL     OW23875   6.015   0.378   0.859
 7659SOL    HW123876   5.927   0.366   0.904
 7659SOL    HW223877   6.071   0.296   0.872
 7660SOL     OW23878   6.123   4.917   4.238
 7660SOL    HW123879   6.120   5.017   4.245
 7660SOL    HW223880   6.089   4.889   4.149
 7661SOL     OW23881   6.294   2.906   3.268
 7661SOL    HW123882   6.265   2.874   3.358
 7661SOL    HW223883   6.391   2.928   3.270
 7662SOL     OW23884   6.964   4.918   1.891
 7662SOL    HW123885   0.038   4.945   1.903
 7662SOL    HW223886   6.907   5.000   1.883
 7663SOL     OW23887   0.091   5.450   0.047
 7663SOL    HW123888   0.183   5.436   0.012
 7663SOL    HW223889   0.090   5.529   0.108
 7664SOL     OW23890   2.450   5.112   3.889
 7664SOL    HW123891   2.350   5.108   3.890
 7664SOL    HW223892   2.482   5.182   3.952
 7665SOL     OW23893   3.106   6.997   5.114
 7665SOL    HW123894   3.015   6.995   5.156
 7665SOL    HW223895   3.101   0.023   5.026
 7666SOL     OW23896   1.041   0.709   1.131
 7666SOL    HW123897   1.106   0.672   1.198
 7666SOL    HW223898   1.002   0.633   1.078
 7667SOL     OW23899   4.368   5.917   6.416
 7667SOL    HW123900   4.363   5.943   6.513
 7667SOL    HW223901   4.396   5.821   6.409
 7668SOL     OW23902   3.341   3.924   1.065
 7668SOL    HW123903   3.364   4.020   1.082
 7668SOL    HW223904   3.245   3.909   1.087
 7669SOL     OW23905   4.809   6.339   4.549
 7669SOL    HW123906   4.750   6.410   4.510
 7669SOL    HW223907   4.800   6.339   4.648
 7670SOL     OW23908   1.682   4.733   1.034
 7670SOL    HW123909   1.781   4.745   1.032
 7670SOL    HW223910   1.653   4.706   1.126
 7671SOL     OW23911   6.040   2.605   4.708
 7671SOL    HW123912   5.956   2.656   4.690
 7671SOL    HW223913   6.023   2.507   4.694
 7672SOL     OW23914   5.608   0.905   2.521
 7672SOL    HW123915   5.517   0.885   2.484
 7672SOL    HW223916   5.637   0.995   2.490
 7673SOL     OW23917   1.193   4.417   0.909
 7673SOL    HW123918   1.207   4.334   0.963
 7673SOL    HW223919   1.123   4.400   0.840
 7674SOL     OW23920   5.789   1.541   4.774
 7674SOL    HW123921   5.861   1.570   4.711
 7674SOL    HW223922   5.713   1.605   4.770
 7675SOL     OW23923   4.414   6.416   3.212
 7675SOL    HW123924   4.431   6.318   3.204
 7675SOL    HW223925   4.446   6.448   3.301
 7676SOL     OW23926   1.839   0.327   0.842
 7676SOL    HW123927   1.808   0.405   0.897
 7676SOL    HW223928   1.767   0.300   0.779
 7677SOL     OW23929   2.208   2.926   2.787
 7677SOL    HW123930   2.154   3.010   2.782
 7677SOL    HW223931   2.210   2.882   2.697
 7678SOL     OW23932   6.159   6.669   0.425
 7678SOL    HW123933   6.095   6.653   0.350
 7678SOL    HW223934   6.108   6.675   0.511
 7679SOL     OW23935   1.027   4.901   5.278
 7679SOL    HW123936   1.009   4.993   5.243
 7679SOL    HW223937   1.085   4.907   5.359
 7680SOL     OW23938   3.977   2.844   6.973
 7680SOL    HW123939   3.927   2.929   6.992
 7680SOL    HW223940   3.915   2.778   6.929
 7681SOL     OW23941   3.007   1.688   6.951
 7681SOL    HW123942   3.094   1.650   6.919
 7681SOL    HW223943   2.994   1.664   0.025
 7682SOL     OW23944   3.038   0.051   1.609
 7682SOL    HW123945   2.947   0.014   1.589
 7682SOL    HW223946   3.092   7.005   1.659
 7683SOL     OW23947   5.622   1.839   3.351
 7683SOL    HW123948   5.536   1.862   3.307
 7683SOL    HW223949   5.616   1.748   3.392
 7684SOL     OW23950   4.243   1.867   5.978
 7684SOL    HW123951   4.178   1.880   5.904
 7684SOL    HW223952   4.234   1.942   6.044
 7685SOL     OW23953   3.383   2.862   0.899
 7685SOL    HW123954   3.391   2.955   0.863
 7685SOL    HW223955   3.442   2.801   0.846
 7686SOL     OW23956   3.745   0.214   3.821
 7686SOL    HW123957   3.756   0.310   3.847
 7686SOL    HW223958   3.655   0.182   3.850
 7687SOL     OW23959   5.124   4.880   5.441
 7687SOL    HW123960   5.080   4.970   5.438
 7687SOL    HW223961   5.082   4.825   5.513
 7688SOL     OW23962   6.996   6.515   4.548
 7688SOL    HW123963   0.035   6.440   4.524
 7688SOL    HW223964   6.967   6.505   4.643
 7689SOL     OW23965   4.040   6.408   4.654
 7689SOL    HW123966   4.111   6.478   4.648
 7689SOL    HW223967   4.029   6.381   4.750
 7690SOL     OW23968   0.700   5.495   3.347
 7690SOL    HW123969   0.624   5.531   3.294
 7690SOL    HW223970   0.682   5.399   3.369
 7691SOL     OW23971   4.901   3.234   4.637
 7691SOL    HW123972   4.994   3.230   4.675
 7691SOL    HW223973   4.860   3.143   4.639
 7692SOL     OW23974   1.969   6.348   2.000
 7692SOL    HW123975   1.998   6.342   2.095
 7692SOL    HW223976   2.040   6.309   1.941
 7693SOL     OW23977   5.032   1.619   6.338
 7693SOL    HW123978   5.127   1.586   6.339
 7693SOL    HW223979   4.996   1.617   6.431
 7694SOL     OW23980   0.291   5.305   4.111
 7694SOL    HW123981   0.198   5.274   4.091
 7694SOL    HW223982   0.353   5.271   4.041
 7695SOL     OW23983   3.605   7.000   0.833
 7695SOL    HW123984   3.598   0.015   0.925
 7695SOL    HW223985   3.698   6.964   0.819
 7696SOL     OW23986   0.231   3.334   5.932
 7696SOL    HW123987   0.296   3.289   5.992
 7696SOL    HW223988   0.188   3.266   5.872
 7697SOL     OW23989   3.880   1.868   2.101
 7697SOL    HW123990   3.927   1.951   2.133
 7697SOL    HW223991   3.798   1.894   2.050
 7698SOL     OW23992   6.694   3.071   6.030
 7698SOL    HW123993   6.665   3.015   5.952
 7698SOL    HW223994   6.626   3.065   6.102
 7699SOL     OW23995   2.551   5.114   6.736
 7699SOL    HW123996   2.646   5.115   6.767
 7699SOL    HW223997   2.512   5.023   6.751
 7700SOL     OW23998   4.736   6.325   4.814
 7700SOL    HW123999   4.781   6.238   4.836
 7700SOL    HW224000   4.678   6.352   4.891
 7701SOL     OW24001   6.347   2.208   4.533
 7701SOL    HW124002   6.398   2.288   4.565
 7701SOL    HW224003   6.360   2.132   4.597
 7702SOL     OW24004   2.869   6.786   5.714
 7702SOL    HW124005   2.888   6.688   5.709
 7702SOL    HW224006   2.950   6.834   5.748
 7703SOL     OW24007   0.407   1.231   5.967
 7703SOL    HW124008   0.441   1.242   5.874
 7703SOL    HW224009   0.383   1.320   6.005
 7704SOL     OW24010   4.320   4.516   6.999
 7704SOL    HW124011   4.241   4.454   6.998
 7704SOL    HW224012   4.298   4.597   0.032
 7705SOL     OW24013   3.556   4.963   4.844
 7705SOL    HW124014   3.489   4.944   4.772
 7705SOL    HW224015   3.648   4.952   4.807
 7706SOL     OW24016   6.769   1.023   4.851
 7706SOL    HW124017   6.670   1.036   4.842
 7706SOL    HW224018   6.788   0.941   4.905
 7707SOL     OW24019   0.252   4.955   5.959
 7707SOL    HW124020   0.335   5.006   5.936
 7707SOL    HW224021   0.189   4.958   5.882
 7708SOL     OW24022   4.556   6.227   4.411
 7708SOL    HW124023   4.524   6.319   4.387
 7708SOL    HW224024   4.637   6.233   4.469
 7709SOL     OW24025   4.226   2.219   2.247
 7709SOL    HW124026   4.294   2.148   2.233
 7709SOL    HW224027   4.145   2.180   2.291
 7710SOL     OW24028   2.120   1.290   6.823
 7710SOL    HW124029   2.115   1.192   6.846
 7710SOL    HW224030   2.100   1.302   6.725
 7711SOL     OW24031   5.400   6.537   5.593
 7711SOL    HW124032   5.425   6.442   5.607
 7711SOL    HW224033   5.434   6.568   5.503
 7712SOL     OW24034   5.278   5.407   1.087
 7712SOL    HW124035   5.366   5.405   1.039
 7712SOL    HW224036   5.222   5.329   1.059
 7713SOL     OW24037   1.081   4.356   6.345
 7713SOL    HW124038   1.081   4.362   6.445
 7713SOL    HW224039   1.128   4.436   6.307
 7714SOL     OW24040   5.548   4.323   4.174
 7714SOL    HW124041   5.583   4.280   4.091
 7714SOL    HW224042   5.622   4.333   4.240
 7715SOL     OW24043   4.888   1.083   1.060
 7715SOL    HW124044   4.859   1.019   0.988
 7715SOL    HW224045   4.850   1.054   1.147
 7716SOL     OW24046   4.482   2.029   3.112
 7716SOL    HW124047   4.488   2.110   3.052
 7716SOL    HW224048   4.480   1.947   3.055
 7717SOL     OW24049   3.251   1.855   5.723
 7717SOL    HW124050   3.255   1.910   5.639
 7717SOL    HW224051   3.287   1.764   5.705
 7718SOL     OW24052   3.190   6.214   3.968
 7718SOL    HW124053   3.181   6.182   3.873
 7718SOL    HW224054   3.099   6.223   4.008
 7719SOL     OW24055   6.711   2.201   4.722
 7719SOL    HW124056   6.791   2.230   4.774
 7719SOL    HW224057   6.727   2.215   4.624
 7720SOL     OW24058   5.910   5.674   1.947
 7720SOL    HW124059   5.961   5.734   2.010
 7720SOL    HW224060   5.972   5.608   1.907
 7721SOL     OW24061   1.777   4.417   2.542
 7721SOL    HW124062   1.860   4.451   2.497
 7721SOL    HW224063   1.706   4.488   2.539
 7722SOL     OW24064   6.998   5.572   3.902
 7722SOL    HW124065   0.015   5.664   3.893
 7722SOL    HW224066   6.996   5.528   3.812
 7723SOL     OW24067   6.647   3.087   0.393
 7723SOL    HW124068   6.581   3.150   0.432
 7723SOL    HW224069   6.619   2.993   0.412
 7724SOL     OW24070   1.344   4.757   1.310
 7724SOL    HW124071   1.388   4.828   1.255
 7724SOL    HW224072   1.397   4.672   1.303
 7725SOL     OW24073   5.187   3.198   4.506
 7725SOL    HW124074   5.280   3.171   4.531
 7725SOL    HW224075   5.172   3.177   4.409
 7726SOL     OW24076   0.499   4.349   3.218
 7726SOL    HW124077   0.548   4.334   3.132
 7726SOL    HW224078   0.557   4.401   3.280
 7727SOL     OW24079   6.271   2.951   1.846
 7727SOL    HW124080   6.296   3.048   1.843
 7727SOL    HW224081   6.222   2.927   1.762
 7728SOL     OW24082   2.589   2.136   3.044
 7728SOL    HW124083   2.642   2.216   3.016
 7728SOL    HW224084   2.621   2.055   2.994
 7729SOL     OW24085   5.124   2.402   0.730
 7729SOL    HW124086   5.200   2.406   0.665
 7729SOL    HW224087   5.045   2.450   0.690
 7730SOL     OW24088   6.146   0.686   2.090
 7730SOL    HW124089   6.204   0.698   2.170
 7730SOL    HW224090   6.197   0.638   2.019
 7731SOL     OW24091   5.534   1.037   6.564
 7731SOL    HW124092   5.506   0.956   6.512
 7731SOL    HW224093   5.545   1.114   6.502
 7732SOL     OW24094   4.405   5.470   0.780
 7732SOL    HW124095   4.385   5.446   0.875
 7732SOL    HW224096   4.500   5.448   0.759
 7733SOL     OW24097   3.529   0.260   2.179
 7733SOL    HW124098   3.570   0.171   2.161
 7733SOL    HW224099   3.472   0.287   2.101
 7734SOL     OW24100   2.034   2.277   2.963
 7734SOL    HW124101   2.006   2.207   2.897
 7734SOL    HW224102   2.113   2.243   3.015
 7735SOL     OW24103   4.564   4.473   0.055
 7735SOL    HW124104   4.474   4.497   0.019
 7735SOL    HW224105   4.557   4.454   0.153
 7736SOL     OW24106   6.488   4.687   6.608
 7736SOL    HW124107   6.500   4.678   6.707
 7736SOL    HW224108   6.409   4.633   6.579
 7737SOL     OW24109   5.059   1.246   0.771
 7737SOL    HW124110   5.095   1.159   0.735
 7737SOL    HW224111   5.103   1.267   0.858
 7738SOL     OW24112   2.775   5.161   6.891
 7738SOL    HW124113   2.697   5.148   6.953
 7738SOL    HW224114   2.860   5.153   6.944
 7739SOL     OW24115   6.104   3.093   1.214
 7739SOL    HW124116   6.197   3.132   1.217
 7739SOL    HW224117   6.065   3.094   1.306
 7740SOL     OW24118   0.383   6.660   3.010
 7740SOL    HW124119   0.319   6.682   3.083
 7740SOL    HW224120   0.476   6.668   3.044
 7741SOL     OW24121   2.398   5.446   4.751
 7741SOL    HW124122   2.380   5.454   4.653
 7741SOL    HW224123   2.327   5.391   4.794
 7742SOL     OW24124   6.474   1.516   4.072
 7742SOL    HW124125   6.500   1.476   3.984
 7742SOL    HW224126   6.378   1.545   4.069
 7743SOL     OW24127   4.435   2.333   3.636
 7743SOL    HW124128   4.501   2.261   3.660
 7743SOL    HW224129   4.362   2.334   3.704
 7744SOL     OW24130   6.490   0.543   4.486
 7744SOL    HW124131   6.534   0.487   4.557
 7744SOL    HW224132   6.507   0.640   4.505
 7745SOL     OW24133   4.431   3.814   6.107
 7745SOL    HW124134   4.516   3.864   6.120
 7745SOL    HW224135   4.369   3.833   6.183
 7746SOL     OW24136   1.314   0.314   0.668
 7746SOL    HW124137   1.214   0.307   0.666
 7746SOL    HW224138   1.341   0.396   0.718
 7747SOL     OW24139   5.164   6.142   0.975
 7747SOL    HW124140   5.174   6.241   0.985
 7747SOL    HW224141   5.213   6.096   1.050
 7748SOL     OW24142   3.256   4.197   6.800
 7748SOL    HW124143   3.180   4.208   6.736
 7748SOL    HW224144   3.221   4.184   6.892
 7749SOL     OW24145   5.780   3.049   5.696
 7749SOL    HW124146   5.743   2.956   5.692
 7749SOL    HW224147   5.705   3.115   5.687
 7750SOL     OW24148   6.184   5.018   2.531
 7750SOL    HW124149   6.168   5.116   2.517
 7750SOL    HW224150   6.177   4.997   2.628
 7751SOL     OW24151   0.767   2.847   2.166
 7751SOL    HW124152   0.706   2.781   2.210
 7751SOL    HW224153   0.850   2.801   2.135
 7752SOL     OW24154   4.665   2.197   3.637
 7752SOL    HW124155   4.714   2.283   3.646
 7752SOL    HW224156   4.704   2.143   3.563
 7753SOL     OW24157   3.076   1.835   4.563
 7753SOL    HW124158   3.148   1.773   4.593
 7753SOL    HW224159   2.992   1.814   4.612
 7754SOL     OW24160   5.195   6.516   1.977
 7754SOL    HW124161   5.225   6.564   2.059
 7754SOL    HW224162   5.274   6.498   1.918
 7755SOL     OW24163   0.146   4.715   5.263
 7755SOL    HW124164   0.200   4.745   5.185
 7755SOL    HW224165   0.202   4.656   5.321
 7756SOL     OW24166   2.558   4.968   2.154
 7756SOL    HW124167   2.535   4.903   2.082
 7756SOL    HW224168   2.560   4.922   2.242
 7757SOL     OW24169   6.895   4.075   1.936
 7757SOL    HW124170   6.806   4.043   1.905
 7757SOL    HW224171   6.917   4.161   1.891
 7758SOL     OW24172   1.405   1.629   4.806
 7758SOL    HW124173   1.323   1.684   4.820
 7758SOL    HW224174   1.416   1.610   4.708
 7759SOL     OW24175   2.489   2.256   0.753
 7759SOL    HW124176   2.589   2.246   0.746
 7759SOL    HW224177   2.445   2.177   0.710
 7760SOL     OW24178   4.480   2.747   0.064
 7760SOL    HW124179   4.385   2.778   0.063
 7760SOL    HW224180   4.540   2.826   0.078
 7761SOL     OW24181   5.036   5.485   4.261
 7761SOL    HW124182   4.957   5.534   4.299
 7761SOL    HW224183   5.101   5.551   4.223
 7762SOL     OW24184   6.299   1.760   2.388
 7762SOL    HW124185   6.291   1.745   2.487
 7762SOL    HW224186   6.395   1.776   2.365
 7763SOL     OW24187   2.328   6.845   4.226
 7763SOL    HW124188   2.383   6.869   4.146
 7763SOL    HW224189   2.355   6.755   4.260
 7764SOL     OW24190   2.428   4.220   6.140
 7764SOL    HW124191   2.491   4.282   6.187
 7764SOL    HW224192   2.472   4.130   6.129
 7765SOL     OW24193   5.936   2.970   5.477
 7765SOL    HW124194   5.929   3.001   5.571
 7765SOL    HW224195   6.010   3.020   5.431
 7766SOL     OW24196   5.686   3.783   6.440
 7766SOL    HW124197   5.747   3.857   6.412
 7766SOL    HW224198   5.662   3.727   6.360
 7767SOL     OW24199   3.364   0.486   4.000
 7767SOL    HW124200   3.295   0.445   4.060
 7767SOL    HW224201   3.322   0.560   3.947
 7768SOL     OW24202   4.385   4.982   3.607
 7768SOL    HW124203   4.432   4.901   3.572
 7768SOL    HW224204   4.369   5.046   3.532
 7769SOL     OW24205   3.468   3.074   5.531
 7769SOL    HW124206   3.388   3.017   5.513
 7769SOL    HW224207   3.452   3.167   5.496
 7770SOL     OW24208   1.942   3.167   4.654
 7770SOL    HW124209   2.031   3.123   4.646
 7770SOL    HW224210   1.882   3.136   4.580
 7771SOL     OW24211   2.354   2.991   6.543
 7771SOL    HW124212   2.364   2.971   6.445
 7771SOL    HW224213   2.261   2.971   6.572
 7772SOL     OW24214   5.439   0.201   1.588
 7772SOL    HW124215   5.508   0.269   1.565
 7772SOL    HW224216   5.440   0.185   1.687
 7773SOL     OW24217   3.155   6.060   6.711
 7773SOL    HW124218   3.165   6.159   6.721
 7773SOL    HW224219   3.236   6.014   6.748
 7774SOL     OW24220   4.902   1.308   2.417
 7774SOL    HW124221   4.899   1.326   2.515
 7774SOL    HW224222   4.923   1.393   2.368
 7775SOL     OW24223   2.421   1.828   1.137
 7775SOL    HW124224   2.434   1.898   1.207
 7775SOL    HW224225   2.504   1.774   1.127
 7776SOL     OW24226   1.454   1.558   4.540
 7776SOL    HW124227   1.395   1.552   4.460
 7776SOL    HW224228   1.523   1.485   4.537
 7777SOL     OW24229   6.097   5.436   4.306
 7777SOL    HW124230   6.173   5.398   4.359
 7777SOL    HW224231   6.031   5.478   4.369
 7778SOL     OW24232   6.868   4.691   2.884
 7778SOL    HW124233   6.937   4.619   2.890
 7778SOL    HW224234   6.885   4.746   2.802
 7779SOL     OW24235   4.808   6.175   1.927
 7779SOL    HW124236   4.849   6.085   1.947
 7779SOL    HW224237   4.717   6.162   1.890
 7780SOL     OW24238   6.167   6.583   4.912
 7780SOL    HW124239   6.190   6.525   4.991
 7780SOL    HW224240   6.106   6.533   4.851
 7781SOL     OW24241   1.460   2.794   0.918
 7781SOL    HW124242   1.538   2.854   0.932
 7781SOL    HW224243   1.463   2.757   0.825
 7782SOL     OW24244   5.670   2.523   4.285
 7782SOL    HW124245   5.664   2.569   4.197
 7782SOL    HW224246   5.595   2.553   4.344
 7783SOL     OW24247   1.536   6.658   4.814
 7783SOL    HW124248   1.560   6.749   4.849
 7783SOL    HW224249   1.620   6.607   4.795
 7784SOL     OW24250   1.641   1.763   1.347
 7784SOL    HW124251   1.710   1.768   1.275
 7784SOL    HW224252   1.671   1.815   1.426
 7785SOL     OW24253   0.203   6.682   3.201
 7785SOL    HW124254   0.225   6.702   3.296
 7785SOL    HW224255   0.127   6.740   3.171
 7786SOL     OW24256   3.972   1.100   5.257
 7786SOL    HW124257   3.876   1.075   5.244
 7786SOL    HW224258   4.028   1.052   5.190
 7787SOL     OW24259   2.673   2.585   1.668
 7787SOL    HW124260   2.658   2.596   1.766
 7787SOL    HW224261   2.733   2.507   1.652
 7788SOL     OW24262   0.094   4.735   1.659
 7788SOL    HW124263   0.038   4.707   1.581
 7788SOL    HW224264   0.052   4.702   1.743
 7789SOL     OW24265   2.802   1.867   5.950
 7789SOL    HW124266   2.785   1.801   5.877
 7789SOL    HW224267   2.793   1.822   6.039
 7790SOL     OW24268   4.249   4.353   1.634
 7790SOL    HW124269   4.188   4.293   1.583
 7790SOL    HW224270   4.298   4.300   1.703
 7791SOL     OW24271   2.972   5.349   2.900
 7791SOL    HW124272   2.959   5.250   2.906
 7791SOL    HW224273   2.959   5.379   2.806
 7792SOL     OW24274   0.867   1.454   2.868
 7792SOL    HW124275   0.904   1.519   2.936
 7792SOL    HW224276   0.829   1.505   2.791
 7793SOL     OW24277   5.122   0.600   0.049
 7793SOL    HW124278   5.063   0.523   0.024
 7793SOL    HW224279   5.116   0.616   0.147
 7794SOL     OW24280   0.959   6.678   3.289
 7794SOL    HW124281   1.055   6.658   3.309
 7794SOL    HW224282   0.937   6.770   3.320
 7795SOL     OW24283   2.569   5.336   0.383
 7795SOL    HW124284   2.567   5.419   0.328
 7795SOL    HW224285   2.476   5.311   0.410
 7796SOL     OW24286   3.243   3.384   0.269
 7796SOL    HW124287   3.156   3.362   0.312
 7796SOL    HW224288   3.297   3.301   0.258
 7797SOL     OW24289   0.786   6.226   3.636
 7797SOL    HW124290   0.795   6.322   3.609
 7797SOL    HW224291   0.779   6.169   3.554
 7798SOL     OW24292   1.293   3.253   0.518
 7798SOL    HW124293   1.202   3.217   0.497
 7798SOL    HW224294   1.305   3.342   0.474
 7799SOL     OW24295   2.502   6.280   3.532
 7799SOL    HW124296   2.600   6.295   3.544
 7799SOL    HW224297   2.487   6.202   3.472
 7800SOL     OW24298   0.452   6.639   2.125
 7800SOL    HW124299   0.500   6.626   2.038
 7800SOL    HW224300   0.468   6.559   2.184
 7801SOL     OW24301   1.488   1.541   1.852
 7801SOL    HW124302   1.504   1.450   1.892
 7801SOL    HW224303   1.565   1.601   1.875
 7802SOL     OW24304   6.954   3.842   4.518
 7802SOL    HW124305   6.948   3.906   4.442
 7802SOL    HW224306   0.003   3.872   4.582
 7803SOL     OW24307   2.900   2.584   5.624
 7803SOL    HW124308   2.935   2.636   5.546
 7803SOL    HW224309   2.889   2.488   5.598
 7804SOL     OW24310   3.464   1.925   5.314
 7804SOL    HW124311   3.454   1.993   5.241
 7804SOL    HW224312   3.537   1.861   5.290
 7805SOL     OW24313   4.861   3.302   0.591
 7805SOL    HW124314   4.887   3.208   0.571
 7805SOL    HW224315   4.933   3.364   0.559
 7806SOL     OW24316   6.840   1.334   5.862
 7806SOL    HW124317   6.867   1.290   5.776
 7806SOL    HW224318   6.785   1.415   5.842
 7807SOL     OW24319   1.564   4.665   6.076
 7807SOL    HW124320   1.535   4.744   6.129
 7807SOL    HW224321   1.550   4.582   6.130
 7808SOL     OW24322   6.396   3.739   3.165
 7808SOL    HW124323   6.476   3.711   3.217
 7808SOL    HW224324   6.407   3.713   3.069
 7809SOL     OW24325   5.151   5.286   2.617
 7809SOL    HW124326   5.090   5.363   2.599
 7809SOL    HW224327   5.102   5.200   2.602
 7810SOL     OW24328   3.219   6.567   5.885
 7810SOL    HW124329   3.121   6.572   5.863
 7810SOL    HW224330   3.234   6.493   5.950
 7811SOL     OW24331   1.543   6.111   3.237
 7811SOL    HW124332   1.480   6.122   3.160
 7811SOL    HW224333   1.594   6.025   3.226
 7812SOL     OW24334   3.047   1.826   6.308
 7812SOL    HW124335   3.091   1.767   6.376
 7812SOL    HW224336   3.011   1.908   6.353
 7813SOL     OW24337   5.334   0.402   0.329
 7813SOL    HW124338   5.300   0.435   0.240
 7813SOL    HW224339   5.291   0.454   0.402
 7814SOL     OW24340   6.700   3.133   2.225
 7814SOL    HW124341   6.672   3.044   2.262
 7814SOL    HW224342   6.732   3.191   2.300
 7815SOL     OW24343   5.971   4.173   5.602
 7815SOL    HW124344   6.045   4.119   5.561
 7815SOL    HW224345   5.899   4.186   5.534
 7816SOL     OW24346   0.737   1.465   5.758
 7816SOL    HW124347   0.784   1.464   5.846
 7816SOL    HW224348   0.653   1.411   5.764
 7817SOL     OW24349   3.795   2.637   6.766
 7817SOL    HW124350   3.704   2.602   6.786
 7817SOL    HW224351   3.844   2.569   6.710
 7818SOL     OW24352   5.496   0.256   4.302
 7818SOL    HW124353   5.568   0.192   4.328
 7818SOL    HW224354   5.503   0.277   4.204
 7819SOL     OW24355   1.034   3.388   4.580
 7819SOL    HW124356   1.064   3.472   4.536
 7819SOL    HW224357   1.113   3.342   4.620
 7820SOL     OW24358   1.186   6.772   5.651
 7820SOL    HW124359   1.113   6.790   5.585
 7820SOL    HW224360   1.206   6.674   5.654
 7821SOL     OW24361   4.294   6.674   0.242
 7821SOL    HW124362   4.252   6.707   0.326
 7821SOL    HW224363   4.388   6.708   0.237
 7822SOL     OW24364   0.370   1.384   4.977
 7822SOL    HW124365   0.331   1.302   5.020
 7822SOL    HW224366   0.323   1.401   4.890
 7823SOL     OW24367   2.564   3.501   5.364
 7823SOL    HW124368   2.482   3.491   5.308
 7823SOL    HW224369   2.608   3.412   5.374
 7824SOL     OW24370   5.602   2.900   3.182
 7824SOL    HW124371   5.637   2.811   3.152
 7824SOL    HW224372   5.645   2.973   3.129
 7825SOL     OW24373   3.665   3.555   2.482
 7825SOL    HW124374   3.660   3.547   2.582
 7825SOL    HW224375   3.704   3.471   2.445
 7826SOL     OW24376   6.257   0.224   1.547
 7826SOL    HW124377   6.188   0.164   1.588
 7826SOL    HW224378   6.336   0.170   1.518
 7827SOL     OW24379   4.703   3.610   0.534
 7827SOL    HW124380   4.635   3.637   0.466
 7827SOL    HW224381   4.659   3.555   0.605
 7828SOL     OW24382   0.718   5.815   0.341
 7828SOL    HW124383   0.738   5.913   0.348
 7828SOL    HW224384   0.623   5.802   0.312
 7829SOL     OW24385   3.938   3.106   2.802
 7829SOL    HW124386   3.908   3.021   2.760
 7829SOL    HW224387   3.980   3.165   2.733
 7830SOL     OW24388   5.924   2.979   0.000
 7830SOL    HW124389   5.877   2.894   0.023
 7830SOL    HW224390   6.022   2.960   7.009
 7831SOL     OW24391   1.944   2.561   0.035
 7831SOL    HW124392   1.965   2.595   6.965
 7831SOL    HW224393   2.021   2.507   0.068
 7832SOL     OW24394   2.596   2.807   5.502
 7832SOL    HW124395   2.572   2.753   5.583
 7832SOL    HW224396   2.513   2.828   5.450
 7833SOL     OW24397   1.627   0.205   0.703
 7833SOL    HW124398   1.579   0.194   0.616
 7833SOL    HW224399   1.584   0.149   0.773
 7834SOL     OW24400   0.404   0.520   1.896
 7834SOL    HW124401   0.361   0.529   1.806
 7834SOL    HW224402   0.412   0.423   1.919
 7835SOL     OW24403   2.469   2.256   4.391
 7835SOL    HW124404   2.457   2.283   4.296
 7835SOL    HW224405   2.560   2.285   4.423
 7836SOL     OW24406   1.758   0.584   6.458
 7836SOL    HW124407   1.675   0.607   6.407
 7836SOL    HW224408   1.799   0.667   6.495
 7837SOL     OW24409   5.417   6.482   3.505
 7837SOL    HW124410   5.357   6.431   3.443
 7837SOL    HW224411   5.452   6.563   3.459
 7838SOL     OW24412   3.624   6.955   4.100
 7838SOL    HW124413   3.590   6.916   4.185
 7838SOL    HW224414   3.602   6.894   4.024
 7839SOL     OW24415   0.451   5.085   4.502
 7839SOL    HW124416   0.478   5.033   4.421
 7839SOL    HW224417   0.368   5.045   4.541
 7840SOL     OW24418   5.421   3.137   5.983
 7840SOL    HW124419   5.354   3.068   5.956
 7840SOL    HW224420   5.459   3.114   6.073
 7841SOL     OW24421   0.870   1.736   6.311
 7841SOL    HW124422   0.930   1.754   6.389
 7841SOL    HW224423   0.875   1.813   6.247
 7842SOL     OW24424   2.786   1.425   2.575
 7842SOL    HW124425   2.755   1.359   2.507
 7842SOL    HW224426   2.708   1.461   2.626
 7843SOL     OW24427   6.508   3.697   1.009
 7843SOL    HW124428   6.525   3.637   1.088
 7843SOL    HW224429   6.502   3.792   1.040
 7844SOL     OW24430   3.962   1.263   4.461
 7844SOL    HW124431   3.989   1.209   4.382
 7844SOL    HW224432   3.948   1.203   4.540
 7845SOL     OW24433   0.692   0.938   4.023
 7845SOL    HW124434   0.631   1.016   4.009
 7845SOL    HW224435   0.638   0.854   4.034
 7846SOL     OW24436   3.752   6.816   2.101
 7846SOL    HW124437   3.736   6.756   2.180
 7846SOL    HW224438   3.844   6.799   2.066
 7847SOL     OW24439   6.979   0.419   0.449
 7847SOL    HW124440   0.009   0.504   0.453
 7847SOL    HW224441   6.998   0.364   0.531
 7848SOL     OW24442   4.397   4.410   0.675
 7848SOL    HW124443   4.497   4.417   0.673
 7848SOL    HW224444   4.358   4.454   0.594
 7849SOL     OW24445   5.773   4.079   5.144
 7849SOL    HW124446   5.839   4.153   5.155
 7849SOL    HW224447   5.786   4.012   5.218
 7850SOL     OW24448   0.852   0.967   4.234
 7850SOL    HW124449   0.791   0.953   4.156
 7850SOL    HW224450   0.801   1.012   4.308
 7851SOL     OW24451   4.737   6.461   6.757
 7851SOL    HW124452   4.692   6.542   6.795
 7851SOL    HW224453   4.686   6.379   6.783
 7852SOL     OW24454   2.332   6.520   6.669
 7852SOL    HW124455   2.380   6.467   6.738
 7852SOL    HW224456   2.265   6.580   6.713
 7853SOL     OW24457   2.288   2.563   0.690
 7853SOL    HW124458   2.270   2.521   0.779
 7853SOL    HW224459   2.387   2.565   0.674
 7854SOL     OW24460   3.568   4.088   2.543
 7854SOL    HW124461   3.554   4.169   2.486
 7854SOL    HW224462   3.483   4.067   2.592
 7855SOL     OW24463   3.609   0.192   5.771
 7855SOL    HW124464   3.701   0.229   5.762
 7855SOL    HW224465   3.561   0.240   5.845
 7856SOL     OW24466   4.608   3.462   6.055
 7856SOL    HW124467   4.523   3.514   6.065
 7856SOL    HW224468   4.604   3.408   5.971
 7857SOL     OW24469   0.633   2.084   4.878
 7857SOL    HW124470   0.597   2.021   4.809
 7857SOL    HW224471   0.732   2.071   4.887
 7858SOL     OW24472   6.135   4.742   3.620
 7858SOL    HW124473   6.142   4.841   3.623
 7858SOL    HW224474   6.081   4.710   3.698
 7859SOL     OW24475   0.782   5.901   6.507
 7859SOL    HW124476   0.852   5.834   6.481
 7859SOL    HW224477   0.818   5.993   6.495
 7860SOL     OW24478   3.215   0.170   1.814
 7860SOL    HW124479   3.127   0.146   1.775
 7860SOL    HW224480   3.279   0.192   1.741
 7861SOL     OW24481   5.609   3.986   0.398
 7861SOL    HW124482   5.564   3.998   0.309
 7861SOL    HW224483   5.541   3.990   0.471
 7862SOL     OW24484   3.207   4.334   1.550
 7862SOL    HW124485   3.164   4.329   1.461
 7862SOL    HW224486   3.146   4.295   1.619
 7863SOL     OW24487   6.489   5.836   2.312
 7863SOL    HW124488   6.554   5.776   2.266
 7863SOL    HW224489   6.495   5.822   2.411
 7864SOL     OW24490   1.213   5.234   4.095
 7864SOL    HW124491   1.191   5.143   4.060
 7864SOL    HW224492   1.230   5.296   4.018
 7865SOL     OW24493   3.175   0.532   2.041
 7865SOL    HW124494   3.136   0.545   2.131
 7865SOL    HW224495   3.219   0.617   2.011
 7866SOL     OW24496   2.384   2.736   4.142
 7866SOL    HW124497   2.295   2.693   4.157
 7866SOL    HW224498   2.449   2.702   4.210
 7867SOL     OW24499   5.712   4.501   2.749
 7867SOL    HW124500   5.794   4.451   2.777
 7867SOL    HW224501   5.731   4.552   2.665
 7868SOL     OW24502   5.377   0.270   0.696
 7868SOL    HW124503   5.364   0.243   0.791
 7868SOL    HW224504   5.295   0.247   0.643
 7869SOL     OW24505   0.298   2.833   2.899
 7869SOL    HW124506   0.334   2.753   2.947
 7869SOL    HW224507   0.277   2.905   2.964
 7870SOL     OW24508   0.062   6.382   3.363
 7870SOL    HW124509   0.150   6.346   3.333
 7870SOL    HW224510   0.015   6.314   3.420
 7871SOL     OW24511   5.335   3.415   3.636
 7871SOL    HW124512   5.237   3.394   3.628
 7871SOL    HW224513   5.373   3.431   3.545
 7872SOL     OW24514   6.481   3.272   3.910
 7872SOL    HW124515   6.574   3.295   3.881
 7872SOL    HW224516   6.459   3.178   3.882
 7873SOL     OW24517   6.828   5.217   5.095
 7873SOL    HW124518   6.767   5.291   5.122
 7873SOL    HW224519   6.790   5.129   5.126
 7874SOL     OW24520   6.224   0.529   0.469
 7874SOL    HW124521   6.248   0.510   0.564
 7874SOL    HW224522   6.283   0.476   0.408
 7875SOL     OW24523   4.564   3.480   6.722
 7875SOL    HW124524   4.470   3.449   6.707
 7875SOL    HW224525   4.607   3.503   6.635
 7876SOL     OW24526   6.777   0.417   4.375
 7876SOL    HW124527   6.755   0.499   4.323
 7876SOL    HW224528   6.833   0.442   4.455
 7877SOL     OW24529   6.550   2.585   2.088
 7877SOL    HW124530   6.491   2.630   2.156
 7877SOL    HW224531   6.497   2.520   2.035
 7878SOL     OW24532   4.553   4.201   1.608
 7878SOL    HW124533   4.466   4.181   1.653
 7878SOL    HW224534   4.629   4.174   1.668
 7879SOL     OW24535   5.106   0.894   5.116
 7879SOL    HW124536   5.153   0.817   5.159
 7879SOL    HW224537   5.034   0.861   5.056
 7880SOL     OW24538   0.883   6.528   5.719
 7880SOL    HW124539   0.793   6.493   5.745
 7880SOL    HW224540   0.953   6.488   5.778
 7881SOL     OW24541   0.754   5.222   3.877
 7881SOL    HW124542   0.798   5.290   3.819
 7881SOL    HW224543   0.761   5.132   3.833
 7882SOL     OW24544   0.209   4.015   1.986
 7882SOL    HW124545   0.130   4.010   1.925
 7882SOL    HW224546   0.262   4.097   1.967
 7883SOL     OW24547   3.365   1.790   4.037
 7883SOL    HW124548   3.363   1.829   4.129
 7883SOL    HW224549   3.287   1.824   3.984
 7884SOL     OW24550   0.506   3.914   4.391
 7884SOL    HW124551   0.447   3.903   4.311
 7884SOL    HW224552   0.594   3.952   4.362
 7885SOL     OW24553   6.017   5.388   3.868
 7885SOL    HW124554   6.071   5.444   3.930
 7885SOL    HW224555   6.021   5.427   3.776
 7886SOL     OW24556   4.933   3.771   3.502
 7886SOL    HW124557   4.953   3.842   3.570
 7886SOL    HW224558   4.934   3.812   3.410
 7887SOL     OW24559   1.841   3.069   0.841
 7887SOL    HW124560   1.833   3.022   0.754
 7887SOL    HW224561   1.847   3.168   0.826
 7888SOL     OW24562   5.999   2.110   4.657
 7888SOL    HW124563   5.975   2.039   4.723
 7888SOL    HW224564   6.093   2.096   4.625
 7889SOL     OW24565   5.857   4.707   0.184
 7889SOL    HW124566   5.863   4.665   0.094
 7889SOL    HW224567   5.762   4.704   0.216
 7890SOL     OW24568   1.889   3.390   4.298
 7890SOL    HW124569   1.872   3.488   4.300
 7890SOL    HW224570   1.829   3.344   4.362
 7891SOL     OW24571   6.730   1.836   4.178
 7891SOL    HW124572   6.757   1.798   4.089
 7891SOL    HW224573   6.661   1.777   4.219
 7892SOL     OW24574   0.268   1.986   5.475
 7892SOL    HW124575   0.303   2.069   5.430
 7892SOL    HW224576   0.337   1.950   5.538
 7893SOL     OW24577   5.786   6.985   0.526
 7893SOL    HW124578   5.791   6.958   0.430
 7893SOL    HW224579   5.767   6.905   0.583
 7894SOL     OW24580   3.667   1.888   6.455
 7894SOL    HW124581   3.609   1.945   6.513
 7894SOL    HW224582   3.615   1.810   6.422
 7895SOL     OW24583   5.154   6.518   3.291
 7895SOL    HW124584   5.081   6.494   3.355
 7895SOL    HW224585   5.142   6.612   3.260
 7896SOL     OW24586   2.691   2.912   1.165
 7896SOL    HW124587   2.632   2.964   1.104
 7896SOL    HW224588   2.647   2.826   1.190
 7897SOL     OW24589   3.382   3.179   0.538
 7897SOL    HW124590   3.326   3.150   0.460
 7897SOL    HW224591   3.472   3.135   0.533
 7898SOL     OW24592   5.599   6.295   3.572
 7898SOL    HW124593   5.541   6.216   3.554
 7898SOL    HW224594   5.550   6.379   3.549
 7899SOL     OW24595   6.313   4.995   3.369
 7899SOL    HW124596   6.309   4.917   3.306
 7899SOL    HW224597   6.321   5.080   3.316
 7900SOL     OW24598   0.936   3.939   1.482
 7900SOL    HW124599   0.908   3.915   1.389
 7900SOL    HW224600   0.992   4.022   1.479
 7901SOL     OW24601   6.993   0.878   6.887
 7901SOL    HW124602   6.929   0.808   6.853
 7901SOL    HW224603   0.054   0.834   6.920
 7902SOL     OW24604   0.984   6.715   2.408
 7902SOL    HW124605   1.062   6.778   2.400
 7902SOL    HW224606   0.958   6.705   2.504
 7903SOL     OW24607   3.005   2.264   4.705
 7903SOL    HW124608   3.000   2.311   4.793
 7903SOL    HW224609   3.082   2.200   4.706
 7904SOL     OW24610   5.185   0.987   2.252
 7904SOL    HW124611   5.116   0.917   2.231
 7904SOL    HW224612   5.168   1.067   2.195
 7905SOL     OW24613   5.562   1.168   1.383
 7905SOL    HW124614   5.572   1.241   1.451
 7905SOL    HW224615   5.465   1.147   1.370
 7906SOL     OW24616   1.508   5.379   0.769
 7906SOL    HW124617   1.422   5.379   0.719
 7906SOL    HW224618   1.494   5.345   0.862
 7907SOL     OW24619   6.208   0.053   3.330
 7907SOL    HW124620   6.164   0.105   3.256
 7907SOL    HW224621   6.242   0.117   3.399
 7908SOL     OW24622   0.822   0.593   5.957
 7908SOL    HW124623   0.724   0.609   5.945
 7908SOL    HW224624   0.838   0.497   5.979
 7909SOL     OW24625   5.959   4.428   1.797
 7909SOL    HW124626   5.952   4.386   1.706
 7909SOL    HW224627   5.947   4.357   1.867
 7910SOL     OW24628   1.042   3.723   6.996
 7910SOL    HW124629   1.127   3.680   6.964
 7910SOL    HW224630   1.015   3.795   6.932
 7911SOL     OW24631   0.441   3.917   6.885
 7911SOL    HW124632   0.355   3.900   6.836
 7911SOL    HW224633   0.469   4.012   6.871
 7912SOL     OW24634   5.971   4.828   0.879
 7912SOL    HW124635   5.875   4.819   0.904
 7912SOL    HW224636   6.024   4.861   0.957
 7913SOL     OW24637   1.211   4.607   1.841
 7913SOL    HW124638   1.255   4.696   1.830
 7913SOL    HW224639   1.170   4.579   1.754
 7914SOL     OW24640   6.498   6.323   4.876
 7914SOL    HW124641   6.434   6.264   4.924
 7914SOL    HW224642   6.548   6.379   4.942
 7915SOL     OW24643   3.966   5.909   2.476
 7915SOL    HW124644   3.930   5.866   2.559
 7915SOL    HW224645   3.937   6.004   2.473
 7916SOL     OW24646   1.281   0.118   4.597
 7916SOL    HW124647   1.346   0.191   4.619
 7916SOL    HW224648   1.201   0.125   4.657
 7917SOL     OW24649   4.158   3.386   0.941
 7917SOL    HW124650   4.252   3.399   0.973
 7917SOL    HW224651   4.096   3.380   1.020
 7918SOL     OW24652   1.832   1.937   3.760
 7918SOL    HW124653   1.878   2.024   3.774
 7918SOL    HW224654   1.878   1.865   3.811
 7919SOL     OW24655   2.259   6.298   4.190
 7919SOL    HW124656   2.324   6.292   4.115
 7919SOL    HW224657   2.248   6.394   4.217
 7920SOL     OW24658   4.967   0.204   1.121
 7920SOL    HW124659   4.978   0.190   1.023
 7920SOL    HW224660   5.007   0.292   1.148
 7921SOL     OW24661   5.557   1.747   0.916
 7921SOL    HW124662   5.569   1.709   0.824
 7921SOL    HW224663   5.485   1.817   0.913
 7922SOL     OW24664   1.353   5.680   0.978
 7922SOL    HW124665   1.306   5.599   0.946
 7922SOL    HW224666   1.427   5.653   1.040
 7923SOL     OW24667   5.267   1.087   0.084
 7923SOL    HW124668   5.282   1.183   0.107
 7923SOL    HW224669   5.342   1.054   0.027
 7924SOL     OW24670   6.408   6.192   0.551
 7924SOL    HW124671   6.467   6.155   0.479
 7924SOL    HW224672   6.385   6.119   0.616
 7925SOL     OW24673   1.529   6.132   6.387
 7925SOL    HW124674   1.517   6.142   6.486
 7925SOL    HW224675   1.453   6.079   6.350
 7926SOL     OW24676   4.835   5.418   0.390
 7926SOL    HW124677   4.829   5.380   0.298
 7926SOL    HW224678   4.900   5.366   0.445
 7927SOL     OW24679   4.358   6.902   2.903
 7927SOL    HW124680   4.401   6.869   2.987
 7927SOL    HW224681   4.274   6.952   2.925
 7928SOL     OW24682   6.396   2.299   3.493
 7928SOL    HW124683   6.412   2.391   3.458
 7928SOL    HW224684   6.480   2.245   3.483
 7929SOL     OW24685   4.051   4.440   6.024
 7929SOL    HW124686   4.115   4.368   5.997
 7929SOL    HW224687   4.083   4.482   6.109
 7930SOL     OW24688   4.457   6.239   5.641
 7930SOL    HW124689   4.388   6.188   5.693
 7930SOL    HW224690   4.531   6.177   5.616
 7931SOL     OW24691   3.982   2.042   0.899
 7931SOL    HW124692   3.997   1.957   0.849
 7931SOL    HW224693   4.027   2.037   0.988
 7932SOL     OW24694   1.684   3.967   2.316
 7932SOL    HW124695   1.673   4.064   2.337
 7932SOL    HW224696   1.715   3.919   2.398
 7933SOL     OW24697   0.641   1.020   6.984
 7933SOL    HW124698   0.650   0.936   0.015
 7933SOL    HW224699   0.686   1.095   0.011
 7934SOL     OW24700   0.840   5.210   1.230
 7934SOL    HW124701   0.847   5.290   1.170
 7934SOL    HW224702   0.932   5.178   1.253
 7935SOL     OW24703   4.859   3.162   3.495
 7935SOL    HW124704   4.901   3.189   3.581
 7935SOL    HW224705   4.841   3.244   3.440
 7936SOL     OW24706   3.468   5.944   3.868
 7936SOL    HW124707   3.519   6.018   3.824
 7936SOL    HW224708   3.440   5.973   3.959
 7937SOL     OW24709   3.473   1.105   6.895
 7937SOL    HW124710   3.462   1.197   6.857
 7937SOL    HW224711   3.564   1.070   6.872
 7938SOL     OW24712   3.236   6.765   4.425
 7938SOL    HW124713   3.212   6.824   4.502
 7938SOL    HW224714   3.244   6.671   4.457
 7939SOL     OW24715   0.547   1.564   4.241
 7939SOL    HW124716   0.616   1.624   4.201
 7939SOL    HW224717   0.535   1.483   4.184
 7940SOL     OW24718   5.565   1.122   3.277
 7940SOL    HW124719   5.526   1.204   3.319
 7940SOL    HW224720   5.571   1.134   3.178
 7941SOL     OW24721   3.588   6.793   1.270
 7941SOL    HW124722   3.574   6.773   1.367
 7941SOL    HW224723   3.523   6.863   1.241
 7942SOL     OW24724   1.231   4.733   0.728
 7942SOL    HW124725   1.134   4.711   0.719
 7942SOL    HW224726   1.257   4.731   0.825
 7943SOL     OW24727   1.625   5.952   5.801
 7943SOL    HW124728   1.531   5.937   5.832
 7943SOL    HW224729   1.627   6.026   5.734
 7944SOL     OW24730   1.357   2.442   1.388
 7944SOL    HW124731   1.266   2.482   1.387
 7944SOL    HW224732   1.354   2.352   1.345
 7945SOL     OW24733   6.028   4.429   3.468
 7945SOL    HW124734   6.048   4.517   3.511
 7945SOL    HW224735   5.929   4.418   3.460
 7946SOL     OW24736   3.510   1.663   6.379
 7946SOL    HW124737   3.525   1.564   6.374
 7946SOL    HW224738   3.501   1.700   6.287
 7947SOL     OW24739   0.652   3.614   6.390
 7947SOL    HW124740   0.583   3.542   6.399
 7947SOL    HW224741   0.743   3.573   6.389
 7948SOL     OW24742   1.676   4.982   2.545
 7948SOL    HW124743   1.731   4.900   2.560
 7948SOL    HW224744   1.679   5.040   2.626
 7949SOL     OW24745   3.789   6.317   6.451
 7949SOL    HW124746   3.762   6.392   6.511
 7949SOL    HW224747   3.875   6.341   6.405
 7950SOL     OW24748   5.882   4.269   5.319
 7950SOL    HW124749   5.969   4.316   5.329
 7950SOL    HW224750   5.812   4.334   5.289
 7951SOL     OW24751   3.807   5.926   2.766
 7951SOL    HW124752   3.787   5.835   2.803
 7951SOL    HW224753   3.728   5.958   2.713
 7952SOL     OW24754   6.070   3.753   6.538
 7952SOL    HW124755   6.099   3.821   6.470
 7952SOL    HW224756   6.054   3.798   6.626
 7953SOL     OW24757   3.104   0.606   0.412
 7953SOL    HW124758   3.134   0.512   0.396
 7953SOL    HW224759   3.005   0.609   0.423
 7954SOL     OW24760   4.030   3.832   6.530
 7954SOL    HW124761   4.077   3.827   6.619
 7954SOL    HW224762   3.959   3.903   6.535
 7955SOL     OW24763   1.445   1.745   6.676
 7955SOL    HW124764   1.446   1.661   6.730
 7955SOL    HW224765   1.372   1.805   6.709
 7956SOL     OW24766   6.374   6.071   0.227
 7956SOL    HW124767   6.440   6.047   0.298
 7956SOL    HW224768   6.304   6.132   0.266
 7957SOL     OW24769   4.577   0.846   6.082
 7957SOL    HW124770   4.553   0.941   6.064
 7957SOL    HW224771   4.513   0.786   6.034
 7958SOL     OW24772   6.047   2.449   0.375
 7958SOL    HW124773   6.070   2.473   0.281
 7958SOL    HW224774   6.024   2.532   0.426
 7959SOL     OW24775   5.883   1.352   6.412
 7959SOL    HW124776   5.978   1.340   6.441
 7959SOL    HW224777   5.838   1.263   6.411
 7960SOL     OW24778   0.058   0.888   5.230
 7960SOL    HW124779   0.021   0.932   5.149
 7960SOL    HW224780   0.020   0.930   5.312
 7961SOL     OW24781   6.228   6.411   0.140
 7961SOL    HW124782   6.232   6.365   0.229
 7961SOL    HW224783   6.304   6.476   0.133
 7962SOL     OW24784   5.502   7.004   5.672
 7962SOL    HW124785   5.560   0.063   5.676
 7962SOL    HW224786   5.550   6.927   5.715
 7963SOL     OW24787   6.797   6.736   4.241
 7963SOL    HW124788   6.889   6.760   4.271
 7963SOL    HW224789   6.773   6.792   4.161
 7964SOL     OW24790   6.825   4.598   1.807
 7964SOL    HW124791   6.741   4.623   1.757
 7964SOL    HW224792   6.826   4.646   1.895
 7965SOL     OW24793   3.778   3.003   6.426
 7965SOL    HW124794   3.772   3.021   6.328
 7965SOL    HW224795   3.758   2.906   6.444
 7966SOL     OW24796   4.982   3.458   4.990
 7966SOL    HW124797   4.967   3.428   4.895
 7966SOL    HW224798   4.907   3.518   5.017
 7967SOL     OW24799   1.519   4.492   1.532
 7967SOL    HW124800   1.569   4.576   1.553
 7967SOL    HW224801   1.547   4.419   1.595
 7968SOL     OW24802   0.125   2.831   4.963
 7968SOL    HW124803   0.146   2.794   5.053
 7968SOL    HW224804   0.209   2.866   4.921
 7969SOL     OW24805   4.941   5.097   0.050
 7969SOL    HW124806   4.896   5.039   0.118
 7969SOL    HW224807   4.944   5.049   6.984
 7970SOL     OW24808   5.865   2.853   2.967
 7970SOL    HW124809   5.806   2.931   2.987
 7970SOL    HW224810   5.940   2.883   2.909
 7971SOL     OW24811   2.867   1.222   0.439
 7971SOL    HW124812   2.912   1.218   0.350
 7971SOL    HW224813   2.935   1.241   0.510
 7972SOL     OW24814   3.941   3.856   3.573
 7972SOL    HW124815   3.991   3.868   3.659
 7972SOL    HW224816   3.995   3.801   3.510
 7973SOL     OW24817   6.432   4.248   2.361
 7973SOL    HW124818   6.489   4.329   2.355
 7973SOL    HW224819   6.484   4.168   2.330
 7974SOL     OW24820   6.477   2.707   6.653
 7974SOL    HW124821   6.565   2.691   6.607
 7974SOL    HW224822   6.468   2.643   6.729
 7975SOL     OW24823   5.847   0.676   1.223
 7975SOL    HW124824   5.823   0.716   1.134
 7975SOL    HW224825   5.776   0.699   1.290
 7976SOL     OW24826   0.768   7.019   0.843
 7976SOL    HW124827   0.713   0.015   0.925
 7976SOL    HW224828   0.861   6.995   0.870
 7977SOL     OW24829   5.549   5.360   3.784
 7977SOL    HW124830   5.635   5.310   3.778
 7977SOL    HW224831   5.558   5.435   3.849
 7978SOL     OW24832   0.112   4.642   1.935
 7978SOL    HW124833   0.112   4.547   1.903
 7978SOL    HW224834   0.186   4.655   2.001
 7979SOL     OW24835   1.625   2.245   4.044
 7979SOL    HW124836   1.715   2.261   4.002
 7979SOL    HW224837   1.625   2.280   4.137
 7980SOL     OW24838   4.157   5.307   0.078
 7980SOL    HW124839   4.071   5.356   0.061
 7980SOL    HW224840   4.181   5.314   0.175
 7981SOL     OW24841   1.866   4.528   3.094
 7981SOL    HW124842   1.920   4.502   3.014
 7981SOL    HW224843   1.804   4.453   3.118
 7982SOL     OW24844   6.338   1.664   5.438
 7982SOL    HW124845   6.415   1.728   5.435
 7982SOL    HW224846   6.275   1.685   5.363
 7983SOL     OW24847   4.904   1.004   1.770
 7983SOL    HW124848   4.881   0.994   1.867
 7983SOL    HW224849   4.897   0.916   1.724
 7984SOL     OW24850   0.954   2.053   2.902
 7984SOL    HW124851   0.857   2.060   2.928
 7984SOL    HW224852   1.004   2.129   2.943
 7985SOL     OW24853   2.773   2.959   5.371
 7985SOL    HW124854   2.741   2.900   5.445
 7985SOL    HW224855   2.695   2.986   5.314
 7986SOL     OW24856   3.409   1.162   3.978
 7986SOL    HW124857   3.425   1.154   4.077
 7986SOL    HW224858   3.483   1.215   3.936
 7987SOL     OW24859   1.309   3.796   6.935
 7987SOL    HW124860   1.266   3.772   6.849
 7987SOL    HW224861   1.404   3.823   6.919
 7988SOL     OW24862   6.622   1.638   1.785
 7988SOL    HW124863   6.587   1.618   1.877
 7988SOL    HW224864   6.722   1.636   1.786
 7989SOL     OW24865   0.282   4.452   0.283
 7989SOL    HW124866   0.292   4.521   0.211
 7989SOL    HW224867   0.289   4.361   0.243
 7990SOL     OW24868   3.872   5.527   5.097
 7990SOL    HW124869   3.855   5.539   4.999
 7990SOL    HW224870   3.943   5.591   5.126
 7991SOL     OW24871   5.890   1.409   5.273
 7991SOL    HW124872   5.891   1.464   5.357
 7991SOL    HW224873   5.796   1.381   5.253
 7992SOL     OW24874   2.785   6.765   6.786
 7992SOL    HW124875   2.760   6.708   6.863
 7992SOL    HW224876   2.731   6.739   6.706
 7993SOL     OW24877   6.258   5.877   1.435
 7993SOL    HW124878   6.334   5.878   1.500
 7993SOL    HW224879   6.174   5.855   1.483
 7994SOL     OW24880   5.526   0.335   4.029
 7994SOL    HW124881   5.462   0.412   4.026
 7994SOL    HW224882   5.599   0.350   3.962
 7995SOL     OW24883   0.482   4.647   1.400
 7995SOL    HW124884   0.581   4.639   1.408
 7995SOL    HW224885   0.459   4.737   1.363
 7996SOL     OW24886   3.212   0.748   2.890
 7996SOL    HW124887   3.297   0.699   2.906
 7996SOL    HW224888   3.229   0.846   2.887
 7997SOL     OW24889   1.670   1.890   6.593
 7997SOL    HW124890   1.598   1.828   6.625
 7997SOL    HW224891   1.629   1.978   6.569
 7998SOL     OW24892   2.068   0.716   0.765
 7998SOL    HW124893   2.052   0.721   0.666
 7998SOL    HW224894   2.166   0.701   0.782
 7999SOL     OW24895   0.716   0.753   4.531
 7999SOL    HW124896   0.767   0.722   4.451
 7999SOL    HW224897   0.630   0.703   4.538
 8000SOL     OW24898   4.547   5.176   6.979
 8000SOL    HW124899   4.530   5.258   0.012
 8000SOL    HW224900   4.469   5.114   6.988
 8001SOL     OW24901   4.662   5.964   1.378
 8001SOL    HW124902   4.616   5.958   1.466
 8001SOL    HW224903   4.746   6.017   1.388
 8002SOL     OW24904   0.786   0.304   5.210
 8002SOL    HW124905   0.789   0.280   5.113
 8002SOL    HW224906   0.733   0.387   5.222
 8003SOL     OW24907   2.317   5.537   2.165
 8003SOL    HW124908   2.401   5.553   2.217
 8003SOL    HW224909   2.304   5.439   2.153
 8004SOL     OW24910   1.487   2.879   3.964
 8004SOL    HW124911   1.475   2.781   3.945
 8004SOL    HW224912   1.584   2.900   3.969
 8005SOL     OW24913   2.301   0.077   3.334
 8005SOL    HW124914   2.389   0.040   3.304
 8005SOL    HW224915   2.231   0.006   3.327
 8006SOL     OW24916   3.938   4.919   5.101
 8006SOL    HW124917   3.860   4.893   5.157
 8006SOL    HW224918   3.907   4.938   5.007
 8007SOL     OW24919   5.898   0.123   6.513
 8007SOL    HW124920   5.980   0.077   6.548
 8007SOL    HW224921   5.856   0.176   6.587
 8008SOL     OW24922   5.371   6.355   7.004
 8008SOL    HW124923   5.439   6.419   0.017
 8008SOL    HW224924   5.354   6.373   6.907
 8009SOL     OW24925   4.968   1.981   6.366
 8009SOL    HW124926   4.959   1.981   6.466
 8009SOL    HW224927   4.917   2.059   6.328
 8010SOL     OW24928   2.981   1.854   5.713
 8010SOL    HW124929   2.962   1.770   5.765
 8010SOL    HW224930   3.079   1.874   5.715
 8011SOL     OW24931   4.059   1.652   2.658
 8011SOL    HW124932   4.139   1.621   2.608
 8011SOL    HW224933   3.977   1.609   2.621
 8012SOL     OW24934   7.007   1.401   4.902
 8012SOL    HW124935   0.019   1.495   4.910
 8012SOL    HW224936   6.968   1.373   4.990
 8013SOL     OW24937   3.758   2.056   2.535
 8013SOL    HW124938   3.707   2.040   2.450
 8013SOL    HW224939   3.707   2.016   2.611
 8014SOL     OW24940   1.993   1.704   2.336
 8014SOL    HW124941   2.076   1.717   2.282
 8014SOL    HW224942   1.939   1.788   2.335
 8015SOL     OW24943   3.305   0.260   5.554
 8015SOL    HW124944   3.273   0.219   5.639
 8015SOL    HW224945   3.311   0.190   5.483
 8016SOL     OW24946   3.539   1.694   4.681
 8016SOL    HW124947   3.628   1.649   4.669
 8016SOL    HW224948   3.466   1.629   4.662
 8017SOL     OW24949   6.518   6.213   1.242
 8017SOL    HW124950   6.517   6.255   1.151
 8017SOL    HW224951   6.489   6.118   1.236
 8018SOL     OW24952   4.343   1.963   0.139
 8018SOL    HW124953   4.365   1.948   0.042
 8018SOL    HW224954   4.288   1.886   0.173
 8019SOL     OW24955   2.489   3.666   0.820
 8019SOL    HW124956   2.501   3.635   0.726
 8019SOL    HW224957   2.473   3.588   0.880
 8020SOL     OW24958   6.723   0.975   5.301
 8020SOL    HW124959   6.745   0.887   5.260
 8020SOL    HW224960   6.648   1.017   5.251
 8021SOL     OW24961   1.715   2.117   1.365
 8021SOL    HW124962   1.637   2.125   1.303
 8021SOL    HW224963   1.800   2.121   1.313
 8022SOL     OW24964   5.165   1.547   2.379
 8022SOL    HW124965   5.073   1.567   2.414
 8022SOL    HW224966   5.159   1.523   2.283
 8023SOL     OW24967   5.559   6.007   2.217
 8023SOL    HW124968   5.650   5.989   2.256
 8023SOL    HW224969   5.570   6.046   2.125
 8024SOL     OW24970   2.430   0.675   6.527
 8024SOL    HW124971   2.357   0.630   6.477
 8024SOL    HW224972   2.462   0.754   6.475
 8025SOL     OW24973   1.358   5.774   1.918
 8025SOL    HW124974   1.299   5.834   1.863
 8025SOL    HW224975   1.331   5.781   2.014
 8026SOL     OW24976   0.457   5.581   6.773
 8026SOL    HW124977   0.472   5.675   6.741
 8026SOL    HW224978   0.544   5.533   6.776
 8027SOL     OW24979   3.345   0.693   6.823
 8027SOL    HW124980   3.333   0.665   6.727
 8027SOL    HW224981   3.268   0.661   6.877
 8028SOL     OW24982   3.276   5.503   4.952
 8028SOL    HW124983   3.239   5.482   5.042
 8028SOL    HW224984   3.303   5.419   4.906
 8029SOL     OW24985   0.199   6.864   0.130
 8029SOL    HW124986   0.160   6.954   0.153
 8029SOL    HW224987   0.287   6.853   0.176
 8030SOL     OW24988   0.608   3.854   0.757
 8030SOL    HW124989   0.673   3.916   0.712
 8030SOL    HW224990   0.518   3.862   0.714
 8031SOL     OW24991   0.369   0.778   3.210
 8031SOL    HW124992   0.348   0.760   3.306
 8031SOL    HW224993   0.412   0.868   3.202
 8032SOL     OW24994   6.395   2.804   1.034
 8032SOL    HW124995   6.404   2.745   0.954
 8032SOL    HW224996   6.328   2.876   1.015
 8033SOL     OW24997   4.854   3.860   0.988
 8033SOL    HW124998   4.839   3.762   1.005
 8033SOL    HW224999   4.924   3.894   1.051
 8034SOL     OW25000   5.887   0.810   5.928
 8034SOL    HW125001   5.963   0.820   5.863
 8034SOL    HW225002   5.924   0.792   6.020
 8035SOL     OW25003   6.040   1.884   3.099
 8035SOL    HW125004   6.005   1.966   3.055
 8035SOL    HW225005   5.964   1.826   3.129
 8036SOL     OW25006   5.758   2.330   3.527
 8036SOL    HW125007   5.849   2.297   3.552
 8036SOL    HW225008   5.711   2.260   3.473
 8037SOL     OW25009   1.448   1.735   5.643
 8037SOL    HW125010   1.504   1.748   5.561
 8037SOL    HW225011   1.506   1.706   5.719
 8038SOL     OW25012   0.141   4.791   2.204
 8038SOL    HW125013   0.065   4.727   2.205
 8038SOL    HW225014   0.227   4.741   2.203
 8039SOL     OW25015   1.396   2.243   5.612
 8039SOL    HW125016   1.358   2.264   5.702
 8039SOL    HW225017   1.386   2.322   5.552
 8040SOL     OW25018   1.938   5.324   6.677
 8040SOL    HW125019   1.883   5.269   6.614
 8040SOL    HW225020   2.012   5.369   6.625
 8041SOL     OW25021   3.474   1.460   3.171
 8041SOL    HW125022   3.390   1.485   3.220
 8041SOL    HW225023   3.553   1.475   3.231
 8042SOL     OW25024   4.220   4.210   5.535
 8042SOL    HW125025   4.203   4.292   5.590
 8042SOL    HW225026   4.170   4.217   5.449
 8043SOL     OW25027   5.028   5.564   6.774
 8043SOL    HW125028   5.118   5.568   6.730
 8043SOL    HW225029   4.957   5.558   6.704
 8044SOL     OW25030   2.592   3.526   1.702
 8044SOL    HW125031   2.509   3.547   1.755
 8044SOL    HW225032   2.665   3.589   1.730
 8045SOL     OW25033   6.721   2.272   3.234
 8045SOL    HW125034   6.796   2.230   3.183
 8045SOL    HW225035   6.644   2.209   3.237
 8046SOL     OW25036   7.015   4.576   2.303
 8046SOL    HW125037   6.954   4.655   2.298
 8046SOL    HW225038   6.961   4.492   2.304
 8047SOL     OW25039   3.492   6.552   6.717
 8047SOL    HW125040   3.511   6.456   6.737
 8047SOL    HW225041   3.396   6.562   6.692
 8048SOL     OW25042   3.722   2.515   6.138
 8048SOL    HW125043   3.671   2.570   6.072
 8048SOL    HW225044   3.810   2.489   6.099
 8049SOL     OW25045   1.179   1.642   0.188
 8049SOL    HW125046   1.277   1.661   0.178
 8049SOL    HW225047   1.167   1.545   0.209
 8050SOL     OW25048   0.605   4.671   5.432
 8050SOL    HW125049   0.645   4.612   5.502
 8050SOL    HW225050   0.654   4.759   5.431
 8051SOL     OW25051   4.162   5.858   3.266
 8051SOL    HW125052   4.149   5.852   3.167
 8051SOL    HW225053   4.077   5.832   3.313
 8052SOL     OW25054   2.622   2.281   2.399
 8052SOL    HW125055   2.594   2.185   2.401
 8052SOL    HW225056   2.541   2.339   2.404
 8053SOL     OW25057   2.085   2.942   6.571
 8053SOL    HW125058   2.009   2.970   6.628
 8053SOL    HW225059   2.051   2.912   6.482
 8054SOL     OW25060   4.643   3.368   5.379
 8054SOL    HW125061   4.658   3.453   5.328
 8054SOL    HW225062   4.687   3.374   5.469
 8055SOL     OW25063   5.845   0.301   6.721
 8055SOL    HW125064   5.880   0.234   6.786
 8055SOL    HW225065   5.775   0.357   6.765
 8056SOL     OW25066   2.153   1.291   4.948
 8056SOL    HW125067   2.241   1.320   4.910
 8056SOL    HW225068   2.116   1.364   5.006
 8057SOL     OW25069   2.895   2.077   1.938
 8057SOL    HW125070   2.918   2.004   2.003
 8057SOL    HW225071   2.882   2.163   1.987
 8058SOL     OW25072   3.535   6.680   2.444
 8058SOL    HW125073   3.482   6.654   2.363
 8058SOL    HW225074   3.514   6.775   2.469
 8059SOL     OW25075   2.593   2.693   6.168
 8059SOL    HW125076   2.651   2.767   6.202
 8059SOL    HW225077   2.643   2.640   6.099
 8060SOL     OW25078   5.947   0.806   6.217
 8060SOL    HW125079   5.989   0.896   6.201
 8060SOL    HW225080   5.868   0.817   6.277
 8061SOL     OW25081   0.268   0.629   2.847
 8061SOL    HW125082   0.284   0.591   2.756
 8061SOL    HW225083   0.324   0.711   2.859
 8062SOL     OW25084   4.027   5.443   5.420
 8062SOL    HW125085   3.983   5.532   5.406
 8062SOL    HW225086   3.980   5.374   5.367
 8063SOL     OW25087   3.499   5.352   3.632
 8063SOL    HW125088   3.523   5.317   3.541
 8063SOL    HW225089   3.417   5.305   3.666
 8064SOL     OW25090   6.544   1.775   0.738
 8064SOL    HW125091   6.602   1.712   0.686
 8064SOL    HW225092   6.495   1.725   0.809
 8065SOL     OW25093   3.967   5.526   6.661
 8065SOL    HW125094   3.893   5.498   6.721
 8065SOL    HW225095   3.939   5.607   6.609
 8066SOL     OW25096   0.053   0.084   5.580
 8066SOL    HW125097   0.028   0.007   5.640
 8066SOL    HW225098   7.021   0.080   5.496
 8067SOL     OW25099   5.304   2.481   3.822
 8067SOL    HW125100   5.377   2.548   3.815
 8067SOL    HW225101   5.307   2.437   3.912
 8068SOL     OW25102   5.926   4.237   1.165
 8068SOL    HW125103   5.987   4.259   1.089
 8068SOL    HW225104   5.940   4.303   1.239
 8069SOL     OW25105   2.825   5.217   3.280
 8069SOL    HW125106   2.921   5.204   3.256
 8069SOL    HW225107   2.813   5.205   3.379
 8070SOL     OW25108   4.103   4.739   0.448
 8070SOL    HW125109   4.060   4.826   0.470
 8070SOL    HW225110   4.054   4.665   0.492
 8071SOL     OW25111   2.594   6.861   6.161
 8071SOL    HW125112   2.600   6.960   6.174
 8071SOL    HW225113   2.500   6.831   6.174
 8072SOL     OW25114   1.261   1.823   5.867
 8072SOL    HW125115   1.254   1.861   5.775
 8072SOL    HW225116   1.293   1.728   5.861
 8073SOL     OW25117   3.715   0.741   6.753
 8073SOL    HW125118   3.758   0.702   6.834
 8073SOL    HW225119   3.773   0.728   6.674
 8074SOL     OW25120   1.224   0.442   5.917
 8074SOL    HW125121   1.254   0.392   5.999
 8074SOL    HW225122   1.305   0.476   5.868
 8075SOL     OW25123   0.089   7.015   0.614
 8075SOL    HW125124   0.175   0.031   0.649
 8075SOL    HW225125   0.061   6.937   0.670
 8076SOL     OW25126   6.857   6.189   0.915
 8076SOL    HW125127   6.788   6.191   0.842
 8076SOL    HW225128   6.812   6.199   1.004
 8077SOL     OW25129   4.955   4.766   0.596
 8077SOL    HW125130   4.888   4.838   0.610
 8077SOL    HW225131   4.927   4.710   0.518
 8078SOL     OW25132   0.961   0.473   2.229
 8078SOL    HW125133   0.979   0.374   2.224
 8078SOL    HW225134   0.940   0.498   2.323
 8079SOL     OW25135   1.082   1.587   6.060
 8079SOL    HW125136   1.165   1.604   6.113
 8079SOL    HW225137   1.037   1.674   6.040
 8080SOL     OW25138   1.403   3.163   3.155
 8080SOL    HW125139   1.383   3.066   3.161
 8080SOL    HW225140   1.432   3.197   3.244
 8081SOL     OW25141   6.137   6.019   4.901
 8081SOL    HW125142   6.202   6.093   4.882
 8081SOL    HW225143   6.050   6.039   4.856
 8082SOL     OW25144   4.062   1.760   2.343
 8082SOL    HW125145   4.160   1.742   2.357
 8082SOL    HW225146   4.016   1.759   2.432
 8083SOL     OW25147   5.886   2.371   4.726
 8083SOL    HW125148   5.910   2.274   4.730
 8083SOL    HW225149   5.803   2.383   4.672
 8084SOL     OW25150   3.851   2.338   5.811
 8084SOL    HW125151   3.781   2.345   5.740
 8084SOL    HW225152   3.821   2.272   5.881
 8085SOL     OW25153   1.670   6.367   4.360
 8085SOL    HW125154   1.651   6.313   4.278
 8085SOL    HW225155   1.599   6.437   4.370
 8086SOL     OW25156   6.841   0.574   2.608
 8086SOL    HW125157   6.897   0.589   2.689
 8086SOL    HW225158   6.764   0.515   2.632
 8087SOL     OW25159   0.643   0.741   0.060
 8087SOL    HW125160   0.615   0.788   0.145
 8087SOL    HW225161   0.718   0.678   0.081
 8088SOL     OW25162   6.318   0.244   4.452
 8088SOL    HW125163   6.414   0.251   4.428
 8088SOL    HW225164   6.301   0.295   4.537
 8089SOL     OW25165   6.135   2.139   6.102
 8089SOL    HW125166   6.047   2.111   6.139
 8089SOL    HW225167   6.144   2.107   6.008
 8090SOL     OW25168   4.154   2.110   5.416
 8090SOL    HW125169   4.229   2.059   5.372
 8090SOL    HW225170   4.155   2.093   5.514
 8091SOL     OW25171   1.649   4.948   4.222
 8091SOL    HW125172   1.710   5.024   4.244
 8091SOL    HW225173   1.689   4.862   4.256
 8092SOL     OW25174   4.790   1.977   5.710
 8092SOL    HW125175   4.857   1.904   5.725
 8092SOL    HW225176   4.722   1.976   5.783
 8093SOL     OW25177   3.744   6.042   2.283
 8093SOL    HW125178   3.758   6.105   2.206
 8093SOL    HW225179   3.745   5.948   2.250
 8094SOL     OW25180   1.844   4.326   3.823
 8094SOL    HW125181   1.839   4.322   3.923
 8094SOL    HW225182   1.782   4.397   3.790
 8095SOL     OW25183   1.300   4.832   5.730
 8095SOL    HW125184   1.344   4.743   5.722
 8095SOL    HW225185   1.243   4.833   5.812
 8096SOL     OW25186   1.160   5.950   1.817
 8096SOL    HW125187   1.130   5.889   1.744
 8096SOL    HW225188   1.081   5.977   1.872
 8097SOL     OW25189   3.695   5.799   5.218
 8097SOL    HW125190   3.748   5.728   5.263
 8097SOL    HW225191   3.671   5.870   5.285
 8098SOL     OW25192   1.658   5.825   5.108
 8098SOL    HW125193   1.650   5.749   5.043
 8098SOL    HW225194   1.742   5.815   5.161
 8099SOL     OW25195   2.378   5.096   3.247
 8099SOL    HW125196   2.367   5.068   3.151
 8099SOL    HW225197   2.337   5.027   3.306
 8100SOL     OW25198   0.189   0.396   6.830
 8100SOL    HW125199   0.111   0.454   6.848
 8100SOL    HW225200   0.264   0.418   6.892
 8101SOL     OW25201   2.210   6.280   1.591
 8101SOL    HW125202   2.307   6.303   1.600
 8101SOL    HW225203   2.174   6.322   1.507
 8102SOL     OW25204   2.003   3.413   4.997
 8102SOL    HW125205   1.932   3.349   4.969
 8102SOL    HW225206   2.057   3.374   5.072
 8103SOL     OW25207   3.399   1.491   1.820
 8103SOL    HW125208   3.465   1.519   1.890
 8103SOL    HW225209   3.435   1.515   1.730
 8104SOL     OW25210   1.824   6.210   0.196
 8104SOL    HW125211   1.796   6.254   0.110
 8104SOL    HW225212   1.886   6.271   0.245
 8105SOL     OW25213   6.966   0.300   3.296
 8105SOL    HW125214   6.985   0.296   3.394
 8105SOL    HW225215   6.973   0.208   3.257
 8106SOL     OW25216   2.208   6.560   5.607
 8106SOL    HW125217   2.202   6.510   5.520
 8106SOL    HW225218   2.137   6.631   5.610
 8107SOL     OW25219   2.020   6.288   6.007
 8107SOL    HW125220   2.018   6.241   6.095
 8107SOL    HW225221   1.950   6.359   6.005
 8108SOL     OW25222   0.444   1.232   6.945
 8108SOL    HW125223   0.485   1.144   6.922
 8108SOL    HW225224   0.474   1.302   6.880
 8109SOL     OW25225   6.307   2.946   0.773
 8109SOL    HW125226   6.298   2.960   0.674
 8109SOL    HW225227   6.217   2.953   0.816
 8110SOL     OW25228   4.126   4.805   1.347
 8110SOL    HW125229   4.193   4.880   1.347
 8110SOL    HW225230   4.171   4.719   1.323
 8111SOL     OW25231   6.457   1.473   2.624
 8111SOL    HW125232   6.481   1.466   2.527
 8111SOL    HW225233   6.408   1.559   2.640
 8112SOL     OW25234   1.412   3.480   5.587
 8112SOL    HW125235   1.477   3.403   5.584
 8112SOL    HW225236   1.413   3.527   5.499
 8113SOL     OW25237   5.511   2.956   6.613
 8113SOL    HW125238   5.452   2.943   6.693
 8113SOL    HW225239   5.542   3.051   6.609
 8114SOL     OW25240   1.872   4.045   0.799
 8114SOL    HW125241   1.903   4.134   0.831
 8114SOL    HW225242   1.889   4.037   0.701
 8115SOL     OW25243   2.017   1.327   6.325
 8115SOL    HW125244   1.946   1.264   6.294
 8115SOL    HW225245   2.053   1.379   6.248
 8116SOL     OW25246   3.502   3.765   0.906
 8116SOL    HW125247   3.498   3.786   0.808
 8116SOL    HW225248   3.423   3.804   0.952
 8117SOL     OW25249   3.037   6.793   2.940
 8117SOL    HW125250   3.039   6.716   2.877
 8117SOL    HW225251   3.054   6.878   2.889
 8118SOL     OW25252   6.677   2.626   0.624
 8118SOL    HW125253   6.613   2.684   0.675
 8118SOL    HW225254   6.760   2.614   0.678
 8119SOL     OW25255   6.248   5.903   6.860
 8119SOL    HW125256   6.347   5.896   6.874
 8119SOL    HW225257   6.204   5.924   6.947
 8120SOL     OW25258   2.629   6.340   1.178
 8120SOL    HW125259   2.537   6.308   1.198
 8120SOL    HW225260   2.661   6.399   1.252
 8121SOL     OW25261   1.134   3.197   3.223
 8121SOL    HW125262   1.216   3.173   3.171
 8121SOL    HW225263   1.119   3.296   3.218
 8122SOL     OW25264   0.806   4.781   2.146
 8122SOL    HW125265   0.772   4.813   2.234
 8122SOL    HW225266   0.873   4.845   2.110
 8123SOL     OW25267   0.508   1.867   6.167
 8123SOL    HW125268   0.439   1.892   6.099
 8123SOL    HW225269   0.561   1.789   6.134
 8124SOL     OW25270   5.149   4.844   4.894
 8124SOL    HW125271   5.210   4.765   4.891
 8124SOL    HW225272   5.196   4.924   4.855
 8125SOL     OW25273   1.617   6.438   3.266
 8125SOL    HW125274   1.535   6.390   3.233
 8125SOL    HW225275   1.665   6.380   3.331
 8126SOL     OW25276   4.055   4.985   4.193
 8126SOL    HW125277   4.121   4.912   4.210
 8126SOL    HW225278   3.963   4.950   4.209
 8127SOL     OW25279   3.470   2.801   6.824
 8127SOL    HW125280   3.507   2.862   6.755
 8127SOL    HW225281   3.402   2.849   6.880
 8128SOL     OW25282   3.736   2.972   1.589
 8128SOL    HW125283   3.720   2.880   1.552
 8128SOL    HW225284   3.654   3.004   1.636
 8129SOL     OW25285   0.923   2.835   1.646
 8129SOL    HW125286   1.020   2.811   1.652
 8129SOL    HW225287   0.913   2.934   1.641
 8130SOL     OW25288   1.410   5.482   6.833
 8130SOL    HW125289   1.318   5.511   6.859
 8130SOL    HW225290   1.471   5.562   6.833
 8131SOL     OW25291   1.777   3.388   6.994
 8131SOL    HW125292   1.824   3.450   0.035
 8131SOL    HW225293   1.825   3.300   6.992
 8132SOL     OW25294   6.700   6.831   4.919
 8132SOL    HW125295   6.788   6.861   4.956
 8132SOL    HW225296   6.629   6.896   4.947
 8133SOL     OW25297   3.378   4.831   0.768
 8133SOL    HW125298   3.352   4.739   0.797
 8133SOL    HW225299   3.296   4.885   0.751
 8134SOL     OW25300   5.275   0.972   5.442
 8134SOL    HW125301   5.179   0.998   5.429
 8134SOL    HW225302   5.280   0.875   5.465
 8135SOL     OW25303   2.111   0.143   1.741
 8135SOL    HW125304   2.062   0.145   1.829
 8135SOL    HW225305   2.044   0.142   1.666
 8136SOL     OW25306   4.678   4.771   2.042
 8136SOL    HW125307   4.599   4.719   2.011
 8136SOL    HW225308   4.743   4.710   2.087
 8137SOL     OW25309   4.222   1.577   4.726
 8137SOL    HW125310   4.214   1.529   4.813
 8137SOL    HW225311   4.273   1.520   4.661
 8138SOL     OW25312   4.768   1.093   1.303
 8138SOL    HW125313   4.715   1.162   1.255
 8138SOL    HW225314   4.713   1.010   1.313
 8139SOL     OW25315   1.041   2.515   3.799
 8139SOL    HW125316   1.104   2.588   3.774
 8139SOL    HW225317   0.948   2.551   3.801
 8140SOL     OW25318   4.035   1.026   3.442
 8140SOL    HW125319   4.038   1.044   3.541
 8140SOL    HW225320   3.942   1.003   3.415
 8141SOL     OW25321   4.491   4.848   4.433
 8141SOL    HW125322   4.564   4.786   4.403
 8141SOL    HW225323   4.511   4.882   4.524
 8142SOL     OW25324   6.188   5.554   0.460
 8142SOL    HW125325   6.108   5.495   0.453
 8142SOL    HW225326   6.249   5.520   0.532
 8143SOL     OW25327   6.010   4.112   4.831
 8143SOL    HW125328   5.917   4.125   4.798
 8143SOL    HW225329   6.056   4.041   4.777
 8144SOL     OW25330   5.865   6.274   6.425
 8144SOL    HW125331   5.822   6.187   6.399
 8144SOL    HW225332   5.824   6.307   6.510
 8145SOL     OW25333   6.314   5.893   2.691
 8145SOL    HW125334   6.259   5.910   2.773
 8145SOL    HW225335   6.376   5.970   2.676
 8146SOL     OW25336   2.956   1.378   4.421
 8146SOL    HW125337   2.944   1.449   4.351
 8146SOL    HW225338   2.888   1.307   4.408
 8147SOL     OW25339   4.746   1.291   3.857
 8147SOL    HW125340   4.795   1.206   3.877
 8147SOL    HW225341   4.802   1.349   3.798
 8148SOL     OW25342   5.552   3.899   3.555
 8148SOL    HW125343   5.633   3.958   3.560
 8148SOL    HW225344   5.580   3.807   3.527
 8149SOL     OW25345   4.442   4.652   3.440
 8149SOL    HW125346   4.463   4.571   3.384
 8149SOL    HW225347   4.464   4.633   3.535
 8150SOL     OW25348   0.568   5.506   0.135
 8150SOL    HW125349   0.631   5.552   0.074
 8150SOL    HW225350   0.527   5.572   0.198
 8151SOL     OW25351   1.187   1.757   5.250
 8151SOL    HW125352   1.195   1.769   5.348
 8151SOL    HW225353   1.222   1.839   5.203
 8152SOL     OW25354   1.395   1.003   3.185
 8152SOL    HW125355   1.400   0.990   3.284
 8152SOL    HW225356   1.460   0.942   3.140
 8153SOL     OW25357   2.017   6.818   0.485
 8153SOL    HW125358   2.022   6.743   0.418
 8153SOL    HW225359   1.954   6.792   0.559
 8154SOL     OW25360   2.025   6.319   3.642
 8154SOL    HW125361   2.088   6.282   3.574
 8154SOL    HW225362   2.070   6.320   3.732
 8155SOL     OW25363   3.049   3.351   3.510
 8155SOL    HW125364   2.975   3.371   3.447
 8155SOL    HW225365   3.097   3.435   3.534
 8156SOL     OW25366   6.169   0.496   6.027
 8156SOL    HW125367   6.157   0.573   5.964
 8156SOL    HW225368   6.082   0.476   6.071
 8157SOL     OW25369   6.537   3.438   6.578
 8157SOL    HW125370   6.523   3.489   6.493
 8157SOL    HW225371   6.583   3.496   6.645
 8158SOL     OW25372   1.834   5.240   2.398
 8158SOL    HW125373   1.842   5.153   2.350
 8158SOL    HW225374   1.811   5.222   2.494
 8159SOL     OW25375   1.781   6.145   2.056
 8159SOL    HW125376   1.831   6.139   2.143
 8159SOL    HW225377   1.803   6.231   2.010
 8160SOL     OW25378   4.435   2.163   1.802
 8160SOL    HW125379   4.462   2.153   1.898
 8160SOL    HW225380   4.349   2.115   1.787
 8161SOL     OW25381   5.288   1.425   0.949
 8161SOL    HW125382   5.312   1.489   1.022
 8161SOL    HW225383   5.204   1.376   0.975
 8162SOL     OW25384   5.983   0.449   2.176
 8162SOL    HW125385   6.040   0.529   2.191
 8162SOL    HW225386   5.997   0.414   2.083
 8163SOL     OW25387   2.144   3.864   5.115
 8163SOL    HW125388   2.201   3.941   5.086
 8163SOL    HW225389   2.174   3.832   5.205
 8164SOL     OW25390   4.164   2.281   1.984
 8164SOL    HW125391   4.179   2.309   2.079
 8164SOL    HW225392   4.229   2.329   1.925
 8165SOL     OW25393   2.492   5.170   1.761
 8165SOL    HW125394   2.587   5.168   1.732
 8165SOL    HW225395   2.438   5.226   1.698
 8166SOL     OW25396   2.925   6.932   2.181
 8166SOL    HW125397   2.926   6.926   2.082
 8166SOL    HW225398   2.998   6.993   2.212
 8167SOL     OW25399   5.597   2.552   3.551
 8167SOL    HW125400   5.514   2.525   3.501
 8167SOL    HW225401   5.661   2.475   3.554
 8168SOL     OW25402   3.250   1.185   3.268
 8168SOL    HW125403   3.193   1.230   3.200
 8168SOL    HW225404   3.300   1.110   3.225
 8169SOL     OW25405   4.947   3.791   6.139
 8169SOL    HW125406   4.849   3.810   6.133
 8169SOL    HW225407   4.971   3.765   6.232
 8170SOL     OW25408   0.918   5.807   3.899
 8170SOL    HW125409   1.007   5.827   3.940
 8170SOL    HW225410   0.883   5.721   3.937
 8171SOL     OW25411   0.867   1.695   5.724
 8171SOL    HW125412   0.813   1.615   5.751
 8171SOL    HW225413   0.902   1.682   5.631
 8172SOL     OW25414   6.794   6.518   0.866
 8172SOL    HW125415   6.834   6.455   0.799
 8172SOL    HW225416   6.847   6.516   0.950
 8173SOL     OW25417   4.599   2.659   6.852
 8173SOL    HW125418   4.572   2.690   6.943
 8173SOL    HW225419   4.535   2.590   6.820
 8174SOL     OW25420   6.027   0.363   2.465
 8174SOL    HW125421   5.989   0.288   2.518
 8174SOL    HW225422   5.988   0.361   2.372
 8175SOL     OW25423   0.997   3.357   6.183
 8175SOL    HW125424   1.071   3.294   6.206
 8175SOL    HW225425   1.036   3.445   6.158
 8176SOL     OW25426   2.427   6.027   2.315
 8176SOL    HW125427   2.508   6.043   2.372
 8176SOL    HW225428   2.456   6.008   2.221
 8177SOL     OW25429   0.430   6.837   5.641
 8177SOL    HW125430   0.414   6.738   5.640
 8177SOL    HW225431   0.376   6.880   5.570
 8178SOL     OW25432   2.054   6.488   6.545
 8178SOL    HW125433   2.151   6.492   6.569
 8178SOL    HW225434   2.037   6.548   6.466
 8179SOL     OW25435   3.223   1.448   0.336
 8179SOL    HW125436   3.303   1.507   0.345
 8179SOL    HW225437   3.225   1.402   0.248
 8180SOL     OW25438   5.826   5.583   5.472
 8180SOL    HW125439   5.803   5.500   5.523
 8180SOL    HW225440   5.767   5.658   5.502
 8181SOL     OW25441   2.340   2.397   2.619
 8181SOL    HW125442   2.272   2.420   2.690
 8181SOL    HW225443   2.395   2.319   2.650
 8182SOL     OW25444   3.716   2.992   5.420
 8182SOL    HW125445   3.700   2.905   5.375
 8182SOL    HW225446   3.630   3.027   5.458
 8183SOL     OW25447   1.375   3.688   4.912
 8183SOL    HW125448   1.313   3.616   4.943
 8183SOL    HW225449   1.376   3.762   4.980
 8184SOL     OW25450   5.683   6.217   5.650
 8184SOL    HW125451   5.726   6.128   5.639
 8184SOL    HW225452   5.713   6.278   5.577
 8185SOL     OW25453   1.992   1.334   2.866
 8185SOL    HW125454   1.898   1.358   2.890
 8185SOL    HW225455   2.052   1.411   2.889
 8186SOL     OW25456   3.744   5.092   6.179
 8186SOL    HW125457   3.726   5.191   6.179
 8186SOL    HW225458   3.817   5.072   6.246
 8187SOL     OW25459   0.715   2.114   5.684
 8187SOL    HW125460   0.668   2.094   5.599
 8187SOL    HW225461   0.678   2.058   5.757
 8188SOL     OW25462   5.826   3.893   2.624
 8188SOL    HW125463   5.743   3.894   2.680
 8188SOL    HW225464   5.884   3.971   2.650
 8189SOL     OW25465   6.102   4.503   2.581
 8189SOL    HW125466   6.145   4.419   2.546
 8189SOL    HW225467   6.063   4.554   2.504
 8190SOL     OW25468   5.225   3.423   3.048
 8190SOL    HW125469   5.309   3.467   3.016
 8190SOL    HW225470   5.170   3.394   2.970
 8191SOL     OW25471   0.796   5.239   2.927
 8191SOL    HW125472   0.881   5.194   2.955
 8191SOL    HW225473   0.741   5.176   2.873
 8192SOL     OW25474   1.506   4.063   1.640
 8192SOL    HW125475   1.488   3.997   1.713
 8192SOL    HW225476   1.436   4.134   1.640
 8193SOL     OW25477   3.422   1.065   6.022
 8193SOL    HW125478   3.436   1.159   6.055
 8193SOL    HW225479   3.329   1.036   6.044
 8194SOL     OW25480   1.262   0.051   0.735
 8194SOL    HW125481   1.226   0.004   0.655
 8194SOL    HW225482   1.299   0.139   0.708
 8195SOL     OW25483   6.166   7.016   0.712
 8195SOL    HW125484   6.153   0.039   0.624
 8195SOL    HW225485   6.187   0.063   0.782
 8196SOL     OW25486   2.434   0.202   5.990
 8196SOL    HW125487   2.352   0.153   6.017
 8196SOL    HW225488   2.509   0.181   6.053
 8197SOL     OW25489   0.881   6.740   6.752
 8197SOL    HW125490   0.841   6.656   6.716
 8197SOL    HW225491   0.856   6.817   6.692
 8198SOL     OW25492   3.928   6.564   2.510
 8198SOL    HW125493   4.000   6.603   2.567
 8198SOL    HW225494   3.876   6.497   2.563
 8199SOL     OW25495   5.871   3.799   0.297
 8199SOL    HW125496   5.825   3.853   0.367
 8199SOL    HW225497   5.803   3.753   0.240
 8200SOL     OW25498   4.972   3.740   1.317
 8200SOL    HW125499   5.005   3.799   1.242
 8200SOL    HW225500   4.901   3.789   1.368
 8201SOL     OW25501   6.521   1.271   4.225
 8201SOL    HW125502   6.440   1.326   4.205
 8201SOL    HW225503   6.542   1.213   4.147
 8202SOL     OW25504   1.711   4.133   3.658
 8202SOL    HW125505   1.658   4.187   3.592
 8202SOL    HW225506   1.757   4.194   3.723
 8203SOL     OW25507   5.875   3.706   1.050
 8203SOL    HW125508   5.929   3.790   1.048
 8203SOL    HW225509   5.851   3.684   1.144
 8204SOL     OW25510   3.451   6.739   0.817
 8204SOL    HW125511   3.510   6.818   0.831
 8204SOL    HW225512   3.424   6.702   0.906
 8205SOL     OW25513   5.876   5.200   3.047
 8205SOL    HW125514   5.824   5.141   3.109
 8205SOL    HW225515   5.839   5.293   3.052
 8206SOL     OW25516   4.334   1.969   3.985
 8206SOL    HW125517   4.381   2.057   3.994
 8206SOL    HW225518   4.248   1.982   3.936
 8207SOL     OW25519   2.667   6.369   0.045
 8207SOL    HW125520   2.680   6.273   0.068
 8207SOL    HW225521   2.601   6.410   0.107
 8208SOL     OW25522   1.509   4.896   6.192
 8208SOL    HW125523   1.419   4.878   6.232
 8208SOL    HW225524   1.498   4.931   6.099
 8209SOL     OW25525   0.390   6.553   5.248
 8209SOL    HW125526   0.431   6.512   5.330
 8209SOL    HW225527   0.399   6.489   5.171
 8210SOL     OW25528   3.020   1.992   0.186
 8210SOL    HW125529   3.056   2.035   0.269
 8210SOL    HW225530   2.965   1.912   0.210
 8211SOL     OW25531   2.971   3.427   4.726
 8211SOL    HW125532   3.070   3.439   4.715
 8211SOL    HW225533   2.952   3.334   4.755
 8212SOL     OW25534   3.748   6.658   1.062
 8212SOL    HW125535   3.762   6.592   1.136
 8212SOL    HW225536   3.700   6.738   1.097
 8213SOL     OW25537   4.282   3.950   1.731
 8213SOL    HW125538   4.183   3.955   1.732
 8213SOL    HW225539   4.321   4.037   1.762
 8214SOL     OW25540   3.763   5.249   4.243
 8214SOL    HW125541   3.833   5.307   4.200
 8214SOL    HW225542   3.681   5.248   4.185
 8215SOL     OW25543   3.450   5.919   6.357
 8215SOL    HW125544   3.456   5.908   6.258
 8215SOL    HW225545   3.489   6.007   6.384
 8216SOL     OW25546   6.263   4.720   1.906
 8216SOL    HW125547   6.210   4.805   1.910
 8216SOL    HW225548   6.357   4.741   1.878
 8217SOL     OW25549   2.773   6.283   3.841
 8217SOL    HW125550   2.839   6.307   3.770
 8217SOL    HW225551   2.687   6.331   3.824
 8218SOL     OW25552   2.694   6.762   5.136
 8218SOL    HW125553   2.699   6.684   5.073
 8218SOL    HW225554   2.771   6.759   5.199
 8219SOL     OW25555   4.098   3.032   1.815
 8219SOL    HW125556   4.188   3.054   1.854
 8219SOL    HW225557   4.101   2.940   1.774
 8220SOL     OW25558   3.402   4.153   4.304
 8220SOL    HW125559   3.398   4.161   4.204
 8220SOL    HW225560   3.497   4.157   4.335
 8221SOL     OW25561   5.688   4.011   3.183
 8221SOL    HW125562   5.746   3.987   3.260
 8221SOL    HW225563   5.592   3.999   3.209
 8222SOL     OW25564   6.506   2.826   0.362
 8222SOL    HW125565   6.508   2.836   0.263
 8222SOL    HW225566   6.498   2.729   0.386
 8223SOL     OW25567   1.934   6.242   5.758
 8223SOL    HW125568   1.967   6.271   5.848
 8223SOL    HW225569   1.906   6.146   5.761
 8224SOL     OW25570   5.001   1.319   0.407
 8224SOL    HW125571   4.960   1.357   0.490
 8224SOL    HW225572   4.943   1.339   0.329
 8225SOL     OW25573   5.613   2.033   0.353
 8225SOL    HW125574   5.675   1.965   0.316
 8225SOL    HW225575   5.636   2.123   0.317
 8226SOL     OW25576   4.104   0.923   0.773
 8226SOL    HW125577   4.191   0.875   0.767
 8226SOL    HW225578   4.086   0.971   0.687
 8227SOL     OW25579   4.253   2.070   2.850
 8227SOL    HW125580   4.280   2.164   2.868
 8227SOL    HW225581   4.159   2.068   2.815
 8228SOL     OW25582   2.243   0.081   4.326
 8228SOL    HW125583   2.311   0.127   4.382
 8228SOL    HW225584   2.285   0.002   4.280
 8229SOL     OW25585   4.496   4.423   0.327
 8229SOL    HW125586   4.428   4.495   0.314
 8229SOL    HW225587   4.451   4.334   0.324
 8230SOL     OW25588   5.593   0.442   5.896
 8230SOL    HW125589   5.549   0.413   5.981
 8230SOL    HW225590   5.680   0.486   5.916
 8231SOL     OW25591   2.889   1.848   2.548
 8231SOL    HW125592   2.944   1.895   2.479
 8231SOL    HW225593   2.941   1.770   2.585
 8232SOL     OW25594   3.780   5.672   3.152
 8232SOL    HW125595   3.742   5.665   3.245
 8232SOL    HW225596   3.712   5.714   3.092
 8233SOL     OW25597   1.179   1.116   5.896
 8233SOL    HW125598   1.267   1.071   5.881
 8233SOL    HW225599   1.190   1.193   5.959
 8234SOL     OW25600   0.628   2.098   0.854
 8234SOL    HW125601   0.546   2.112   0.909
 8234SOL    HW225602   0.709   2.113   0.911
 8235SOL     OW25603   0.826   6.968   1.286
 8235SOL    HW125604   0.774   7.017   1.216
 8235SOL    HW225605   0.787   6.987   1.376
 8236SOL     OW25606   1.035   6.706   1.638
 8236SOL    HW125607   0.945   6.736   1.669
 8236SOL    HW225608   1.034   6.608   1.623
 8237SOL     OW25609   4.061   5.003   6.000
 8237SOL    HW125610   4.124   4.968   5.931
 8237SOL    HW225611   4.113   5.045   6.075
 8238SOL     OW25612   0.691   4.631   0.701
 8238SOL    HW125613   0.650   4.540   0.694
 8238SOL    HW225614   0.619   4.699   0.714
 8239SOL     OW25615   1.937   1.648   5.341
 8239SOL    HW125616   1.965   1.744   5.349
 8239SOL    HW225617   1.875   1.638   5.263
 8240SOL     OW25618   3.782   3.499   4.704
 8240SOL    HW125619   3.864   3.556   4.699
 8240SOL    HW225620   3.743   3.489   4.612
 8241SOL     OW25621   1.936   4.050   5.178
 8241SOL    HW125622   2.010   3.989   5.149
 8241SOL    HW225623   1.908   4.027   5.271
 8242SOL     OW25624   0.528   3.448   2.772
 8242SOL    HW125625   0.449   3.456   2.832
 8242SOL    HW225626   0.499   3.456   2.677
 8243SOL     OW25627   1.534   5.421   4.297
 8243SOL    HW125628   1.471   5.345   4.278
 8243SOL    HW225629   1.497   5.505   4.257
 8244SOL     OW25630   6.800   1.395   3.896
 8244SOL    HW125631   6.779   1.298   3.905
 8244SOL    HW225632   6.750   1.433   3.818
 8245SOL     OW25633   5.715   2.036   2.566
 8245SOL    HW125634   5.717   1.978   2.485
 8245SOL    HW225635   5.632   2.016   2.619
 8246SOL     OW25636   1.570   5.042   6.425
 8246SOL    HW125637   1.580   4.982   6.346
 8246SOL    HW225638   1.488   5.098   6.415
 8247SOL     OW25639   2.894   5.569   3.047
 8247SOL    HW125640   2.924   5.486   3.000
 8247SOL    HW225641   2.965   5.600   3.109
 8248SOL     OW25642   6.642   5.281   3.901
 8248SOL    HW125643   6.548   5.281   3.867
 8248SOL    HW225644   6.642   5.269   4.000
 8249SOL     OW25645   3.322   1.555   6.627
 8249SOL    HW125646   3.288   1.559   6.721
 8249SOL    HW225647   3.324   1.648   6.589
 8250SOL     OW25648   1.002   2.137   6.861
 8250SOL    HW125649   0.924   2.134   6.799
 8250SOL    HW225650   0.985   2.077   6.939
 8251SOL     OW25651   0.720   2.450   5.184
 8251SOL    HW125652   0.702   2.352   5.183
 8251SOL    HW225653   0.651   2.497   5.129
 8252SOL     OW25654   0.774   2.142   6.701
 8252SOL    HW125655   0.729   2.170   6.786
 8252SOL    HW225656   0.740   2.052   6.674
 8253SOL     OW25657   3.966   5.991   0.341
 8253SOL    HW125658   4.014   6.030   0.420
 8253SOL    HW225659   3.996   5.897   0.327
 8254SOL     OW25660   5.922   5.336   0.157
 8254SOL    HW125661   5.893   5.429   0.179
 8254SOL    HW225662   5.844   5.274   0.163
 8255SOL     OW25663   2.555   0.704   5.657
 8255SOL    HW125664   2.466   0.684   5.699
 8255SOL    HW225665   2.561   0.659   5.568
 8256SOL     OW25666   1.641   4.916   5.257
 8256SOL    HW125667   1.635   4.960   5.167
 8256SOL    HW225668   1.549   4.897   5.291
 8257SOL     OW25669   5.123   3.966   3.107
 8257SOL    HW125670   5.070   4.046   3.080
 8257SOL    HW225671   5.212   3.968   3.061
 8258SOL     OW25672   0.624   3.152   2.480
 8258SOL    HW125673   0.598   3.229   2.422
 8258SOL    HW225674   0.563   3.075   2.462
 8259SOL     OW25675   5.367   1.858   4.039
 8259SOL    HW125676   5.303   1.788   4.006
 8259SOL    HW225677   5.434   1.878   3.967
 8260SOL     OW25678   4.342   2.139   1.304
 8260SOL    HW125679   4.432   2.097   1.296
 8260SOL    HW225680   4.295   2.102   1.384
 8261SOL     OW25681   5.465   1.341   2.428
 8261SOL    HW125682   5.374   1.299   2.430
 8261SOL    HW225683   5.533   1.275   2.461
 8262SOL     OW25684   5.451   3.728   1.669
 8262SOL    HW125685   5.444   3.750   1.572
 8262SOL    HW225686   5.517   3.790   1.712
 8263SOL     OW25687   6.150   1.691   5.235
 8263SOL    HW125688   6.149   1.767   5.170
 8263SOL    HW225689   6.061   1.684   5.280
 8264SOL     OW25690   3.591   0.176   2.784
 8264SOL    HW125691   3.591   0.076   2.787
 8264SOL    HW225692   3.512   0.208   2.732
 8265SOL     OW25693   4.901   6.306   0.661
 8265SOL    HW125694   4.961   6.365   0.715
 8265SOL    HW225695   4.824   6.276   0.717
 8266SOL     OW25696   3.129   1.234   3.901
 8266SOL    HW125697   3.219   1.201   3.929
 8266SOL    HW225698   3.135   1.332   3.879
 8267SOL     OW25699   2.072   3.490   2.351
 8267SOL    HW125700   2.007   3.559   2.318
 8267SOL    HW225701   2.134   3.464   2.277
 8268SOL     OW25702   3.312   4.316   6.457
 8268SOL    HW125703   3.332   4.414   6.452
 8268SOL    HW225704   3.395   4.264   6.439
 8269SOL     OW25705   6.289   2.990   4.499
 8269SOL    HW125706   6.240   2.975   4.414
 8269SOL    HW225707   6.286   2.908   4.556
 8270SOL     OW25708   4.104   6.039   6.399
 8270SOL    HW125709   4.161   5.961   6.424
 8270SOL    HW225710   4.148   6.124   6.431
 8271SOL     OW25711   3.546   6.477   6.287
 8271SOL    HW125712   3.595   6.395   6.316
 8271SOL    HW225713   3.504   6.461   6.198
 8272SOL     OW25714   1.408   0.592   2.051
 8272SOL    HW125715   1.354   0.549   2.124
 8272SOL    HW225716   1.420   0.528   1.976
 8273SOL     OW25717   4.002   0.787   0.308
 8273SOL    HW125718   4.033   0.719   0.241
 8273SOL    HW225719   3.902   0.792   0.306
 8274SOL     OW25720   5.118   6.200   5.470
 8274SOL    HW125721   5.182   6.181   5.395
 8274SOL    HW225722   5.117   6.298   5.489
 8275SOL     OW25723   5.499   0.685   4.268
 8275SOL    HW125724   5.503   0.614   4.338
 8275SOL    HW225725   5.452   0.650   4.187
 8276SOL     OW25726   6.808   2.429   6.757
 8276SOL    HW125727   6.795   2.355   6.691
 8276SOL    HW225728   6.767   2.403   6.845
 8277SOL     OW25729   1.146   0.059   7.015
 8277SOL    HW125730   1.197   7.001   6.985
 8277SOL    HW225731   1.179   0.140   6.965
 8278SOL     OW25732   3.014   1.369   0.832
 8278SOL    HW125733   2.947   1.328   0.770
 8278SOL    HW225734   2.967   1.420   0.904
 8279SOL     OW25735   3.586   5.903   5.503
 8279SOL    HW125736   3.514   5.834   5.510
 8279SOL    HW225737   3.606   5.940   5.594
 8280SOL     OW25738   5.218   4.194   6.876
 8280SOL    HW125739   5.259   4.130   6.811
 8280SOL    HW225740   5.279   4.205   6.954
 8281SOL     OW25741   3.032   5.502   7.005
 8281SOL    HW125742   3.042   5.586   0.037
 8281SOL    HW225743   2.945   5.458   0.006
 8282SOL     OW25744   2.961   3.055   1.805
 8282SOL    HW125745   2.920   2.995   1.736
 8282SOL    HW225746   2.896   3.127   1.830
 8283SOL     OW25747   0.530   6.701   3.958
 8283SOL    HW125748   0.518   6.757   3.876
 8283SOL    HW225749   0.468   6.733   4.030
 8284SOL     OW25750   3.953   1.424   2.554
 8284SOL    HW125751   3.904   1.359   2.612
 8284SOL    HW225752   3.941   1.400   2.458
 8285SOL     OW25753   2.147   4.616   6.926
 8285SOL    HW125754   2.189   4.608   6.836
 8285SOL    HW225755   2.082   4.541   6.939
 8286SOL     OW25756   5.560   2.483   5.538
 8286SOL    HW125757   5.537   2.576   5.508
 8286SOL    HW225758   5.491   2.419   5.504
 8287SOL     OW25759   1.666   0.234   3.791
 8287SOL    HW125760   1.648   0.239   3.889
 8287SOL    HW225761   1.750   0.183   3.775
 8288SOL     OW25762   2.321   0.183   2.940
 8288SOL    HW125763   2.294   0.116   2.871
 8288SOL    HW225764   2.254   0.258   2.941
 8289SOL     OW25765   6.360   0.711   6.363
 8289SOL    HW125766   6.289   0.782   6.361
 8289SOL    HW225767   6.433   0.737   6.300
 8290SOL     OW25768   4.644   2.652   1.643
 8290SOL    HW125769   4.663   2.743   1.680
 8290SOL    HW225770   4.592   2.661   1.558
 8291SOL     OW25771   4.588   5.754   6.790
 8291SOL    HW125772   4.612   5.818   6.863
 8291SOL    HW225773   4.547   5.672   6.830
 8292SOL     OW25774   0.465   2.858   5.111
 8292SOL    HW125775   0.442   2.764   5.135
 8292SOL    HW225776   0.547   2.858   5.053
 8293SOL     OW25777   2.742   5.679   3.741
 8293SOL    HW125778   2.660   5.682   3.799
 8293SOL    HW225779   2.792   5.594   3.758
 8294SOL     OW25780   5.228   4.016   5.378
 8294SOL    HW125781   5.234   3.983   5.472
 8294SOL    HW225782   5.315   4.001   5.331
 8295SOL     OW25783   5.127   4.826   2.496
 8295SOL    HW125784   5.090   4.919   2.498
 8295SOL    HW225785   5.131   4.793   2.402
 8296SOL     OW25786   3.975   6.758   1.971
 8296SOL    HW125787   4.055   6.806   2.008
 8296SOL    HW225788   3.996   6.726   1.879
 8297SOL     OW25789   5.294   4.340   3.451
 8297SOL    HW125790   5.202   4.349   3.413
 8297SOL    HW225791   5.297   4.260   3.511
 8298SOL     OW25792   0.089   6.942   6.891
 8298SOL    HW125793   0.138   0.006   6.877
 8298SOL    HW225794   0.111   6.905   6.981
 8299SOL     OW25795   1.006   3.439   0.663
 8299SOL    HW125796   1.033   3.434   0.760
 8299SOL    HW225797   0.931   3.503   0.653
 8300SOL     OW25798   6.389   5.252   3.834
 8300SOL    HW125799   6.370   5.288   3.743
 8300SOL    HW225800   6.341   5.166   3.847
 8301SOL     OW25801   5.689   6.678   0.719
 8301SOL    HW125802   5.648   6.624   0.645
 8301SOL    HW225803   5.785   6.651   0.731
 8302SOL     OW25804   3.694   0.154   5.465
 8302SOL    HW125805   3.732   0.127   5.376
 8302SOL    HW225806   3.722   0.247   5.487
 8303SOL     OW25807   0.462   5.248   2.557
 8303SOL    HW125808   0.397   5.188   2.510
 8303SOL    HW225809   0.470   5.334   2.507
 8304SOL     OW25810   6.090   4.623   3.261
 8304SOL    HW125811   6.096   4.653   3.356
 8304SOL    HW225812   6.093   4.523   3.257
 8305SOL     OW25813   5.396   6.786   5.263
 8305SOL    HW125814   5.345   6.804   5.178
 8305SOL    HW225815   5.354   6.836   5.338
 8306SOL     OW25816   0.109   1.524   2.980
 8306SOL    HW125817   0.122   1.571   3.067
 8306SOL    HW225818   0.011   1.508   2.965
 8307SOL     OW25819   1.563   2.984   2.863
 8307SOL    HW125820   1.545   2.965   2.766
 8307SOL    HW225821   1.559   3.082   2.880
 8308SOL     OW25822   0.961   5.562   0.849
 8308SOL    HW125823   0.889   5.527   0.788
 8308SOL    HW225824   1.008   5.639   0.805
 8309SOL     OW25825   6.341   4.753   4.617
 8309SOL    HW125826   6.273   4.806   4.667
 8309SOL    HW225827   6.311   4.740   4.523
 8310SOL     OW25828   2.098   0.428   0.865
 8310SOL    HW125829   2.010   0.394   0.898
 8310SOL    HW225830   2.091   0.527   0.848
 8311SOL     OW25831   5.098   5.771   3.499
 8311SOL    HW125832   5.191   5.755   3.531
 8311SOL    HW225833   5.049   5.830   3.564
 8312SOL     OW25834   5.857   1.466   0.448
 8312SOL    HW125835   5.836   1.369   0.436
 8312SOL    HW225836   5.938   1.489   0.394
 8313SOL     OW25837   5.841   2.332   5.904
 8313SOL    HW125838   5.751   2.352   5.866
 8313SOL    HW225839   5.890   2.418   5.921
 8314SOL     OW25840   4.795   6.005   4.229
 8314SOL    HW125841   4.833   5.929   4.177
 8314SOL    HW225842   4.808   6.090   4.178
 8315SOL     OW25843   3.349   3.155   4.825
 8315SOL    HW125844   3.417   3.179   4.756
 8315SOL    HW225845   3.342   3.055   4.832
 8316SOL     OW25846   2.434   2.222   5.556
 8316SOL    HW125847   2.421   2.315   5.522
 8316SOL    HW225848   2.493   2.172   5.493
 8317SOL     OW25849   1.484   2.091   4.316
 8317SOL    HW125850   1.583   2.086   4.327
 8317SOL    HW225851   1.449   2.173   4.363
 8318SOL     OW25852   4.300   6.829   6.201
 8318SOL    HW125853   4.373   6.896   6.193
 8318SOL    HW225854   4.222   6.858   6.145
 8319SOL     OW25855   2.352   5.738   6.073
 8319SOL    HW125856   2.305   5.712   5.989
 8319SOL    HW225857   2.405   5.821   6.057
 8320SOL     OW25858   3.574   3.321   5.229
 8320SOL    HW125859   3.527   3.311   5.317
 8320SOL    HW225860   3.506   3.323   5.155
 8321SOL     OW25861   6.811   0.066   0.551
 8321SOL    HW125862   6.771   0.157   0.545
 8321SOL    HW225863   6.904   0.073   0.588
 8322SOL     OW25864   0.512   6.448   0.007
 8322SOL    HW125865   0.542   6.474   6.938
 8322SOL    HW225866   0.432   6.504   0.033
 8323SOL     OW25867   5.596   4.574   0.473
 8323SOL    HW125868   5.560   4.498   0.528
 8323SOL    HW225869   5.600   4.657   0.528
 8324SOL     OW25870   5.135   6.171   0.348
 8324SOL    HW125871   5.042   6.200   0.323
 8324SOL    HW225872   5.180   6.132   0.268
 8325SOL     OW25873   1.533   6.534   5.436
 8325SOL    HW125874   1.528   6.580   5.347
 8325SOL    HW225875   1.501   6.439   5.426
 8326SOL     OW25876   1.582   3.100   6.915
 8326SOL    HW125877   1.546   3.007   6.922
 8326SOL    HW225878   1.507   3.165   6.901
 8327SOL     OW25879   1.362   5.951   4.677
 8327SOL    HW125880   1.446   5.898   4.672
 8327SOL    HW225881   1.302   5.928   4.600
 8328SOL     OW25882   0.567   6.520   6.784
 8328SOL    HW125883   0.560   6.616   6.756
 8328SOL    HW225884   0.658   6.486   6.763
 8329SOL     OW25885   1.162   2.827   4.638
 8329SOL    HW125886   1.140   2.924   4.630
 8329SOL    HW225887   1.145   2.781   4.551
 8330SOL     OW25888   3.158   1.233   6.839
 8330SOL    HW125889   3.230   1.164   6.844
 8330SOL    HW225890   3.072   1.195   6.872
 8331SOL     OW25891   1.518   2.311   6.442
 8331SOL    HW125892   1.524   2.237   6.509
 8331SOL    HW225893   1.501   2.272   6.351
 8332SOL     OW25894   6.439   4.272   1.817
 8332SOL    HW125895   6.415   4.182   1.854
 8332SOL    HW225896   6.367   4.301   1.754
 8333SOL     OW25897   1.803   3.856   0.082
 8333SOL    HW125898   1.800   3.895   7.013
 8333SOL    HW225899   1.832   3.926   0.148
 8334SOL     OW25900   2.614   2.090   5.411
 8334SOL    HW125901   2.629   2.079   5.313
 8334SOL    HW225902   2.698   2.068   5.460
 8335SOL     OW25903   5.411   4.564   6.289
 8335SOL    HW125904   5.455   4.654   6.283
 8335SOL    HW225905   5.338   4.559   6.221
 8336SOL     OW25906   1.009   4.207   3.596
 8336SOL    HW125907   1.068   4.260   3.535
 8336SOL    HW225908   1.028   4.110   3.584
 8337SOL     OW25909   0.255   1.531   4.064
 8337SOL    HW125910   0.170   1.552   4.017
 8337SOL    HW225911   0.322   1.603   4.044
 8338SOL     OW25912   3.043   5.385   1.224
 8338SOL    HW125913   3.094   5.376   1.309
 8338SOL    HW225914   3.106   5.408   1.150
 8339SOL     OW25915   6.133   0.736   1.250
 8339SOL    HW125916   6.055   0.790   1.217
 8339SOL    HW225917   6.102   0.670   1.317
 8340SOL     OW25918   6.102   1.774   6.917
 8340SOL    HW125919   6.127   1.857   6.967
 8340SOL    HW225920   6.154   1.770   6.831
 8341SOL     OW25921   3.864   1.587   0.730
 8341SOL    HW125922   3.798   1.607   0.803
 8341SOL    HW225923   3.835   1.505   0.681
 8342SOL     OW25924   4.366   0.372   0.437
 8342SOL    HW125925   4.363   0.373   0.536
 8342SOL    HW225926   4.457   0.346   0.406
 8343SOL     OW25927   5.801   4.464   3.930
 8343SOL    HW125928   5.705   4.468   3.958
 8343SOL    HW225929   5.825   4.369   3.908
 8344SOL     OW25930   1.272   4.850   6.314
 8344SOL    HW125931   1.244   4.827   6.408
 8344SOL    HW225932   1.242   4.943   6.292
 8345SOL     OW25933   4.824   6.956   3.817
 8345SOL    HW125934   4.922   6.943   3.828
 8345SOL    HW225935   4.777   6.868   3.824
 8346SOL     OW25936   5.921   2.897   4.163
 8346SOL    HW125937   5.933   2.803   4.195
 8346SOL    HW225938   5.824   2.915   4.147
 8347SOL     OW25939   2.308   1.351   6.403
 8347SOL    HW125940   2.271   1.416   6.470
 8347SOL    HW225941   2.234   1.318   6.345
 8348SOL     OW25942   3.030   6.182   2.204
 8348SOL    HW125943   2.960   6.190   2.133
 8348SOL    HW225944   3.047   6.272   2.244
 8349SOL     OW25945   6.326   6.102   2.382
 8349SOL    HW125946   6.363   6.010   2.372
 8349SOL    HW225947   6.304   6.139   2.291
 8350SOL     OW25948   1.881   0.799   6.556
 8350SOL    HW125949   1.836   0.885   6.532
 8350SOL    HW225950   1.972   0.796   6.516
 8351SOL     OW25951   0.270   3.219   2.691
 8351SOL    HW125952   0.268   3.121   2.667
 8351SOL    HW225953   0.303   3.230   2.785
 8352SOL     OW25954   2.916   5.316   0.902
 8352SOL    HW125955   2.882   5.363   0.820
 8352SOL    HW225956   2.890   5.368   0.983
 8353SOL     OW25957   0.879   4.951   1.778
 8353SOL    HW125958   0.929   5.034   1.753
 8353SOL    HW225959   0.917   4.913   1.862
 8354SOL     OW25960   3.429   0.660   3.611
 8354SOL    HW125961   3.353   0.705   3.563
 8354SOL    HW225962   3.513   0.672   3.559
 8355SOL     OW25963   2.937   6.390   6.893
 8355SOL    HW125964   2.974   6.472   6.849
 8355SOL    HW225965   2.847   6.411   6.931
 8356SOL     OW25966   1.990   5.116   0.551
 8356SOL    HW125967   1.907   5.171   0.549
 8356SOL    HW225968   2.022   5.100   0.458
 8357SOL     OW25969   4.766   6.670   5.671
 8357SOL    HW125970   4.760   6.766   5.698
 8357SOL    HW225971   4.678   6.625   5.688
 8358SOL     OW25972   1.386   1.144   5.139
 8358SOL    HW125973   1.410   1.052   5.171
 8358SOL    HW225974   1.288   1.147   5.117
 8359SOL     OW25975   3.696   1.843   5.929
 8359SOL    HW125976   3.734   1.935   5.929
 8359SOL    HW225977   3.747   1.786   5.993
 8360SOL     OW25978   4.602   0.182   1.078
 8360SOL    HW125979   4.602   0.281   1.089
 8360SOL    HW225980   4.659   0.140   1.150
 8361SOL     OW25981   4.065   1.250   6.761
 8361SOL    HW125982   4.125   1.198   6.700
 8361SOL    HW225983   3.970   1.226   6.743
 8362SOL     OW25984   0.484   4.385   1.321
 8362SOL    HW125985   0.569   4.394   1.268
 8362SOL    HW225986   0.484   4.453   1.394
 8363SOL     OW25987   1.620   2.998   0.988
 8363SOL    HW125988   1.617   2.979   1.086
 8363SOL    HW225989   1.706   3.044   0.966
 8364SOL     OW25990   0.077   3.245   4.248
 8364SOL    HW125991   0.030   3.162   4.278
 8364SOL    HW225992   0.010   3.314   4.223
 8365SOL     OW25993   1.359   2.370   2.023
 8365SOL    HW125994   1.322   2.371   2.116
 8365SOL    HW225995   1.378   2.275   1.996
 8366SOL     OW25996   5.501   4.989   2.624
 8366SOL    HW125997   5.594   5.019   2.648
 8366SOL    HW225998   5.434   5.053   2.662
 8367SOL     OW25999   2.040   5.127   4.154
 8367SOL    HW126000   2.127   5.148   4.199
 8367SOL    HW226001   1.964   5.160   4.211
 8368SOL     OW26002   6.150   6.432   6.092
 8368SOL    HW126003   6.160   6.497   6.017
 8368SOL    HW226004   6.062   6.386   6.085
 8369SOL     OW26005   2.339   6.390   0.729
 8369SOL    HW126006   2.412   6.429   0.674
 8369SOL    HW226007   2.254   6.441   0.713
 8370SOL     OW26008   2.985   4.309   6.941
 8370SOL    HW126009   2.911   4.276   6.883
 8370SOL    HW226010   3.018   4.396   6.906
 8371SOL     OW26011   1.967   4.444   5.136
 8371SOL    HW126012   2.048   4.391   5.111
 8371SOL    HW226013   1.911   4.391   5.200
 8372SOL     OW26014   2.366   6.246   1.209
 8372SOL    HW126015   2.299   6.298   1.156
 8372SOL    HW226016   2.318   6.184   1.271
 8373SOL     OW26017   6.652   2.052   4.032
 8373SOL    HW126018   6.635   2.124   4.099
 8373SOL    HW226019   6.676   1.967   4.080
 8374SOL     OW26020   6.970   1.390   4.112
 8374SOL    HW126021   6.915   1.375   4.031
 8374SOL    HW226022   6.917   1.367   4.194
 8375SOL     OW26023   2.920   1.440   4.806
 8375SOL    HW126024   2.907   1.433   4.905
 8375SOL    HW226025   2.968   1.359   4.773
 8376SOL     OW26026   1.320   1.937   3.409
 8376SOL    HW126027   1.223   1.950   3.429
 8376SOL    HW226028   1.332   1.923   3.311
 8377SOL     OW26029   5.075   5.304   0.482
 8377SOL    HW126030   5.097   5.380   0.544
 8377SOL    HW226031   5.153   5.285   0.423
 8378SOL     OW26032   5.161   6.009   4.277
 8378SOL    HW126033   5.189   5.923   4.321
 8378SOL    HW226034   5.078   6.043   4.321
 8379SOL     OW26035   5.681   1.988   1.319
 8379SOL    HW126036   5.636   1.908   1.279
 8379SOL    HW226037   5.622   2.068   1.310
 8380SOL     OW26038   7.010   5.980   0.913
 8380SOL    HW126039   0.049   5.975   0.992
 8380SOL    HW226040   6.952   6.061   0.921
 8381SOL     OW26041   0.518   1.535   2.787
 8381SOL    HW126042   0.496   1.454   2.734
 8381SOL    HW226043   0.541   1.509   2.881
 8382SOL     OW26044   1.697   0.795   0.951
 8382SOL    HW126045   1.677   0.697   0.951
 8382SOL    HW226046   1.645   0.840   1.024
 8383SOL     OW26047   2.985   6.923   6.694
 8383SOL    HW126048   3.001   6.905   6.597
 8383SOL    HW226049   2.923   6.854   6.731
 8384SOL     OW26050   0.641   3.204   2.926
 8384SOL    HW126051   0.736   3.225   2.948
 8384SOL    HW226052   0.628   3.205   2.827
 8385SOL     OW26053   4.470   2.823   1.076
 8385SOL    HW126054   4.552   2.829   1.133
 8385SOL    HW226055   4.389   2.840   1.132
 8386SOL     OW26056   2.300   5.967   1.853
 8386SOL    HW126057   2.353   5.967   1.938
 8386SOL    HW226058   2.359   5.994   1.778
 8387SOL     OW26059   1.235   1.215   3.038
 8387SOL    HW126060   1.269   1.129   3.078
 8387SOL    HW226061   1.312   1.266   3.000
 8388SOL     OW26062   4.550   5.967   0.918
 8388SOL    HW126063   4.638   5.920   0.920
 8388SOL    HW226064   4.481   5.909   0.962
 8389SOL     OW26065   0.481   3.121   4.176
 8389SOL    HW126066   0.422   3.065   4.234
 8389SOL    HW226067   0.573   3.082   4.175
 8390SOL     OW26068   2.655   7.008   5.459
 8390SOL    HW126069   2.631   0.003   5.554
 8390SOL    HW226070   2.754   6.992   5.452
 8391SOL     OW26071   5.632   5.908   0.794
 8391SOL    HW126072   5.655   5.947   0.883
 8391SOL    HW226073   5.632   5.808   0.800
 8392SOL     OW26074   6.158   6.459   5.563
 8392SOL    HW126075   6.158   6.559   5.568
 8392SOL    HW226076   6.141   6.431   5.469
 8393SOL     OW26077   0.219   5.489   3.024
 8393SOL    HW126078   0.228   5.479   2.924
 8393SOL    HW226079   0.282   5.560   3.056
 8394SOL     OW26080   1.017   1.692   2.922
 8394SOL    HW126081   1.051   1.756   2.853
 8394SOL    HW226082   1.092   1.665   2.982
 8395SOL     OW26083   0.770   5.983   5.534
 8395SOL    HW126084   0.834   6.039   5.586
 8395SOL    HW226085   0.695   6.040   5.500
 8396SOL     OW26086   4.697   3.467   0.990
 8396SOL    HW126087   4.727   3.424   1.076
 8396SOL    HW226088   4.767   3.530   0.959
 8397SOL     OW26089   1.652   5.332   3.327
 8397SOL    HW126090   1.685   5.288   3.411
 8397SOL    HW226091   1.609   5.264   3.268
 8398SOL     OW26092   5.195   1.731   0.591
 8398SOL    HW126093   5.124   1.801   0.598
 8398SOL    HW226094   5.163   1.646   0.633
 8399SOL     OW26095   5.885   5.651   0.168
 8399SOL    HW126096   5.813   5.672   0.234
 8399SOL    HW226097   5.890   5.725   0.100
 8400SOL     OW26098   6.052   0.664   4.408
 8400SOL    HW126099   6.114   0.588   4.427
 8400SOL    HW226100   5.970   0.629   4.362
 8401SOL     OW26101   3.166   5.019   6.032
 8401SOL    HW126102   3.241   4.960   6.005
 8401SOL    HW226103   3.126   4.986   6.118
 8402SOL     OW26104   4.591   1.754   0.437
 8402SOL    HW126105   4.510   1.811   0.446
 8402SOL    HW226106   4.602   1.725   0.342
 8403SOL     OW26107   1.248   1.988   4.672
 8403SOL    HW126108   1.342   2.022   4.681
 8403SOL    HW226109   1.237   1.947   4.581
 8404SOL     OW26110   4.290   5.067   5.374
 8404SOL    HW126111   4.375   5.069   5.427
 8404SOL    HW226112   4.212   5.077   5.436
 8405SOL     OW26113   1.157   2.550   5.152
 8405SOL    HW126114   1.124   2.644   5.160
 8405SOL    HW226115   1.241   2.549   5.097
 8406SOL     OW26116   4.880   3.322   1.473
 8406SOL    HW126117   4.879   3.387   1.549
 8406SOL    HW226118   4.954   3.256   1.487
 8407SOL     OW26119   5.077   3.678   2.312
 8407SOL    HW126120   5.062   3.772   2.281
 8407SOL    HW226121   5.022   3.660   2.393
 8408SOL     OW26122   4.633   2.678   3.682
 8408SOL    HW126123   4.561   2.676   3.613
 8408SOL    HW226124   4.702   2.746   3.657
 8409SOL     OW26125   1.184   2.242   4.142
 8409SOL    HW126126   1.207   2.246   4.045
 8409SOL    HW226127   1.249   2.297   4.194
 8410SOL     OW26128   3.484   6.435   1.956
 8410SOL    HW126129   3.384   6.438   1.960
 8410SOL    HW226130   3.516   6.490   1.879
 8411SOL     OW26131   1.871   3.153   3.538
 8411SOL    HW126132   1.963   3.138   3.504
 8411SOL    HW226133   1.855   3.095   3.618
 8412SOL     OW26134   6.011   3.063   2.837
 8412SOL    HW126135   6.035   3.005   2.760
 8412SOL    HW226136   5.918   3.098   2.825
 8413SOL     OW26137   2.240   4.179   1.180
 8413SOL    HW126138   2.224   4.268   1.223
 8413SOL    HW226139   2.180   4.171   1.100
 8414SOL     OW26140   5.264   6.687   2.273
 8414SOL    HW126141   5.324   6.747   2.326
 8414SOL    HW226142   5.253   6.723   2.181
 8415SOL     OW26143   6.498   3.302   2.106
 8415SOL    HW126144   6.592   3.280   2.133
 8415SOL    HW226145   6.436   3.232   2.140
 8416SOL     OW26146   5.304   3.645   2.154
 8416SOL    HW126147   5.264   3.649   2.062
 8416SOL    HW226148   5.232   3.662   2.221
 8417SOL     OW26149   2.559   5.927   6.028
 8417SOL    HW126150   2.561   5.966   5.936
 8417SOL    HW226151   2.545   5.999   6.096
 8418SOL     OW26152   6.127   5.429   2.246
 8418SOL    HW126153   6.185   5.511   2.244
 8418SOL    HW226154   6.032   5.457   2.261
 8419SOL     OW26155   3.957   6.857   3.787
 8419SOL    HW126156   4.017   6.781   3.813
 8419SOL    HW226157   3.862   6.831   3.807
 8420SOL     OW26158   3.726   2.150   5.956
 8420SOL    HW126159   3.640   2.193   5.931
 8420SOL    HW226160   3.718   2.109   6.047
 8421SOL     OW26161   2.019   6.491   1.628
 8421SOL    HW126162   1.953   6.416   1.640
 8421SOL    HW226163   2.013   6.525   1.534
 8422SOL     OW26164   3.840   6.829   1.431
 8422SOL    HW126165   3.871   6.900   1.495
 8422SOL    HW226166   3.758   6.785   1.468
 8423SOL     OW26167   2.598   3.881   1.322
 8423SOL    HW126168   2.556   3.921   1.241
 8423SOL    HW226169   2.536   3.889   1.400
 8424SOL     OW26170   2.950   2.225   2.756
 8424SOL    HW126171   3.044   2.235   2.725
 8424SOL    HW226172   2.944   2.248   2.854
 8425SOL     OW26173   6.046   5.032   0.325
 8425SOL    HW126174   6.025   4.934   0.333
 8425SOL    HW226175   6.045   5.058   0.228
 8426SOL     OW26176   4.072   3.379   2.366
 8426SOL    HW126177   3.976   3.379   2.337
 8426SOL    HW226178   4.131   3.384   2.286
 8427SOL     OW26179   2.330   3.575   6.248
 8427SOL    HW126180   2.358   3.663   6.287
 8427SOL    HW226181   2.350   3.502   6.313
 8428SOL     OW26182   5.998   4.608   2.327
 8428SOL    HW126183   5.981   4.707   2.332
 8428SOL    HW226184   6.001   4.580   2.231
 8429SOL     OW26185   1.932   6.438   2.548
 8429SOL    HW126186   1.946   6.447   2.647
 8429SOL    HW226187   1.923   6.341   2.524
 8430SOL     OW26188   4.638   4.213   2.909
 8430SOL    HW126189   4.678   4.202   2.818
 8430SOL    HW226190   4.562   4.279   2.904
 8431SOL     OW26191   2.845   3.891   0.768
 8431SOL    HW126192   2.797   3.845   0.842
 8431SOL    HW226193   2.943   3.896   0.789
 8432SOL     OW26194   4.543   6.174   6.601
 8432SOL    HW126195   4.504   6.086   6.627
 8432SOL    HW226196   4.556   6.231   6.682
 8433SOL     OW26197   1.016   1.405   5.208
 8433SOL    HW126198   0.993   1.503   5.211
 8433SOL    HW226199   1.064   1.385   5.122
 8434SOL     OW26200   5.645   6.359   5.938
 8434SOL    HW126201   5.672   6.305   5.858
 8434SOL    HW226202   5.553   6.333   5.967
 8435SOL     OW26203   4.632   2.080   1.358
 8435SOL    HW126204   4.639   2.117   1.451
 8435SOL    HW226205   4.665   2.148   1.293
 8436SOL     OW26206   3.880   4.506   1.382
 8436SOL    HW126207   3.954   4.472   1.323
 8436SOL    HW226208   3.814   4.556   1.325
 8437SOL     OW26209   0.151   1.519   1.179
 8437SOL    HW126210   0.185   1.519   1.273
 8437SOL    HW226211   0.072   1.458   1.173
 8438SOL     OW26212   1.854   6.541   1.864
 8438SOL    HW126213   1.880   6.480   1.940
 8438SOL    HW226214   1.935   6.565   1.811
 8439SOL     OW26215   6.594   6.407   2.320
 8439SOL    HW126216   6.670   6.471   2.335
 8439SOL    HW226217   6.573   6.360   2.406
 8440SOL     OW26218   0.228   1.952   3.460
 8440SOL    HW126219   0.281   1.867   3.469
 8440SOL    HW226220   0.254   2.015   3.532
 8441SOL     OW26221   4.119   5.212   0.847
 8441SOL    HW126222   4.115   5.256   0.937
 8441SOL    HW226223   4.104   5.113   0.858
 8442SOL     OW26224   2.119   3.627   6.987
 8442SOL    HW126225   2.046   3.630   0.033
 8442SOL    HW226226   2.136   3.719   6.953
 8443SOL     OW26227   1.713   1.257   2.281
 8443SOL    HW126228   1.675   1.350   2.270
 8443SOL    HW226229   1.805   1.263   2.318
 8444SOL     OW26230   4.127   6.932   3.525
 8444SOL    HW126231   4.140   6.859   3.457
 8444SOL    HW226232   4.080   6.895   3.605
 8445SOL     OW26233   4.012   5.033   1.998
 8445SOL    HW126234   4.025   4.938   1.969
 8445SOL    HW226235   3.916   5.047   2.020
 8446SOL     OW26236   6.833   4.642   3.286
 8446SOL    HW126237   6.841   4.589   3.370
 8446SOL    HW226238   6.818   4.581   3.208
 8447SOL     OW26239   4.835   2.912   1.176
 8447SOL    HW126240   4.844   2.922   1.275
 8447SOL    HW226241   4.919   2.871   1.139
 8448SOL     OW26242   0.713   2.835   6.380
 8448SOL    HW126243   0.753   2.803   6.294
 8448SOL    HW226244   0.656   2.915   6.363
 8449SOL     OW26245   1.497   2.067   5.086
 8449SOL    HW126246   1.583   2.064   5.036
 8449SOL    HW226247   1.506   2.012   5.170
 8450SOL     OW26248   2.335   5.238   2.357
 8450SOL    HW126249   2.405   5.298   2.320
 8450SOL    HW226250   2.248   5.257   2.311
 8451SOL     OW26251   3.771   3.088   0.851
 8451SOL    HW126252   3.850   3.088   0.913
 8451SOL    HW226253   3.689   3.061   0.901
 8452SOL     OW26254   6.453   5.943   1.238
 8452SOL    HW126255   6.372   5.905   1.282
 8452SOL    HW226256   6.535   5.907   1.282
 8453SOL     OW26257   0.409   4.949   5.332
 8453SOL    HW126258   0.490   4.986   5.378
 8453SOL    HW226259   0.371   4.874   5.385
 8454SOL     OW26260   1.761   6.980   4.668
 8454SOL    HW126261   1.840   7.001   4.725
 8454SOL    HW226262   1.763   0.016   4.586
 8455SOL     OW26263   6.073   2.225   1.296
 8455SOL    HW126264   6.093   2.129   1.311
 8455SOL    HW226265   6.030   2.237   1.206
 8456SOL     OW26266   5.238   5.423   3.169
 8456SOL    HW126267   5.230   5.406   3.070
 8456SOL    HW226268   5.298   5.501   3.184
 8457SOL     OW26269   6.945   6.514   6.715
 8457SOL    HW126270   6.947   6.582   6.788
 8457SOL    HW226271   6.923   6.559   6.628
 8458SOL     OW26272   1.048   1.513   1.400
 8458SOL    HW126273   1.127   1.451   1.396
 8458SOL    HW226274   1.074   1.602   1.362
 8459SOL     OW26275   2.869   5.094   2.815
 8459SOL    HW126276   2.865   5.007   2.864
 8459SOL    HW226277   2.933   5.087   2.739
 8460SOL     OW26278   4.148   1.067   0.526
 8460SOL    HW126279   4.233   1.111   0.557
 8460SOL    HW226280   4.171   0.988   0.469
 8461SOL     OW26281   5.098   4.009   2.357
 8461SOL    HW126282   5.189   3.970   2.370
 8461SOL    HW226283   5.106   4.101   2.318
 8462SOL     OW26284   2.962   5.100   0.354
 8462SOL    HW126285   3.037   5.035   0.367
 8462SOL    HW226286   2.880   5.067   0.400
 8463SOL     OW26287   6.597   0.524   0.096
 8463SOL    HW126288   6.556   0.512   0.006
 8463SOL    HW226289   6.617   0.435   0.136
 8464SOL     OW26290   0.291   3.654   6.248
 8464SOL    HW126291   0.220   3.724   6.243
 8464SOL    HW226292   0.320   3.629   6.155
 8465SOL     OW26293   4.757   3.124   0.990
 8465SOL    HW126294   4.837   3.180   0.970
 8465SOL    HW226295   4.775   3.066   1.069
 8466SOL     OW26296   5.612   1.060   5.416
 8466SOL    HW126297   5.595   1.146   5.464
 8466SOL    HW226298   5.670   1.001   5.472
 8467SOL     OW26299   3.520   1.260   0.967
 8467SOL    HW126300   3.420   1.260   0.959
 8467SOL    HW226301   3.560   1.265   0.876
 8468SOL     OW26302   6.035   3.158   0.618
 8468SOL    HW126303   6.026   3.097   0.539
 8468SOL    HW226304   6.077   3.244   0.589
 8469SOL     OW26305   4.708   3.183   6.141
 8469SOL    HW126306   4.645   3.137   6.078
 8469SOL    HW226307   4.662   3.262   6.181
 8470SOL     OW26308   1.299   4.828   1.570
 8470SOL    HW126309   1.315   4.783   1.483
 8470SOL    HW226310   1.330   4.769   1.645
 8471SOL     OW26311   3.475   1.938   4.618
 8471SOL    HW126312   3.548   1.975   4.560
 8471SOL    HW226313   3.509   1.859   4.669
 8472SOL     OW26314   5.853   1.426   5.849
 8472SOL    HW126315   5.889   1.492   5.915
 8472SOL    HW226316   5.779   1.373   5.893
 8473SOL     OW26317   4.537   4.337   6.574
 8473SOL    HW126318   4.509   4.382   6.659
 8473SOL    HW226319   4.623   4.288   6.590
 8474SOL     OW26320   3.665   4.061   3.057
 8474SOL    HW126321   3.713   4.149   3.049
 8474SOL    HW226322   3.650   4.040   3.154
 8475SOL     OW26323   0.511   2.915   2.442
 8475SOL    HW126324   0.539   2.951   2.353
 8475SOL    HW226325   0.574   2.841   2.469
 8476SOL     OW26326   6.147   0.214   2.071
 8476SOL    HW126327   6.225   0.249   2.123
 8476SOL    HW226328   6.166   0.224   1.973
 8477SOL     OW26329   5.442   0.098   1.863
 8477SOL    HW126330   5.370   0.056   1.918
 8477SOL    HW226331   5.518   0.034   1.852
 8478SOL     OW26332   6.149   1.015   5.863
 8478SOL    HW126333   6.218   1.084   5.842
 8478SOL    HW226334   6.129   1.017   5.961
 8479SOL     OW26335   0.957   2.587   0.694
 8479SOL    HW126336   0.920   2.498   0.719
 8479SOL    HW226337   1.053   2.592   0.721
 8480SOL     OW26338   4.037   3.826   0.023
 8480SOL    HW126339   3.949   3.778   0.031
 8480SOL    HW226340   4.051   3.853   6.950
 8481SOL     OW26341   4.243   1.871   3.569
 8481SOL    HW126342   4.229   1.779   3.532
 8481SOL    HW226343   4.190   1.936   3.515
 8482SOL     OW26344   4.764   0.649   0.846
 8482SOL    HW126345   4.794   0.743   0.859
 8482SOL    HW226346   4.672   0.648   0.807
 8483SOL     OW26347   3.446   4.965   2.902
 8483SOL    HW126348   3.509   4.907   2.955
 8483SOL    HW226349   3.377   5.004   2.963
 8484SOL     OW26350   5.605   5.499   4.930
 8484SOL    HW126351   5.542   5.574   4.946
 8484SOL    HW226352   5.583   5.424   4.993
 8485SOL     OW26353   3.429   2.439   0.320
 8485SOL    HW126354   3.462   2.498   0.393
 8485SOL    HW226355   3.505   2.382   0.287
 8486SOL     OW26356   0.666   2.146   2.974
 8486SOL    HW126357   0.649   2.120   3.069
 8486SOL    HW226358   0.606   2.093   2.914
 8487SOL     OW26359   6.360   1.444   5.917
 8487SOL    HW126360   6.399   1.536   5.909
 8487SOL    HW226361   6.263   1.447   5.894
 8488SOL     OW26362   4.748   4.930   1.608
 8488SOL    HW126363   4.706   4.947   1.697
 8488SOL    HW226364   4.732   4.835   1.581
 8489SOL     OW26365   5.442   2.130   1.814
 8489SOL    HW126366   5.403   2.218   1.843
 8489SOL    HW226367   5.458   2.073   1.894
 8490SOL     OW26368   3.175   0.144   6.416
 8490SOL    HW126369   3.148   0.053   6.448
 8490SOL    HW226370   3.146   0.156   6.321
 8491SOL     OW26371   3.035   5.834   1.885
 8491SOL    HW126372   3.113   5.862   1.941
 8491SOL    HW226373   3.026   5.734   1.888
 8492SOL     OW26374   6.592   6.467   4.109
 8492SOL    HW126375   6.665   6.532   4.131
 8492SOL    HW226376   6.624   6.374   4.127
 8493SOL     OW26377   4.954   1.178   6.988
 8493SOL    HW126378   4.895   1.242   0.016
 8493SOL    HW226379   4.898   1.105   6.949
 8494SOL     OW26380   6.661   4.712   2.450
 8494SOL    HW126381   6.611   4.763   2.520
 8494SOL    HW226382   6.665   4.615   2.476
 8495SOL     OW26383   6.436   5.480   6.605
 8495SOL    HW126384   6.439   5.574   6.640
 8495SOL    HW226385   6.468   5.417   6.676
 8496SOL     OW26386   5.659   3.016   2.039
 8496SOL    HW126387   5.561   2.999   2.051
 8496SOL    HW226388   5.685   2.995   1.945
 8497SOL     OW26389   6.880   0.961   3.683
 8497SOL    HW126390   6.968   0.994   3.716
 8497SOL    HW226391   6.894   0.883   3.621
 8498SOL     OW26392   4.398   6.952   3.958
 8498SOL    HW126393   4.457   7.015   3.907
 8498SOL    HW226394   4.344   7.004   4.025
 8499SOL     OW26395   6.208   6.581   5.857
 8499SOL    HW126396   6.213   6.610   5.762
 8499SOL    HW226397   6.146   6.641   5.908
 8500SOL     OW26398   0.821   0.816   5.168
 8500SOL    HW126399   0.774   0.905   5.162
 8500SOL    HW226400   0.882   0.816   5.247
 8501SOL     OW26401   0.723   1.919   6.551
 8501SOL    HW126402   0.649   1.862   6.514
 8501SOL    HW226403   0.755   1.982   6.480
 8502SOL     OW26404   0.730   3.979   0.016
 8502SOL    HW126405   0.749   4.016   6.947
 8502SOL    HW226406   0.631   3.972   0.029
 8503SOL     OW26407   5.596   0.962   4.638
 8503SOL    HW126408   5.693   0.962   4.663
 8503SOL    HW226409   5.585   1.002   4.547
 8504SOL     OW26410   1.188   6.648   1.848
 8504SOL    HW126411   1.174   6.679   1.753
 8504SOL    HW226412   1.187   6.727   1.909
 8505SOL     OW26413   4.957   3.415   2.865
 8505SOL    HW126414   4.973   3.406   2.767
 8505SOL    HW226415   4.936   3.510   2.887
 8506SOL     OW26416   1.521   0.375   5.964
 8506SOL    HW126417   1.524   0.457   5.907
 8506SOL    HW226418   1.488   0.298   5.909
 8507SOL     OW26419   3.559   6.434   5.159
 8507SOL    HW126420   3.653   6.443   5.192
 8507SOL    HW226421   3.505   6.385   5.227
 8508SOL     OW26422   3.227   2.032   6.479
 8508SOL    HW126423   3.312   2.073   6.445
 8508SOL    HW226424   3.151   2.060   6.420
 8509SOL     OW26425   5.654   1.738   2.905
 8509SOL    HW126426   5.704   1.699   2.982
 8509SOL    HW226427   5.591   1.808   2.938
 8510SOL     OW26428   6.772   2.210   4.446
 8510SOL    HW126429   6.856   2.262   4.431
 8510SOL    HW226430   6.705   2.235   4.376
 8511SOL     OW26431   5.655   2.774   2.505
 8511SOL    HW126432   5.704   2.821   2.432
 8511SOL    HW226433   5.618   2.688   2.471
 8512SOL     OW26434   1.700   6.751   5.788
 8512SOL    HW126435   1.622   6.709   5.742
 8512SOL    HW226436   1.669   6.806   5.865
 8513SOL     OW26437   4.888   6.975   6.305
 8513SOL    HW126438   4.882   6.924   6.220
 8513SOL    HW226439   4.801   0.001   6.321
 8514SOL     OW26440   2.937   5.772   3.996
 8514SOL    HW126441   2.943   5.692   3.937
 8514SOL    HW226442   2.894   5.847   3.945
 8515SOL     OW26443   5.866   1.622   0.864
 8515SOL    HW126444   5.892   1.543   0.809
 8515SOL    HW226445   5.794   1.673   0.817
 8516SOL     OW26446   0.379   1.998   2.377
 8516SOL    HW126447   0.332   1.915   2.407
 8516SOL    HW226448   0.319   2.050   2.315
 8517SOL     OW26449   0.779   4.063   0.652
 8517SOL    HW126450   0.782   4.141   0.589
 8517SOL    HW226451   0.826   4.087   0.737
 8518SOL     OW26452   3.368   5.218   0.803
 8518SOL    HW126453   3.382   5.289   0.734
 8518SOL    HW226454   3.452   5.206   0.857
 8519SOL     OW26455   1.468   4.815   2.815
 8519SOL    HW126456   1.508   4.837   2.726
 8519SOL    HW226457   1.370   4.838   2.814
 8520SOL     OW26458   2.780   0.567   6.922
 8520SOL    HW126459   2.742   0.622   6.996
 8520SOL    HW226460   2.822   0.484   6.961
 8521SOL     OW26461   0.967   6.962   6.567
 8521SOL    HW126462   1.042   6.942   6.631
 8521SOL    HW226463   0.999   0.005   6.498
 8522SOL     OW26464   1.921   6.176   4.807
 8522SOL    HW126465   1.836   6.134   4.775
 8522SOL    HW226466   1.960   6.231   4.734
 8523SOL     OW26467   1.211   6.920   6.664
 8523SOL    HW126468   1.248   6.882   6.749
 8523SOL    HW226469   1.284   6.967   6.614
 8524SOL     OW26470   1.565   2.372   6.013
 8524SOL    HW126471   1.535   2.445   6.075
 8524SOL    HW226472   1.661   2.385   5.990
 8525SOL     OW26473   5.189   2.880   3.135
 8525SOL    HW126474   5.094   2.910   3.139
 8525SOL    HW226475   5.247   2.946   3.182
 8526SOL     OW26476   2.185   3.145   1.712
 8526SOL    HW126477   2.194   3.169   1.809
 8526SOL    HW226478   2.247   3.203   1.659
 8527SOL     OW26479   4.204   0.114   4.191
 8527SOL    HW126480   4.123   0.160   4.155
 8527SOL    HW226481   4.282   0.176   4.191
 8528SOL     OW26482   5.161   2.657   6.781
 8528SOL    HW126483   5.133   2.583   6.843
 8528SOL    HW226484   5.148   2.627   6.686
 8529SOL     OW26485   0.279   4.628   0.099
 8529SOL    HW126486   0.204   4.567   0.072
 8529SOL    HW226487   0.251   4.723   0.085
 8530SOL     OW26488   1.569   3.454   5.875
 8530SOL    HW126489   1.589   3.532   5.815
 8530SOL    HW226490   1.609   3.371   5.837
 8531SOL     OW26491   4.218   4.679   2.180
 8531SOL    HW126492   4.195   4.740   2.256
 8531SOL    HW226493   4.164   4.596   2.186
 8532SOL     OW26494   1.512   4.394   6.175
 8532SOL    HW126495   1.490   4.319   6.237
 8532SOL    HW226496   1.448   4.394   6.098
 8533SOL     OW26497   3.528   0.578   5.873
 8533SOL    HW126498   3.438   0.543   5.899
 8533SOL    HW226499   3.563   0.636   5.947
 8534SOL     OW26500   1.999   3.044   3.037
 8534SOL    HW126501   2.013   3.084   2.947
 8534SOL    HW226502   2.074   3.069   3.098
 8535SOL     OW26503   6.417   3.246   4.175
 8535SOL    HW126504   6.320   3.270   4.180
 8535SOL    HW226505   6.440   3.221   4.081
 8536SOL     OW26506   0.185   1.116   4.223
 8536SOL    HW126507   0.111   1.095   4.160
 8536SOL    HW226508   0.162   1.198   4.276
 8537SOL     OW26509   6.208   0.039   2.413
 8537SOL    HW126510   6.207   6.961   2.416
 8537SOL    HW226511   6.137   0.072   2.351
 8538SOL     OW26512   5.301   1.104   4.581
 8538SOL    HW126513   5.263   1.087   4.672
 8538SOL    HW226514   5.400   1.114   4.587
 8539SOL     OW26515   6.791   3.130   2.642
 8539SOL    HW126516   6.827   3.142   2.735
 8539SOL    HW226517   6.864   3.099   2.582
 8540SOL     OW26518   3.844   0.354   0.095
 8540SOL    HW126519   3.860   0.258   0.071
 8540SOL    HW226520   3.789   0.359   0.178
 8541SOL     OW26521   3.366   6.948   5.012
 8541SOL    HW126522   3.281   6.942   5.066
 8541SOL    HW226523   3.441   6.910   5.066
 8542SOL     OW26524   1.327   5.363   6.177
 8542SOL    HW126525   1.424   5.372   6.156
 8542SOL    HW226526   1.316   5.314   6.264
 8543SOL     OW26527   2.293   2.743   5.893
 8543SOL    HW126528   2.279   2.785   5.803
 8543SOL    HW226529   2.209   2.700   5.924
 8544SOL     OW26530   5.719   4.728   5.849
 8544SOL    HW126531   5.716   4.638   5.892
 8544SOL    HW226532   5.628   4.770   5.852
 8545SOL     OW26533   2.723   6.994   6.472
 8545SOL    HW126534   2.746   0.052   6.527
 8545SOL    HW226535   2.790   6.983   6.399
 8546SOL     OW26536   5.044   1.062   2.626
 8546SOL    HW126537   4.980   1.136   2.647
 8546SOL    HW226538   5.123   1.067   2.687
 8547SOL     OW26539   5.580   6.169   6.217
 8547SOL    HW126540   5.539   6.135   6.132
 8547SOL    HW226541   5.513   6.164   6.291
 8548SOL     OW26542   0.448   3.429   5.551
 8548SOL    HW126543   0.526   3.450   5.492
 8548SOL    HW226544   0.481   3.393   5.638
 8549SOL     OW26545   2.162   6.991   3.996
 8549SOL    HW126546   2.204   0.054   3.964
 8549SOL    HW226547   2.234   6.924   4.014
 8550SOL     OW26548   6.727   4.422   5.984
 8550SOL    HW126549   6.823   4.436   6.010
 8550SOL    HW226550   6.703   4.487   5.912
 8551SOL     OW26551   2.061   0.555   5.760
 8551SOL    HW126552   2.141   0.602   5.724
 8551SOL    HW226553   2.072   0.456   5.749
 8552SOL     OW26554   3.270   2.108   2.338
 8552SOL    HW126555   3.288   2.205   2.322
 8552SOL    HW226556   3.175   2.087   2.312
 8553SOL     OW26557   5.379   4.013   6.733
 8553SOL    HW126558   5.427   3.935   6.771
 8553SOL    HW226559   5.425   4.044   6.650
 8554SOL     OW26560   2.482   1.259   0.590
 8554SOL    HW126561   2.407   1.319   0.616
 8554SOL    HW226562   2.517   1.212   0.671
 8555SOL     OW26563   3.742   1.428   4.068
 8555SOL    HW126564   3.676   1.482   4.121
 8555SOL    HW226565   3.834   1.446   4.101
 8556SOL     OW26566   1.317   5.574   0.086
 8556SOL    HW126567   1.299   5.623   0.171
 8556SOL    HW226568   1.262   5.614   0.012
 8557SOL     OW26569   6.694   0.725   6.483
 8557SOL    HW126570   6.763   0.746   6.413
 8557SOL    HW226571   6.639   0.806   6.501
 8558SOL     OW26572   3.076   6.229   4.282
 8558SOL    HW126573   3.066   6.150   4.343
 8558SOL    HW226574   3.033   6.209   4.194
 8559SOL     OW26575   2.027   4.397   2.900
 8559SOL    HW126576   2.085   4.472   2.867
 8559SOL    HW226577   1.999   4.340   2.822
 8560SOL     OW26578   2.086   4.583   0.559
 8560SOL    HW126579   2.030   4.664   0.538
 8560SOL    HW226580   2.104   4.532   0.475
 8561SOL     OW26581   4.221   0.850   2.834
 8561SOL    HW126582   4.180   0.919   2.774
 8561SOL    HW226583   4.240   0.890   2.924
 8562SOL     OW26584   5.444   1.896   0.121
 8562SOL    HW126585   5.483   1.887   0.212
 8562SOL    HW226586   5.392   1.813   0.099
 8563SOL     OW26587   2.704   5.134   2.365
 8563SOL    HW126588   2.746   5.043   2.357
 8563SOL    HW226589   2.718   5.185   2.281
 8564SOL     OW26590   3.969   6.918   0.232
 8564SOL    HW126591   3.994   6.822   0.215
 8564SOL    HW226592   3.885   6.922   0.286
 8565SOL     OW26593   1.724   5.035   1.244
 8565SOL    HW126594   1.716   5.058   1.341
 8565SOL    HW226595   1.792   4.964   1.232
 8566SOL     OW26596   3.175   1.135   2.402
 8566SOL    HW126597   3.169   1.100   2.495
 8566SOL    HW226598   3.115   1.215   2.393
 8567SOL     OW26599   1.699   3.126   2.399
 8567SOL    HW126600   1.775   3.061   2.400
 8567SOL    HW226601   1.651   3.119   2.311
 8568SOL     OW26602   5.733   0.417   6.293
 8568SOL    HW126603   5.760   0.322   6.303
 8568SOL    HW226604   5.815   0.475   6.294
 8569SOL     OW26605   4.432   2.329   0.467
 8569SOL    HW126606   4.365   2.331   0.393
 8569SOL    HW226607   4.494   2.407   0.457
 8570SOL     OW26608   2.224   2.593   1.900
 8570SOL    HW126609   2.175   2.529   1.959
 8570SOL    HW226610   2.318   2.562   1.887
 8571SOL     OW26611   1.661   0.911   2.968
 8571SOL    HW126612   1.757   0.917   2.939
 8571SOL    HW226613   1.644   0.820   3.006
 8572SOL     OW26614   2.266   4.214   5.636
 8572SOL    HW126615   2.282   4.303   5.679
 8572SOL    HW226616   2.339   4.195   5.571
 8573SOL     OW26617   3.091   6.715   0.293
 8573SOL    HW126618   3.082   6.635   0.233
 8573SOL    HW226619   3.167   6.771   0.263
 8574SOL     OW26620   4.678   0.760   4.923
 8574SOL    HW126621   4.611   0.686   4.916
 8574SOL    HW226622   4.762   0.725   4.965
 8575SOL     OW26623   3.351   5.930   3.390
 8575SOL    HW126624   3.411   5.986   3.334
 8575SOL    HW226625   3.283   5.988   3.435
 8576SOL     OW26626   1.795   4.681   4.044
 8576SOL    HW126627   1.704   4.642   4.030
 8576SOL    HW226628   1.851   4.664   3.963
 8577SOL     OW26629   1.880   1.117   0.551
 8577SOL    HW126630   1.905   1.203   0.596
 8577SOL    HW226631   1.937   1.104   0.470
 8578SOL     OW26632   0.202   6.803   6.119
 8578SOL    HW126633   0.148   6.885   6.098
 8578SOL    HW226634   0.294   6.814   6.082
 8579SOL     OW26635   2.895   6.507   2.336
 8579SOL    HW126636   2.869   6.503   2.240
 8579SOL    HW226637   2.894   6.602   2.368
 8580SOL     OW26638   1.748   0.564   1.250
 8580SOL    HW126639   1.677   0.522   1.306
 8580SOL    HW226640   1.771   0.654   1.287
 8581SOL     OW26641   3.232   4.930   1.360
 8581SOL    HW126642   3.308   4.885   1.407
 8581SOL    HW226643   3.149   4.922   1.415
 8582SOL     OW26644   3.544   5.449   5.658
 8582SOL    HW126645   3.577   5.366   5.614
 8582SOL    HW226646   3.445   5.456   5.648
 8583SOL     OW26647   4.226   0.060   2.488
 8583SOL    HW126648   4.203   0.154   2.514
 8583SOL    HW226649   4.181   7.018   2.551
 8584SOL     OW26650   6.471   1.379   4.954
 8584SOL    HW126651   6.530   1.423   4.887
 8584SOL    HW226652   6.403   1.445   4.986
 8585SOL     OW26653   5.612   2.671   2.938
 8585SOL    HW126654   5.711   2.679   2.931
 8585SOL    HW226655   5.570   2.754   2.901
 8586SOL     OW26656   6.705   6.426   0.081
 8586SOL    HW126657   6.648   6.408   0.161
 8586SOL    HW226658   6.725   6.523   0.075
 8587SOL     OW26659   0.371   1.588   0.005
 8587SOL    HW126660   0.388   1.589   6.929
 8587SOL    HW226661   0.334   1.676   0.033
 8588SOL     OW26662   2.784   1.488   6.262
 8588SOL    HW126663   2.714   1.511   6.329
 8588SOL    HW226664   2.857   1.436   6.307
 8589SOL     OW26665   6.817   3.315   6.868
 8589SOL    HW126666   6.745   3.251   6.842
 8589SOL    HW226667   6.854   3.291   6.957
 8590SOL     OW26668   0.803   0.367   3.884
 8590SOL    HW126669   0.761   0.436   3.943
 8590SOL    HW226670   0.881   0.326   3.931
 8591SOL     OW26671   6.774   4.555   6.512
 8591SOL    HW126672   6.700   4.602   6.559
 8591SOL    HW226673   6.838   4.623   6.474
 8592SOL     OW26674   0.250   1.733   4.712
 8592SOL    HW126675   0.345   1.703   4.720
 8592SOL    HW226676   0.201   1.671   4.650
 8593SOL     OW26677   4.839   1.527   6.965
 8593SOL    HW126678   4.755   1.488   7.002
 8593SOL    HW226679   4.822   1.620   6.935
 8594SOL     OW26680   6.433   2.990   6.483
 8594SOL    HW126681   6.406   2.977   6.578
 8594SOL    HW226682   6.382   3.068   6.445
 8595SOL     OW26683   6.110   6.639   3.142
 8595SOL    HW126684   6.066   6.580   3.209
 8595SOL    HW226685   6.086   6.734   3.160
 8596SOL     OW26686   0.946   1.655   3.924
 8596SOL    HW126687   0.889   1.651   3.842
 8596SOL    HW226688   0.969   1.750   3.944
 8597SOL     OW26689   5.816   3.357   6.401
 8597SOL    HW126690   5.826   3.445   6.447
 8597SOL    HW226691   5.816   3.370   6.302
 8598SOL     OW26692   6.060   6.855   4.758
 8598SOL    HW126693   6.129   6.784   4.745
 8598SOL    HW226694   6.084   6.911   4.837
 8599SOL     OW26695   0.035   3.547   4.193
 8599SOL    HW126696   6.969   3.501   4.204
 8599SOL    HW226697   0.079   3.560   4.282
 8600SOL     OW26698   5.058   1.956   0.885
 8600SOL    HW126699   4.963   1.987   0.876
 8600SOL    HW226700   5.059   1.857   0.899
 8601SOL     OW26701   0.215   6.338   3.961
 8601SOL    HW126702   0.184   6.327   3.866
 8601SOL    HW226703   0.313   6.317   3.966
 8602SOL     OW26704   2.123   6.245   5.016
 8602SOL    HW126705   2.122   6.156   4.969
 8602SOL    HW226706   2.096   6.316   4.952
 8603SOL     OW26707   0.152   0.180   0.399
 8603SOL    HW126708   0.110   0.139   0.317
 8603SOL    HW226709   0.108   0.143   0.481
 8604SOL     OW26710   0.255   4.658   6.248
 8604SOL    HW126711   0.247   4.755   6.272
 8604SOL    HW226712   0.201   4.604   6.311
 8605SOL     OW26713   6.963   4.442   4.896
 8605SOL    HW126714   0.028   4.411   4.858
 8605SOL    HW226715   6.920   4.506   4.833
 8606SOL     OW26716   1.692   2.036   0.293
 8606SOL    HW126717   1.656   2.062   0.383
 8606SOL    HW226718   1.777   2.086   0.276
 8607SOL     OW26719   2.214   3.956   1.336
 8607SOL    HW126720   2.277   3.952   1.414
 8607SOL    HW226721   2.248   4.022   1.269
 8608SOL     OW26722   1.655   5.040   2.824
 8608SOL    HW126723   1.559   5.014   2.836
 8608SOL    HW226724   1.707   5.016   2.906
 8609SOL     OW26725   4.125   1.274   4.104
 8609SOL    HW126726   4.049   1.210   4.095
 8609SOL    HW226727   4.210   1.231   4.073
 8610SOL     OW26728   6.912   6.134   3.246
 8610SOL    HW126729   6.819   6.096   3.239
 8610SOL    HW226730   6.962   6.115   3.162
 8611SOL     OW26731   2.880   1.371   5.074
 8611SOL    HW126732   2.915   1.300   5.135
 8611SOL    HW226733   2.925   1.457   5.094
 8612SOL     OW26734   2.947   3.230   4.040
 8612SOL    HW126735   2.857   3.271   4.054
 8612SOL    HW226736   2.975   3.244   3.945
 8613SOL     OW26737   3.773   3.098   2.199
 8613SOL    HW126738   3.857   3.087   2.145
 8613SOL    HW226739   3.712   3.021   2.182
 8614SOL     OW26740   1.690   2.016   3.112
 8614SOL    HW126741   1.619   2.075   3.151
 8614SOL    HW226742   1.740   1.971   3.186
 8615SOL     OW26743   3.712   1.366   4.504
 8615SOL    HW126744   3.667   1.413   4.428
 8615SOL    HW226745   3.809   1.354   4.483
 8616SOL     OW26746   5.546   4.551   3.960
 8616SOL    HW126747   5.454   4.511   3.953
 8616SOL    HW226748   5.539   4.651   3.964
 8617SOL     OW26749   2.540   0.405   3.803
 8617SOL    HW126750   2.515   0.344   3.878
 8617SOL    HW226751   2.485   0.488   3.809
 8618SOL     OW26752   5.200   4.276   1.199
 8618SOL    HW126753   5.258   4.248   1.276
 8618SOL    HW226754   5.104   4.264   1.224
 8619SOL     OW26755   5.350   5.072   0.398
 8619SOL    HW126756   5.323   4.989   0.446
 8619SOL    HW226757   5.425   5.116   0.447
 8620SOL     OW26758   2.402   0.573   4.228
 8620SOL    HW126759   2.356   0.485   4.243
 8620SOL    HW226760   2.338   0.647   4.248
 8621SOL     OW26761   5.707   2.980   1.780
 8621SOL    HW126762   5.727   2.886   1.752
 8621SOL    HW226763   5.637   3.020   1.721
 8622SOL     OW26764   6.937   4.853   2.656
 8622SOL    HW126765   0.011   4.829   2.649
 8622SOL    HW226766   6.894   4.844   2.567
 8623SOL     OW26767   1.379   3.530   4.457
 8623SOL    HW126768   1.326   3.452   4.424
 8623SOL    HW226769   1.349   3.614   4.411
 8624SOL     OW26770   3.342   4.105   4.751
 8624SOL    HW126771   3.320   4.125   4.656
 8624SOL    HW226772   3.258   4.100   4.805
 8625SOL     OW26773   3.930   2.674   5.625
 8625SOL    HW126774   3.913   2.722   5.539
 8625SOL    HW226775   3.994   2.599   5.610
 8626SOL     OW26776   3.641   3.611   0.650
 8626SOL    HW126777   3.568   3.548   0.623
 8626SOL    HW226778   3.707   3.563   0.707
 8627SOL     OW26779   2.026   0.976   2.068
 8627SOL    HW126780   2.025   0.916   2.148
 8627SOL    HW226781   2.121   0.994   2.041
 8628SOL     OW26782   0.014   6.805   0.905
 8628SOL    HW126783   6.985   6.776   0.986
 8628SOL    HW226784   0.111   6.808   0.928
 8629SOL     OW26785   6.883   6.188   5.593
 8629SOL    HW126786   6.885   6.092   5.565
 8629SOL    HW226787   6.808   6.201   5.659
 8630SOL     OW26788   4.824   3.012   2.318
 8630SOL    HW126789   4.853   3.106   2.335
 8630SOL    HW226790   4.792   3.003   2.224
 8631SOL     OW26791   3.031   6.674   6.301
 8631SOL    HW126792   2.981   6.632   6.377
 8631SOL    HW226793   3.129   6.671   6.320
 8632SOL     OW26794   5.542   5.181   5.036
 8632SOL    HW126795   5.451   5.148   5.060
 8632SOL    HW226796   5.584   5.118   4.971
 8633SOL     OW26797   5.804   3.913   6.041
 8633SOL    HW126798   5.869   3.965   5.985
 8633SOL    HW226799   5.810   3.816   6.018
 8634SOL     OW26800   4.255   2.985   0.343
 8634SOL    HW126801   4.350   2.980   0.374
 8634SOL    HW226802   4.244   3.063   0.283
 8635SOL     OW26803   4.967   2.684   5.883
 8635SOL    HW126804   4.903   2.761   5.880
 8635SOL    HW226805   5.008   2.679   5.974
 8636SOL     OW26806   4.536   7.012   1.706
 8636SOL    HW126807   4.530   6.969   1.616
 8636SOL    HW226808   4.622   6.986   1.750
 8637SOL     OW26809   1.846   2.251   6.716
 8637SOL    HW126810   1.918   2.294   6.771
 8637SOL    HW226811   1.847   2.152   6.732
 8638SOL     OW26812   4.732   2.654   3.372
 8638SOL    HW126813   4.766   2.647   3.278
 8638SOL    HW226814   4.803   2.694   3.430
 8639SOL     OW26815   3.704   3.974   0.182
 8639SOL    HW126816   3.747   3.890   0.216
 8639SOL    HW226817   3.725   3.986   0.085
 8640SOL     OW26818   2.917   2.772   0.755
 8640SOL    HW126819   2.998   2.830   0.762
 8640SOL    HW226820   2.940   2.679   0.783
 8641SOL     OW26821   4.702   5.244   1.966
 8641SOL    HW126822   4.657   5.218   2.051
 8641SOL    HW226823   4.652   5.207   1.888
 8642SOL     OW26824   1.245   5.886   3.695
 8642SOL    HW126825   1.322   5.927   3.743
 8642SOL    HW226826   1.209   5.952   3.628
 8643SOL     OW26827   3.660   6.420   0.962
 8643SOL    HW126828   3.700   6.512   0.959
 8643SOL    HW226829   3.575   6.423   1.015
 8644SOL     OW26830   5.929   2.067   6.256
 8644SOL    HW126831   5.868   2.036   6.184
 8644SOL    HW226832   5.964   1.988   6.307
 8645SOL     OW26833   5.928   4.573   3.037
 8645SOL    HW126834   5.976   4.607   3.118
 8645SOL    HW226835   5.834   4.606   3.037
 8646SOL     OW26836   6.349   2.709   5.233
 8646SOL    HW126837   6.269   2.664   5.272
 8646SOL    HW226838   6.387   2.652   5.160
 8647SOL     OW26839   2.273   5.688   1.899
 8647SOL    HW126840   2.292   5.786   1.896
 8647SOL    HW226841   2.267   5.657   1.994
 8648SOL     OW26842   5.195   4.828   0.491
 8648SOL    HW126843   5.115   4.782   0.528
 8648SOL    HW226844   5.216   4.792   0.400
 8649SOL     OW26845   4.948   0.185   0.846
 8649SOL    HW126846   4.858   0.159   0.812
 8649SOL    HW226847   4.984   0.260   0.790
 8650SOL     OW26848   2.310   6.456   5.030
 8650SOL    HW126849   2.273   6.369   4.998
 8650SOL    HW226850   2.236   6.514   5.062
 8651SOL     OW26851   3.913   2.092   1.337
 8651SOL    HW126852   3.993   2.050   1.295
 8651SOL    HW226853   3.942   2.150   1.413
 8652SOL     OW26854   1.047   3.110   3.867
 8652SOL    HW126855   1.071   3.110   3.770
 8652SOL    HW226856   1.057   3.017   3.903
 8653SOL     OW26857   6.446   1.345   6.533
 8653SOL    HW126858   6.499   1.407   6.591
 8653SOL    HW226859   6.507   1.305   6.464
 8654SOL     OW26860   0.342   4.634   2.119
 8654SOL    HW126861   0.425   4.645   2.064
 8654SOL    HW226862   0.341   4.543   2.160
 8655SOL     OW26863   0.120   0.907   4.629
 8655SOL    HW126864   0.167   0.907   4.717
 8655SOL    HW226865   0.187   0.915   4.555
 8656SOL     OW26866   4.803   0.020   1.239
 8656SOL    HW126867   4.785   6.966   1.175
 8656SOL    HW226868   4.859   0.089   1.194
 8657SOL     OW26869   4.519   1.004   3.177
 8657SOL    HW126870   4.577   1.028   3.099
 8657SOL    HW226871   4.568   0.938   3.235
 8658SOL     OW26872   5.962   4.458   0.760
 8658SOL    HW126873   6.009   4.454   0.848
 8658SOL    HW226874   5.863   4.469   0.776
 8659SOL     OW26875   3.254   1.006   2.874
 8659SOL    HW126876   3.202   0.997   2.789
 8659SOL    HW226877   3.297   1.096   2.877
 8660SOL     OW26878   0.329   4.177   1.672
 8660SOL    HW126879   0.367   4.190   1.764
 8660SOL    HW226880   0.269   4.254   1.649
 8661SOL     OW26881   6.556   4.020   2.288
 8661SOL    HW126882   6.643   3.981   2.257
 8661SOL    HW226883   6.498   3.947   2.325
 8662SOL     OW26884   1.830   4.083   3.378
 8662SOL    HW126885   1.870   4.072   3.469
 8662SOL    HW226886   1.756   4.017   3.366
 8663SOL     OW26887   4.523   5.493   2.371
 8663SOL    HW126888   4.561   5.561   2.309
 8663SOL    HW226889   4.430   5.519   2.397
 8664SOL     OW26890   3.726   5.955   3.302
 8664SOL    HW126891   3.676   5.953   3.215
 8664SOL    HW226892   3.660   5.954   3.377
 8665SOL     OW26893   5.627   3.531   6.924
 8665SOL    HW126894   5.657   3.587   6.846
 8665SOL    HW226895   5.622   3.436   6.896
 8666SOL     OW26896   4.711   6.988   2.396
 8666SOL    HW126897   4.627   0.016   2.416
 8666SOL    HW226898   4.699   6.939   2.310
 8667SOL     OW26899   4.988   1.882   3.135
 8667SOL    HW126900   4.983   1.854   3.231
 8667SOL    HW226901   4.912   1.944   3.114
 8668SOL     OW26902   5.111   2.222   5.285
 8668SOL    HW126903   5.013   2.207   5.299
 8668SOL    HW226904   5.148   2.149   5.228
 8669SOL     OW26905   6.133   6.254   6.502
 8669SOL    HW126906   6.040   6.247   6.465
 8669SOL    HW226907   6.198   6.217   6.435
 8670SOL     OW26908   6.551   4.443   6.198
 8670SOL    HW126909   6.582   4.380   6.270
 8670SOL    HW226910   6.618   4.446   6.124
 8671SOL     OW26911   0.598   2.944   3.180
 8671SOL    HW126912   0.549   3.017   3.228
 8671SOL    HW226913   0.693   2.942   3.211
 8672SOL     OW26914   0.384   0.884   2.854
 8672SOL    HW126915   0.456   0.936   2.898
 8672SOL    HW226916   0.308   0.944   2.831
 8673SOL     OW26917   0.337   1.908   1.458
 8673SOL    HW126918   0.392   1.831   1.423
 8673SOL    HW226919   0.397   1.973   1.504
 8674SOL     OW26920   6.923   3.957   3.790
 8674SOL    HW126921   6.924   3.971   3.691
 8674SOL    HW226922   6.844   4.004   3.829
 8675SOL     OW26923   3.318   2.094   5.131
 8675SOL    HW126924   3.348   2.110   5.037
 8675SOL    HW226925   3.251   2.164   5.156
 8676SOL     OW26926   5.483   1.196   0.833
 8676SOL    HW126927   5.426   1.275   0.855
 8676SOL    HW226928   5.470   1.125   0.902
 8677SOL     OW26929   2.252   6.865   6.331
 8677SOL    HW126930   2.277   6.843   6.237
 8677SOL    HW226931   2.277   6.789   6.391
 8678SOL     OW26932   1.434   1.762   0.139
 8678SOL    HW126933   1.425   1.861   0.151
 8678SOL    HW226934   1.529   1.738   0.124
 8679SOL     OW26935   1.865   2.520   6.010
 8679SOL    HW126936   1.899   2.603   5.966
 8679SOL    HW226937   1.893   2.440   5.957
 8680SOL     OW26938   6.529   0.779   0.511
 8680SOL    HW126939   6.485   0.744   0.594
 8680SOL    HW226940   6.628   0.765   0.518
 8681SOL     OW26941   5.659   6.462   1.269
 8681SOL    HW126942   5.615   6.543   1.307
 8681SOL    HW226943   5.671   6.473   1.170
 8682SOL     OW26944   2.015   0.511   1.522
 8682SOL    HW126945   1.943   0.580   1.522
 8682SOL    HW226946   1.976   0.421   1.508
 8683SOL     OW26947   1.740   4.468   4.311
 8683SOL    HW126948   1.773   4.433   4.223
 8683SOL    HW226949   1.781   4.558   4.329
 8684SOL     OW26950   2.061   4.468   4.330
 8684SOL    HW126951   2.112   4.384   4.314
 8684SOL    HW226952   2.087   4.537   4.262
 8685SOL     OW26953   4.788   2.355   4.498
 8685SOL    HW126954   4.838   2.440   4.512
 8685SOL    HW226955   4.805   2.320   4.406
 8686SOL     OW26956   1.276   5.130   2.942
 8686SOL    HW126957   1.228   5.218   2.937
 8686SOL    HW226958   1.357   5.140   3.000
 8687SOL     OW26959   4.924   4.223   5.955
 8687SOL    HW126960   4.911   4.275   5.871
 8687SOL    HW226961   4.884   4.274   6.032
 8688SOL     OW26962   0.633   3.605   5.070
 8688SOL    HW126963   0.707   3.633   5.010
 8688SOL    HW226964   0.570   3.681   5.084
 8689SOL     OW26965   3.777   3.704   0.091
 8689SOL    HW126966   3.809   3.643   0.163
 8689SOL    HW226967   3.691   3.670   0.054
 8690SOL     OW26968   1.997   2.085   2.780
 8690SOL    HW126969   1.911   2.037   2.800
 8690SOL    HW226970   1.983   2.147   2.703
 8691SOL     OW26971   3.340   2.441   5.315
 8691SOL    HW126972   3.274   2.392   5.259
 8691SOL    HW226973   3.430   2.398   5.306
 8692SOL     OW26974   4.353   1.979   5.266
 8692SOL    HW126975   4.400   1.945   5.347
 8692SOL    HW226976   4.317   1.903   5.213
 8693SOL     OW26977   6.432   6.957   5.783
 8693SOL    HW126978   6.457   6.976   5.878
 8693SOL    HW226979   6.333   6.942   5.777
 8694SOL     OW26980   5.386   3.395   5.176
 8694SOL    HW126981   5.338   3.435   5.255
 8694SOL    HW226982   5.483   3.419   5.181
 8695SOL     OW26983   3.542   4.466   6.595
 8695SOL    HW126984   3.493   4.501   6.515
 8695SOL    HW226985   3.479   4.458   6.672
 8696SOL     OW26986   3.018   5.419   5.429
 8696SOL    HW126987   3.030   5.519   5.432
 8696SOL    HW226988   2.920   5.398   5.437
 8697SOL     OW26989   1.929   3.442   5.606
 8697SOL    HW126990   1.863   3.484   5.669
 8697SOL    HW226991   2.014   3.495   5.607
 8698SOL     OW26992   5.183   5.899   6.046
 8698SOL    HW126993   5.201   5.911   5.948
 8698SOL    HW226994   5.091   5.862   6.059
 8699SOL     OW26995   1.587   2.588   6.722
 8699SOL    HW126996   1.550   2.530   6.795
 8699SOL    HW226997   1.684   2.568   6.709
 8700SOL     OW26998   1.351   0.212   3.626
 8700SOL    HW126999   1.444   0.211   3.590
 8700SOL    HW227000   1.342   0.146   3.700
 8701SOL     OW27001   0.837   2.304   0.198
 8701SOL    HW127002   0.879   2.355   0.123
 8701SOL    HW227003   0.769   2.362   0.244
 8702SOL     OW27004   5.324   4.713   1.229
 8702SOL    HW127005   5.244   4.742   1.281
 8702SOL    HW227006   5.319   4.750   1.136
 8703SOL     OW27007   2.427   5.903   0.595
 8703SOL    HW127008   2.501   5.836   0.596
 8703SOL    HW227009   2.456   5.984   0.545
 8704SOL     OW27010   0.834   0.610   4.981
 8704SOL    HW127011   0.840   0.685   5.047
 8704SOL    HW227012   0.741   0.576   4.978
 8705SOL     OW27013   4.384   2.497   6.815
 8705SOL    HW127014   4.381   2.402   6.846
 8705SOL    HW227015   4.296   2.541   6.836
 8706SOL     OW27016   5.191   3.473   6.227
 8706SOL    HW127017   5.132   3.545   6.263
 8706SOL    HW227018   5.152   3.383   6.250
 8707SOL     OW27019   1.996   1.833   4.623
 8707SOL    HW127020   1.905   1.872   4.633
 8707SOL    HW227021   2.001   1.746   4.672
 8708SOL     OW27022   6.029   2.777   0.569
 8708SOL    HW127023   5.966   2.777   0.491
 8708SOL    HW227024   6.012   2.858   0.626
 8709SOL     OW27025   5.889   6.972   5.350
 8709SOL    HW127026   5.981   6.951   5.317
 8709SOL    HW227027   5.872   0.048   5.341
 8710SOL     OW27028   2.246   1.285   3.503
 8710SOL    HW127029   2.247   1.385   3.510
 8710SOL    HW227030   2.151   1.254   3.507
 8711SOL     OW27031   1.600   1.476   1.495
 8711SOL    HW127032   1.505   1.503   1.509
 8711SOL    HW227033   1.651   1.553   1.456
 8712SOL     OW27034   1.306   4.208   5.496
 8712SOL    HW127035   1.378   4.278   5.497
 8712SOL    HW227036   1.258   4.209   5.584
 8713SOL     OW27037   0.456   3.601   1.389
 8713SOL    HW127038   0.386   3.549   1.437
 8713SOL    HW227039   0.438   3.598   1.290
 8714SOL     OW27040   6.979   5.521   6.517
 8714SOL    HW127041   6.952   5.609   6.477
 8714SOL    HW227042   6.972   5.526   6.616
 8715SOL     OW27043   1.953   3.630   1.813
 8715SOL    HW127044   2.052   3.626   1.799
 8715SOL    HW227045   1.906   3.620   1.725
 8716SOL     OW27046   6.609   0.091   2.032
 8716SOL    HW127047   6.602   7.014   2.020
 8716SOL    HW227048   6.703   0.116   2.054
 8717SOL     OW27049   2.512   3.554   0.569
 8717SOL    HW127050   2.479   3.484   0.506
 8717SOL    HW227051   2.612   3.549   0.573
 8718SOL     OW27052   2.547   4.985   6.264
 8718SOL    HW127053   2.570   5.081   6.249
 8718SOL    HW227054   2.612   4.927   6.215
 8719SOL     OW27055   3.123   0.933   5.078
 8719SOL    HW127056   3.142   0.835   5.065
 8719SOL    HW227057   3.145   0.983   4.995
 8720SOL     OW27058   6.920   5.035   4.636
 8720SOL    HW127059   6.844   5.044   4.700
 8720SOL    HW227060   6.895   4.972   4.563
 8721SOL     OW27061   0.325   6.954   6.715
 8721SOL    HW127062   0.309   6.997   6.626
 8721SOL    HW227063   0.243   6.906   6.745
 8722SOL     OW27064   3.537   1.028   1.107
 8722SOL    HW127065   3.522   1.107   1.048
 8722SOL    HW227066   3.461   1.021   1.173
 8723SOL     OW27067   4.282   6.826   2.338
 8723SOL    HW127068   4.279   6.926   2.349
 8723SOL    HW227069   4.257   6.782   2.424
 8724SOL     OW27070   4.021   1.044   4.279
 8724SOL    HW127071   4.109   1.025   4.236
 8724SOL    HW227072   3.984   0.959   4.318
 8725SOL     OW27073   6.695   6.995   3.721
 8725SOL    HW127074   6.621   6.928   3.712
 8725SOL    HW227075   6.690   0.015   3.812
 8726SOL     OW27076   0.120   0.852   1.043
 8726SOL    HW127077   0.021   0.856   1.033
 8726SOL    HW227078   0.144   0.778   1.107
 8727SOL     OW27079   4.610   6.708   6.170
 8727SOL    HW127080   4.588   6.636   6.104
 8727SOL    HW227081   4.610   6.670   6.262
 8728SOL     OW27082   6.165   6.983   4.237
 8728SOL    HW127083   6.146   7.004   4.333
 8728SOL    HW227084   6.220   6.900   4.232
 8729SOL     OW27085   4.677   6.213   6.070
 8729SOL    HW127086   4.624   6.294   6.043
 8729SOL    HW227087   4.721   6.174   5.989
 8730SOL     OW27088   4.511   5.521   1.442
 8730SOL    HW127089   4.428   5.564   1.476
 8730SOL    HW227090   4.565   5.589   1.391
 8731SOL     OW27091   6.910   2.028   3.546
 8731SOL    HW127092   6.987   2.060   3.492
 8731SOL    HW227093   6.931   2.036   3.643
 8732SOL     OW27094   5.998   6.583   0.209
 8732SOL    HW127095   5.924   6.520   0.231
 8732SOL    HW227096   6.069   6.534   0.159
 8733SOL     OW27097   6.357   4.765   2.887
 8733SOL    HW127098   6.445   4.757   2.933
 8733SOL    HW227099   6.333   4.677   2.844
 8734SOL     OW27100   0.155   3.818   2.161
 8734SOL    HW127101   0.168   3.900   2.105
 8734SOL    HW227102   0.235   3.759   2.152
 8735SOL     OW27103   6.800   3.238   5.240
 8735SOL    HW127104   6.889   3.195   5.231
 8735SOL    HW227105   6.804   3.309   5.310
 8736SOL     OW27106   1.110   6.048   3.949
 8736SOL    HW127107   1.027   6.061   4.003
 8736SOL    HW227108   1.094   6.080   3.856
 8737SOL     OW27109   1.688   5.859   0.166
 8737SOL    HW127110   1.771   5.871   0.221
 8737SOL    HW227111   1.712   5.824   0.076
 8738SOL     OW27112   1.525   3.015   3.455
 8738SOL    HW127113   1.571   2.946   3.511
 8738SOL    HW227114   1.594   3.070   3.408
 8739SOL     OW27115   5.329   4.187   5.646
 8739SOL    HW127116   5.401   4.139   5.696
 8739SOL    HW227117   5.362   4.210   5.554
 8740SOL     OW27118   2.765   0.653   4.936
 8740SOL    HW127119   2.760   0.753   4.933
 8740SOL    HW227120   2.807   0.624   5.022
 8741SOL     OW27121   1.218   0.598   2.823
 8741SOL    HW127122   1.263   0.559   2.743
 8741SOL    HW227123   1.200   0.695   2.806
 8742SOL     OW27124   2.967   1.853   2.100
 8742SOL    HW127125   2.886   1.798   2.119
 8742SOL    HW227126   3.048   1.795   2.103
 8743SOL     OW27127   0.470   2.167   1.531
 8743SOL    HW127128   0.569   2.154   1.539
 8743SOL    HW227129   0.451   2.246   1.473
 8744SOL     OW27130   3.365   4.453   5.729
 8744SOL    HW127131   3.278   4.419   5.764
 8744SOL    HW227132   3.428   4.377   5.715
 8745SOL     OW27133   6.032   1.084   6.198
 8745SOL    HW127134   6.028   1.155   6.128
 8745SOL    HW227135   5.958   1.098   6.263
 8746SOL     OW27136   4.731   5.295   5.519
 8746SOL    HW127137   4.796   5.371   5.510
 8746SOL    HW227138   4.640   5.331   5.538
 8747SOL     OW27139   0.639   0.435   2.483
 8747SOL    HW127140   0.604   0.528   2.478
 8747SOL    HW227141   0.678   0.418   2.573
 8748SOL     OW27142   6.297   1.725   3.786
 8748SOL    HW127143   6.270   1.773   3.703
 8748SOL    HW227144   6.355   1.785   3.842
 8749SOL     OW27145   2.550   0.854   3.861
 8749SOL    HW127146   2.646   0.877   3.848
 8749SOL    HW227147   2.492   0.928   3.827
 8750SOL     OW27148   3.896   3.516   0.275
 8750SOL    HW127149   3.954   3.545   0.351
 8750SOL    HW227150   3.821   3.461   0.310
 8751SOL     OW27151   2.035   6.398   0.608
 8751SOL    HW127152   2.014   6.418   0.513
 8751SOL    HW227153   1.951   6.377   0.657
 8752SOL     OW27154   6.247   3.186   5.706
 8752SOL    HW127155   6.165   3.234   5.736
 8752SOL    HW227156   6.225   3.091   5.688
 8753SOL     OW27157   2.672   2.409   1.053
 8753SOL    HW127158   2.638   2.471   0.983
 8753SOL    HW227159   2.647   2.444   1.144
 8754SOL     OW27160   1.637   5.200   0.155
 8754SOL    HW127161   1.602   5.287   0.119
 8754SOL    HW227162   1.725   5.179   0.112
 8755SOL     OW27163   0.337   2.939   1.510
 8755SOL    HW127164   0.300   3.032   1.506
 8755SOL    HW227165   0.293   2.882   1.441
 8756SOL     OW27166   1.682   1.692   1.986
 8756SOL    HW127167   1.743   1.614   2.003
 8756SOL    HW227168   1.632   1.713   2.069
 8757SOL     OW27169   5.004   5.888   5.373
 8757SOL    HW127170   5.065   5.948   5.424
 8757SOL    HW227171   5.004   5.915   5.276
 8758SOL     OW27172   3.518   5.744   5.002
 8758SOL    HW127173   3.593   5.791   5.050
 8758SOL    HW227174   3.481   5.672   5.060
 8759SOL     OW27175   5.964   0.611   0.674
 8759SOL    HW127176   5.982   0.518   0.705
 8759SOL    HW227177   6.048   0.664   0.675
 8760SOL     OW27178   2.519   2.604   4.369
 8760SOL    HW127179   2.558   2.538   4.433
 8760SOL    HW227180   2.456   2.665   4.416
 8761SOL     OW27181   5.239   1.542   2.961
 8761SOL    HW127182   5.222   1.639   2.976
 8761SOL    HW227183   5.337   1.523   2.967
 8762SOL     OW27184   3.039   4.994   3.380
 8762SOL    HW127185   2.985   4.926   3.330
 8762SOL    HW227186   2.981   5.042   3.445
 8763SOL     OW27187   0.546   0.445   6.713
 8763SOL    HW127188   0.513   0.518   6.773
 8763SOL    HW227189   0.470   0.409   6.659
 8764SOL     OW27190   3.024   5.100   5.078
 8764SOL    HW127191   3.070   5.109   4.990
 8764SOL    HW227192   2.937   5.053   5.066
 8765SOL     OW27193   4.210   6.632   4.613
 8765SOL    HW127194   4.129   6.671   4.569
 8765SOL    HW227195   4.283   6.700   4.613
 8766SOL     OW27196   4.624   6.510   5.974
 8766SOL    HW127197   4.526   6.501   5.959
 8766SOL    HW227198   4.668   6.535   5.887
 8767SOL     OW27199   1.739   0.861   3.953
 8767SOL    HW127200   1.646   0.895   3.962
 8767SOL    HW227201   1.784   0.907   3.875
 8768SOL     OW27202   6.579   1.552   6.683
 8768SOL    HW127203   6.511   1.560   6.756
 8768SOL    HW227204   6.669   1.577   6.719
 8769SOL     OW27205   5.997   6.969   0.136
 8769SOL    HW127206   6.095   6.972   0.157
 8769SOL    HW227207   5.949   0.016   0.190
 8770SOL     OW27208   5.162   2.498   7.014
 8770SOL    HW127209   5.219   2.428   0.035
 8770SOL    HW227210   5.071   2.496   0.032
 8771SOL     OW27211   0.322   2.918   0.113
 8771SOL    HW127212   0.360   2.854   0.046
 8771SOL    HW227213   0.324   2.877   0.204
 8772SOL     OW27214   7.005   0.140   4.239
 8772SOL    HW127215   7.021   0.046   4.207
 8772SOL    HW227216   0.070   0.189   4.244
 8773SOL     OW27217   0.247   0.860   4.352
 8773SOL    HW127218   0.210   0.946   4.317
 8773SOL    HW227219   0.346   0.857   4.335
 8774SOL     OW27220   0.863   1.479   0.440
 8774SOL    HW127221   0.770   1.466   0.404
 8774SOL    HW227222   0.859   1.528   0.526
 8775SOL     OW27223   5.504   2.929   3.858
 8775SOL    HW127224   5.587   2.980   3.840
 8775SOL    HW227225   5.441   2.985   3.912
 8776SOL     OW27226   4.465   2.990   0.542
 8776SOL    HW127227   4.388   2.960   0.598
 8776SOL    HW227228   4.487   3.085   0.563
 8777SOL     OW27229   6.692   2.204   2.602
 8777SOL    HW127230   6.701   2.301   2.581
 8777SOL    HW227231   6.749   2.181   2.681
 8778SOL     OW27232   3.189   4.867   0.005
 8778SOL    HW127233   3.234   4.956   0.004
 8778SOL    HW227234   3.237   4.805   0.067
 8779SOL     OW27235   4.273   4.767   3.229
 8779SOL    HW127236   4.240   4.843   3.285
 8779SOL    HW227237   4.295   4.689   3.288
 8780SOL     OW27238   0.066   4.675   4.154
 8780SOL    HW127239   0.105   4.757   4.112
 8780SOL    HW227240   6.998   4.657   4.116
 8781SOL     OW27241   3.264   0.791   2.023
 8781SOL    HW127242   3.361   0.805   2.042
 8781SOL    HW227243   3.220   0.878   2.004
 8782SOL     OW27244   5.464   2.284   0.920
 8782SOL    HW127245   5.370   2.316   0.926
 8782SOL    HW227246   5.491   2.275   0.824
 8783SOL     OW27247   5.356   3.305   4.914
 8783SOL    HW127248   5.368   3.309   5.014
 8783SOL    HW227249   5.443   3.322   4.870
 8784SOL     OW27250   5.282   0.910   1.142
 8784SOL    HW127251   5.359   0.950   1.091
 8784SOL    HW227252   5.213   0.877   1.078
 8785SOL     OW27253   0.114   5.638   5.166
 8785SOL    HW127254   0.133   5.698   5.088
 8785SOL    HW227255   0.047   5.568   5.139
 8786SOL     OW27256   4.920   1.587   2.451
 8786SOL    HW127257   4.929   1.597   2.550
 8786SOL    HW227258   4.827   1.559   2.429
 8787SOL     OW27259   3.877   5.988   0.827
 8787SOL    HW127260   3.884   6.053   0.903
 8787SOL    HW227261   3.844   5.900   0.862
 8788SOL     OW27262   0.791   6.927   3.926
 8788SOL    HW127263   0.711   6.986   3.908
 8788SOL    HW227264   0.826   6.946   4.017
 8789SOL     OW27265   0.299   2.574   6.573
 8789SOL    HW127266   0.211   2.566   6.527
 8789SOL    HW227267   0.290   2.636   6.651
 8790SOL     OW27268   4.873   3.154   5.412
 8790SOL    HW127269   4.904   3.249   5.408
 8790SOL    HW227270   4.788   3.145   5.361
 8791SOL     OW27271   3.423   6.282   4.477
 8791SOL    HW127272   3.416   6.311   4.572
 8791SOL    HW227273   3.517   6.294   4.445
 8792SOL     OW27274   5.246   4.655   1.596
 8792SOL    HW127275   5.152   4.677   1.568
 8792SOL    HW227276   5.289   4.599   1.525
 8793SOL     OW27277   0.115   6.083   4.884
 8793SOL    HW127278   0.168   6.104   4.802
 8793SOL    HW227279   0.018   6.098   4.867
 8794SOL     OW27280   7.005   1.121   2.531
 8794SOL    HW127281   0.065   1.177   2.527
 8794SOL    HW227282   7.000   1.074   2.620
 8795SOL     OW27283   1.800   6.073   6.758
 8795SOL    HW127284   1.824   5.977   6.744
 8795SOL    HW227285   1.870   6.118   6.812
 8796SOL     OW27286   6.141   3.639   4.035
 8796SOL    HW127287   6.158   3.580   3.956
 8796SOL    HW227288   6.048   3.625   4.067
 8797SOL     OW27289   4.590   6.243   3.703
 8797SOL    HW127290   4.572   6.321   3.763
 8797SOL    HW227291   4.642   6.273   3.623
 8798SOL     OW27292   3.168   0.137   5.765
 8798SOL    HW127293   3.072   0.165   5.771
 8798SOL    HW227294   3.211   0.148   5.855
 8799SOL     OW27295   0.887   5.512   1.711
 8799SOL    HW127296   0.871   5.451   1.633
 8799SOL    HW227297   0.878   5.460   1.796
 8800SOL     OW27298   6.936   5.477   5.021
 8800SOL    HW127299   6.990   5.464   4.938
 8800SOL    HW227300   6.868   5.404   5.027
 8801SOL     OW27301   6.007   3.256   5.804
 8801SOL    HW127302   5.960   3.176   5.766
 8801SOL    HW227303   5.961   3.339   5.773
 8802SOL     OW27304   1.483   6.388   6.637
 8802SOL    HW127305   1.411   6.403   6.569
 8802SOL    HW227306   1.567   6.362   6.591
 8803SOL     OW27307   6.587   6.643   6.048
 8803SOL    HW127308   6.502   6.625   6.097
 8803SOL    HW227309   6.664   6.612   6.103
 8804SOL     OW27310   1.759   6.054   2.860
 8804SOL    HW127311   1.701   6.076   2.782
 8804SOL    HW227312   1.739   5.960   2.891
 8805SOL     OW27313   5.402   4.631   3.530
 8805SOL    HW127314   5.421   4.722   3.492
 8805SOL    HW227315   5.424   4.561   3.462
 8806SOL     OW27316   2.079   0.789   1.357
 8806SOL    HW127317   2.132   0.713   1.319
 8806SOL    HW227318   2.076   0.864   1.291
 8807SOL     OW27319   5.494   3.079   1.639
 8807SOL    HW127320   5.506   3.157   1.578
 8807SOL    HW227321   5.473   2.997   1.585
 8808SOL     OW27322   1.561   2.179   6.694
 8808SOL    HW127323   1.546   2.100   6.754
 8808SOL    HW227324   1.612   2.250   6.743
 8809SOL     OW27325   0.461   3.574   3.307
 8809SOL    HW127326   0.500   3.485   3.282
 8809SOL    HW227327   0.524   3.647   3.281
 8810SOL     OW27328   0.696   1.127   5.462
 8810SOL    HW127329   0.772   1.172   5.508
 8810SOL    HW227330   0.698   1.150   5.364
 8811SOL     OW27331   4.176   5.458   2.470
 8811SOL    HW127332   4.154   5.534   2.531
 8811SOL    HW227333   4.145   5.373   2.510
 8812SOL     OW27334   4.796   1.086   6.281
 8812SOL    HW127335   4.734   1.141   6.337
 8812SOL    HW227336   4.871   1.143   6.248
 8813SOL     OW27337   2.211   3.896   3.451
 8813SOL    HW127338   2.197   3.953   3.532
 8813SOL    HW227339   2.230   3.956   3.373
 8814SOL     OW27340   4.904   0.413   5.488
 8814SOL    HW127341   4.968   0.488   5.507
 8814SOL    HW227342   4.858   0.387   5.573
 8815SOL     OW27343   5.621   0.907   0.560
 8815SOL    HW127344   5.575   0.877   0.477
 8815SOL    HW227345   5.602   1.004   0.575
 8816SOL     OW27346   0.885   5.913   4.752
 8816SOL    HW127347   0.959   5.981   4.760
 8816SOL    HW227348   0.885   5.874   4.660
 8817SOL     OW27349   1.510   2.709   3.591
 8817SOL    HW127350   1.566   2.676   3.668
 8817SOL    HW227351   1.555   2.685   3.505
 8818SOL     OW27352   0.654   0.342   5.471
 8818SOL    HW127353   0.661   0.427   5.419
 8818SOL    HW227354   0.716   0.273   5.433
 8819SOL     OW27355   5.272   4.847   6.676
 8819SOL    HW127356   5.350   4.898   6.638
 8819SOL    HW227357   5.242   4.892   6.760
 8820SOL     OW27358   3.357   0.446   5.321
 8820SOL    HW127359   3.356   0.447   5.421
 8820SOL    HW227360   3.409   0.525   5.287
 8821SOL     OW27361   6.942   4.359   6.394
 8821SOL    HW127362   6.875   4.430   6.417
 8821SOL    HW227363   6.956   4.358   6.295
 8822SOL     OW27364   6.645   0.449   4.761
 8822SOL    HW127365   6.730   0.397   4.756
 8822SOL    HW227366   6.585   0.408   4.830
 8823SOL     OW27367   3.967   1.187   3.164
 8823SOL    HW127368   3.973   1.194   3.264
 8823SOL    HW227369   3.903   1.257   3.130
 8824SOL     OW27370   1.620   0.759   2.373
 8824SOL    HW127371   1.634   0.822   2.449
 8824SOL    HW227372   1.651   0.802   2.288
 8825SOL     OW27373   0.366   6.421   0.325
 8825SOL    HW127374   0.343   6.502   0.270
 8825SOL    HW227375   0.291   6.401   0.388
 8826SOL     OW27376   0.995   3.873   0.914
 8826SOL    HW127377   0.951   3.808   0.852
 8826SOL    HW227378   1.047   3.939   0.861
 8827SOL     OW27379   4.658   6.898   2.922
 8827SOL    HW127380   4.615   6.940   2.843
 8827SOL    HW227381   4.669   6.966   2.995
 8828SOL     OW27382   4.563   2.333   6.189
 8828SOL    HW127383   4.627   2.410   6.179
 8828SOL    HW227384   4.498   2.333   6.113
 8829SOL     OW27385   6.829   1.374   1.639
 8829SOL    HW127386   6.905   1.344   1.696
 8829SOL    HW227387   6.792   1.460   1.675
 8830SOL     OW27388   2.768   0.690   3.116
 8830SOL    HW127389   2.843   0.638   3.159
 8830SOL    HW227390   2.803   0.739   3.037
 8831SOL     OW27391   0.340   2.549   1.938
 8831SOL    HW127392   0.329   2.647   1.957
 8831SOL    HW227393   0.431   2.520   1.967
 8832SOL     OW27394   5.270   0.870   4.825
 8832SOL    HW127395   5.196   0.937   4.833
 8832SOL    HW227396   5.283   0.824   4.912
 8833SOL     OW27397   5.212   2.918   1.626
 8833SOL    HW127398   5.308   2.893   1.625
 8833SOL    HW227399   5.163   2.862   1.694
 8834SOL     OW27400   5.786   3.925   5.660
 8834SOL    HW127401   5.882   3.941   5.687
 8834SOL    HW227402   5.771   3.827   5.649
 8835SOL     OW27403   0.133   0.483   5.921
 8835SOL    HW127404   0.035   0.486   5.944
 8835SOL    HW227405   0.171   0.575   5.926
 8836SOL     OW27406   4.962   1.339   1.767
 8836SOL    HW127407   5.050   1.305   1.800
 8836SOL    HW227408   4.922   1.274   1.702
 8837SOL     OW27409   3.385   6.368   0.247
 8837SOL    HW127410   3.327   6.342   0.324
 8837SOL    HW227411   3.478   6.383   0.280
 8838SOL     OW27412   1.628   3.762   3.912
 8838SOL    HW127413   1.595   3.667   3.909
 8838SOL    HW227414   1.630   3.800   3.819
 8839SOL     OW27415   5.653   5.605   2.393
 8839SOL    HW127416   5.645   5.656   2.478
 8839SOL    HW227417   5.597   5.648   2.323
 8840SOL     OW27418   0.103   0.174   1.661
 8840SOL    HW127419   0.070   0.153   1.569
 8840SOL    HW227420   0.138   0.267   1.663
 8841SOL     OW27421   3.541   0.468   0.685
 8841SOL    HW127422   3.577   0.376   0.702
 8841SOL    HW227423   3.515   0.511   0.771
 8842SOL     OW27424   4.016   3.772   4.496
 8842SOL    HW127425   4.061   3.848   4.450
 8842SOL    HW227426   3.932   3.748   4.446
 8843SOL     OW27427   2.771   6.358   6.618
 8843SOL    HW127428   2.712   6.296   6.669
 8843SOL    HW227429   2.854   6.310   6.589
 8844SOL     OW27430   3.696   2.729   6.430
 8844SOL    HW127431   3.731   2.709   6.339
 8844SOL    HW227432   3.729   2.659   6.495
 8845SOL     OW27433   6.697   4.320   2.054
 8845SOL    HW127434   6.631   4.248   2.033
 8845SOL    HW227435   6.761   4.330   1.978
 8846SOL     OW27436   5.285   4.573   4.866
 8846SOL    HW127437   5.371   4.525   4.883
 8846SOL    HW227438   5.252   4.550   4.774
 8847SOL     OW27439   1.541   1.937   3.721
 8847SOL    HW127440   1.629   1.923   3.765
 8847SOL    HW227441   1.546   1.906   3.626
 8848SOL     OW27442   5.235   1.382   0.293
 8848SOL    HW127443   5.139   1.371   0.318
 8848SOL    HW227444   5.286   1.420   0.371
 8849SOL     OW27445   2.973   4.993   4.362
 8849SOL    HW127446   3.040   5.041   4.417
 8849SOL    HW227447   2.924   4.926   4.418
 8850SOL     OW27448   3.347   1.021   1.322
 8850SOL    HW127449   3.372   0.991   1.414
 8850SOL    HW227450   3.247   1.023   1.313
 8851SOL     OW27451   6.640   4.579   2.176
 8851SOL    HW127452   6.640   4.480   2.161
 8851SOL    HW227453   6.727   4.618   2.145
 8852SOL     OW27454   4.679   2.603   4.715
 8852SOL    HW127455   4.658   2.560   4.627
 8852SOL    HW227456   4.610   2.576   4.782
 8853SOL     OW27457   4.314   1.325   5.636
 8853SOL    HW127458   4.374   1.338   5.557
 8853SOL    HW227459   4.246   1.398   5.638
 8854SOL     OW27460   1.086   1.783   6.736
 8854SOL    HW127461   1.001   1.823   6.770
 8854SOL    HW227462   1.163   1.839   6.765
 8855SOL     OW27463   6.317   5.189   0.168
 8855SOL    HW127464   6.402   5.148   0.136
 8855SOL    HW227465   6.240   5.152   0.116
 8856SOL     OW27466   5.829   1.141   4.255
 8856SOL    HW127467   5.871   1.106   4.171
 8856SOL    HW227468   5.896   1.136   4.329
 8857SOL     OW27469   0.087   2.720   4.697
 8857SOL    HW127470   0.127   2.774   4.623
 8857SOL    HW227471   0.105   2.764   4.785
 8858SOL     OW27472   0.168   4.309   6.673
 8858SOL    HW127473   0.247   4.321   6.734
 8858SOL    HW227474   0.133   4.216   6.684
 8859SOL     OW27475   2.955   5.371   5.109
 8859SOL    HW127476   3.043   5.415   5.127
 8859SOL    HW227477   2.969   5.281   5.069
 8860SOL     OW27478   1.199   2.725   1.603
 8860SOL    HW127479   1.249   2.756   1.523
 8860SOL    HW227480   1.144   2.645   1.580
 8861SOL     OW27481   2.808   2.671   0.521
 8861SOL    HW127482   2.713   2.701   0.512
 8861SOL    HW227483   2.850   2.714   0.600
 8862SOL     OW27484   6.997   2.342   4.372
 8862SOL    HW127485   0.041   2.338   4.447
 8862SOL    HW227486   7.021   2.275   4.302
 8863SOL     OW27487   1.326   5.391   5.051
 8863SOL    HW127488   1.288   5.479   5.022
 8863SOL    HW227489   1.318   5.325   4.976
 8864SOL     OW27490   0.884   2.812   6.155
 8864SOL    HW127491   0.869   2.768   6.067
 8864SOL    HW227492   0.971   2.861   6.153
 8865SOL     OW27493   2.396   2.178   6.284
 8865SOL    HW127494   2.452   2.148   6.207
 8865SOL    HW227495   2.441   2.256   6.329
 8866SOL     OW27496   3.951   6.727   5.254
 8866SOL    HW127497   4.005   6.671   5.317
 8866SOL    HW227498   3.908   6.669   5.186
 8867SOL     OW27499   0.116   2.745   3.659
 8867SOL    HW127500   0.110   2.651   3.625
 8867SOL    HW227501   0.148   2.744   3.754
 8868SOL     OW27502   4.295   3.755   0.870
 8868SOL    HW127503   4.330   3.848   0.867
 8868SOL    HW227504   4.201   3.756   0.905
 8869SOL     OW27505   5.345   2.688   4.151
 8869SOL    HW127506   5.315   2.744   4.229
 8869SOL    HW227507   5.408   2.741   4.095
 8870SOL     OW27508   4.111   1.456   0.830
 8870SOL    HW127509   4.158   1.393   0.768
 8870SOL    HW227510   4.028   1.489   0.786
 8871SOL     OW27511   1.725   2.021   4.440
 8871SOL    HW127512   1.696   1.926   4.448
 8871SOL    HW227513   1.790   2.031   4.365
 8872SOL     OW27514   1.743   3.348   3.689
 8872SOL    HW127515   1.801   3.290   3.631
 8872SOL    HW227516   1.719   3.299   3.773
 8873SOL     OW27517   6.776   6.384   4.791
 8873SOL    HW127518   6.688   6.374   4.837
 8873SOL    HW227519   6.820   6.470   4.820
 8874SOL     OW27520   2.003   1.354   0.294
 8874SOL    HW127521   2.094   1.329   0.264
 8874SOL    HW227522   1.971   1.289   0.363
 8875SOL     OW27523   1.736   1.776   4.091
 8875SOL    HW127524   1.655   1.818   4.050
 8875SOL    HW227525   1.708   1.716   4.166
 8876SOL     OW27526   1.520   6.991   4.079
 8876SOL    HW127527   1.614   6.965   4.100
 8876SOL    HW227528   1.483   0.025   4.153
 8877SOL     OW27529   2.762   6.532   5.011
 8877SOL    HW127530   2.856   6.562   5.024
 8877SOL    HW227531   2.756   6.475   4.929
 8878SOL     OW27532   5.880   4.561   6.988
 8878SOL    HW127533   5.917   4.494   0.030
 8878SOL    HW227534   5.827   4.515   6.917
 8879SOL     OW27535   4.734   5.751   4.622
 8879SOL    HW127536   4.635   5.756   4.640
 8879SOL    HW227537   4.760   5.824   4.560
 8880SOL     OW27538   0.111   5.826   5.369
 8880SOL    HW127539   0.203   5.850   5.398
 8880SOL    HW227540   0.114   5.748   5.307
 8881SOL     OW27541   0.006   0.678   2.123
 8881SOL    HW127542   7.021   0.689   2.222
 8881SOL    HW227543   0.094   0.711   2.092
 8882SOL     OW27544   5.884   1.657   6.581
 8882SOL    HW127545   5.887   1.702   6.670
 8882SOL    HW227546   5.823   1.578   6.586
 8883SOL     OW27547   6.338   1.272   5.207
 8883SOL    HW127548   6.397   1.324   5.146
 8883SOL    HW227549   6.242   1.288   5.183
 8884SOL     OW27550   6.491   0.848   5.609
 8884SOL    HW127551   6.568   0.806   5.658
 8884SOL    HW227552   6.422   0.778   5.588
 8885SOL     OW27553   4.745   3.838   1.470
 8885SOL    HW127554   4.746   3.828   1.570
 8885SOL    HW227555   4.711   3.754   1.428
 8886SOL     OW27556   3.263   7.008   6.782
 8886SOL    HW127557   3.193   6.984   6.715
 8886SOL    HW227558   3.292   0.081   6.767
 8887SOL     OW27559   2.216   0.573   1.123
 8887SOL    HW127560   2.261   0.605   1.040
 8887SOL    HW227561   2.126   0.536   1.099
 8888SOL     OW27562   2.908   1.249   2.850
 8888SOL    HW127563   2.890   1.192   2.931
 8888SOL    HW227564   2.831   1.312   2.837
 8889SOL     OW27565   3.810   0.193   5.180
 8889SOL    HW127566   3.903   0.217   5.209
 8889SOL    HW227567   3.780   0.257   5.109
 8890SOL     OW27568   0.917   5.016   4.510
 8890SOL    HW127569   0.899   5.104   4.467
 8890SOL    HW227570   0.851   4.948   4.476
 8891SOL     OW27571   3.614   1.860   6.970
 8891SOL    HW127572   3.609   1.897   0.040
 8891SOL    HW227573   3.536   1.893   6.916
 8892SOL     OW27574   0.929   6.316   2.743
 8892SOL    HW127575   0.914   6.305   2.645
 8892SOL    HW227576   0.843   6.344   2.787
 8893SOL     OW27577   0.661   1.682   1.677
 8893SOL    HW127578   0.729   1.752   1.653
 8893SOL    HW227579   0.707   1.596   1.698
 8894SOL     OW27580   3.867   3.483   6.590
 8894SOL    HW127581   3.874   3.558   6.524
 8894SOL    HW227582   3.813   3.409   6.550
 8895SOL     OW27583   0.619   6.571   1.903
 8895SOL    HW127584   0.705   6.525   1.919
 8895SOL    HW227585   0.617   6.607   1.809
 8896SOL     OW27586   1.872   4.167   4.922
 8896SOL    HW127587   1.909   4.118   5.001
 8896SOL    HW227588   1.939   4.165   4.847
 8897SOL     OW27589   1.438   1.999   1.515
 8897SOL    HW127590   1.416   2.074   1.452
 8897SOL    HW227591   1.531   2.012   1.550
 8898SOL     OW27592   6.070   3.656   5.009
 8898SOL    HW127593   6.031   3.744   4.980
 8898SOL    HW227594   6.142   3.673   5.076
 8899SOL     OW27595   2.361   4.258   0.100
 8899SOL    HW127596   2.327   4.166   0.080
 8899SOL    HW227597   2.432   4.282   0.033
 8900SOL     OW27598   5.490   1.955   2.953
 8900SOL    HW127599   5.413   1.950   3.017
 8900SOL    HW227600   5.456   1.949   2.860
 8901SOL     OW27601   2.013   0.001   2.825
 8901SOL    HW127602   2.000   6.924   2.827
 8901SOL    HW227603   2.099   0.023   2.778
 8902SOL     OW27604   1.976   5.353   6.026
 8902SOL    HW127605   1.949   5.449   6.015
 8902SOL    HW227606   1.941   5.318   6.112
 8903SOL     OW27607   1.694   1.761   3.493
 8903SOL    HW127608   1.611   1.756   3.437
 8903SOL    HW227609   1.757   1.828   3.453
 8904SOL     OW27610   1.376   5.819   3.344
 8904SOL    HW127611   1.471   5.795   3.323
 8904SOL    HW227612   1.369   5.918   3.357
 8905SOL     OW27613   2.432   4.141   5.421
 8905SOL    HW127614   2.389   4.110   5.337
 8905SOL    HW227615   2.528   4.112   5.422
 8906SOL     OW27616   1.224   5.211   5.584
 8906SOL    HW127617   1.205   5.123   5.541
 8906SOL    HW227618   1.207   5.285   5.519
 8907SOL     OW27619   3.448   2.653   5.435
 8907SOL    HW127620   3.397   2.589   5.379
 8907SOL    HW227621   3.535   2.675   5.390
 8908SOL     OW27622   0.363   2.429   1.492
 8908SOL    HW127623   0.285   2.432   1.428
 8908SOL    HW227624   0.419   2.510   1.479
 8909SOL     OW27625   2.925   0.284   5.857
 8909SOL    HW127626   2.868   0.338   5.796
 8909SOL    HW227627   2.987   0.345   5.907
 8910SOL     OW27628   3.683   4.242   6.703
 8910SOL    HW127629   3.613   4.296   6.657
 8910SOL    HW227630   3.736   4.191   6.635
 8911SOL     OW27631   3.414   2.072   4.039
 8911SOL    HW127632   3.319   2.102   4.037
 8911SOL    HW227633   3.436   2.039   4.131
 8912SOL     OW27634   4.801   2.963   5.932
 8912SOL    HW127635   4.703   2.978   5.918
 8912SOL    HW227636   4.821   2.962   6.030
 8913SOL     OW27637   4.832   3.645   0.821
 8913SOL    HW127638   4.790   3.604   0.740
 8913SOL    HW227639   4.864   3.737   0.799
 8914SOL     OW27640   4.125   1.996   4.652
 8914SOL    HW127641   4.102   1.944   4.570
 8914SOL    HW227642   4.081   2.086   4.648
 8915SOL     OW27643   1.448   5.060   1.568
 8915SOL    HW127644   1.375   4.994   1.583
 8915SOL    HW227645   1.431   5.142   1.623
 8916SOL     OW27646   6.744   3.902   1.561
 8916SOL    HW127647   6.831   3.925   1.516
 8916SOL    HW227648   6.677   3.878   1.491
 8917SOL     OW27649   6.133   5.713   6.073
 8917SOL    HW127650   6.043   5.714   6.116
 8917SOL    HW227651   6.158   5.619   6.050
 8918SOL     OW27652   4.506   4.808   6.427
 8918SOL    HW127653   4.583   4.847   6.376
 8918SOL    HW227654   4.422   4.858   6.404
 8919SOL     OW27655   2.217   4.560   1.039
 8919SOL    HW127656   2.210   4.622   0.961
 8919SOL    HW227657   2.296   4.501   1.026
 8920SOL     OW27658   6.509   5.690   5.905
 8920SOL    HW127659   6.427   5.747   5.896
 8920SOL    HW227660   6.525   5.639   5.820
 8921SOL     OW27661   1.829   6.727   3.330
 8921SOL    HW127662   1.846   6.629   3.316
 8921SOL    HW227663   1.784   6.764   3.248
 8922SOL     OW27664   6.270   4.028   0.118
 8922SOL    HW127665   6.195   3.963   0.109
 8922SOL    HW227666   6.277   4.082   0.034
 8923SOL     OW27667   1.567   4.396   5.438
 8923SOL    HW127668   1.638   4.328   5.455
 8923SOL    HW227669   1.609   4.481   5.407
 8924SOL     OW27670   2.716   5.940   5.298
 8924SOL    HW127671   2.626   5.907   5.271
 8924SOL    HW227672   2.779   5.934   5.221
 8925SOL     OW27673   6.116   6.618   2.292
 8925SOL    HW127674   6.129   6.585   2.199
 8925SOL    HW227675   6.033   6.675   2.296
 8926SOL     OW27676   5.738   1.714   0.590
 8926SOL    HW127677   5.649   1.761   0.593
 8926SOL    HW227678   5.724   1.620   0.560
 8927SOL     OW27679   2.555   1.822   5.466
 8927SOL    HW127680   2.525   1.810   5.561
 8927SOL    HW227681   2.572   1.919   5.449
 8928SOL     OW27682   0.230   0.259   5.133
 8928SOL    HW127683   0.178   0.326   5.186
 8928SOL    HW227684   0.325   0.258   5.166
 8929SOL     OW27685   5.899   3.783   4.359
 8929SOL    HW127686   5.839   3.862   4.373
 8929SOL    HW227687   5.912   3.735   4.446
 8930SOL     OW27688   0.823   4.727   5.017
 8930SOL    HW127689   0.789   4.659   4.952
 8930SOL    HW227690   0.834   4.683   5.107
 8931SOL     OW27691   5.512   0.983   1.024
 8931SOL    HW127692   5.525   0.890   0.988
 8931SOL    HW227693   5.582   1.001   1.094
 8932SOL     OW27694   6.637   0.242   6.873
 8932SOL    HW127695   6.571   0.203   6.937
 8932SOL    HW227696   6.612   0.336   6.852
 8933SOL     OW27697   1.820   6.564   5.477
 8933SOL    HW127698   1.725   6.593   5.474
 8933SOL    HW227699   1.875   6.633   5.524
 8934SOL     OW27700   4.539   6.620   2.958
 8934SOL    HW127701   4.548   6.713   2.995
 8934SOL    HW227702   4.603   6.608   2.882
 8935SOL     OW27703   5.393   2.547   3.362
 8935SOL    HW127704   5.485   2.533   3.324
 8935SOL    HW227705   5.328   2.559   3.288
 8936SOL     OW27706   1.900   4.926   2.324
 8936SOL    HW127707   1.911   4.861   2.399
 8936SOL    HW227708   1.825   4.897   2.265
 8937SOL     OW27709   5.059   6.820   5.487
 8937SOL    HW127710   5.144   6.873   5.480
 8937SOL    HW227711   5.081   6.725   5.510
 8938SOL     OW27712   5.639   6.982   1.528
 8938SOL    HW127713   5.554   6.977   1.476
 8938SOL    HW227714   5.694   6.900   1.511
 8939SOL     OW27715   0.123   3.056   3.686
 8939SOL    HW127716   0.113   2.966   3.643
 8939SOL    HW227717   0.213   3.061   3.730
 8940SOL     OW27718   6.365   2.606   0.841
 8940SOL    HW127719   6.399   2.518   0.876
 8940SOL    HW227720   6.303   2.590   0.765
 8941SOL     OW27721   4.332   2.425   1.828
 8941SOL    HW127722   4.401   2.490   1.860
 8941SOL    HW227723   4.376   2.340   1.802
 8942SOL     OW27724   5.764   4.122   4.750
 8942SOL    HW127725   5.669   4.090   4.752
 8942SOL    HW227726   5.797   4.120   4.656
 8943SOL     OW27727   4.712   4.050   0.562
 8943SOL    HW127728   4.736   4.046   0.659
 8943SOL    HW227729   4.613   4.038   0.552
 8944SOL     OW27730   5.569   5.401   5.227
 8944SOL    HW127731   5.649   5.363   5.179
 8944SOL    HW227732   5.496   5.333   5.228
 8945SOL     OW27733   5.171   3.985   3.415
 8945SOL    HW127734   5.176   3.887   3.396
 8945SOL    HW227735   5.123   4.031   3.340
 8946SOL     OW27736   4.689   0.899   5.459
 8946SOL    HW127737   4.685   0.998   5.457
 8946SOL    HW227738   4.746   0.869   5.536
 8947SOL     OW27739   2.596   5.254   6.260
 8947SOL    HW127740   2.629   5.268   6.353
 8947SOL    HW227741   2.583   5.343   6.216
 8948SOL     OW27742   5.331   1.336   2.714
 8948SOL    HW127743   5.339   1.282   2.630
 8948SOL    HW227744   5.322   1.433   2.691
 8949SOL     OW27745   3.870   6.205   0.996
 8949SOL    HW127746   3.810   6.273   0.952
 8949SOL    HW227747   3.849   6.201   1.093
 8950SOL     OW27748   3.689   3.359   0.765
 8950SOL    HW127749   3.777   3.385   0.805
 8950SOL    HW227750   3.689   3.261   0.745
 8951SOL     OW27751   1.685   0.939   4.378
 8951SOL    HW127752   1.595   0.977   4.356
 8951SOL    HW227753   1.698   0.939   4.477
 8952SOL     OW27754   2.128   4.583   4.107
 8952SOL    HW127755   2.217   4.614   4.072
 8952SOL    HW227756   2.073   4.550   4.031
 8953SOL     OW27757   1.229   4.684   1.001
 8953SOL    HW127758   1.200   4.591   0.978
 8953SOL    HW227759   1.281   4.682   1.086
 8954SOL     OW27760   2.842   4.556   5.851
 8954SOL    HW127761   2.870   4.460   5.856
 8954SOL    HW227762   2.767   4.566   5.786
 8955SOL     OW27763   5.102   2.303   4.630
 8955SOL    HW127764   5.093   2.337   4.723
 8955SOL    HW227765   5.013   2.273   4.596
 8956SOL     OW27766   0.721   6.056   6.903
 8956SOL    HW127767   0.639   6.073   6.959
 8956SOL    HW227768   0.768   6.143   6.887
 8957SOL     OW27769   0.116   6.223   2.892
 8957SOL    HW127770   0.215   6.237   2.883
 8957SOL    HW227771   0.079   6.289   2.958
 8958SOL     OW27772   1.970   2.927   4.995
 8958SOL    HW127773   1.927   2.839   4.974
 8958SOL    HW227774   1.900   2.997   5.003
 8959SOL     OW27775   6.463   2.355   2.912
 8959SOL    HW127776   6.397   2.375   2.985
 8959SOL    HW227777   6.440   2.410   2.831
 8960SOL     OW27778   5.547   4.302   3.318
 8960SOL    HW127779   5.486   4.282   3.394
 8960SOL    HW227780   5.528   4.394   3.283
 8961SOL     OW27781   2.050   1.328   4.600
 8961SOL    HW127782   1.983   1.254   4.589
 8961SOL    HW227783   2.142   1.291   4.587
 8962SOL     OW27784   6.629   5.442   2.084
 8962SOL    HW127785   6.561   5.502   2.042
 8962SOL    HW227786   6.697   5.415   2.016
 8963SOL     OW27787   5.163   6.489   5.451
 8963SOL    HW127788   5.231   6.480   5.524
 8963SOL    HW227789   5.209   6.490   5.362
 8964SOL     OW27790   1.595   2.835   4.707
 8964SOL    HW127791   1.675   2.828   4.648
 8964SOL    HW227792   1.622   2.819   4.802
 8965SOL     OW27793   3.934   5.542   6.095
 8965SOL    HW127794   3.918   5.640   6.081
 8965SOL    HW227795   3.852   5.500   6.134
 8966SOL     OW27796   4.171   6.125   4.779
 8966SOL    HW127797   4.136   6.194   4.842
 8966SOL    HW227798   4.202   6.169   4.695
 8967SOL     OW27799   3.019   6.983   3.710
 8967SOL    HW127800   3.061   6.950   3.795
 8967SOL    HW227801   3.090   7.020   3.650
 8968SOL     OW27802   3.440   5.246   2.455
 8968SOL    HW127803   3.371   5.229   2.384
 8968SOL    HW227804   3.500   5.167   2.462
 8969SOL     OW27805   1.231   0.910   2.784
 8969SOL    HW127806   1.201   0.913   2.688
 8969SOL    HW227807   1.327   0.939   2.789
 8970SOL     OW27808   1.837   6.938   3.636
 8970SOL    HW127809   1.822   6.846   3.674
 8970SOL    HW227810   1.935   6.951   3.620
 8971SOL     OW27811   3.267   5.127   0.288
 8971SOL    HW127812   3.274   5.104   0.191
 8971SOL    HW227813   3.301   5.051   0.343
 8972SOL     OW27814   6.137   3.517   6.833
 8972SOL    HW127815   6.198   3.511   6.912
 8972SOL    HW227816   6.186   3.555   6.755
 8973SOL     OW27817   1.682   2.604   3.417
 8973SOL    HW127818   1.766   2.554   3.438
 8973SOL    HW227819   1.706   2.692   3.376
 8974SOL     OW27820   2.414   4.567   4.901
 8974SOL    HW127821   2.393   4.664   4.890
 8974SOL    HW227822   2.465   4.553   4.985
 8975SOL     OW27823   0.377   5.609   6.009
 8975SOL    HW127824   0.462   5.633   6.056
 8975SOL    HW227825   0.387   5.521   5.964
 8976SOL     OW27826   5.992   0.130   2.612
 8976SOL    HW127827   6.010   0.170   2.702
 8976SOL    HW227828   6.075   0.084   2.579
 8977SOL     OW27829   6.117   4.688   6.165
 8977SOL    HW127830   6.114   4.628   6.086
 8977SOL    HW227831   6.205   4.678   6.212
 8978SOL     OW27832   6.285   5.926   6.569
 8978SOL    HW127833   6.260   5.904   6.663
 8978SOL    HW227834   6.298   6.025   6.560
 8979SOL     OW27835   1.610   5.030   5.011
 8979SOL    HW127836   1.548   4.977   4.954
 8979SOL    HW227837   1.678   5.075   4.953
 8980SOL     OW27838   3.592   0.485   6.757
 8980SOL    HW127839   3.549   0.571   6.730
 8980SOL    HW227840   3.575   0.468   6.854
 8981SOL     OW27841   4.781   3.552   6.267
 8981SOL    HW127842   4.738   3.530   6.180
 8981SOL    HW227843   4.853   3.486   6.286
 8982SOL     OW27844   0.429   1.780   2.082
 8982SOL    HW127845   0.484   1.840   2.023
 8982SOL    HW227846   0.334   1.811   2.081
 8983SOL     OW27847   1.702   6.500   2.284
 8983SOL    HW127848   1.674   6.452   2.368
 8983SOL    HW227849   1.681   6.443   2.205
 8984SOL     OW27850   0.140   0.919   4.003
 8984SOL    HW127851   0.212   0.873   4.055
 8984SOL    HW227852   0.063   0.940   4.063
 8985SOL     OW27853   4.997   1.659   1.651
 8985SOL    HW127854   4.988   1.755   1.679
 8985SOL    HW227855   5.044   1.608   1.722
 8986SOL     OW27856   6.875   4.652   0.302
 8986SOL    HW127857   6.802   4.596   0.263
 8986SOL    HW227858   6.887   4.734   0.246
 8987SOL     OW27859   2.154   6.202   1.849
 8987SOL    HW127860   2.139   6.228   1.753
 8987SOL    HW227861   2.174   6.104   1.854
 8988SOL     OW27862   2.456   6.464   1.485
 8988SOL    HW127863   2.378   6.485   1.544
 8988SOL    HW227864   2.462   6.533   1.413
 8989SOL     OW27865   5.172   1.814   2.944
 8989SOL    HW127866   5.121   1.865   3.014
 8989SOL    HW227867   5.142   1.843   2.853
 8990SOL     OW27868   3.153   0.876   2.308
 8990SOL    HW127869   3.171   0.850   2.214
 8990SOL    HW227870   3.165   0.975   2.318
 8991SOL     OW27871   1.183   1.526   0.861
 8991SOL    HW127872   1.148   1.492   0.773
 8991SOL    HW227873   1.267   1.577   0.845
 8992SOL     OW27874   0.880   3.947   6.460
 8992SOL    HW127875   0.787   3.959   6.424
 8992SOL    HW227876   0.942   4.009   6.412
 8993SOL     OW27877   5.660   3.662   4.891
 8993SOL    HW127878   5.635   3.735   4.829
 8993SOL    HW227879   5.592   3.655   4.964
 8994SOL     OW27880   0.974   5.609   2.725
 8994SOL    HW127881   1.007   5.609   2.819
 8994SOL    HW227882   0.932   5.697   2.704
 8995SOL     OW27883   2.126   4.077   4.802
 8995SOL    HW127884   2.196   4.058   4.870
 8995SOL    HW227885   2.142   4.168   4.762
 8996SOL     OW27886   1.305   3.993   2.302
 8996SOL    HW127887   1.255   3.913   2.337
 8996SOL    HW227888   1.313   3.987   2.203
 8997SOL     OW27889   4.506   1.909   5.501
 8997SOL    HW127890   4.475   1.842   5.568
 8997SOL    HW227891   4.522   1.997   5.546
 8998SOL     OW27892   0.648   1.273   6.120
 8998SOL    HW127893   0.569   1.246   6.065
 8998SOL    HW227894   0.715   1.319   6.062
 8999SOL     OW27895   5.129   1.095   4.820
 8999SOL    HW127896   5.034   1.120   4.804
 8999SOL    HW227897   5.163   1.142   4.901
 9000SOL     OW27898   2.470   4.399   0.394
 9000SOL    HW127899   2.487   4.447   0.308
 9000SOL    HW227900   2.375   4.367   0.396
 9001SOL     OW27901   1.704   4.530   3.715
 9001SOL    HW127902   1.770   4.591   3.758
 9001SOL    HW227903   1.710   4.538   3.615
 9002SOL     OW27904   5.213   4.504   6.101
 9002SOL    HW127905   5.266   4.490   6.017
 9002SOL    HW227906   5.161   4.589   6.094
 9003SOL     OW27907   5.660   3.241   5.896
 9003SOL    HW127908   5.710   3.154   5.894
 9003SOL    HW227909   5.566   3.225   5.927
 9004SOL     OW27910   4.681   5.399   0.679
 9004SOL    HW127911   4.723   5.429   0.594
 9004SOL    HW227912   4.752   5.374   0.745
 9005SOL     OW27913   4.514   2.205   2.879
 9005SOL    HW127914   4.480   2.288   2.836
 9005SOL    HW227915   4.508   2.129   2.815
 9006SOL     OW27916   1.604   6.668   0.534
 9006SOL    HW127917   1.519   6.682   0.584
 9006SOL    HW227918   1.587   6.611   0.454
 9007SOL     OW27919   2.711   6.419   4.107
 9007SOL    HW127920   2.710   6.440   4.205
 9007SOL    HW227921   2.798   6.448   4.068
 9008SOL     OW27922   6.519   4.206   3.021
 9008SOL    HW127923   6.562   4.243   3.104
 9008SOL    HW227924   6.422   4.230   3.021
 9009SOL     OW27925   3.922   6.217   1.394
 9009SOL    HW127926   3.863   6.251   1.321
 9009SOL    HW227927   3.932   6.288   1.464
 9010SOL     OW27928   0.982   6.015   5.024
 9010SOL    HW127929   0.993   5.922   5.058
 9010SOL    HW227930   1.035   6.027   4.940
 9011SOL     OW27931   4.046   1.767   1.864
 9011SOL    HW127932   4.115   1.725   1.805
 9011SOL    HW227933   4.090   1.829   1.928
 9012SOL     OW27934   6.438   5.572   1.730
 9012SOL    HW127935   6.521   5.537   1.686
 9012SOL    HW227936   6.459   5.600   1.823
 9013SOL     OW27937   5.022   6.084   3.017
 9013SOL    HW127938   4.997   6.120   3.107
 9013SOL    HW227939   5.120   6.067   3.014
 9014SOL     OW27940   3.035   0.761   0.843
 9014SOL    HW127941   2.968   0.762   0.769
 9014SOL    HW227942   2.993   0.799   0.926
 9015SOL     OW27943   6.464   1.689   5.114
 9015SOL    HW127944   6.380   1.636   5.098
 9015SOL    HW227945   6.516   1.696   5.029
 9016SOL     OW27946   6.731   6.015   6.210
 9016SOL    HW127947   6.637   6.028   6.242
 9016SOL    HW227948   6.731   5.953   6.131
 9017SOL     OW27949   0.468   4.159   3.732
 9017SOL    HW127950   0.514   4.172   3.819
 9017SOL    HW227951   0.369   4.153   3.747
 9018SOL     OW27952   3.716   2.506   5.623
 9018SOL    HW127953   3.793   2.570   5.627
 9018SOL    HW227954   3.682   2.501   5.529
 9019SOL     OW27955   1.728   6.359   7.014
 9019SOL    HW127956   1.673   6.281   6.983
 9019SOL    HW227957   1.686   6.444   6.983
 9020SOL     OW27958   0.217   4.713   2.640
 9020SOL    HW127959   0.282   4.778   2.679
 9020SOL    HW227960   0.204   4.636   2.704
 9021SOL     OW27961   6.794   5.688   5.092
 9021SOL    HW127962   6.784   5.763   5.026
 9021SOL    HW227963   6.858   5.620   5.055
 9022SOL     OW27964   2.897   1.039   6.627
 9022SOL    HW127965   2.847   1.037   6.541
 9022SOL    HW227966   2.846   1.092   6.694
 9023SOL     OW27967   3.381   2.958   2.750
 9023SOL    HW127968   3.478   2.949   2.771
 9023SOL    HW227969   3.359   2.909   2.666
 9024SOL     OW27970   1.940   0.285   6.526
 9024SOL    HW127971   1.919   0.350   6.598
 9024SOL    HW227972   1.982   0.203   6.566
 9025SOL     OW27973   0.131   4.373   1.200
 9025SOL    HW127974   0.151   4.458   1.248
 9025SOL    HW227975   0.216   4.321   1.187
 9026SOL     OW27976   3.145   3.605   5.457
 9026SOL    HW127977   3.108   3.600   5.550
 9026SOL    HW227978   3.180   3.516   5.430
 9027SOL     OW27979   2.502   2.558   2.984
 9027SOL    HW127980   2.471   2.653   2.985
 9027SOL    HW227981   2.425   2.497   3.001
 9028SOL     OW27982   2.370   4.641   5.217
 9028SOL    HW127983   2.370   4.544   5.240
 9028SOL    HW227984   2.279   4.670   5.190
 9029SOL     OW27985   4.807   5.133   3.236
 9029SOL    HW127986   4.840   5.227   3.225
 9029SOL    HW227987   4.771   5.121   3.329
 9030SOL     OW27988   3.133   1.550   1.766
 9030SOL    HW127989   3.206   1.576   1.830
 9030SOL    HW227990   3.156   1.585   1.674
 9031SOL     OW27991   2.069   1.091   0.359
 9031SOL    HW127992   2.157   1.109   0.316
 9031SOL    HW227993   2.024   1.015   0.312
 9032SOL     OW27994   1.441   1.685   2.602
 9032SOL    HW127995   1.387   1.603   2.582
 9032SOL    HW227996   1.390   1.766   2.574
 9033SOL     OW27997   1.468   3.353   2.683
 9033SOL    HW127998   1.492   3.395   2.595
 9033SOL    HW227999   1.417   3.419   2.738
 9034SOL     OW28000   1.705   0.354   5.713
 9034SOL    HW128001   1.720   0.379   5.809
 9034SOL    HW228002   1.741   0.262   5.697
 9035SOL     OW28003   6.930   0.994   4.139
 9035SOL    HW128004   6.887   1.032   4.058
 9035SOL    HW228005   6.870   1.007   4.218
 9036SOL     OW28006   0.967   1.657   5.089
 9036SOL    HW128007   1.052   1.699   5.119
 9036SOL    HW228008   0.965   1.654   4.989
 9037SOL     OW28009   2.373   3.844   5.983
 9037SOL    HW128010   2.439   3.786   6.031
 9037SOL    HW228011   2.418   3.887   5.905
 9038SOL     OW28012   5.732   6.613   5.504
 9038SOL    HW128013   5.743   6.664   5.419
 9038SOL    HW228014   5.748   6.516   5.488
 9039SOL     OW28015   2.280   5.307   6.082
 9039SOL    HW128016   2.183   5.313   6.058
 9039SOL    HW228017   2.333   5.282   6.001
 9040SOL     OW28018   2.458   1.588   1.914
 9040SOL    HW128019   2.503   1.652   1.851
 9040SOL    HW228020   2.522   1.515   1.937
 9041SOL     OW28021   1.601   3.482   0.250
 9041SOL    HW128022   1.554   3.444   0.170
 9041SOL    HW228023   1.654   3.411   0.295
 9042SOL     OW28024   2.566   5.288   3.696
 9042SOL    HW128025   2.542   5.209   3.752
 9042SOL    HW228026   2.565   5.261   3.599
 9043SOL     OW28027   6.889   2.347   0.336
 9043SOL    HW128028   6.821   2.284   0.374
 9043SOL    HW228029   6.860   2.441   0.352
 9044SOL     OW28030   6.438   4.936   0.404
 9044SOL    HW128031   6.532   4.962   0.382
 9044SOL    HW228032   6.435   4.840   0.430
 9045SOL     OW28033   3.770   6.256   4.234
 9045SOL    HW128034   3.851   6.309   4.258
 9045SOL    HW228035   3.796   6.180   4.174
 9046SOL     OW28036   3.618   4.479   5.990
 9046SOL    HW128037   3.592   4.575   5.980
 9046SOL    HW228038   3.685   4.455   5.920
 9047SOL     OW28039   1.496   4.600   4.955
 9047SOL    HW128040   1.596   4.599   4.962
 9047SOL    HW228041   1.457   4.596   5.047
 9048SOL     OW28042   1.680   2.655   5.208
 9048SOL    HW128043   1.623   2.578   5.236
 9048SOL    HW228044   1.758   2.663   5.270
 9049SOL     OW28045   4.953   5.942   6.458
 9049SOL    HW128046   4.897   5.984   6.388
 9049SOL    HW228047   4.903   5.867   6.501
 9050SOL     OW28048   0.566   6.132   5.383
 9050SOL    HW128049   0.512   6.212   5.412
 9050SOL    HW228050   0.606   6.151   5.293
 9051SOL     OW28051   5.065   6.246   6.186
 9051SOL    HW128052   5.078   6.265   6.088
 9051SOL    HW228053   5.121   6.168   6.213
 9052SOL     OW28054   2.298   5.666   4.862
 9052SOL    HW128055   2.364   5.602   4.822
 9052SOL    HW228056   2.304   5.754   4.814
 9053SOL     OW28057   2.782   1.548   3.669
 9053SOL    HW128058   2.786   1.466   3.726
 9053SOL    HW228059   2.708   1.538   3.602
 9054SOL     OW28060   3.585   0.414   1.104
 9054SOL    HW128061   3.624   0.411   1.196
 9054SOL    HW228062   3.622   0.494   1.055
 9055SOL     OW28063   1.110   1.333   4.239
 9055SOL    HW128064   1.122   1.400   4.166
 9055SOL    HW228065   1.188   1.335   4.300
 9056SOL     OW28066   5.960   1.439   2.711
 9056SOL    HW128067   5.941   1.519   2.655
 9056SOL    HW228068   6.059   1.428   2.721
 9057SOL     OW28069   4.344   6.246   0.009
 9057SOL    HW128070   4.310   6.153   0.027
 9057SOL    HW228071   4.347   6.297   0.094
 9058SOL     OW28072   2.031   2.595   4.903
 9058SOL    HW128073   2.042   2.625   4.998
 9058SOL    HW228074   2.085   2.654   4.843
 9059SOL     OW28075   6.572   0.874   3.399
 9059SOL    HW128076   6.600   0.787   3.359
 9059SOL    HW228077   6.477   0.867   3.429
 9060SOL     OW28078   0.675   5.659   1.997
 9060SOL    HW128079   0.769   5.693   1.992
 9060SOL    HW228080   0.614   5.721   1.948
 9061SOL     OW28081   5.625   3.983   2.799
 9061SOL    HW128082   5.580   3.946   2.880
 9061SOL    HW228083   5.637   4.081   2.809
 9062SOL     OW28084   0.658   5.733   3.017
 9062SOL    HW128085   0.727   5.665   2.993
 9062SOL    HW228086   0.698   5.825   3.013
 9063SOL     OW28087   4.461   1.621   1.816
 9063SOL    HW128088   4.410   1.572   1.887
 9063SOL    HW228089   4.536   1.671   1.858
 9064SOL     OW28090   0.969   5.508   3.269
 9064SOL    HW128091   0.872   5.518   3.288
 9064SOL    HW228092   0.995   5.412   3.275
 9065SOL     OW28093   2.679   4.478   5.655
 9065SOL    HW128094   2.592   4.524   5.636
 9065SOL    HW228095   2.735   4.477   5.572
 9066SOL     OW28096   4.923   4.906   4.567
 9066SOL    HW128097   4.906   5.002   4.546
 9066SOL    HW228098   4.927   4.853   4.483
 9067SOL     OW28099   1.274   6.073   4.365
 9067SOL    HW128100   1.274   6.050   4.267
 9067SOL    HW228101   1.189   6.122   4.387
 9068SOL     OW28102   4.595   7.015   5.778
 9068SOL    HW128103   4.624   0.005   5.683
 9068SOL    HW228104   4.676   7.001   5.836
 9069SOL     OW28105   5.377   2.037   1.120
 9069SOL    HW128106   5.359   2.027   1.022
 9069SOL    HW228107   5.395   2.133   1.141
 9070SOL     OW28108   1.423   1.408   5.914
 9070SOL    HW128109   1.484   1.485   5.898
 9070SOL    HW228110   1.334   1.427   5.872
 9071SOL     OW28111   4.568   2.086   6.350
 9071SOL    HW128112   4.595   2.126   6.438
 9071SOL    HW228113   4.569   2.158   6.280
 9072SOL     OW28114   4.785   0.777   3.106
 9072SOL    HW128115   4.762   0.835   3.183
 9072SOL    HW228116   4.865   0.816   3.058
 9073SOL     OW28117   4.728   1.826   5.308
 9073SOL    HW128118   4.683   1.881   5.238
 9073SOL    HW228119   4.683   1.841   5.396
 9074SOL     OW28120   1.478   0.815   1.901
 9074SOL    HW128121   1.425   0.759   1.964
 9074SOL    HW228122   1.506   0.759   1.822
 9075SOL     OW28123   6.027   6.345   0.944
 9075SOL    HW128124   6.117   6.374   0.976
 9075SOL    HW228125   5.969   6.325   1.022
 9076SOL     OW28126   6.251   0.492   2.762
 9076SOL    HW128127   6.221   0.488   2.667
 9076SOL    HW228128   6.321   0.423   2.779
 9077SOL     OW28129   6.503   1.775   6.297
 9077SOL    HW128130   6.431   1.825   6.250
 9077SOL    HW228131   6.538   1.702   6.238
 9078SOL     OW28132   4.936   6.168   6.998
 9078SOL    HW128133   4.992   6.233   0.028
 9078SOL    HW228134   4.975   6.156   6.907
 9079SOL     OW28135   1.403   1.333   6.741
 9079SOL    HW128136   1.375   1.380   6.658
 9079SOL    HW228137   1.364   1.379   6.821
 9080SOL     OW28138   6.117   3.513   1.652
 9080SOL    HW128139   6.165   3.502   1.738
 9080SOL    HW228140   6.108   3.425   1.606
 9081SOL     OW28141   5.313   1.635   0.113
 9081SOL    HW128142   5.233   1.661   0.060
 9081SOL    HW228143   5.297   1.547   0.157
 9082SOL     OW28144   3.641   5.700   6.136
 9082SOL    HW128145   3.560   5.744   6.097
 9082SOL    HW228146   3.614   5.616   6.183
 9083SOL     OW28147   4.341   5.289   6.428
 9083SOL    HW128148   4.283   5.369   6.446
 9083SOL    HW228149   4.332   5.224   6.503
 9084SOL     OW28150   6.761   2.536   6.064
 9084SOL    HW128151   6.734   2.510   6.157
 9084SOL    HW228152   6.682   2.531   6.004
 9085SOL     OW28153   2.437   4.872   6.800
 9085SOL    HW128154   2.424   4.830   6.710
 9085SOL    HW228155   2.350   4.909   6.832
 9086SOL     OW28156   0.012   4.416   0.888
 9086SOL    HW128157   6.940   4.386   0.876
 9086SOL    HW228158   0.028   4.499   0.835
 9087SOL     OW28159   5.814   0.825   1.573
 9087SOL    HW128160   5.903   0.801   1.612
 9087SOL    HW228161   5.821   0.913   1.527
 9088SOL     OW28162   6.386   6.739   0.588
 9088SOL    HW128163   6.392   6.838   0.578
 9088SOL    HW228164   6.310   6.705   0.532
 9089SOL     OW28165   5.319   5.459   3.979
 9089SOL    HW128166   5.344   5.362   3.988
 9089SOL    HW228167   5.313   5.483   3.882
 9090SOL     OW28168   5.264   6.196   5.251
 9090SOL    HW128169   5.261   6.114   5.195
 9090SOL    HW228170   5.229   6.274   5.198
 9091SOL     OW28171   2.370   1.350   1.270
 9091SOL    HW128172   2.378   1.310   1.362
 9091SOL    HW228173   2.442   1.418   1.257
 9092SOL     OW28174   1.544   1.176   5.511
 9092SOL    HW128175   1.629   1.194   5.561
 9092SOL    HW228176   1.498   1.096   5.551
 9093SOL     OW28177   1.898   3.971   0.546
 9093SOL    HW128178   1.938   3.885   0.513
 9093SOL    HW228179   1.799   3.970   0.531
 9094SOL     OW28180   6.649   4.628   1.592
 9094SOL    HW128181   6.571   4.576   1.558
 9094SOL    HW228182   6.684   4.687   1.519
 9095SOL     OW28183   3.016   2.739   0.068
 9095SOL    HW128184   3.028   2.759   6.993
 9095SOL    HW228185   3.023   2.640   0.083
 9096SOL     OW28186   4.849   2.700   3.138
 9096SOL    HW128187   4.839   2.787   3.186
 9096SOL    HW228188   4.855   2.716   3.040
 9097SOL     OW28189   1.000   5.334   6.419
 9097SOL    HW128190   0.913   5.366   6.456
 9097SOL    HW228191   0.987   5.307   6.323
 9098SOL     OW28192   4.028   3.540   2.769
 9098SOL    HW128193   4.054   3.600   2.845
 9098SOL    HW228194   4.052   3.585   2.682
 9099SOL     OW28195   2.210   3.114   0.712
 9099SOL    HW128196   2.256   3.034   0.753
 9099SOL    HW228197   2.197   3.097   0.615
 9100SOL     OW28198   0.369   2.925   1.160
 9100SOL    HW128199   0.452   2.896   1.208
 9100SOL    HW228200   0.382   2.914   1.061
 9101SOL     OW28201   1.981   2.789   1.343
 9101SOL    HW128202   1.980   2.740   1.429
 9101SOL    HW228203   2.005   2.885   1.359
 9102SOL     OW28204   3.739   5.356   2.428
 9102SOL    HW128205   3.748   5.446   2.471
 9102SOL    HW228206   3.645   5.324   2.438
 9103SOL     OW28207   0.406   4.028   0.543
 9103SOL    HW128208   0.480   4.039   0.476
 9103SOL    HW228209   0.321   4.063   0.505
 9104SOL     OW28210   4.543   6.746   1.448
 9104SOL    HW128211   4.530   6.840   1.417
 9104SOL    HW228212   4.627   6.710   1.409
 9105SOL     OW28213   1.848   1.873   5.521
 9105SOL    HW128214   1.923   1.899   5.582
 9105SOL    HW228215   1.789   1.953   5.506
 9106SOL     OW28216   6.215   5.106   1.095
 9106SOL    HW128217   6.215   5.027   1.157
 9106SOL    HW228218   6.235   5.075   1.002
 9107SOL     OW28219   4.119   0.461   1.533
 9107SOL    HW128220   4.025   0.442   1.505
 9107SOL    HW228221   4.165   0.375   1.557
 9108SOL     OW28222   4.744   5.603   5.811
 9108SOL    HW128223   4.691   5.637   5.888
 9108SOL    HW228224   4.800   5.525   5.840
 9109SOL     OW28225   3.109   2.084   3.690
 9109SOL    HW128226   3.167   2.003   3.699
 9109SOL    HW228227   3.100   2.128   3.779
 9110SOL     OW28228   1.707   3.855   3.649
 9110SOL    HW128229   1.795   3.810   3.635
 9110SOL    HW228230   1.721   3.953   3.663
 9111SOL     OW28231   3.728   4.165   1.776
 9111SOL    HW128232   3.677   4.118   1.704
 9111SOL    HW228233   3.684   4.152   1.864
 9112SOL     OW28234   0.357   4.354   2.208
 9112SOL    HW128235   0.331   4.414   2.284
 9112SOL    HW228236   0.383   4.264   2.244
 9113SOL     OW28237   4.407   6.897   0.741
 9113SOL    HW128238   4.489   6.844   0.720
 9113SOL    HW228239   4.350   6.847   0.805
 9114SOL     OW28240   3.036   4.877   1.570
 9114SOL    HW128241   3.062   4.812   1.642
 9114SOL    HW228242   2.936   4.882   1.566
 9115SOL     OW28243   1.365   4.834   5.313
 9115SOL    HW128244   1.373   4.766   5.385
 9115SOL    HW228245   1.334   4.790   5.229
 9116SOL     OW28246   0.159   1.212   5.829
 9116SOL    HW128247   0.167   1.300   5.783
 9116SOL    HW228248   0.239   1.196   5.886
 9117SOL     OW28249   6.799   2.311   7.016
 9117SOL    HW128250   6.782   2.392   0.051
 9117SOL    HW228251   6.896   2.288   7.018
 9118SOL     OW28252   6.491   6.629   2.062
 9118SOL    HW128253   6.575   6.657   2.015
 9118SOL    HW228254   6.453   6.707   2.113
 9119SOL     OW28255   6.491   0.155   1.802
 9119SOL    HW128256   6.527   0.152   1.895
 9119SOL    HW228257   6.561   0.124   1.738
 9120SOL     OW28258   5.552   1.034   6.167
 9120SOL    HW128259   5.557   0.941   6.130
 9120SOL    HW228260   5.456   1.061   6.175
 9121SOL     OW28261   0.457   1.367   6.423
 9121SOL    HW128262   0.481   1.294   6.360
 9121SOL    HW228263   0.524   1.441   6.414
 9122SOL     OW28264   1.792   3.228   3.075
 9122SOL    HW128265   1.843   3.142   3.081
 9122SOL    HW228266   1.722   3.220   3.004
 9123SOL     OW28267   2.422   6.182   6.526
 9123SOL    HW128268   2.411   6.094   6.481
 9123SOL    HW228269   2.484   6.173   6.603
 9124SOL     OW28270   6.683   5.766   5.340
 9124SOL    HW128271   6.703   5.723   5.252
 9124SOL    HW228272   6.665   5.863   5.327
 9125SOL     OW28273   4.747   4.222   3.645
 9125SOL    HW128274   4.683   4.228   3.569
 9125SOL    HW228275   4.840   4.235   3.612
 9126SOL     OW28276   6.324   0.376   1.831
 9126SOL    HW128277   6.235   0.340   1.802
 9126SOL    HW228278   6.396   0.316   1.798
 9127SOL     OW28279   4.962   0.379   0.015
 9127SOL    HW128280   5.012   0.324   6.971
 9127SOL    HW228281   4.870   0.342   0.027
 9128SOL     OW28282   3.752   2.068   5.287
 9128SOL    HW128283   3.822   2.094   5.220
 9128SOL    HW228284   3.724   1.973   5.270
 9129SOL     OW28285   1.935   1.600   6.416
 9129SOL    HW128286   2.013   1.551   6.380
 9129SOL    HW228287   1.919   1.572   6.511
 9130SOL     OW28288   5.978   4.705   0.623
 9130SOL    HW128289   5.968   4.610   0.653
 9130SOL    HW228290   5.995   4.764   0.702
 9131SOL     OW28291   0.754   4.004   4.325
 9131SOL    HW128292   0.739   4.100   4.350
 9131SOL    HW228293   0.808   3.999   4.241
 9132SOL     OW28294   6.538   3.702   4.662
 9132SOL    HW128295   6.539   3.697   4.562
 9132SOL    HW228296   6.452   3.744   4.693
 9133SOL     OW28297   2.471   4.485   0.985
 9133SOL    HW128298   2.531   4.452   0.913
 9133SOL    HW228299   2.510   4.464   1.074
 9134SOL     OW28300   2.970   6.169   6.508
 9134SOL    HW128301   3.023   6.113   6.571
 9134SOL    HW228302   2.926   6.111   6.440
 9135SOL     OW28303   6.373   5.672   3.821
 9135SOL    HW128304   6.459   5.723   3.816
 9135SOL    HW228305   6.380   5.601   3.890
 9136SOL     OW28306   5.013   5.348   5.777
 9136SOL    HW128307   5.111   5.350   5.796
 9136SOL    HW228308   4.998   5.360   5.679
 9137SOL     OW28309   4.272   1.087   1.762
 9137SOL    HW128310   4.215   1.166   1.740
 9137SOL    HW228311   4.358   1.094   1.712
 9138SOL     OW28312   5.067   5.207   6.212
 9138SOL    HW128313   5.017   5.182   6.295
 9138SOL    HW228314   5.005   5.253   6.148
 9139SOL     OW28315   3.606   1.480   5.293
 9139SOL    HW128316   3.630   1.572   5.325
 9139SOL    HW228317   3.594   1.419   5.372
 9140SOL     OW28318   6.701   2.392   2.228
 9140SOL    HW128319   6.660   2.473   2.185
 9140SOL    HW228320   6.731   2.416   2.320
 9141SOL     OW28321   5.246   0.225   5.516
 9141SOL    HW128322   5.204   0.291   5.577
 9141SOL    HW228323   5.343   0.248   5.503
 9142SOL     OW28324   0.621   3.093   6.010
 9142SOL    HW128325   0.584   3.008   5.972
 9142SOL    HW228326   0.657   3.075   6.101
 9143SOL     OW28327   4.579   3.282   0.314
 9143SOL    HW128328   4.569   3.302   0.412
 9143SOL    HW228329   4.517   3.208   0.288
 9144SOL     OW28330   2.526   5.687   5.427
 9144SOL    HW128331   2.491   5.594   5.440
 9144SOL    HW228332   2.453   5.746   5.393
 9145SOL     OW28333   0.073   4.584   6.869
 9145SOL    HW128334   0.010   4.579   6.791
 9145SOL    HW228335   0.024   4.566   6.954
 9146SOL     OW28336   6.186   2.803   1.281
 9146SOL    HW128337   6.167   2.898   1.254
 9146SOL    HW228338   6.284   2.791   1.296
 9147SOL     OW28339   4.578   5.518   4.090
 9147SOL    HW128340   4.527   5.604   4.082
 9147SOL    HW228341   4.522   5.450   4.137
 9148SOL     OW28342   5.023   5.568   3.297
 9148SOL    HW128343   5.031   5.636   3.370
 9148SOL    HW228344   5.101   5.506   3.301
 9149SOL     OW28345   4.813   2.968   4.646
 9149SOL    HW128346   4.846   2.995   4.737
 9149SOL    HW228347   4.716   2.987   4.638
 9150SOL     OW28348   4.986   0.017   3.346
 9150SOL    HW128349   5.042   0.037   3.426
 9150SOL    HW228350   4.964   0.102   3.298
 9151SOL     OW28351   1.420   4.194   2.439
 9151SOL    HW128352   1.377   4.123   2.383
 9151SOL    HW228353   1.520   4.188   2.428
 9152SOL     OW28354   2.723   6.337   3.292
 9152SOL    HW128355   2.742   6.328   3.390
 9152SOL    HW228356   2.731   6.433   3.265
 9153SOL     OW28357   1.865   2.613   6.675
 9153SOL    HW128358   1.888   2.699   6.629
 9153SOL    HW228359   1.902   2.536   6.624
 9154SOL     OW28360   2.692   5.707   6.571
 9154SOL    HW128361   2.792   5.716   6.576
 9154SOL    HW228362   2.663   5.714   6.476
 9155SOL     OW28363   2.104   4.072   6.257
 9155SOL    HW128364   2.082   3.994   6.198
 9155SOL    HW228365   2.096   4.157   6.204
 9156SOL     OW28366   4.110   2.027   1.158
 9156SOL    HW128367   4.157   1.939   1.148
 9156SOL    HW228368   4.173   2.101   1.136
 9157SOL     OW28369   5.478   3.902   5.281
 9157SOL    HW128370   5.569   3.887   5.318
 9157SOL    HW228371   5.475   3.875   5.185
 9158SOL     OW28372   0.462   3.387   4.659
 9158SOL    HW128373   0.507   3.407   4.746
 9158SOL    HW228374   0.371   3.428   4.658
 9159SOL     OW28375   0.050   5.460   2.018
 9159SOL    HW128376   0.147   5.449   1.996
 9159SOL    HW228377   0.017   5.379   2.064
 9160SOL     OW28378   0.987   6.519   6.001
 9160SOL    HW128379   1.070   6.558   6.040
 9160SOL    HW228380   0.910   6.536   6.062
 9161SOL     OW28381   5.070   3.598   5.220
 9161SOL    HW128382   4.992   3.661   5.214
 9161SOL    HW228383   5.058   3.524   5.154
 9162SOL     OW28384   4.900   2.941   2.592
 9162SOL    HW128385   4.850   2.972   2.511
 9162SOL    HW228386   4.988   2.901   2.564
 9163SOL     OW28387   3.080   2.204   3.925
 9163SOL    HW128388   3.087   2.138   4.000
 9163SOL    HW228389   3.021   2.280   3.953
 9164SOL     OW28390   2.733   0.880   6.821
 9164SOL    HW128391   2.799   0.840   6.758
 9164SOL    HW228392   2.653   0.820   6.827
 9165SOL     OW28393   5.514   0.694   6.358
 9165SOL    HW128394   5.523   0.600   6.389
 9165SOL    HW228395   5.440   0.740   6.408
 9166SOL     OW28396   4.006   5.580   0.930
 9166SOL    HW128397   3.975   5.503   0.875
 9166SOL    HW228398   4.101   5.601   0.909
 9167SOL     OW28399   1.579   3.797   5.649
 9167SOL    HW128400   1.499   3.819   5.594
 9167SOL    HW228401   1.552   3.791   5.745
 9168SOL     OW28402   2.110   6.953   5.635
 9168SOL    HW128403   2.042   7.015   5.598
 9168SOL    HW228404   2.185   7.005   5.677
 9169SOL     OW28405   0.322   1.121   4.783
 9169SOL    HW128406   0.303   1.218   4.769
 9169SOL    HW228407   0.419   1.103   4.768
 9170SOL     OW28408   6.972   5.178   0.373
 9170SOL    HW128409   6.995   5.178   0.275
 9170SOL    HW228410   6.874   5.193   0.383
 9171SOL     OW28411   3.007   5.951   6.943
 9171SOL    HW128412   3.021   5.928   6.847
 9171SOL    HW228413   3.032   6.046   6.958
 9172SOL     OW28414   3.426   1.180   4.268
 9172SOL    HW128415   3.330   1.177   4.293
 9172SOL    HW228416   3.482   1.155   4.348
 9173SOL     OW28417   6.291   5.036   5.103
 9173SOL    HW128418   6.283   4.939   5.079
 9173SOL    HW228419   6.372   5.074   5.058
 9174SOL     OW28420   6.722   4.463   0.122
 9174SOL    HW128421   6.766   4.377   0.148
 9174SOL    HW228422   6.623   4.449   0.112
 9175SOL     OW28423   2.184   5.920   5.827
 9175SOL    HW128424   2.109   5.947   5.767
 9175SOL    HW228425   2.182   5.974   5.911
 9176SOL     OW28426   2.174   0.891   5.404
 9176SOL    HW128427   2.249   0.899   5.339
 9176SOL    HW228428   2.134   0.981   5.421
 9177SOL     OW28429   1.346   4.327   4.103
 9177SOL    HW128430   1.259   4.335   4.151
 9177SOL    HW228431   1.340   4.372   4.014
 9178SOL     OW28432   2.320   5.485   0.855
 9178SOL    HW128433   2.246   5.426   0.824
 9178SOL    HW228434   2.407   5.436   0.849
 9179SOL     OW28435   2.833   5.333   4.019
 9179SOL    HW128436   2.853   5.375   4.108
 9179SOL    HW228437   2.734   5.339   4.002
 9180SOL     OW28438   6.073   2.157   3.973
 9180SOL    HW128439   6.065   2.242   3.922
 9180SOL    HW228440   6.170   2.133   3.984
 9181SOL     OW28441   4.330   1.696   2.395
 9181SOL    HW128442   4.397   1.749   2.446
 9181SOL    HW228443   4.372   1.612   2.361
 9182SOL     OW28444   1.322   5.837   2.256
 9182SOL    HW128445   1.379   5.887   2.191
 9182SOL    HW228446   1.353   5.855   2.349
 9183SOL     OW28447   5.008   6.573   1.049
 9183SOL    HW128448   4.961   6.562   1.136
 9183SOL    HW228449   5.065   6.656   1.051
 9184SOL     OW28450   5.385   6.868   0.844
 9184SOL    HW128451   5.347   6.956   0.870
 9184SOL    HW228452   5.415   6.871   0.748
 9185SOL     OW28453   4.126   0.987   5.447
 9185SOL    HW128454   4.054   0.952   5.506
 9185SOL    HW228455   4.087   1.046   5.377
 9186SOL     OW28456   6.301   0.727   4.935
 9186SOL    HW128457   6.398   0.722   4.959
 9186SOL    HW228458   6.263   0.814   4.967
 9187SOL     OW28459   2.035   6.462   2.269
 9187SOL    HW128460   1.995   6.455   2.360
 9187SOL    HW228461   1.995   6.540   2.221
 9188SOL     OW28462   2.750   6.668   0.865
 9188SOL    HW128463   2.676   6.730   0.894
 9188SOL    HW228464   2.834   6.693   0.913
 9189SOL     OW28465   5.543   5.414   2.934
 9189SOL    HW128466   5.606   5.492   2.927
 9189SOL    HW228467   5.450   5.444   2.912
 9190SOL     OW28468   1.921   5.582   0.224
 9190SOL    HW128469   1.961   5.506   0.277
 9190SOL    HW228470   1.893   5.655   0.286
 9191SOL     OW28471   6.524   0.525   5.334
 9191SOL    HW128472   6.589   0.589   5.376
 9191SOL    HW228473   6.433   0.542   5.372
 9192SOL     OW28474   0.432   3.983   4.905
 9192SOL    HW128475   0.389   3.899   4.874
 9192SOL    HW228476   0.370   4.060   4.891
 9193SOL     OW28477   3.266   3.182   6.903
 9193SOL    HW128478   3.280   3.279   6.884
 9193SOL    HW228479   3.326   3.154   6.979
 9194SOL     OW28480   3.056   0.600   4.003
 9194SOL    HW128481   3.110   0.605   3.920
 9194SOL    HW228482   2.969   0.647   3.990
 9195SOL     OW28483   2.338   2.374   4.686
 9195SOL    HW128484   2.392   2.439   4.740
 9195SOL    HW228485   2.379   2.365   4.595
 9196SOL     OW28486   4.646   1.456   5.114
 9196SOL    HW128487   4.635   1.357   5.123
 9196SOL    HW228488   4.557   1.498   5.098
 9197SOL     OW28489   2.442   3.556   1.255
 9197SOL    HW128490   2.443   3.588   1.160
 9197SOL    HW228491   2.356   3.509   1.273
 9198SOL     OW28492   6.560   5.443   5.459
 9198SOL    HW128493   6.579   5.356   5.504
 9198SOL    HW228494   6.461   5.457   5.454
 9199SOL     OW28495   0.220   3.989   6.014
 9199SOL    HW128496   0.154   3.921   6.046
 9199SOL    HW228497   0.313   3.960   6.039
 9200SOL     OW28498   2.620   0.719   1.076
 9200SOL    HW128499   2.631   0.809   1.119
 9200SOL    HW228500   2.652   0.648   1.138
 9201SOL     OW28501   1.561   3.497   6.895
 9201SOL    HW128502   1.650   3.480   6.938
 9201SOL    HW228503   1.543   3.424   6.829
 9202SOL     OW28504   2.065   6.747   3.091
 9202SOL    HW128505   2.116   6.661   3.079
 9202SOL    HW228506   2.023   6.749   3.181
 9203SOL     OW28507   6.969   5.346   0.744
 9203SOL    HW128508   7.019   5.313   0.664
 9203SOL    HW228509   7.009   5.305   0.827
 9204SOL     OW28510   5.323   1.221   6.190
 9204SOL    HW128511   5.252   1.292   6.189
 9204SOL    HW228512   5.386   1.238   6.266
 9205SOL     OW28513   6.867   3.670   2.725
 9205SOL    HW128514   6.947   3.729   2.739
 9205SOL    HW228515   6.799   3.689   2.796
 9206SOL     OW28516   3.968   5.570   0.412
 9206SOL    HW128517   3.907   5.532   0.342
 9206SOL    HW228518   3.934   5.545   0.503
 9207SOL     OW28519   4.805   5.683   0.369
 9207SOL    HW128520   4.762   5.712   0.455
 9207SOL    HW228521   4.821   5.584   0.371
 9208SOL     OW28522   6.776   3.797   4.731
 9208SOL    HW128523   6.689   3.767   4.692
 9208SOL    HW228524   6.844   3.808   4.659
 9209SOL     OW28525   3.123   1.382   6.530
 9209SOL    HW128526   3.125   1.299   6.586
 9209SOL    HW228527   3.189   1.448   6.567
 9210SOL     OW28528   6.616   1.309   2.877
 9210SOL    HW128529   6.583   1.217   2.896
 9210SOL    HW228530   6.575   1.343   2.792
 9211SOL     OW28531   0.213   2.491   4.016
 9211SOL    HW128532   0.308   2.460   4.022
 9211SOL    HW228533   0.160   2.423   3.965
 9212SOL     OW28534   3.148   5.600   4.552
 9212SOL    HW128535   3.154   5.641   4.644
 9212SOL    HW228536   3.074   5.645   4.501
 9213SOL     OW28537   5.718   3.587   5.968
 9213SOL    HW128538   5.797   3.576   6.028
 9213SOL    HW228539   5.661   3.505   5.972
 9214SOL     OW28540   0.469   5.708   0.315
 9214SOL    HW128541   0.427   5.664   0.394
 9214SOL    HW228542   0.398   5.734   0.249
 9215SOL     OW28543   1.173   0.598   0.231
 9215SOL    HW128544   1.237   0.581   0.156
 9215SOL    HW228545   1.123   0.683   0.213
 9216SOL     OW28546   2.564   0.164   2.804
 9216SOL    HW128547   2.502   0.216   2.863
 9216SOL    HW228548   2.616   0.227   2.747
 9217SOL     OW28549   0.177   1.826   6.319
 9217SOL    HW128550   0.229   1.863   6.397
 9217SOL    HW228551   0.217   1.739   6.291
 9218SOL     OW28552   3.388   6.823   0.555
 9218SOL    HW128553   3.449   6.795   0.630
 9218SOL    HW228554   3.436   6.817   0.468
 9219SOL     OW28555   1.339   2.446   1.095
 9219SOL    HW128556   1.390   2.521   1.136
 9219SOL    HW228557   1.244   2.449   1.126
 9220SOL     OW28558   3.557   6.411   1.248
 9220SOL    HW128559   3.633   6.348   1.231
 9220SOL    HW228560   3.471   6.366   1.224
 9221SOL     OW28561   3.200   6.373   3.566
 9221SOL    HW128562   3.133   6.324   3.621
 9221SOL    HW228563   3.291   6.363   3.608
 9222SOL     OW28564   2.259   1.061   6.510
 9222SOL    HW128565   2.187   0.995   6.489
 9222SOL    HW228566   2.241   1.146   6.460
 9223SOL     OW28567   2.020   3.096   5.370
 9223SOL    HW128568   2.039   3.098   5.469
 9223SOL    HW228569   2.085   3.035   5.325
 9224SOL     OW28570   1.996   5.302   4.410
 9224SOL    HW128571   2.026   5.377   4.352
 9224SOL    HW228572   2.050   5.301   4.495
 9225SOL     OW28573   3.379   6.252   6.616
 9225SOL    HW128574   3.443   6.268   6.691
 9225SOL    HW228575   3.303   6.317   6.622
 9226SOL     OW28576   5.299   6.248   1.380
 9226SOL    HW128577   5.263   6.298   1.458
 9226SOL    HW228578   5.393   6.217   1.400
 9227SOL     OW28579   1.061   5.153   2.698
 9227SOL    HW128580   1.014   5.237   2.672
 9227SOL    HW228581   1.020   5.075   2.651
 9228SOL     OW28582   1.459   1.004   5.800
 9228SOL    HW128583   1.509   0.921   5.826
 9228SOL    HW228584   1.525   1.077   5.778
 9229SOL     OW28585   1.339   5.661   3.842
 9229SOL    HW128586   1.425   5.620   3.813
 9229SOL    HW228587   1.319   5.742   3.787
 9230SOL     OW28588   5.218   0.504   3.773
 9230SOL    HW128589   5.221   0.545   3.864
 9230SOL    HW228590   5.282   0.427   3.769
 9231SOL     OW28591   1.180   2.543   4.503
 9231SOL    HW128592   1.121   2.502   4.572
 9231SOL    HW228593   1.270   2.562   4.542
 9232SOL     OW28594   3.331   5.430   0.633
 9232SOL    HW128595   3.266   5.416   0.558
 9232SOL    HW228596   3.419   5.456   0.595
 9233SOL     OW28597   5.657   5.101   1.284
 9233SOL    HW128598   5.594   5.117   1.209
 9233SOL    HW228599   5.750   5.092   1.249
 9234SOL     OW28600   3.027   5.715   3.625
 9234SOL    HW128601   3.021   5.658   3.544
 9234SOL    HW228602   2.935   5.736   3.658
 9235SOL     OW28603   1.443   2.215   3.136
 9235SOL    HW128604   1.485   2.284   3.076
 9235SOL    HW228605   1.347   2.203   3.110
 9236SOL     OW28606   3.430   3.871   5.325
 9236SOL    HW128607   3.447   3.948   5.386
 9236SOL    HW228608   3.331   3.859   5.313
 9237SOL     OW28609   1.239   3.776   4.249
 9237SOL    HW128610   1.175   3.852   4.239
 9237SOL    HW228611   1.326   3.800   4.205
 9238SOL     OW28612   4.999   2.916   6.843
 9238SOL    HW128613   5.036   2.824   6.836
 9238SOL    HW228614   5.000   2.960   6.754
 9239SOL     OW28615   0.617   3.827   1.026
 9239SOL    HW128616   0.621   3.847   0.928
 9239SOL    HW228617   0.636   3.730   1.041
 9240SOL     OW28618   5.500   1.642   1.584
 9240SOL    HW128619   5.586   1.681   1.550
 9240SOL    HW228620   5.427   1.662   1.519
 9241SOL     OW28621   6.856   5.390   6.964
 9241SOL    HW128622   6.780   5.446   6.998
 9241SOL    HW228623   6.934   5.400   0.003
 9242SOL     OW28624   6.944   6.275   1.759
 9242SOL    HW128625   6.998   6.281   1.843
 9242SOL    HW228626   6.863   6.333   1.767
 9243SOL     OW28627   6.843   6.096   4.446
 9243SOL    HW128628   6.925   6.115   4.499
 9243SOL    HW228629   6.769   6.156   4.476
 9244SOL     OW28630   4.546   5.437   6.575
 9244SOL    HW128631   4.491   5.354   6.583
 9244SOL    HW228632   4.618   5.437   6.644
 9245SOL     OW28633   0.454   5.468   2.417
 9245SOL    HW128634   0.359   5.482   2.391
 9245SOL    HW228635   0.514   5.520   2.356
 9246SOL     OW28636   6.615   5.123   3.622
 9246SOL    HW128637   6.548   5.186   3.583
 9246SOL    HW228638   6.668   5.171   3.692
 9247SOL     OW28639   0.665   6.735   2.806
 9247SOL    HW128640   0.636   6.783   2.723
 9247SOL    HW228641   0.655   6.797   2.885
 9248SOL     OW28642   2.672   2.423   6.081
 9248SOL    HW128643   2.665   2.359   6.157
 9248SOL    HW228644   2.768   2.443   6.063
 9249SOL     OW28645   5.315   1.426   4.259
 9249SOL    HW128646   5.237   1.488   4.249
 9249SOL    HW228647   5.339   1.419   4.356
 9250SOL     OW28648   4.783   4.004   3.849
 9250SOL    HW128649   4.802   4.049   3.762
 9250SOL    HW228650   4.753   4.072   3.916
 9251SOL     OW28651   3.498   1.556   2.928
 9251SOL    HW128652   3.592   1.586   2.940
 9251SOL    HW228653   3.462   1.521   3.014
 9252SOL     OW28654   6.959   6.899   4.978
 9252SOL    HW128655   6.998   6.847   5.054
 9252SOL    HW228656   0.003   6.966   4.946
 9253SOL     OW28657   2.265   6.762   5.841
 9253SOL    HW128658   2.340   6.771   5.774
 9253SOL    HW228659   2.198   6.696   5.806
 9254SOL     OW28660   5.723   3.819   1.442
 9254SOL    HW128661   5.777   3.746   1.483
 9254SOL    HW228662   5.635   3.782   1.410
 9255SOL     OW28663   5.298   3.767   0.631
 9255SOL    HW128664   5.234   3.820   0.687
 9255SOL    HW228665   5.316   3.679   0.675
 9256SOL     OW28666   4.454   4.607   2.042
 9256SOL    HW128667   4.407   4.600   1.954
 9256SOL    HW228668   4.388   4.636   2.112
 9257SOL     OW28669   0.864   4.012   2.345
 9257SOL    HW128670   0.876   4.106   2.314
 9257SOL    HW228671   0.793   3.968   2.291
 9258SOL     OW28672   3.536   2.862   3.769
 9258SOL    HW128673   3.476   2.924   3.716
 9258SOL    HW228674   3.482   2.817   3.840
 9259SOL     OW28675   1.043   2.047   1.536
 9259SOL    HW128676   1.065   2.104   1.457
 9259SOL    HW228677   1.098   2.076   1.615
 9260SOL     OW28678   4.994   2.938   6.534
 9260SOL    HW128679   4.910   2.972   6.492
 9260SOL    HW228680   5.070   2.949   6.470
 9261SOL     OW28681   3.595   0.413   6.489
 9261SOL    HW128682   3.611   0.431   6.586
 9261SOL    HW228683   3.589   0.499   6.439
 9262SOL     OW28684   5.523   1.571   4.979
 9262SOL    HW128685   5.479   1.501   4.923
 9262SOL    HW228686   5.536   1.655   4.926
 9263SOL     OW28687   5.046   3.964   1.165
 9263SOL    HW128688   5.012   4.058   1.168
 9263SOL    HW228689   5.132   3.958   1.215
 9264SOL     OW28690   6.454   3.648   6.781
 9264SOL    HW128691   6.423   3.600   6.863
 9264SOL    HW228692   6.399   3.620   6.703
 9265SOL     OW28693   2.492   2.002   0.254
 9265SOL    HW128694   2.555   1.964   0.185
 9265SOL    HW228695   2.534   2.082   0.297
 9266SOL     OW28696   2.328   6.072   2.678
 9266SOL    HW128697   2.305   6.151   2.620
 9266SOL    HW228698   2.296   6.089   2.771
 9267SOL     OW28699   0.554   4.141   4.634
 9267SOL    HW128700   0.495   4.209   4.678
 9267SOL    HW228701   0.534   4.050   4.672
 9268SOL     OW28702   0.478   6.485   2.515
 9268SOL    HW128703   0.448   6.420   2.585
 9268SOL    HW228704   0.471   6.442   2.425
 9269SOL     OW28705   3.065   2.109   6.943
 9269SOL    HW128706   3.079   2.048   6.865
 9269SOL    HW228707   3.064   2.055   0.006
 9270SOL     OW28708   6.747   6.507   5.599
 9270SOL    HW128709   6.833   6.538   5.559
 9270SOL    HW228710   6.678   6.579   5.589
 9271SOL     OW28711   1.354   6.652   0.671
 9271SOL    HW128712   1.262   6.684   0.690
 9271SOL    HW228713   1.390   6.604   0.751
 9272SOL     OW28714   2.575   4.317   6.577
 9272SOL    HW128715   2.614   4.406   6.556
 9272SOL    HW228716   2.623   4.277   6.655
 9273SOL     OW28717   4.416   5.294   4.217
 9273SOL    HW128718   4.368   5.299   4.304
 9273SOL    HW228719   4.414   5.200   4.182
 9274SOL     OW28720   5.297   2.144   6.551
 9274SOL    HW128721   5.333   2.064   6.599
 9274SOL    HW228722   5.313   2.226   6.605
 9275SOL     OW28723   0.716   0.921   6.170
 9275SOL    HW128724   0.685   0.926   6.075
 9275SOL    HW228725   0.769   0.838   6.184
 9276SOL     OW28726   3.612   5.761   4.588
 9276SOL    HW128727   3.586   5.684   4.530
 9276SOL    HW228728   3.650   5.834   4.532
 9277SOL     OW28729   3.608   3.346   6.713
 9277SOL    HW128730   3.671   3.352   6.789
 9277SOL    HW228731   3.539   3.418   6.720
 9278SOL     OW28732   1.154   1.926   4.031
 9278SOL    HW128733   1.178   1.972   4.117
 9278SOL    HW228734   1.208   1.966   3.956
 9279SOL     OW28735   3.671   0.541   2.082
 9279SOL    HW128736   3.763   0.562   2.114
 9279SOL    HW228737   3.633   0.465   2.135
 9280SOL     OW28738   1.587   0.012   3.595
 9280SOL    HW128739   1.680   7.014   3.626
 9280SOL    HW228740   1.522   6.975   3.643
 9281SOL     OW28741   1.976   2.811   0.931
 9281SOL    HW128742   1.936   2.903   0.930
 9281SOL    HW228743   2.064   2.814   0.980
 9282SOL     OW28744   4.457   1.480   4.035
 9282SOL    HW128745   4.392   1.541   4.082
 9282SOL    HW228746   4.541   1.474   4.087
 9283SOL     OW28747   6.334   2.483   2.670
 9283SOL    HW128748   6.303   2.538   2.747
 9283SOL    HW228749   6.398   2.537   2.615
 9284SOL     OW28750   3.784   3.657   0.980
 9284SOL    HW128751   3.713   3.719   0.946
 9284SOL    HW228752   3.741   3.575   1.016
 9285SOL     OW28753   6.464   2.747   0.106
 9285SOL    HW128754   6.490   2.653   0.127
 9285SOL    HW228755   6.533   2.789   0.049
 9286SOL     OW28756   5.820   0.201   5.309
 9286SOL    HW128757   5.727   0.170   5.294
 9286SOL    HW228758   5.819   0.286   5.362
 9287SOL     OW28759   2.940   5.943   1.523
 9287SOL    HW128760   2.948   5.863   1.584
 9287SOL    HW228761   2.952   5.914   1.428
 9288SOL     OW28762   4.037   2.067   5.838
 9288SOL    HW128763   3.944   2.098   5.823
 9288SOL    HW228764   4.069   2.099   5.928
 9289SOL     OW28765   5.157   2.318   2.368
 9289SOL    HW128766   5.133   2.237   2.315
 9289SOL    HW228767   5.100   2.395   2.339
 9290SOL     OW28768   4.108   2.003   5.044
 9290SOL    HW128769   4.110   2.038   5.137
 9290SOL    HW228770   4.038   2.052   4.992
 9291SOL     OW28771   1.424   0.620   4.957
 9291SOL    HW128772   1.461   0.694   4.901
 9291SOL    HW228773   1.377   0.554   4.899
 9292SOL     OW28774   6.934   3.359   6.149
 9292SOL    HW128775   7.001   3.402   6.210
 9292SOL    HW228776   6.977   3.282   6.102
 9293SOL     OW28777   5.240   4.437   0.234
 9293SOL    HW128778   5.273   4.532   0.242
 9293SOL    HW228779   5.230   4.398   0.325
 9294SOL     OW28780   4.403   6.086   0.327
 9294SOL    HW128781   4.490   6.037   0.340
 9294SOL    HW228782   4.338   6.057   0.399
 9295SOL     OW28783   4.241   1.674   2.915
 9295SOL    HW128784   4.207   1.581   2.931
 9295SOL    HW228785   4.202   1.709   2.830
 9296SOL     OW28786   6.445   6.384   5.921
 9296SOL    HW128787   6.360   6.436   5.928
 9296SOL    HW228788   6.522   6.442   5.946
 9297SOL     OW28789   0.518   0.770   1.625
 9297SOL    HW128790   0.603   0.776   1.677
 9297SOL    HW228791   0.463   0.852   1.642
 9298SOL     OW28792   1.781   6.070   5.353
 9298SOL    HW128793   1.799   5.986   5.405
 9298SOL    HW228794   1.831   6.146   5.395
 9299SOL     OW28795   1.521   3.508   3.962
 9299SOL    HW128796   1.501   3.540   4.054
 9299SOL    HW228797   1.560   3.416   3.966
 9300SOL     OW28798   6.037   4.571   5.289
 9300SOL    HW128799   6.098   4.650   5.289
 9300SOL    HW228800   5.956   4.591   5.344
 9301SOL     OW28801   4.987   4.373   2.758
 9301SOL    HW128802   5.039   4.426   2.691
 9301SOL    HW228803   4.932   4.304   2.710
 9302SOL     OW28804   2.651   2.487   3.454
 9302SOL    HW128805   2.565   2.483   3.505
 9302SOL    HW228806   2.634   2.528   3.365
 9303SOL     OW28807   3.841   6.215   0.202
 9303SOL    HW128808   3.904   6.292   0.209
 9303SOL    HW228809   3.874   6.139   0.258
 9304SOL     OW28810   3.201   4.283   0.806
 9304SOL    HW128811   3.277   4.241   0.856
 9304SOL    HW228812   3.141   4.212   0.771
 9305SOL     OW28813   5.768   2.588   2.128
 9305SOL    HW128814   5.719   2.587   2.041
 9305SOL    HW228815   5.818   2.502   2.140
 9306SOL     OW28816   0.231   4.934   4.164
 9306SOL    HW128817   0.291   4.892   4.231
 9306SOL    HW228818   0.186   5.014   4.205
 9307SOL     OW28819   1.082   1.957   0.807
 9307SOL    HW128820   0.997   2.002   0.835
 9307SOL    HW228821   1.103   1.883   0.872
 9308SOL     OW28822   0.515   3.321   1.089
 9308SOL    HW128823   0.575   3.261   1.036
 9308SOL    HW228824   0.425   3.278   1.099
 9309SOL     OW28825   4.281   3.934   5.606
 9309SOL    HW128826   4.266   4.029   5.582
 9309SOL    HW228827   4.304   3.928   5.704
 9310SOL     OW28828   4.020   6.375   6.291
 9310SOL    HW128829   4.114   6.359   6.322
 9310SOL    HW228830   3.992   6.468   6.315
 9311SOL     OW28831   5.412   4.049   0.575
 9311SOL    HW128832   5.363   3.964   0.596
 9311SOL    HW228833   5.416   4.106   0.657
 9312SOL     OW28834   1.218   4.102   6.691
 9312SOL    HW128835   1.316   4.091   6.710
 9312SOL    HW228836   1.200   4.082   6.595
 9313SOL     OW28837   0.030   0.310   2.684
 9313SOL    HW128838   7.017   0.398   2.715
 9313SOL    HW228839   6.977   0.244   2.679
 9314SOL     OW28840   4.293   5.674   0.092
 9314SOL    HW128841   4.196   5.668   0.067
 9314SOL    HW228842   4.345   5.609   0.038
 9315SOL     OW28843   0.307   0.596   5.553
 9315SOL    HW128844   0.289   0.625   5.459
 9315SOL    HW228845   0.231   0.625   5.612
 9316SOL     OW28846   3.717   5.616   3.983
 9316SOL    HW128847   3.793   5.626   3.919
 9316SOL    HW228848   3.742   5.657   4.071
 9317SOL     OW28849   6.148   5.076   3.163
 9317SOL    HW128850   6.173   4.982   3.138
 9317SOL    HW228851   6.108   5.122   3.083
 9318SOL     OW28852   0.271   0.534   6.612
 9318SOL    HW128853   0.258   0.469   6.686
 9318SOL    HW228854   0.183   0.571   6.583
 9319SOL     OW28855   0.928   3.156   6.701
 9319SOL    HW128856   0.857   3.169   6.631
 9319SOL    HW228857   0.914   3.223   6.774
 9320SOL     OW28858   4.309   2.590   6.278
 9320SOL    HW128859   4.373   2.537   6.335
 9320SOL    HW228860   4.230   2.617   6.333
 9321SOL     OW28861   6.366   6.490   3.100
 9321SOL    HW128862   6.274   6.527   3.087
 9321SOL    HW228863   6.360   6.404   3.150
 9322SOL     OW28864   0.533   6.195   5.713
 9322SOL    HW128865   0.621   6.164   5.748
 9322SOL    HW228866   0.461   6.136   5.749
 9323SOL     OW28867   0.238   1.381   6.609
 9323SOL    HW128868   0.189   1.298   6.636
 9323SOL    HW228869   0.293   1.362   6.527
 9324SOL     OW28870   0.954   5.287   0.565
 9324SOL    HW128871   1.004   5.310   0.482
 9324SOL    HW228872   0.932   5.190   0.566
 9325SOL     OW28873   5.657   1.548   1.116
 9325SOL    HW128874   5.756   1.540   1.131
 9325SOL    HW228875   5.639   1.585   1.025
 9326SOL     OW28876   2.203   7.012   1.122
 9326SOL    HW128877   2.187   0.069   1.062
 9326SOL    HW228878   2.158   0.006   1.210
 9327SOL     OW28879   4.545   0.038   2.734
 9327SOL    HW128880   4.553   0.082   2.645
 9327SOL    HW228881   4.489   0.095   2.795
 9328SOL     OW28882   3.546   1.359   0.154
 9328SOL    HW128883   3.581   1.272   0.188
 9328SOL    HW228884   3.622   1.421   0.137
 9329SOL     OW28885   0.086   3.780   2.790
 9329SOL    HW128886   0.148   3.835   2.733
 9329SOL    HW228887   0.054   3.835   2.867
 9330SOL     OW28888   6.396   0.158   0.428
 9330SOL    HW128889   6.314   0.101   0.427
 9330SOL    HW228890   6.376   0.244   0.475
 9331SOL     OW28891   0.542   0.689   6.850
 9331SOL    HW128892   0.520   0.771   6.797
 9331SOL    HW228893   0.566   0.716   6.944
 9332SOL     OW28894   3.056   3.945   4.438
 9332SOL    HW128895   3.128   3.995   4.487
 9332SOL    HW228896   3.006   3.887   4.502
 9333SOL     OW28897   6.330   4.317   1.032
 9333SOL    HW128898   6.332   4.414   1.007
 9333SOL    HW228899   6.424   4.282   1.039
 9334SOL     OW28900   3.063   0.324   3.807
 9334SOL    HW128901   2.969   0.338   3.776
 9334SOL    HW228902   3.124   0.385   3.756
 9335SOL     OW28903   1.794   1.023   6.472
 9335SOL    HW128904   1.815   1.037   6.375
 9335SOL    HW228905   1.749   1.105   6.508
 9336SOL     OW28906   2.949   6.561   5.948
 9336SOL    HW128907   2.906   6.503   5.880
 9336SOL    HW228908   2.878   6.603   6.006
 9337SOL     OW28909   5.534   0.432   2.293
 9337SOL    HW128910   5.511   0.446   2.390
 9337SOL    HW228911   5.595   0.505   2.263
 9338SOL     OW28912   3.590   0.442   2.860
 9338SOL    HW128913   3.618   0.346   2.853
 9338SOL    HW228914   3.662   0.495   2.905
 9339SOL     OW28915   4.839   6.151   1.507
 9339SOL    HW128916   4.895   6.111   1.579
 9339SOL    HW228917   4.873   6.242   1.484
 9340SOL     OW28918   5.779   3.373   6.127
 9340SOL    HW128919   5.722   3.321   6.064
 9340SOL    HW228920   5.875   3.352   6.109
 9341SOL     OW28921   0.736   5.517   6.828
 9341SOL    HW128922   0.754   5.525   6.730
 9341SOL    HW228923   0.806   5.459   6.870
 9342SOL     OW28924   1.297   0.281   5.590
 9342SOL    HW128925   1.354   0.221   5.646
 9342SOL    HW228926   1.222   0.318   5.645
 9343SOL     OW28927   6.280   5.368   4.908
 9343SOL    HW128928   6.220   5.415   4.973
 9343SOL    HW228929   6.334   5.436   4.858
 9344SOL     OW28930   5.568   6.243   1.390
 9344SOL    HW128931   5.586   6.329   1.343
 9344SOL    HW228932   5.636   6.175   1.361
 9345SOL     OW28933   6.872   2.654   1.222
 9345SOL    HW128934   6.948   2.628   1.161
 9345SOL    HW228935   6.909   2.703   1.301
 9346SOL     OW28936   6.406   0.679   1.252
 9346SOL    HW128937   6.426   0.659   1.348
 9346SOL    HW228938   6.310   0.707   1.243
 9347SOL     OW28939   1.535   6.414   1.495
 9347SOL    HW128940   1.471   6.342   1.470
 9347SOL    HW228941   1.600   6.380   1.563
 9348SOL     OW28942   2.569   5.550   0.144
 9348SOL    HW128943   2.661   5.520   0.120
 9348SOL    HW228944   2.561   5.649   0.131
 9349SOL     OW28945   0.992   6.673   2.678
 9349SOL    HW128946   0.936   6.607   2.728
 9349SOL    HW228947   1.030   6.740   2.743
 9350SOL     OW28948   0.597   2.637   5.805
 9350SOL    HW128949   0.650   2.591   5.734
 9350SOL    HW228950   0.515   2.583   5.825
 9351SOL     OW28951   3.689   2.388   7.021
 9351SOL    HW128952   3.698   2.330   0.080
 9351SOL    HW228953   3.593   2.390   6.992
 9352SOL     OW28954   2.956   4.589   6.949
 9352SOL    HW128955   2.884   4.519   6.952
 9352SOL    HW228956   2.925   4.670   6.998
 9353SOL     OW28957   0.232   6.229   1.554
 9353SOL    HW128958   0.180   6.162   1.606
 9353SOL    HW228959   0.177   6.312   1.542
 9354SOL     OW28960   6.163   2.471   0.135
 9354SOL    HW128961   6.148   2.536   0.060
 9354SOL    HW228962   6.191   2.383   0.097
 9355SOL     OW28963   0.596   1.924   5.202
 9355SOL    HW128964   0.504   1.885   5.215
 9355SOL    HW228965   0.656   1.855   5.163
 9356SOL     OW28966   4.814   6.821   2.055
 9356SOL    HW128967   4.735   6.823   2.116
 9356SOL    HW228968   4.862   6.734   2.064
 9357SOL     OW28969   0.646   2.171   6.940
 9357SOL    HW128970   0.711   2.236   6.978
 9357SOL    HW228971   0.614   2.111   7.014
 9358SOL     OW28972   1.503   3.428   2.346
 9358SOL    HW128973   1.442   3.352   2.368
 9358SOL    HW228974   1.588   3.418   2.398
 9359SOL     OW28975   1.699   6.621   6.180
 9359SOL    HW128976   1.645   6.537   6.186
 9359SOL    HW228977   1.750   6.634   6.265
 9360SOL     OW28978   0.552   0.619   5.934
 9360SOL    HW128979   0.528   0.597   5.839
 9360SOL    HW228980   0.571   0.717   5.941
 9361SOL     OW28981   2.105   5.813   4.319
 9361SOL    HW128982   2.170   5.818   4.394
 9361SOL    HW228983   2.154   5.816   4.231
 9362SOL     OW28984   2.013   0.410   2.400
 9362SOL    HW128985   2.005   0.423   2.499
 9362SOL    HW228986   1.948   0.469   2.353
 9363SOL     OW28987   3.124   5.078   2.446
 9363SOL    HW128988   3.194   5.063   2.376
 9363SOL    HW228989   3.160   5.052   2.535
 9364SOL     OW28990   1.413   2.145   1.245
 9364SOL    HW128991   1.380   2.052   1.259
 9364SOL    HW228992   1.412   2.167   1.147
 9365SOL     OW28993   3.198   2.066   4.652
 9365SOL    HW128994   3.296   2.046   4.642
 9365SOL    HW228995   3.145   1.992   4.611
 9366SOL     OW28996   3.627   5.754   0.167
 9366SOL    HW128997   3.607   5.725   0.073
 9366SOL    HW228998   3.552   5.811   0.201
 9367SOL     OW28999   6.351   0.660   1.539
 9367SOL    HW129000   6.258   0.644   1.572
 9367SOL    HW229001   6.409   0.691   1.614
 9368SOL     OW29002   3.519   0.791   2.838
 9368SOL    HW129003   3.582   0.868   2.828
 9368SOL    HW229004   3.537   0.724   2.765
 9369SOL     OW29005   2.131   5.379   6.509
 9369SOL    HW129006   2.155   5.419   6.421
 9369SOL    HW229007   2.211   5.332   6.547
 9370SOL     OW29008   4.683   1.900   4.002
 9370SOL    HW129009   4.610   1.969   3.993
 9370SOL    HW229010   4.757   1.922   3.939
 9371SOL     OW29011   4.507   5.935   1.607
 9371SOL    HW129012   4.428   5.993   1.588
 9371SOL    HW229013   4.489   5.879   1.687
 9372SOL     OW29014   5.167   6.427   1.550
 9372SOL    HW129015   5.135   6.417   1.644
 9372SOL    HW229016   5.089   6.425   1.488
 9373SOL     OW29017   6.998   1.293   0.268
 9373SOL    HW129018   0.036   1.357   0.219
 9373SOL    HW229019   0.021   1.204   0.274
 9374SOL     OW29020   0.655   5.491   5.750
 9374SOL    HW129021   0.629   5.411   5.697
 9374SOL    HW229022   0.651   5.572   5.691
 9375SOL     OW29023   0.320   0.981   0.077
 9375SOL    HW129024   0.301   0.974   0.175
 9375SOL    HW229025   0.297   1.072   0.044
 9376SOL     OW29026   2.395   4.250   1.815
 9376SOL    HW129027   2.318   4.248   1.750
 9376SOL    HW229028   2.480   4.263   1.765
 9377SOL     OW29029   2.428   6.759   2.956
 9377SOL    HW129030   2.527   6.767   2.942
 9377SOL    HW229031   2.410   6.694   3.030
 9378SOL     OW29032   2.852   0.781   3.654
 9378SOL    HW129033   2.779   0.713   3.645
 9378SOL    HW229034   2.863   0.829   3.567
 9379SOL     OW29035   4.066   6.301   4.932
 9379SOL    HW129036   3.969   6.276   4.936
 9379SOL    HW229037   4.110   6.281   5.019
 9380SOL     OW29038   5.127   5.537   0.233
 9380SOL    HW129039   5.147   5.635   0.221
 9380SOL    HW229040   5.048   5.513   0.177
 9381SOL     OW29041   5.276   1.902   4.419
 9381SOL    HW129042   5.181   1.874   4.435
 9381SOL    HW229043   5.279   1.963   4.339
 9382SOL     OW29044   2.871   0.243   4.762
 9382SOL    HW129045   2.806   0.169   4.778
 9382SOL    HW229046   2.824   0.331   4.767
 9383SOL     OW29047   5.098   4.231   3.244
 9383SOL    HW129048   5.155   4.217   3.164
 9383SOL    HW229049   5.059   4.323   3.241
 9384SOL     OW29050   2.107   0.606   2.083
 9384SOL    HW129051   2.156   0.568   2.162
 9384SOL    HW229052   2.129   0.552   2.002
 9385SOL     OW29053   3.683   1.781   3.200
 9385SOL    HW129054   3.691   1.724   3.282
 9385SOL    HW229055   3.692   1.723   3.119
 9386SOL     OW29056   4.558   6.328   6.379
 9386SOL    HW129057   4.529   6.273   6.300
 9386SOL    HW229058   4.554   6.272   6.462
 9387SOL     OW29059   2.693   2.192   0.191
 9387SOL    HW129060   2.786   2.210   0.223
 9387SOL    HW229061   2.640   2.277   0.195
 9388SOL     OW29062   2.444   6.975   4.487
 9388SOL    HW129063   2.525   6.961   4.430
 9388SOL    HW229064   2.400   6.887   4.505
 9389SOL     OW29065   2.618   4.371   1.704
 9389SOL    HW129066   2.548   4.432   1.741
 9389SOL    HW229067   2.707   4.396   1.741
 9390SOL     OW29068   5.281   5.170   5.182
 9390SOL    HW129069   5.244   5.263   5.185
 9390SOL    HW229070   5.206   5.104   5.172
 9391SOL     OW29071   1.515   5.560   4.718
 9391SOL    HW129072   1.577   5.507   4.660
 9391SOL    HW229073   1.553   5.567   4.810
 9392SOL     OW29074   5.527   4.249   2.705
 9392SOL    HW129075   5.428   4.257   2.714
 9392SOL    HW229076   5.569   4.339   2.718
 9393SOL     OW29077   2.617   0.126   6.209
 9393SOL    HW129078   2.592   0.117   6.305
 9393SOL    HW229079   2.712   0.155   6.202
 9394SOL     OW29080   4.014   0.494   0.724
 9394SOL    HW129081   3.961   0.569   0.764
 9394SOL    HW229082   3.960   0.410   0.726
 9395SOL     OW29083   1.708   1.545   0.776
 9395SOL    HW129084   1.739   1.629   0.731
 9395SOL    HW229085   1.752   1.536   0.865
 9396SOL     OW29086   0.502   6.526   6.474
 9396SOL    HW129087   0.528   6.430   6.476
 9396SOL    HW229088   0.402   6.534   6.481
 9397SOL     OW29089   3.700   1.330   5.727
 9397SOL    HW129090   3.659   1.249   5.769
 9397SOL    HW229091   3.707   1.403   5.795
 9398SOL     OW29092   0.343   1.589   6.759
 9398SOL    HW129093   0.315   1.514   6.699
 9398SOL    HW229094   0.269   1.656   6.766
 9399SOL     OW29095   1.729   2.906   4.171
 9399SOL    HW129096   1.723   2.960   4.087
 9399SOL    HW229097   1.817   2.923   4.215
 9400SOL     OW29098   5.937   1.411   0.714
 9400SOL    HW129099   5.932   1.454   0.625
 9400SOL    HW229100   5.864   1.343   0.723
 9401SOL     OW29101   0.327   2.210   3.161
 9401SOL    HW129102   0.302   2.256   3.076
 9401SOL    HW229103   0.324   2.111   3.147
 9402SOL     OW29104   1.785   6.385   3.972
 9402SOL    HW129105   1.788   6.342   3.882
 9402SOL    HW229106   1.712   6.343   4.026
 9403SOL     OW29107   6.346   2.709   2.259
 9403SOL    HW129108   6.263   2.671   2.217
 9403SOL    HW229109   6.356   2.805   2.230
 9404SOL     OW29110   1.908   2.628   0.759
 9404SOL    HW129111   1.899   2.671   0.669
 9404SOL    HW229112   1.920   2.698   0.829
 9405SOL     OW29113   0.527   5.943   5.115
 9405SOL    HW129114   0.441   5.987   5.090
 9405SOL    HW229115   0.508   5.859   5.166
 9406SOL     OW29116   0.042   3.112   0.323
 9406SOL    HW129117   0.025   3.150   0.414
 9406SOL    HW229118   0.106   3.172   0.274
 9407SOL     OW29119   1.004   5.482   5.204
 9407SOL    HW129120   0.989   5.407   5.140
 9407SOL    HW229121   1.095   5.474   5.245
 9408SOL     OW29122   0.299   3.771   4.805
 9408SOL    HW129123   0.361   3.746   4.730
 9408SOL    HW229124   0.250   3.689   4.837
 9409SOL     OW29125   6.825   5.252   2.560
 9409SOL    HW129126   6.837   5.212   2.651
 9409SOL    HW229127   6.740   5.217   2.519
 9410SOL     OW29128   3.735   0.856   1.014
 9410SOL    HW129129   3.656   0.916   1.030
 9410SOL    HW229130   3.818   0.911   1.011
 9411SOL     OW29131   3.158   3.238   3.034
 9411SOL    HW129132   3.153   3.159   2.972
 9411SOL    HW229133   3.236   3.294   3.008
 9412SOL     OW29134   5.938   6.207   0.742
 9412SOL    HW129135   5.966   6.266   0.818
 9412SOL    HW229136   6.009   6.139   0.724
 9413SOL     OW29137   4.758   4.224   2.611
 9413SOL    HW129138   4.797   4.133   2.599
 9413SOL    HW229139   4.718   4.255   2.525
 9414SOL     OW29140   1.756   2.141   3.509
 9414SOL    HW129141   1.670   2.168   3.465
 9414SOL    HW229142   1.779   2.207   3.580
 9415SOL     OW29143   4.023   1.003   2.442
 9415SOL    HW129144   3.958   0.980   2.515
 9415SOL    HW229145   4.054   1.097   2.454
 9416SOL     OW29146   5.776   4.882   6.070
 9416SOL    HW129147   5.754   4.835   5.984
 9416SOL    HW229148   5.874   4.903   6.072
 9417SOL     OW29149   3.747   5.643   2.248
 9417SOL    HW129150   3.739   5.713   2.177
 9417SOL    HW229151   3.659   5.629   2.293
 9418SOL     OW29152   3.251   1.809   5.032
 9418SOL    HW129153   3.305   1.890   5.056
 9418SOL    HW229154   3.164   1.838   4.993
 9419SOL     OW29155   1.767   3.226   6.288
 9419SOL    HW129156   1.668   3.221   6.276
 9419SOL    HW229157   1.789   3.234   6.385
 9420SOL     OW29158   6.595   3.991   6.683
 9420SOL    HW129159   6.525   3.973   6.614
 9420SOL    HW229160   6.577   4.079   6.727
 9421SOL     OW29161   3.596   6.574   5.934
 9421SOL    HW129162   3.539   6.496   5.959
 9421SOL    HW229163   3.688   6.541   5.912
 9422SOL     OW29164   2.387   6.143   4.685
 9422SOL    HW129165   2.400   6.231   4.730
 9422SOL    HW229166   2.321   6.152   4.611
 9423SOL     OW29167   4.682   4.684   3.192
 9423SOL    HW129168   4.733   4.710   3.109
 9423SOL    HW229169   4.661   4.766   3.245
 9424SOL     OW29170   6.159   0.007   4.502
 9424SOL    HW129171   6.204   0.096   4.513
 9424SOL    HW229172   6.072   0.008   4.551
 9425SOL     OW29173   6.789   4.645   0.908
 9425SOL    HW129174   6.753   4.737   0.917
 9425SOL    HW229175   6.874   4.637   0.961
 9426SOL     OW29176   0.149   2.182   6.399
 9426SOL    HW129177   0.072   2.149   6.453
 9426SOL    HW229178   0.234   2.146   6.436
 9427SOL     OW29179   4.975   5.069   2.535
 9427SOL    HW129180   4.950   5.042   2.628
 9427SOL    HW229181   4.893   5.074   2.478
 9428SOL     OW29182   6.860   6.252   5.159
 9428SOL    HW129183   6.888   6.161   5.188
 9428SOL    HW229184   6.902   6.320   5.220
 9429SOL     OW29185   2.595   2.398   4.186
 9429SOL    HW129186   2.590   2.420   4.089
 9429SOL    HW229187   2.607   2.482   4.239
 9430SOL     OW29188   1.349   2.361   4.708
 9430SOL    HW129189   1.384   2.268   4.702
 9430SOL    HW229190   1.404   2.413   4.774
 9431SOL     OW29191   0.572   4.828   5.759
 9431SOL    HW129192   0.553   4.890   5.834
 9431SOL    HW229193   0.606   4.741   5.795
 9432SOL     OW29194   6.788   1.695   3.681
 9432SOL    HW129195   6.851   1.711   3.605
 9432SOL    HW229196   6.728   1.618   3.660
 9433SOL     OW29197   4.918   5.347   2.127
 9433SOL    HW129198   4.856   5.350   2.049
 9433SOL    HW229199   5.004   5.391   2.103
 9434SOL     OW29200   4.751   5.318   3.979
 9434SOL    HW129201   4.801   5.306   4.064
 9434SOL    HW229202   4.669   5.373   3.995
 9435SOL     OW29203   0.267   3.068   1.914
 9435SOL    HW129204   0.333   3.125   1.865
 9435SOL    HW229205   0.176   3.084   1.876
 9436SOL     OW29206   2.083   0.342   2.949
 9436SOL    HW129207   2.050   0.317   2.858
 9436SOL    HW229208   2.009   0.332   3.015
 9437SOL     OW29209   5.656   6.732   4.867
 9437SOL    HW129210   5.708   6.714   4.950
 9437SOL    HW229211   5.709   6.790   4.806
 9438SOL     OW29212   4.862   6.818   2.569
 9438SOL    HW129213   4.822   6.890   2.512
 9438SOL    HW229214   4.911   6.753   2.510
 9439SOL     OW29215   1.517   3.084   0.534
 9439SOL    HW129216   1.449   3.158   0.532
 9439SOL    HW229217   1.535   3.053   0.441
 9440SOL     OW29218   2.580   5.166   3.450
 9440SOL    HW129219   2.533   5.141   3.365
 9440SOL    HW229220   2.558   5.100   3.521
 9441SOL     OW29221   0.455   6.372   4.476
 9441SOL    HW129222   0.510   6.448   4.441
 9441SOL    HW229223   0.503   6.286   4.459
 9442SOL     OW29224   5.105   3.040   0.711
 9442SOL    HW129225   5.181   2.999   0.762
 9442SOL    HW229226   5.056   2.969   0.662
 9443SOL     OW29227   2.239   4.618   2.821
 9443SOL    HW129228   2.284   4.530   2.805
 9443SOL    HW229229   2.307   4.691   2.816
 9444SOL     OW29230   1.012   4.485   5.784
 9444SOL    HW129231   1.072   4.519   5.856
 9444SOL    HW229232   0.943   4.425   5.825
 9445SOL     OW29233   0.974   1.243   3.792
 9445SOL    HW129234   1.069   1.213   3.805
 9445SOL    HW229235   0.971   1.315   3.723
 9446SOL     OW29236   6.434   4.815   3.545
 9446SOL    HW129237   6.412   4.726   3.506
 9446SOL    HW229238   6.412   4.887   3.479
 9447SOL     OW29239   4.914   4.444   1.900
 9447SOL    HW129240   4.902   4.348   1.927
 9447SOL    HW229241   5.011   4.463   1.889
 9448SOL     OW29242   6.171   0.965   5.043
 9448SOL    HW129243   6.118   1.013   5.113
 9448SOL    HW229244   6.213   1.032   4.982
 9449SOL     OW29245   5.283   0.448   1.382
 9449SOL    HW129246   5.284   0.352   1.411
 9449SOL    HW229247   5.204   0.464   1.323
 9450SOL     OW29248   1.033   5.694   3.033
 9450SOL    HW129249   1.106   5.763   3.039
 9450SOL    HW229250   1.046   5.626   3.106
 9451SOL     OW29251   3.265   5.471   6.259
 9451SOL    HW129252   3.222   5.387   6.228
 9451SOL    HW229253   3.269   5.473   6.359
 9452SOL     OW29254   6.038   3.918   0.009
 9452SOL    HW129255   6.069   3.908   6.936
 9452SOL    HW229256   5.984   3.838   0.034
 9453SOL     OW29257   4.916   5.175   1.538
 9453SOL    HW129258   4.889   5.087   1.577
 9453SOL    HW229259   5.011   5.193   1.561
 9454SOL     OW29260   5.791   4.420   0.366
 9454SOL    HW129261   5.763   4.403   0.272
 9454SOL    HW229262   5.742   4.500   0.401
 9455SOL     OW29263   3.688   1.327   2.004
 9455SOL    HW129264   3.758   1.337   1.934
 9455SOL    HW229265   3.663   1.418   2.039
 9456SOL     OW29266   0.503   3.027   2.198
 9456SOL    HW129267   0.443   3.105   2.217
 9456SOL    HW229268   0.481   2.988   2.109
 9457SOL     OW29269   6.658   6.273   4.542
 9457SOL    HW129270   6.579   6.332   4.528
 9457SOL    HW229271   6.695   6.287   4.634
 9458SOL     OW29272   6.391   3.727   0.144
 9458SOL    HW129273   6.470   3.722   0.206
 9458SOL    HW229274   6.326   3.795   0.178
 9459SOL     OW29275   4.792   4.996   5.546
 9459SOL    HW129276   4.742   4.951   5.619
 9459SOL    HW229277   4.803   4.933   5.469
 9460SOL     OW29278   1.744   2.590   2.693
 9460SOL    HW129279   1.686   2.539   2.630
 9460SOL    HW229280   1.829   2.615   2.646
 9461SOL     OW29281   1.601   1.928   2.347
 9461SOL    HW129282   1.541   1.858   2.309
 9461SOL    HW229283   1.581   2.016   2.304
 9462SOL     OW29284   0.446   1.199   4.412
 9462SOL    HW129285   0.377   1.242   4.353
 9462SOL    HW229286   0.470   1.262   4.486
 9463SOL     OW29287   5.773   5.260   1.472
 9463SOL    HW129288   5.828   5.330   1.425
 9463SOL    HW229289   5.726   5.204   1.404
 9464SOL     OW29290   0.919   1.341   2.066
 9464SOL    HW129291   0.913   1.339   1.967
 9464SOL    HW229292   0.998   1.396   2.094
 9465SOL     OW29293   6.965   4.248   1.348
 9465SOL    HW129294   0.004   4.309   1.298
 9465SOL    HW229295   6.870   4.271   1.327
 9466SOL     OW29296   4.156   4.691   5.778
 9466SOL    HW129297   4.219   4.758   5.819
 9466SOL    HW229298   4.088   4.664   5.846
 9467SOL     OW29299   2.018   3.726   0.464
 9467SOL    HW129300   2.096   3.663   0.471
 9467SOL    HW229301   1.935   3.673   0.447
 9468SOL     OW29302   6.604   1.403   0.533
 9468SOL    HW129303   6.560   1.414   0.623
 9468SOL    HW229304   6.558   1.461   0.466
 9469SOL     OW29305   0.688   6.561   1.368
 9469SOL    HW129306   0.728   6.512   1.445
 9469SOL    HW229307   0.637   6.497   1.311
 9470SOL     OW29308   3.540   3.471   0.993
 9470SOL    HW129309   3.530   3.570   0.979
 9470SOL    HW229310   3.578   3.430   0.911
 9471SOL     OW29311   6.265   3.392   4.994
 9471SOL    HW129312   6.211   3.312   4.968
 9471SOL    HW229313   6.329   3.414   4.920
 9472SOL     OW29314   1.343   2.987   6.588
 9472SOL    HW129315   1.265   2.930   6.611
 9472SOL    HW229316   1.380   2.959   6.499
 9473SOL     OW29317   2.540   4.101   0.775
 9473SOL    HW129318   2.525   4.143   0.686
 9473SOL    HW229319   2.635   4.069   0.782
 9474SOL     OW29320   5.530   2.852   0.458
 9474SOL    HW129321   5.469   2.923   0.423
 9474SOL    HW229322   5.625   2.879   0.445
 9475SOL     OW29323   5.050   3.802   6.415
 9475SOL    HW129324   5.008   3.845   6.495
 9475SOL    HW229325   5.148   3.824   6.413
 9476SOL     OW29326   3.989   4.305   6.651
 9476SOL    HW129327   3.916   4.364   6.617
 9476SOL    HW229328   4.070   4.360   6.672
 9477SOL     OW29329   1.675   4.369   0.431
 9477SOL    HW129330   1.691   4.468   0.437
 9477SOL    HW229331   1.757   4.324   0.394
 9478SOL     OW29332   5.330   3.323   0.087
 9478SOL    HW129333   5.404   3.257   0.105
 9478SOL    HW229334   5.271   3.329   0.167
 9479SOL     OW29335   4.277   0.661   2.473
 9479SOL    HW129336   4.370   0.659   2.436
 9479SOL    HW229337   4.216   0.705   2.407
 9480SOL     OW29338   6.506   0.937   0.875
 9480SOL    HW129339   6.548   0.913   0.788
 9480SOL    HW229340   6.499   1.037   0.882
 9481SOL     OW29341   4.082   0.034   3.946
 9481SOL    HW129342   4.052   6.990   3.877
 9481SOL    HW229343   4.164   0.081   3.915
 9482SOL     OW29344   6.689   6.123   6.853
 9482SOL    HW129345   6.755   6.131   6.928
 9482SOL    HW229346   6.606   6.077   6.886
 9483SOL     OW29347   6.546   6.847   0.117
 9483SOL    HW129348   6.473   6.839   0.049
 9483SOL    HW229349   6.576   6.942   0.123
 9484SOL     OW29350   4.005   5.631   4.640
 9484SOL    HW129351   3.951   5.619   4.556
 9484SOL    HW229352   4.048   5.721   4.639
 9485SOL     OW29353   0.359   0.913   0.388
 9485SOL    HW129354   0.340   1.010   0.403
 9485SOL    HW229355   0.453   0.901   0.357
 9486SOL     OW29356   5.385   5.857   0.389
 9486SOL    HW129357   5.340   5.820   0.308
 9486SOL    HW229358   5.319   5.910   0.443
 9487SOL     OW29359   3.465   2.870   3.084
 9487SOL    HW129360   3.445   2.775   3.111
 9487SOL    HW229361   3.515   2.871   2.998
 9488SOL     OW29362   1.678   0.645   0.662
 9488SOL    HW129363   1.687   0.607   0.754
 9488SOL    HW229364   1.624   0.729   0.666
 9489SOL     OW29365   5.525   3.133   0.113
 9489SOL    HW129366   5.512   3.047   0.063
 9489SOL    HW229367   5.621   3.141   0.142
 9490SOL     OW29368   5.505   3.613   4.550
 9490SOL    HW129369   5.540   3.580   4.463
 9490SOL    HW229370   5.436   3.549   4.584
 9491SOL     OW29371   5.484   6.083   2.817
 9491SOL    HW129372   5.453   6.177   2.802
 9491SOL    HW229373   5.441   6.023   2.749
 9492SOL     OW29374   4.908   3.093   4.087
 9492SOL    HW129375   4.817   3.098   4.046
 9492SOL    HW229376   4.977   3.110   4.017
 9493SOL     OW29377   4.300   6.194   1.693
 9493SOL    HW129378   4.375   6.213   1.757
 9493SOL    HW229379   4.332   6.210   1.599
 9494SOL     OW29380   5.605   2.226   2.102
 9494SOL    HW129381   5.695   2.270   2.106
 9494SOL    HW229382   5.535   2.295   2.086
 9495SOL     OW29383   6.995   1.986   1.861
 9495SOL    HW129384   6.984   1.934   1.946
 9495SOL    HW229385   0.015   1.929   1.792
 9496SOL     OW29386   5.388   2.347   2.505
 9496SOL    HW129387   5.297   2.382   2.481
 9496SOL    HW229388   5.388   2.247   2.499
 9497SOL     OW29389   4.830   4.576   4.995
 9497SOL    HW129390   4.869   4.640   4.928
 9497SOL    HW229391   4.738   4.549   4.966
 9498SOL     OW29392   0.898   5.423   3.764
 9498SOL    HW129393   0.872   5.491   3.696
 9498SOL    HW229394   0.946   5.468   3.839
 9499SOL     OW29395   6.482   5.932   4.920
 9499SOL    HW129396   6.416   5.873   4.874
 9499SOL    HW229397   6.564   5.940   4.864
 9500SOL     OW29398   4.087   2.143   0.586
 9500SOL    HW129399   4.024   2.142   0.663
 9500SOL    HW229400   4.102   2.237   0.556
 9501SOL     OW29401   2.296   3.516   5.284
 9501SOL    HW129402   2.211   3.481   5.245
 9501SOL    HW229403   2.284   3.612   5.310
 9502SOL     OW29404   5.068   4.558   4.653
 9502SOL    HW129405   5.073   4.580   4.556
 9502SOL    HW229406   5.036   4.638   4.704
 9503SOL     OW29407   6.963   1.979   0.057
 9503SOL    HW129408   6.961   2.008   0.152
 9503SOL    HW229409   7.002   2.052   0.001
 9504SOL     OW29410   5.851   5.198   2.034
 9504SOL    HW129411   5.854   5.261   1.957
 9504SOL    HW229412   5.852   5.104   2.001
 9505SOL     OW29413   3.840   5.678   5.416
 9505SOL    HW129414   3.804   5.640   5.501
 9505SOL    HW229415   3.881   5.767   5.433
 9506SOL     OW29416   3.080   1.028   1.307
 9506SOL    HW129417   3.030   1.112   1.286
 9506SOL    HW229418   3.086   1.016   1.406
 9507SOL     OW29419   5.264   0.048   2.106
 9507SOL    HW129420   5.307   0.108   2.173
 9507SOL    HW229421   5.167   0.040   2.125
 9508SOL     OW29422   4.916   1.628   2.995
 9508SOL    HW129423   4.957   1.710   3.035
 9508SOL    HW229424   4.842   1.594   3.054
 9509SOL     OW29425   5.334   0.267   3.209
 9509SOL    HW129426   5.264   0.240   3.275
 9509SOL    HW229427   5.402   0.324   3.255
 9510SOL     OW29428   1.100   2.842   3.963
 9510SOL    HW129429   1.006   2.860   3.990
 9510SOL    HW229430   1.125   2.748   3.989
 9511SOL     OW29431   1.106   1.390   0.650
 9511SOL    HW129432   1.051   1.306   0.653
 9511SOL    HW229433   1.111   1.424   0.556
 9512SOL     OW29434   6.202   1.993   1.122
 9512SOL    HW129435   6.125   1.931   1.109
 9512SOL    HW229436   6.268   1.951   1.185
 9513SOL     OW29437   3.985   4.890   5.501
 9513SOL    HW129438   3.993   4.813   5.563
 9513SOL    HW229439   3.922   4.867   5.426
 9514SOL     OW29440   3.577   3.099   6.874
 9514SOL    HW129441   3.562   3.177   6.814
 9514SOL    HW229442   3.660   3.051   6.848
 9515SOL     OW29443   0.801   5.501   3.017
 9515SOL    HW129444   0.869   5.496   3.090
 9515SOL    HW229445   0.769   5.409   2.994
 9516SOL     OW29446   6.903   4.252   0.155
 9516SOL    HW129447   6.947   4.201   0.229
 9516SOL    HW229448   6.868   4.188   0.087
 9517SOL     OW29449   0.713   5.080   0.793
 9517SOL    HW129450   0.716   4.990   0.836
 9517SOL    HW229451   0.763   5.077   0.706
 9518SOL     OW29452   0.997   1.226   0.390
 9518SOL    HW129453   0.936   1.305   0.390
 9518SOL    HW229454   0.971   1.163   0.463
 9519SOL     OW29455   1.109   3.309   5.278
 9519SOL    HW129456   1.056   3.299   5.362
 9519SOL    HW229457   1.203   3.278   5.293
 9520SOL     OW29458   3.902   7.021   1.623
 9520SOL    HW129459   3.807   7.008   1.652
 9520SOL    HW229460   3.959   0.016   1.704
 9521SOL     OW29461   5.441   5.141   3.878
 9521SOL    HW129462   5.503   5.070   3.843
 9521SOL    HW229463   5.460   5.228   3.831
 9522SOL     OW29464   3.349   5.600   0.948
 9522SOL    HW129465   3.418   5.608   0.875
 9522SOL    HW229466   3.293   5.519   0.932
 9523SOL     OW29467   3.492   6.088   5.129
 9523SOL    HW129468   3.483   6.089   5.229
 9523SOL    HW229469   3.401   6.092   5.088
 9524SOL     OW29470   4.758   2.852   0.904
 9524SOL    HW129471   4.686   2.829   0.970
 9524SOL    HW229472   4.773   2.951   0.904
 9525SOL     OW29473   3.278   0.505   5.965
 9525SOL    HW129474   3.210   0.522   6.036
 9525SOL    HW229475   3.324   0.418   5.983
 9526SOL     OW29476   5.514   5.336   2.189
 9526SOL    HW129477   5.470   5.268   2.248
 9526SOL    HW229478   5.496   5.428   2.224
 9527SOL     OW29479   6.069   2.024   1.812
 9527SOL    HW129480   6.025   2.090   1.750
 9527SOL    HW229481   6.151   1.987   1.768
 9528SOL     OW29482   6.583   0.729   2.209
 9528SOL    HW129483   6.553   0.779   2.128
 9528SOL    HW229484   6.638   0.790   2.267
 9529SOL     OW29485   0.852   3.583   4.899
 9529SOL    HW129486   0.890   3.518   4.964
 9529SOL    HW229487   0.893   3.673   4.914
 9530SOL     OW29488   1.653   2.417   4.580
 9530SOL    HW129489   1.733   2.470   4.607
 9530SOL    HW229490   1.619   2.366   4.660
 9531SOL     OW29491   2.840   6.090   3.542
 9531SOL    HW129492   2.762   6.036   3.573
 9531SOL    HW229493   2.863   6.065   3.448
 9532SOL     OW29494   2.403   1.249   1.520
 9532SOL    HW129495   2.329   1.290   1.572
 9532SOL    HW229496   2.481   1.231   1.580
 9533SOL     OW29497   1.963   0.103   5.129
 9533SOL    HW129498   1.951   0.004   5.139
 9533SOL    HW229499   1.877   0.149   5.151
 9534SOL     OW29500   4.796   1.835   4.917
 9534SOL    HW129501   4.755   1.903   4.979
 9534SOL    HW229502   4.856   1.882   4.853
 9535SOL     OW29503   2.195   2.174   5.373
 9535SOL    HW129504   2.157   2.186   5.465
 9535SOL    HW229505   2.295   2.181   5.377
 9536SOL     OW29506   3.102   6.909   6.408
 9536SOL    HW129507   3.194   6.870   6.419
 9536SOL    HW229508   3.036   6.836   6.394
 9537SOL     OW29509   2.971   6.758   1.029
 9537SOL    HW129510   2.910   6.834   1.050
 9537SOL    HW229511   3.043   6.753   1.098
 9538SOL     OW29512   5.831   3.372   3.801
 9538SOL    HW129513   5.846   3.448   3.864
 9538SOL    HW229514   5.759   3.396   3.736
 9539SOL     OW29515   0.532   5.249   0.912
 9539SOL    HW129516   0.627   5.225   0.892
 9539SOL    HW229517   0.477   5.166   0.913
 9540SOL     OW29518   5.167   3.721   4.993
 9540SOL    HW129519   5.149   3.652   4.923
 9540SOL    HW229520   5.167   3.678   5.083
 9541SOL     OW29521   1.050   1.964   3.501
 9541SOL    HW129522   1.005   1.981   3.588
 9541SOL    HW229523   1.014   2.027   3.432
 9542SOL     OW29524   5.085   3.880   4.771
 9542SOL    HW129525   5.091   3.839   4.862
 9542SOL    HW229526   5.129   3.819   4.704
 9543SOL     OW29527   5.193   1.913   1.971
 9543SOL    HW129528   5.286   1.911   2.007
 9543SOL    HW229529   5.162   2.008   1.965
 9544SOL     OW29530   3.380   1.602   2.345
 9544SOL    HW129531   3.398   1.699   2.327
 9544SOL    HW229532   3.415   1.578   2.436
 9545SOL     OW29533   0.266   0.195   4.285
 9545SOL    HW129534   0.304   0.132   4.217
 9545SOL    HW229535   0.339   0.255   4.318
 9546SOL     OW29536   2.343   4.373   1.402
 9546SOL    HW129537   2.354   4.471   1.385
 9546SOL    HW229538   2.287   4.360   1.484
 9547SOL     OW29539   6.575   5.799   2.985
 9547SOL    HW129540   6.668   5.811   3.019
 9547SOL    HW229541   6.560   5.703   2.961
 9548SOL     OW29542   4.908   6.398   2.625
 9548SOL    HW129543   4.895   6.344   2.708
 9548SOL    HW229544   4.876   6.345   2.546
 9549SOL     OW29545   2.824   5.529   0.681
 9549SOL    HW129546   2.876   5.532   0.596
 9549SOL    HW229547   2.733   5.491   0.664
 9550SOL     OW29548   1.113   1.889   0.335
 9550SOL    HW129549   1.158   1.813   0.288
 9550SOL    HW229550   1.018   1.864   0.353
 9551SOL     OW29551   2.284   6.134   5.212
 9551SOL    HW129552   2.243   6.155   5.300
 9551SOL    HW229553   2.221   6.161   5.139
 9552SOL     OW29554   1.280   5.365   3.629
 9552SOL    HW129555   1.253   5.279   3.587
 9552SOL    HW229556   1.295   5.434   3.557
 9553SOL     OW29557   5.344   4.627   5.419
 9553SOL    HW129558   5.306   4.543   5.381
 9553SOL    HW229559   5.270   4.686   5.451
 9554SOL     OW29560   2.391   1.028   2.185
 9554SOL    HW129561   2.382   0.998   2.090
 9554SOL    HW229562   2.349   0.959   2.245
 9555SOL     OW29563   6.437   2.306   6.689
 9555SOL    HW129564   6.452   2.213   6.721
 9555SOL    HW229565   6.430   2.369   6.767
 9556SOL     OW29566   6.754   1.934   1.038
 9556SOL    HW129567   6.830   1.870   1.050
 9556SOL    HW229568   6.755   2.002   1.112
 9557SOL     OW29569   5.587   2.442   1.611
 9557SOL    HW129570   5.635   2.355   1.612
 9557SOL    HW229571   5.559   2.466   1.704
 9558SOL     OW29572   6.414   4.500   2.015
 9558SOL    HW129573   6.483   4.557   2.059
 9558SOL    HW229574   6.457   4.443   1.945
 9559SOL     OW29575   6.589   2.922   2.369
 9559SOL    HW129576   6.502   2.917   2.320
 9559SOL    HW229577   6.578   2.976   2.452
 9560SOL     OW29578   3.138   1.789   4.257
 9560SOL    HW129579   3.068   1.779   4.187
 9560SOL    HW229580   3.094   1.791   4.347
 9561SOL     OW29581   4.040   0.061   0.783
 9561SOL    HW129582   3.995   0.142   0.821
 9561SOL    HW229583   3.994   7.001   0.817
 9562SOL     OW29584   5.874   5.458   3.403
 9562SOL    HW129585   5.852   5.374   3.453
 9562SOL    HW229586   5.796   5.486   3.348
 9563SOL     OW29587   0.348   5.448   7.006
 9563SOL    HW129588   0.351   5.484   6.912
 9563SOL    HW229589   0.436   5.467   0.028
 9564SOL     OW29590   2.546   0.126   6.881
 9564SOL    HW129591   2.602   0.124   6.964
 9564SOL    HW229592   2.580   0.196   6.819
 9565SOL     OW29593   4.245   6.171   4.243
 9565SOL    HW129594   4.333   6.186   4.198
 9565SOL    HW229595   4.174   6.224   4.196
 9566SOL     OW29596   3.314   4.801   5.151
 9566SOL    HW129597   3.263   4.742   5.214
 9566SOL    HW229598   3.252   4.834   5.080
 9567SOL     OW29599   6.259   5.855   5.567
 9567SOL    HW129600   6.236   5.951   5.582
 9567SOL    HW229601   6.176   5.801   5.563
 9568SOL     OW29602   5.425   3.477   6.376
 9568SOL    HW129603   5.348   3.497   6.316
 9568SOL    HW229604   5.422   3.537   6.456
 9569SOL     OW29605   5.873   0.184   1.450
 9569SOL    HW129606   5.784   0.145   1.428
 9569SOL    HW229607   5.869   0.227   1.541
 9570SOL     OW29608   0.678   0.270   6.581
 9570SOL    HW129609   0.764   0.247   6.625
 9570SOL    HW229610   0.642   0.355   6.619
 9571SOL     OW29611   2.163   3.191   6.837
 9571SOL    HW129612   2.175   3.137   6.754
 9571SOL    HW229613   2.223   3.156   6.909
 9572SOL     OW29614   0.615   4.193   0.956
 9572SOL    HW129615   0.562   4.208   1.040
 9572SOL    HW229616   0.554   4.193   0.877
 9573SOL     OW29617   6.303   1.926   1.709
 9573SOL    HW129618   6.390   1.942   1.661
 9573SOL    HW229619   6.275   1.831   1.696
 9574SOL     OW29620   2.376   2.018   4.480
 9574SOL    HW129621   2.279   2.010   4.456
 9574SOL    HW229622   2.411   2.106   4.450
 9575SOL     OW29623   4.783   0.754   2.425
 9575SOL    HW129624   4.798   0.670   2.373
 9575SOL    HW229625   4.851   0.760   2.499
 9576SOL     OW29626   3.972   1.350   4.877
 9576SOL    HW129627   4.057   1.393   4.909
 9576SOL    HW229628   3.930   1.299   4.952
 9577SOL     OW29629   0.506   6.053   3.032
 9577SOL    HW129630   0.551   6.109   3.101
 9577SOL    HW229631   0.419   6.020   3.066
 9578SOL     OW29632   6.033   3.647   2.348
 9578SOL    HW129633   5.950   3.687   2.387
 9578SOL    HW229634   6.066   3.705   2.273
 9579SOL     OW29635   1.126   6.413   2.915
 9579SOL    HW129636   1.220   6.393   2.888
 9579SOL    HW229637   1.064   6.389   2.840
 9580SOL     OW29638   4.274   3.834   6.348
 9580SOL    HW129639   4.268   3.743   6.389
 9580SOL    HW229640   4.200   3.891   6.384
 9581SOL     OW29641   1.659   5.270   6.103
 9581SOL    HW129642   1.692   5.340   6.166
 9581SOL    HW229643   1.693   5.289   6.011
 9582SOL     OW29644   4.727   4.669   4.403
 9582SOL    HW129645   4.748   4.583   4.356
 9582SOL    HW229646   4.800   4.736   4.385
 9583SOL     OW29647   2.436   4.530   1.830
 9583SOL    HW129648   2.382   4.451   1.859
 9583SOL    HW229649   2.472   4.577   1.910
 9584SOL     OW29650   5.490   5.578   6.956
 9584SOL    HW129651   5.553   5.589   6.880
 9584SOL    HW229652   5.483   5.481   6.980
 9585SOL     OW29653   0.365   6.983   3.404
 9585SOL    HW129654   0.329   0.007   3.323
 9585SOL    HW229655   0.326   6.891   3.409
 9586SOL     OW29656   5.227   3.060   2.586
 9586SOL    HW129657   5.177   2.990   2.535
 9586SOL    HW229658   5.213   3.047   2.684
 9587SOL     OW29659   4.732   6.633   2.762
 9587SOL    HW129660   4.753   6.706   2.697
 9587SOL    HW229661   4.817   6.593   2.796
 9588SOL     OW29662   6.853   0.527   3.171
 9588SOL    HW129663   6.918   0.601   3.156
 9588SOL    HW229664   6.901   0.447   3.207
 9589SOL     OW29665   2.441   1.770   5.736
 9589SOL    HW129666   2.384   1.707   5.789
 9589SOL    HW229667   2.537   1.740   5.740
 9590SOL     OW29668   0.188   4.526   4.622
 9590SOL    HW129669   0.234   4.456   4.677
 9590SOL    HW229670   0.167   4.490   4.532
 9591SOL     OW29671   1.372   4.434   2.519
 9591SOL    HW129672   1.403   4.345   2.485
 9591SOL    HW229673   1.364   4.498   2.442
 9592SOL     OW29674   5.258   5.416   2.050
 9592SOL    HW129675   5.283   5.319   2.060
 9592SOL    HW229676   5.302   5.453   1.968
 9593SOL     OW29677   1.816   3.072   4.439
 9593SOL    HW129678   1.717   3.059   4.439
 9593SOL    HW229679   1.857   3.014   4.369
 9594SOL     OW29680   6.161   6.655   1.973
 9594SOL    HW129681   6.209   6.605   1.900
 9594SOL    HW229682   6.200   6.747   1.980
 9595SOL     OW29683   1.198   4.249   4.341
 9595SOL    HW129684   1.143   4.295   4.410
 9595SOL    HW229685   1.276   4.203   4.385
 9596SOL     OW29686   4.990   5.507   2.621
 9596SOL    HW129687   4.927   5.553   2.559
 9596SOL    HW229688   4.938   5.452   2.687
 9597SOL     OW29689   1.566   4.163   0.958
 9597SOL    HW129690   1.480   4.169   0.908
 9597SOL    HW229691   1.643   4.162   0.893
 9598SOL     OW29692   1.076   5.609   5.598
 9598SOL    HW129693   1.158   5.554   5.604
 9598SOL    HW229694   1.095   5.693   5.547
 9599SOL     OW29695   4.841   1.493   4.008
 9599SOL    HW129696   4.794   1.423   3.954
 9599SOL    HW229697   4.919   1.529   3.957
 9600SOL     OW29698   1.637   6.078   7.007
 9600SOL    HW129699   1.667   6.015   0.057
 9600SOL    HW229700   1.688   6.059   6.923
 9601SOL     OW29701   0.715   5.997   6.078
 9601SOL    HW129702   0.691   5.984   5.982
 9601SOL    HW229703   0.815   5.999   6.087
 9602SOL     OW29704   1.163   5.974   0.313
 9602SOL    HW129705   1.107   5.927   0.245
 9602SOL    HW229706   1.225   6.038   0.267
 9603SOL     OW29707   1.106   4.917   3.406
 9603SOL    HW129708   1.192   4.893   3.361
 9603SOL    HW229709   1.124   4.983   3.479
 9604SOL     OW29710   6.597   0.299   0.313
 9604SOL    HW129711   6.565   0.204   0.319
 9604SOL    HW229712   6.655   0.320   0.392
 9605SOL     OW29713   2.333   5.857   6.988
 9605SOL    HW129714   2.407   5.853   6.921
 9605SOL    HW229715   2.282   5.771   6.986
 9606SOL     OW29716   6.213   0.302   5.313
 9606SOL    HW129717   6.286   0.237   5.333
 9606SOL    HW229718   6.245   0.367   5.243
 9607SOL     OW29719   0.681   2.722   2.538
 9607SOL    HW129720   0.769   2.747   2.579
 9607SOL    HW229721   0.609   2.726   2.607
 9608SOL     OW29722   6.458   0.385   3.089
 9608SOL    HW129723   6.459   0.290   3.119
 9608SOL    HW229724   6.387   0.435   3.138
 9609SOL     OW29725   1.608   2.384   3.018
 9609SOL    HW129726   1.559   2.433   2.946
 9609SOL    HW229727   1.701   2.419   3.025
 9610SOL     OW29728   3.175   2.195   6.233
 9610SOL    HW129729   3.252   2.151   6.280
 9610SOL    HW229730   3.187   2.186   6.134
 9611SOL     OW29731   6.273   6.139   0.998
 9611SOL    HW129732   6.309   6.047   0.983
 9611SOL    HW229733   6.174   6.138   0.989
 9612SOL     OW29734   4.855   3.653   2.931
 9612SOL    HW129735   4.827   3.745   2.904
 9612SOL    HW229736   4.828   3.636   3.025
 9613SOL     OW29737   6.045   6.689   5.419
 9613SOL    HW129738   5.990   6.745   5.480
 9613SOL    HW229739   6.101   6.748   5.360
 9614SOL     OW29740   3.440   2.990   1.885
 9614SOL    HW129741   3.447   3.042   1.800
 9614SOL    HW229742   3.408   3.049   1.958
 9615SOL     OW29743   0.378   6.496   3.652
 9615SOL    HW129744   0.472   6.512   3.681
 9615SOL    HW229745   0.367   6.400   3.627
 9616SOL     OW29746   2.036   3.367   1.284
 9616SOL    HW129747   1.991   3.333   1.367
 9616SOL    HW229748   2.135   3.362   1.296
 9617SOL     OW29749   0.721   3.505   2.553
 9617SOL    HW129750   0.790   3.460   2.609
 9617SOL    HW229751   0.754   3.595   2.524
 9618SOL     OW29752   3.929   4.950   0.539
 9618SOL    HW129753   3.844   4.897   0.541
 9618SOL    HW229754   3.924   5.017   0.465
 9619SOL     OW29755   1.748   6.631   1.011
 9619SOL    HW129756   1.728   6.533   1.021
 9619SOL    HW229757   1.809   6.660   1.084
 9620SOL     OW29758   3.949   2.051   6.942
 9620SOL    HW129759   3.867   2.103   6.917
 9620SOL    HW229760   3.928   1.953   6.937
 9621SOL     OW29761   0.795   2.207   2.216
 9621SOL    HW129762   0.735   2.206   2.296
 9621SOL    HW229763   0.765   2.278   2.152
 9622SOL     OW29764   0.107   6.195   5.740
 9622SOL    HW129765   0.050   6.215   5.661
 9622SOL    HW229766   0.058   6.218   5.824
 9623SOL     OW29767   4.550   6.968   6.146
 9623SOL    HW129768   4.558   6.869   6.151
 9623SOL    HW229769   4.620   7.004   6.084
 9624SOL     OW29770   4.944   5.149   5.034
 9624SOL    HW129771   4.859   5.105   5.006
 9624SOL    HW229772   5.001   5.084   5.084
 9625SOL     OW29773   4.929   3.958   5.910
 9625SOL    HW129774   4.942   4.052   5.942
 9625SOL    HW229775   4.954   3.894   5.983
 9626SOL     OW29776   2.252   2.361   6.672
 9626SOL    HW129777   2.188   2.354   6.595
 9626SOL    HW229778   2.325   2.294   6.660
 9627SOL     OW29779   0.351   5.179   0.162
 9627SOL    HW129780   0.354   5.194   0.261
 9627SOL    HW229781   0.360   5.267   0.115
 9628SOL     OW29782   6.333   1.072   6.558
 9628SOL    HW129783   6.383   1.156   6.536
 9628SOL    HW229784   6.290   1.036   6.475
 9629SOL     OW29785   0.296   5.595   3.782
 9629SOL    HW129786   0.379   5.559   3.739
 9629SOL    HW229787   0.301   5.581   3.881
 9630SOL     OW29788   5.956   0.732   5.366
 9630SOL    HW129789   5.895   0.810   5.384
 9630SOL    HW229790   5.992   0.738   5.273
 9631SOL     OW29791   3.517   6.449   0.702
 9631SOL    HW129792   3.558   6.396   0.776
 9631SOL    HW229793   3.532   6.547   0.718
 9632SOL     OW29794   3.413   5.485   2.576
 9632SOL    HW129795   3.316   5.500   2.599
 9632SOL    HW229796   3.427   5.389   2.553
 9633SOL     OW29797   3.682   3.452   3.083
 9633SOL    HW129798   3.751   3.428   3.015
 9633SOL    HW229799   3.639   3.369   3.117
 9634SOL     OW29800   5.743   4.968   3.185
 9634SOL    HW129801   5.820   4.980   3.248
 9634SOL    HW229802   5.664   5.020   3.217
 9635SOL     OW29803   1.243   5.408   3.899
 9635SOL    HW129804   1.244   5.363   3.810
 9635SOL    HW229805   1.253   5.507   3.887
 9636SOL     OW29806   5.194   3.754   4.042
 9636SOL    HW129807   5.277   3.799   4.009
 9636SOL    HW229808   5.113   3.798   4.003
 9637SOL     OW29809   1.682   3.088   0.148
 9637SOL    HW129810   1.654   3.109   0.054
 9637SOL    HW229811   1.764   3.140   0.170
 9638SOL     OW29812   5.374   5.815   5.811
 9638SOL    HW129813   5.307   5.749   5.776
 9638SOL    HW229814   5.464   5.773   5.815
 9639SOL     OW29815   4.250   1.699   1.679
 9639SOL    HW129816   4.292   1.770   1.622
 9639SOL    HW229817   4.318   1.660   1.740
 9640SOL     OW29818   4.294   0.506   3.072
 9640SOL    HW129819   4.277   0.457   3.157
 9640SOL    HW229820   4.373   0.567   3.084
 9641SOL     OW29821   6.558   3.682   3.378
 9641SOL    HW129822   6.505   3.733   3.446
 9641SOL    HW229823   6.629   3.628   3.425
 9642SOL     OW29824   0.870   0.187   4.488
 9642SOL    HW129825   0.919   0.183   4.401
 9642SOL    HW229826   0.793   0.123   4.487
 9643SOL     OW29827   4.917   5.251   4.226
 9643SOL    HW129828   4.835   5.210   4.266
 9643SOL    HW229829   4.933   5.341   4.266
 9644SOL     OW29830   1.443   5.631   4.130
 9644SOL    HW129831   1.520   5.683   4.165
 9644SOL    HW229832   1.466   5.590   4.042
 9645SOL     OW29833   0.764   4.663   6.314
 9645SOL    HW129834   0.808   4.703   6.395
 9645SOL    HW229835   0.720   4.577   6.339
 9646SOL     OW29836   4.523   5.297   6.233
 9646SOL    HW129837   4.597   5.342   6.283
 9646SOL    HW229838   4.447   5.280   6.295
 9647SOL     OW29839   6.338   6.396   3.618
 9647SOL    HW129840   6.257   6.449   3.642
 9647SOL    HW229841   6.400   6.392   3.697
 9648SOL     OW29842   4.304   2.002   0.786
 9648SOL    HW129843   4.210   2.038   0.788
 9648SOL    HW229844   4.368   2.078   0.773
 9649SOL     OW29845   1.062   5.531   0.116
 9649SOL    HW129846   1.030   5.524   0.022
 9649SOL    HW229847   1.159   5.509   0.121
 9650SOL     OW29848   0.223   4.588   4.342
 9650SOL    HW129849   0.238   4.660   4.409
 9650SOL    HW229850   0.162   4.621   4.270
 9651SOL     OW29851   4.156   1.537   0.222
 9651SOL    HW129852   4.193   1.569   0.310
 9651SOL    HW229853   4.147   1.614   0.160
 9652SOL     OW29854   0.414   4.168   0.775
 9652SOL    HW129855   0.398   4.144   0.679
 9652SOL    HW229856   0.332   4.211   0.812
 9653SOL     OW29857   4.582   4.112   6.024
 9653SOL    HW129858   4.510   4.109   5.955
 9653SOL    HW229859   4.556   4.177   6.096
 9654SOL     OW29860   3.484   3.631   3.011
 9654SOL    HW129861   3.450   3.711   3.061
 9654SOL    HW229862   3.571   3.602   3.050
 9655SOL     OW29863   4.338   1.164   1.082
 9655SOL    HW129864   4.245   1.188   1.109
 9655SOL    HW229865   4.356   1.198   0.990
 9656SOL     OW29866   5.908   3.885   6.757
 9656SOL    HW129867   5.859   3.962   6.716
 9656SOL    HW229868   5.874   3.871   6.850
 9657SOL     OW29869   5.416   3.899   3.979
 9657SOL    HW129870   5.395   3.957   4.057
 9657SOL    HW229871   5.501   3.849   3.996
 9658SOL     OW29872   4.759   1.949   2.228
 9658SOL    HW129873   4.742   1.963   2.325
 9658SOL    HW229874   4.752   1.852   2.205
 9659SOL     OW29875   2.603   3.005   6.671
 9659SOL    HW129876   2.682   2.956   6.634
 9659SOL    HW229877   2.519   2.968   6.631
 9660SOL     OW29878   1.605   6.397   2.019
 9660SOL    HW129879   1.635   6.472   1.961
 9660SOL    HW229880   1.588   6.316   1.963
 9661SOL     OW29881   4.421   3.980   0.871
 9661SOL    HW129882   4.513   3.991   0.834
 9661SOL    HW229883   4.419   4.011   0.966
 9662SOL     OW29884   5.624   5.760   5.996
 9662SOL    HW129885   5.562   5.752   6.074
 9662SOL    HW229886   5.681   5.841   6.007
 9663SOL     OW29887   0.831   5.279   2.413
 9663SOL    HW129888   0.922   5.292   2.372
 9663SOL    HW229889   0.835   5.296   2.511
 9664SOL     OW29890   4.774   4.810   2.360
 9664SOL    HW129891   4.862   4.808   2.313
 9664SOL    HW229892   4.705   4.850   2.299
 9665SOL     OW29893   6.865   5.730   6.380
 9665SOL    HW129894   6.768   5.756   6.385
 9665SOL    HW229895   6.921   5.813   6.371
 9666SOL     OW29896   5.730   4.066   6.658
 9666SOL    HW129897   5.653   4.046   6.597
 9666SOL    HW229898   5.802   4.112   6.606
 9667SOL     OW29899   5.796   6.032   6.312
 9667SOL    HW129900   5.716   6.086   6.286
 9667SOL    HW229901   5.772   5.935   6.312
 9668SOL     OW29902   1.073   0.705   5.859
 9668SOL    HW129903   0.996   0.707   5.923
 9668SOL    HW229904   1.118   0.615   5.864
 9669SOL     OW29905   3.358   0.501   0.183
 9669SOL    HW129906   3.298   0.580   0.177
 9669SOL    HW229907   3.359   0.467   0.277
 9670SOL     OW29908   0.021   0.054   0.156
 9670SOL    HW129909   6.975   7.012   0.192
 9670SOL    HW229910   7.001   0.113   0.087
 9671SOL     OW29911   1.332   5.215   6.456
 9671SOL    HW129912   1.388   5.284   6.502
 9671SOL    HW229913   1.264   5.179   6.521
 9672SOL     OW29914   1.014   3.552   3.952
 9672SOL    HW129915   0.975   3.460   3.946
 9672SOL    HW229916   1.086   3.552   4.022
 9673SOL     OW29917   2.391   3.176   0.260
 9673SOL    HW129918   2.429   3.260   0.300
 9673SOL    HW229919   2.327   3.135   0.324
 9674SOL     OW29920   2.462   6.319   3.976
 9674SOL    HW129921   2.444   6.253   3.903
 9674SOL    HW229922   2.521   6.277   4.045
 9675SOL     OW29923   6.056   3.213   6.400
 9675SOL    HW129924   6.129   3.222   6.468
 9675SOL    HW229925   5.981   3.273   6.424
 9676SOL     OW29926   0.889   2.514   0.001
 9676SOL    HW129927   0.904   2.601   0.048
 9676SOL    HW229928   0.898   2.528   6.925
 9677SOL     OW29929   6.841   5.581   1.733
 9677SOL    HW129930   6.938   5.604   1.725
 9677SOL    HW229931   6.830   5.506   1.798
 9678SOL     OW29932   3.424   3.348   5.470
 9678SOL    HW129933   3.477   3.434   5.474
 9678SOL    HW229934   3.328   3.369   5.452
 9679SOL     OW29935   1.880   1.363   4.285
 9679SOL    HW129936   1.955   1.297   4.284
 9679SOL    HW229937   1.899   1.434   4.353
 9680SOL     OW29938   4.925   6.574   2.037
 9680SOL    HW129939   5.010   6.544   1.992
 9680SOL    HW229940   4.915   6.526   2.124
 9681SOL     OW29941   1.245   1.883   1.926
 9681SOL    HW129942   1.249   1.798   1.979
 9681SOL    HW229943   1.151   1.918   1.926
 9682SOL     OW29944   4.961   6.039   5.652
 9682SOL    HW129945   4.913   6.006   5.571
 9682SOL    HW229946   5.005   6.126   5.631
 9683SOL     OW29947   2.922   5.872   2.998
 9683SOL    HW129948   2.896   5.910   2.909
 9683SOL    HW229949   2.926   5.773   2.992
 9684SOL     OW29950   7.018   3.438   5.650
 9684SOL    HW129951   0.071   3.493   5.614
 9684SOL    HW229952   0.027   3.344   5.664
 9685SOL     OW29953   3.702   4.184   1.077
 9685SOL    HW129954   3.724   4.282   1.083
 9685SOL    HW229955   3.657   4.155   1.161
 9686SOL     OW29956   6.265   1.518   5.016
 9686SOL    HW129957   6.203   1.533   5.093
 9686SOL    HW229958   6.211   1.518   4.931
 9687SOL     OW29959   5.690   1.244   3.009
 9687SOL    HW129960   5.713   1.154   2.970
 9687SOL    HW229961   5.774   1.298   3.019
 9688SOL     OW29962   1.109   5.083   1.265
 9688SOL    HW129963   1.098   5.045   1.357
 9688SOL    HW229964   1.206   5.104   1.250
 9689SOL     OW29965   2.362   6.162   0.854
 9689SOL    HW129966   2.347   6.248   0.806
 9689SOL    HW229967   2.458   6.136   0.847
 9690SOL     OW29968   6.722   4.772   4.951
 9690SOL    HW129969   6.795   4.741   5.011
 9690SOL    HW229970   6.636   4.778   5.002
 9691SOL     OW29971   2.824   3.659   1.700
 9691SOL    HW129972   2.814   3.672   1.601
 9691SOL    HW229973   2.909   3.701   1.731
 9692SOL     OW29974   4.967   4.448   0.816
 9692SOL    HW129975   5.015   4.454   0.904
 9692SOL    HW229976   5.034   4.440   0.742
 9693SOL     OW29977   4.992   2.906   5.283
 9693SOL    HW129978   5.013   2.944   5.193
 9693SOL    HW229979   4.954   2.979   5.342
 9694SOL     OW29980   2.640   0.203   1.826
 9694SOL    HW129981   2.621   0.271   1.755
 9694SOL    HW229982   2.703   0.242   1.894
 9695SOL     OW29983   0.897   2.777   3.036
 9695SOL    HW129984   0.900   2.693   2.982
 9695SOL    HW229985   0.834   2.842   2.993
 9696SOL     OW29986   4.823   2.888   3.606
 9696SOL    HW129987   4.908   2.890   3.657
 9696SOL    HW229988   4.803   2.980   3.571
 9697SOL     OW29989   0.273   6.766   0.953
 9697SOL    HW129990   0.339   6.733   0.885
 9697SOL    HW229991   0.280   6.712   1.036
 9698SOL     OW29992   6.303   3.580   1.450
 9698SOL    HW129993   6.293   3.657   1.387
 9698SOL    HW229994   6.213   3.553   1.485
 9699SOL     OW29995   1.275   6.236   0.657
 9699SOL    HW129996   1.309   6.219   0.750
 9699SOL    HW229997   1.344   6.208   0.591
 9700SOL     OW29998   5.516   0.294   5.463
 9700SOL    HW129999   5.505   0.354   5.383
 9700SOL    HW230000   5.571   0.341   5.532
 9701SOL     OW30001   4.296   4.117   6.838
 9701SOL    HW130002   4.245   4.037   6.869
 9701SOL    HW230003   4.340   4.096   6.751
 9702SOL     OW30004   3.645   3.480   2.105
 9702SOL    HW130005   3.681   3.426   2.029
 9702SOL    HW230006   3.552   3.452   2.125
 9703SOL     OW30007   6.331   4.447   4.616
 9703SOL    HW130008   6.240   4.449   4.657
 9703SOL    HW230009   6.373   4.538   4.624
 9704SOL     OW30010   1.238   3.983   2.896
 9704SOL    HW130011   1.284   4.003   2.810
 9704SOL    HW230012   1.286   3.908   2.942
 9705SOL     OW30013   6.455   3.215   5.454
 9705SOL    HW130014   6.402   3.264   5.385
 9705SOL    HW230015   6.408   3.219   5.542
 9706SOL     OW30016   0.522   1.313   2.594
 9706SOL    HW130017   0.584   1.243   2.628
 9706SOL    HW230018   0.564   1.361   2.517
 9707SOL     OW30019   1.560   5.040   2.322
 9707SOL    HW130020   1.497   5.118   2.325
 9707SOL    HW230021   1.614   5.037   2.406
 9708SOL     OW30022   2.582   0.700   1.656
 9708SOL    HW130023   2.555   0.689   1.560
 9708SOL    HW230024   2.611   0.613   1.693
 9709SOL     OW30025   5.677   2.172   1.645
 9709SOL    HW130026   5.611   2.132   1.708
 9709SOL    HW230027   5.656   2.143   1.551
 9710SOL     OW30028   6.821   5.601   4.143
 9710SOL    HW130029   6.861   5.681   4.188
 9710SOL    HW230030   6.879   5.573   4.067
 9711SOL     OW30031   3.295   0.754   0.755
 9711SOL    HW130032   3.201   0.737   0.786
 9711SOL    HW230033   3.358   0.693   0.803
 9712SOL     OW30034   5.406   1.582   6.724
 9712SOL    HW130035   5.392   1.496   6.773
 9712SOL    HW230036   5.469   1.640   6.776
 9713SOL     OW30037   0.912   6.568   3.045
 9713SOL    HW130038   0.955   6.599   3.130
 9713SOL    HW230039   0.976   6.510   2.994
 9714SOL     OW30040   2.479   4.506   4.344
 9714SOL    HW130041   2.440   4.450   4.417
 9714SOL    HW230042   2.458   4.465   4.256
 9715SOL     OW30043   6.914   3.584   0.149
 9715SOL    HW130044   6.899   3.491   0.114
 9715SOL    HW230045   6.958   3.579   0.239
 9716SOL     OW30046   2.095   5.340   0.221
 9716SOL    HW130047   2.082   5.247   0.255
 9716SOL    HW230048   2.182   5.346   0.172
 9717SOL     OW30049   4.002   2.352   5.589
 9717SOL    HW130050   3.942   2.295   5.533
 9717SOL    HW230051   3.960   2.365   5.679
 9718SOL     OW30052   4.085   2.694   6.388
 9718SOL    HW130053   4.013   2.717   6.323
 9718SOL    HW230054   4.118   2.777   6.432
 9719SOL     OW30055   4.783   6.996   6.012
 9719SOL    HW130056   4.827   6.909   5.993
 9719SOL    HW230057   4.853   0.045   6.021
 9720SOL     OW30058   2.167   3.180   3.183
 9720SOL    HW130059   2.223   3.190   3.264
 9720SOL    HW230060   2.150   3.270   3.142
 9721SOL     OW30061   0.803   1.105   0.193
 9721SOL    HW130062   0.787   1.200   0.168
 9721SOL    HW230063   0.900   1.082   0.179
 9722SOL     OW30064   4.028   2.710   5.375
 9722SOL    HW130065   4.084   2.675   5.300
 9722SOL    HW230066   4.026   2.810   5.372
 9723SOL     OW30067   6.379   0.169   4.822
 9723SOL    HW130068   6.441   0.135   4.752
 9723SOL    HW230069   6.392   0.268   4.833
 9724SOL     OW30070   1.554   5.464   0.108
 9724SOL    HW130071   1.467   5.510   0.094
 9724SOL    HW230072   1.622   5.498   0.043
 9725SOL     OW30073   4.029   5.186   4.542
 9725SOL    HW130074   4.051   5.207   4.446
 9725SOL    HW230075   3.954   5.244   4.572
 9726SOL     OW30076   0.081   1.194   3.586
 9726SOL    HW130077   0.143   1.135   3.637
 9726SOL    HW230078   0.062   1.153   3.497
 9727SOL     OW30079   0.435   1.476   1.036
 9727SOL    HW130080   0.384   1.390   1.039
 9727SOL    HW230081   0.375   1.549   1.003
 9728SOL     OW30082   4.772   1.855   4.589
 9728SOL    HW130083   4.711   1.808   4.653
 9728SOL    HW230084   4.824   1.925   4.639
 9729SOL     OW30085   0.387   4.905   2.745
 9729SOL    HW130086   0.322   4.955   2.803
 9729SOL    HW230087   0.403   4.956   2.661
 9730SOL     OW30088   1.129   4.046   3.169
 9730SOL    HW130089   1.187   4.054   3.088
 9730SOL    HW230090   1.051   4.107   3.161
 9731SOL     OW30091   5.349   3.486   1.839
 9731SOL    HW130092   5.367   3.569   1.785
 9731SOL    HW230093   5.425   3.469   1.901
 9732SOL     OW30094   1.664   3.462   3.208
 9732SOL    HW130095   1.715   3.410   3.139
 9732SOL    HW230096   1.727   3.495   3.278
 9733SOL     OW30097   5.829   4.921   2.034
 9733SOL    HW130098   5.829   4.872   2.122
 9733SOL    HW230099   5.894   4.877   1.972
 9734SOL     OW30100   5.171   5.731   6.469
 9734SOL    HW130101   5.092   5.790   6.486
 9734SOL    HW230102   5.250   5.763   6.520
 9735SOL     OW30103   0.501   2.449   1.027
 9735SOL    HW130104   0.550   2.478   1.110
 9735SOL    HW230105   0.559   2.386   0.975
 9736SOL     OW30106   5.101   1.394   4.694
 9736SOL    HW130107   5.144   1.322   4.639
 9736SOL    HW230108   5.047   1.353   4.767
 9737SOL     OW30109   5.753   3.118   2.771
 9737SOL    HW130110   5.708   3.067   2.698
 9737SOL    HW230111   5.803   3.196   2.732
 9738SOL     OW30112   2.644   6.651   1.924
 9738SOL    HW130113   2.545   6.639   1.918
 9738SOL    HW230114   2.673   6.723   1.862
 9739SOL     OW30115   5.841   6.801   0.296
 9739SOL    HW130116   5.914   6.844   0.242
 9739SOL    HW230117   5.835   6.704   0.273
 9740SOL     OW30118   6.150   0.641   3.423
 9740SOL    HW130119   6.117   0.608   3.511
 9740SOL    HW230120   6.074   0.647   3.358
 9741SOL     OW30121   2.396   1.790   4.344
 9741SOL    HW130122   2.389   1.714   4.408
 9741SOL    HW230123   2.400   1.876   4.396
 9742SOL     OW30124   3.782   2.102   6.224
 9742SOL    HW130125   3.764   2.027   6.288
 9742SOL    HW230126   3.737   2.185   6.256
 9743SOL     OW30127   5.298   3.468   4.629
 9743SOL    HW130128   5.247   3.391   4.592
 9743SOL    HW230129   5.285   3.472   4.728
 9744SOL     OW30130   1.778   1.599   3.218
 9744SOL    HW130131   1.778   1.499   3.218
 9744SOL    HW230132   1.869   1.632   3.245
 9745SOL     OW30133   6.803   0.611   6.247
 9745SOL    HW130134   6.760   0.522   6.263
 9745SOL    HW230135   6.732   0.680   6.231
 9746SOL     OW30136   4.274   5.140   6.155
 9746SOL    HW130137   4.316   5.229   6.137
 9746SOL    HW230138   4.306   5.073   6.088
 9747SOL     OW30139   2.141   1.542   2.955
 9747SOL    HW130140   2.112   1.634   2.979
 9747SOL    HW230141   2.220   1.517   3.011
 9748SOL     OW30142   1.111   0.791   3.463
 9748SOL    HW130143   1.114   0.695   3.493
 9748SOL    HW230144   1.162   0.848   3.527
 9749SOL     OW30145   6.836   0.756   1.903
 9749SOL    HW130146   6.852   0.687   1.973
 9749SOL    HW230147   6.893   0.736   1.823
 9750SOL     OW30148   6.194   3.249   4.039
 9750SOL    HW130149   6.218   3.323   3.977
 9750SOL    HW230150   6.172   3.167   3.987
 9751SOL     OW30151   3.637   6.991   1.686
 9751SOL    HW130152   3.566   6.992   1.615
 9751SOL    HW230153   3.617   0.039   1.754
 9752SOL     OW30154   3.114   3.434   6.764
 9752SOL    HW130155   3.068   3.408   6.679
 9752SOL    HW230156   3.059   3.503   6.811
 9753SOL     OW30157   6.660   6.146   5.036
 9753SOL    HW130158   6.625   6.153   4.943
 9753SOL    HW230159   6.729   6.216   5.051
 9754SOL     OW30160   3.092   0.747   1.749
 9754SOL    HW130161   3.156   0.670   1.741
 9754SOL    HW230162   3.116   0.801   1.830
 9755SOL     OW30163   2.705   4.288   0.474
 9755SOL    HW130164   2.724   4.216   0.408
 9755SOL    HW230165   2.616   4.329   0.454
 9756SOL     OW30166   5.653   0.185   5.789
 9756SOL    HW130167   5.749   0.180   5.764
 9756SOL    HW230168   5.622   0.280   5.779
 9757SOL     OW30169   5.258   4.351   4.171
 9757SOL    HW130170   5.238   4.353   4.073
 9757SOL    HW230171   5.356   4.339   4.185
 9758SOL     OW30172   2.203   0.399   1.936
 9758SOL    HW130173   2.193   0.439   1.845
 9758SOL    HW230174   2.250   0.311   1.928
 9759SOL     OW30175   6.947   0.940   1.574
 9759SOL    HW130176   6.987   0.996   1.502
 9759SOL    HW230177   6.850   0.926   1.556
 9760SOL     OW30178   5.164   1.264   6.869
 9760SOL    HW130179   5.140   1.330   6.797
 9760SOL    HW230180   5.083   1.243   6.923
 9761SOL     OW30181   1.549   1.998   0.790
 9761SOL    HW130182   1.453   2.015   0.811
 9761SOL    HW230183   1.589   1.940   0.861
 9762SOL     OW30184   2.547   2.051   5.789
 9762SOL    HW130185   2.487   1.971   5.797
 9762SOL    HW230186   2.513   2.112   5.718
 9763SOL     OW30187   6.401   1.233   1.108
 9763SOL    HW130188   6.410   1.139   1.143
 9763SOL    HW230189   6.320   1.239   1.050
 9764SOL     OW30190   0.038   2.281   2.569
 9764SOL    HW130191   6.972   2.296   2.614
 9764SOL    HW230192   0.090   2.366   2.568
 9765SOL     OW30193   6.980   0.400   2.199
 9765SOL    HW130194   6.962   0.496   2.179
 9765SOL    HW230195   0.038   0.393   2.260
 9766SOL     OW30196   1.893   1.980   4.160
 9766SOL    HW130197   1.987   1.947   4.157
 9766SOL    HW230198   1.830   1.905   4.136
 9767SOL     OW30199   2.310   2.305   5.784
 9767SOL    HW130200   2.372   2.352   5.845
 9767SOL    HW230201   2.359   2.277   5.701
 9768SOL     OW30202   5.608   3.007   0.801
 9768SOL    HW130203   5.521   2.977   0.760
 9768SOL    HW230204   5.651   3.075   0.742
 9769SOL     OW30205   3.678   1.681   5.461
 9769SOL    HW130206   3.695   1.619   5.538
 9769SOL    HW230207   3.684   1.776   5.493
 9770SOL     OW30208   2.378   2.578   6.330
 9770SOL    HW130209   2.424   2.637   6.264
 9770SOL    HW230210   2.282   2.568   6.306
 9771SOL     OW30211   2.631   0.002   2.113
 9771SOL    HW130212   2.557   6.971   2.073
 9771SOL    HW230213   2.688   6.965   2.170
 9772SOL     OW30214   1.414   0.256   1.116
 9772SOL    HW130215   1.408   0.341   1.064
 9772SOL    HW230216   1.460   0.187   1.060
 9773SOL     OW30217   5.458   4.826   1.934
 9773SOL    HW130218   5.503   4.903   1.978
 9773SOL    HW230219   5.434   4.851   1.840
 9774SOL     OW30220   1.143   4.695   5.107
 9774SOL    HW130221   1.127   4.757   5.183
 9774SOL    HW230222   1.097   4.607   5.125
 9775SOL     OW30223   2.509   1.387   3.582
 9775SOL    HW130224   2.566   1.368   3.502
 9775SOL    HW230225   2.421   1.341   3.573
 9776SOL     OW30226   2.304   5.378   0.426
 9776SOL    HW130227   2.214   5.354   0.390
 9776SOL    HW230228   2.326   5.472   0.401
 9777SOL     OW30229   4.511   1.111   5.986
 9777SOL    HW130230   4.556   1.198   5.966
 9777SOL    HW230231   4.447   1.089   5.912
 9778SOL     OW30232   0.106   3.874   4.069
 9778SOL    HW130233   0.122   3.872   3.971
 9778SOL    HW230234   0.055   3.793   4.097
 9779SOL     OW30235   2.190   0.829   3.807
 9779SOL    HW130236   2.219   0.748   3.755
 9779SOL    HW230237   2.114   0.873   3.759
 9780SOL     OW30238   0.976   2.700   1.986
 9780SOL    HW130239   0.889   2.672   1.946
 9780SOL    HW230240   1.049   2.639   1.954
 9781SOL     OW30241   2.346   2.413   3.203
 9781SOL    HW130242   2.326   2.341   3.137
 9781SOL    HW230243   2.344   2.376   3.295
 9782SOL     OW30244   6.873   2.560   0.828
 9782SOL    HW130245   6.793   2.546   0.886
 9782SOL    HW230246   6.947   2.501   0.859
 9783SOL     OW30247   3.605   0.758   3.106
 9783SOL    HW130248   3.696   0.798   3.095
 9783SOL    HW230249   3.556   0.761   3.019
 9784SOL     OW30250   1.231   1.162   6.377
 9784SOL    HW130251   1.201   1.250   6.414
 9784SOL    HW230252   1.158   1.095   6.384
 9785SOL     OW30253   6.981   3.324   4.937
 9785SOL    HW130254   6.971   3.224   4.942
 9785SOL    HW230255   6.932   3.358   4.857
 9786SOL     OW30256   2.134   3.879   0.272
 9786SOL    HW130257   2.063   3.821   0.312
 9786SOL    HW230258   2.171   3.940   0.343
 9787SOL     OW30259   2.923   3.704   3.374
 9787SOL    HW130260   2.988   3.719   3.299
 9787SOL    HW230261   2.879   3.615   3.363
 9788SOL     OW30262   4.437   0.313   2.172
 9788SOL    HW130263   4.447   0.334   2.269
 9788SOL    HW230264   4.479   0.225   2.152
 9789SOL     OW30265   3.922   1.523   6.886
 9789SOL    HW130266   3.844   1.472   6.850
 9789SOL    HW230267   3.987   1.460   6.929
 9790SOL     OW30268   0.151   4.936   3.913
 9790SOL    HW130269   0.205   4.955   3.995
 9790SOL    HW230270   0.212   4.927   3.834
 9791SOL     OW30271   0.949   6.490   1.047
 9791SOL    HW130272   0.949   6.548   0.965
 9791SOL    HW230273   0.909   6.540   1.123
 9792SOL     OW30274   3.959   6.428   0.788
 9792SOL    HW130275   3.948   6.332   0.812
 9792SOL    HW230276   3.875   6.461   0.744
 9793SOL     OW30277   5.589   0.381   3.466
 9793SOL    HW130278   5.531   0.449   3.421
 9793SOL    HW230279   5.634   0.325   3.396
 9794SOL     OW30280   4.535   4.574   4.617
 9794SOL    HW130281   4.520   4.531   4.528
 9794SOL    HW230282   4.554   4.671   4.605
 9795SOL     OW30283   2.069   3.434   3.134
 9795SOL    HW130284   2.095   3.527   3.161
 9795SOL    HW230285   2.042   3.434   3.038
 9796SOL     OW30286   4.123   3.640   3.716
 9796SOL    HW130287   4.100   3.588   3.634
 9796SOL    HW230288   4.204   3.695   3.700
 9797SOL     OW30289   2.786   5.393   0.080
 9797SOL    HW130290   2.721   5.361   0.011
 9797SOL    HW230291   2.847   5.318   0.105
 9798SOL     OW30292   0.527   3.858   0.293
 9798SOL    HW130293   0.454   3.809   0.245
 9798SOL    HW230294   0.576   3.794   0.353
 9799SOL     OW30295   2.699   0.245   6.509
 9799SOL    HW130296   2.751   0.312   6.456
 9799SOL    HW230297   2.685   0.280   6.602
 9800SOL     OW30298   6.638   4.026   5.153
 9800SOL    HW130299   6.631   3.952   5.219
 9800SOL    HW230300   6.591   4.000   5.068
 9801SOL     OW30301   6.280   6.250   6.741
 9801SOL    HW130302   6.231   6.250   6.653
 9801SOL    HW230303   6.354   6.316   6.737
 9802SOL     OW30304   3.602   4.814   0.082
 9802SOL    HW130305   3.648   4.725   0.080
 9802SOL    HW230306   3.607   4.852   0.175
 9803SOL     OW30307   1.047   3.709   6.496
 9803SOL    HW130308   0.975   3.778   6.503
 9803SOL    HW230309   1.105   3.729   6.416
 9804SOL     OW30310   0.058   6.173   2.629
 9804SOL    HW130311   0.053   6.214   2.721
 9804SOL    HW230312   0.106   6.236   2.568
 9805SOL     OW30313   0.697   6.153   3.908
 9805SOL    HW130314   0.663   6.060   3.893
 9805SOL    HW230315   0.721   6.194   3.820
 9806SOL     OW30316   3.881   1.775   6.961
 9806SOL    HW130317   3.782   1.779   6.946
 9806SOL    HW230318   3.909   1.680   6.972
 9807SOL     OW30319   3.247   3.355   1.971
 9807SOL    HW130320   3.259   3.454   1.967
 9807SOL    HW230321   3.153   3.333   1.994
 9808SOL     OW30322   4.196   6.003   2.570
 9808SOL    HW130323   4.116   5.964   2.524
 9808SOL    HW230324   4.222   6.088   2.525
 9809SOL     OW30325   0.285   3.190   1.192
 9809SOL    HW130326   0.291   3.213   1.289
 9809SOL    HW230327   0.307   3.093   1.179
 9810SOL     OW30328   2.393   2.256   0.011
 9810SOL    HW130329   2.441   2.253   0.099
 9810SOL    HW230330   2.379   2.163   6.999
 9811SOL     OW30331   5.905   3.591   4.161
 9811SOL    HW130332   5.899   3.664   4.229
 9811SOL    HW230333   5.936   3.507   4.205
 9812SOL     OW30334   3.540   6.293   5.598
 9812SOL    HW130335   3.619   6.316   5.655
 9812SOL    HW230336   3.474   6.242   5.653
 9813SOL     OW30337   5.160   1.184   1.820
 9813SOL    HW130338   5.120   1.110   1.768
 9813SOL    HW230339   5.247   1.211   1.779
 9814SOL     OW30340   5.445   1.444   0.472
 9814SOL    HW130341   5.467   1.526   0.419
 9814SOL    HW230342   5.524   1.382   0.473
 9815SOL     OW30343   4.270   2.358   4.790
 9815SOL    HW130344   4.236   2.279   4.739
 9815SOL    HW230345   4.210   2.375   4.868
 9816SOL     OW30346   1.956   0.063   6.950
 9816SOL    HW130347   1.962   0.157   6.916
 9816SOL    HW230348   2.009   0.054   0.012
 9817SOL     OW30349   6.575   7.003   3.324
 9817SOL    HW130350   6.644   0.014   3.389
 9817SOL    HW230351   6.602   6.913   3.290
 9818SOL     OW30352   6.177   2.969   4.212
 9818SOL    HW130353   6.167   3.029   4.133
 9818SOL    HW230354   6.092   2.918   4.227
 9819SOL     OW30355   4.077   0.791   3.263
 9819SOL    HW130356   4.093   0.770   3.359
 9819SOL    HW230357   4.130   0.871   3.237
 9820SOL     OW30358   4.363   3.573   6.034
 9820SOL    HW130359   4.289   3.570   5.967
 9820SOL    HW230360   4.371   3.666   6.071
 9821SOL     OW30361   6.324   5.464   0.189
 9821SOL    HW130362   6.292   5.369   0.185
 9821SOL    HW230363   6.277   5.518   0.119
 9822SOL     OW30364   0.499   6.927   2.656
 9822SOL    HW130365   0.503   7.000   2.724
 9822SOL    HW230366   0.419   6.870   2.672
 9823SOL     OW30367   3.452   1.190   2.029
 9823SOL    HW130368   3.529   1.248   2.004
 9823SOL    HW230369   3.371   1.219   1.979
 9824SOL     OW30370   1.504   4.166   5.835
 9824SOL    HW130371   1.562   4.117   5.770
 9824SOL    HW230372   1.445   4.101   5.883
 9825SOL     OW30373   3.942   5.231   5.275
 9825SOL    HW130374   4.007   5.213   5.201
 9825SOL    HW230375   3.860   5.174   5.262
 9826SOL     OW30376   4.057   0.402   5.951
 9826SOL    HW130377   4.116   0.343   6.006
 9826SOL    HW230378   4.112   0.472   5.906
 9827SOL     OW30379   0.844   3.967   4.582
 9827SOL    HW130380   0.829   3.872   4.609
 9827SOL    HW230381   0.831   3.976   4.483
 9828SOL     OW30382   3.783   2.933   6.760
 9828SOL    HW130383   3.857   2.955   6.696
 9828SOL    HW230384   3.778   2.834   6.772
 9829SOL     OW30385   2.585   5.449   0.655
 9829SOL    HW130386   2.553   5.389   0.727
 9829SOL    HW230387   2.593   5.397   0.569
 9830SOL     OW30388   6.041   1.343   1.590
 9830SOL    HW130389   5.962   1.359   1.531
 9830SOL    HW230390   6.042   1.410   1.663
 9831SOL     OW30391   6.229   6.515   1.742
 9831SOL    HW130392   6.181   6.450   1.683
 9831SOL    HW230393   6.292   6.569   1.686
 9832SOL     OW30394   4.554   5.234   1.751
 9832SOL    HW130395   4.454   5.227   1.754
 9832SOL    HW230396   4.589   5.181   1.674
 9833SOL     OW30397   3.488   3.603   5.272
 9833SOL    HW130398   3.486   3.702   5.279
 9833SOL    HW230399   3.403   3.571   5.230
 9834SOL     OW30400   0.771   3.644   4.647
 9834SOL    HW130401   0.833   3.608   4.577
 9834SOL    HW230402   0.815   3.639   4.737
 9835SOL     OW30403   4.662   1.657   4.150
 9835SOL    HW130404   4.729   1.601   4.101
 9835SOL    HW230405   4.682   1.754   4.136
 9836SOL     OW30406   4.885   4.748   3.368
 9836SOL    HW130407   4.852   4.658   3.339
 9836SOL    HW230408   4.981   4.741   3.394
 9837SOL     OW30409   2.737   6.458   4.368
 9837SOL    HW130410   2.693   6.546   4.389
 9837SOL    HW230411   2.830   6.457   4.407
 9838SOL     OW30412   0.978   5.965   5.884
 9838SOL    HW130413   0.895   5.976   5.831
 9838SOL    HW230414   1.018   5.875   5.867
 9839SOL     OW30415   0.323   1.521   1.386
 9839SOL    HW130416   0.365   1.582   1.454
 9839SOL    HW230417   0.325   1.427   1.420
 9840SOL     OW30418   6.627   0.468   1.111
 9840SOL    HW130419   6.689   0.457   1.033
 9840SOL    HW230420   6.579   0.556   1.103
 9841SOL     OW30421   1.764   3.794   4.529
 9841SOL    HW130422   1.740   3.739   4.609
 9841SOL    HW230423   1.853   3.836   4.544
 9842SOL     OW30424   2.910   3.324   2.541
 9842SOL    HW130425   2.818   3.356   2.562
 9842SOL    HW230426   2.966   3.327   2.624
 9843SOL     OW30427   6.741   2.562   1.693
 9843SOL    HW130428   6.776   2.591   1.782
 9843SOL    HW230429   6.738   2.462   1.690
 9844SOL     OW30430   5.728   0.255   2.338
 9844SOL    HW130431   5.643   0.295   2.306
 9844SOL    HW230432   5.735   0.266   2.437
 9845SOL     OW30433   1.481   2.155   3.404
 9845SOL    HW130434   1.459   2.188   3.312
 9845SOL    HW230435   1.417   2.083   3.430
 9846SOL     OW30436   2.966   3.681   2.991
 9846SOL    HW130437   3.027   3.699   3.068
 9846SOL    HW230438   2.951   3.766   2.939
 9847SOL     OW30439   1.697   3.883   6.046
 9847SOL    HW130440   1.634   3.850   5.976
 9847SOL    HW230441   1.700   3.818   6.122
 9848SOL     OW30442   4.619   2.992   0.050
 9848SOL    HW130443   4.666   3.023   0.133
 9848SOL    HW230444   4.663   3.032   6.992
 9849SOL     OW30445   6.654   0.145   6.057
 9849SOL    HW130446   6.642   0.233   6.104
 9849SOL    HW230447   6.576   0.086   6.078
 9850SOL     OW30448   3.900   6.462   2.060
 9850SOL    HW130449   3.954   6.533   2.015
 9850SOL    HW230450   3.857   6.500   2.143
 9851SOL     OW30451   5.381   1.513   5.535
 9851SOL    HW130452   5.315   1.578   5.572
 9851SOL    HW230453   5.358   1.492   5.440
 9852SOL     OW30454   4.729   1.765   3.685
 9852SOL    HW130455   4.664   1.841   3.690
 9852SOL    HW230456   4.692   1.694   3.625
 9853SOL     OW30457   5.847   3.691   2.855
 9853SOL    HW130458   5.844   3.769   2.793
 9853SOL    HW230459   5.940   3.654   2.858
 9854SOL     OW30460   5.811   5.156   4.601
 9854SOL    HW130461   5.882   5.187   4.663
 9854SOL    HW230462   5.838   5.070   4.557
 9855SOL     OW30463   1.428   3.845   1.794
 9855SOL    HW130464   1.514   3.801   1.821
 9855SOL    HW230465   1.355   3.776   1.789
 9856SOL     OW30466   3.448   3.450   0.529
 9856SOL    HW130467   3.423   3.464   0.433
 9856SOL    HW230468   3.440   3.354   0.552
 9857SOL     OW30469   5.536   3.369   3.193
 9857SOL    HW130470   5.635   3.370   3.207
 9857SOL    HW230471   5.514   3.400   3.101
 9858SOL     OW30472   5.595   0.591   1.983
 9858SOL    HW130473   5.639   0.651   1.916
 9858SOL    HW230474   5.650   0.589   2.066
 9859SOL     OW30475   6.447   1.060   2.355
 9859SOL    HW130476   6.477   0.999   2.429
 9859SOL    HW230477   6.526   1.085   2.299
 9860SOL     OW30478   0.830   0.690   2.485
 9860SOL    HW130479   0.730   0.683   2.493
 9860SOL    HW230480   0.863   0.763   2.545
 9861SOL     OW30481   4.223   5.895   4.343
 9861SOL    HW130482   4.270   5.978   4.313
 9861SOL    HW230483   4.189   5.907   4.436
 9862SOL     OW30484   1.847   2.283   0.670
 9862SOL    HW130485   1.921   2.322   0.724
 9862SOL    HW230486   1.760   2.301   0.714
 9863SOL     OW30487   3.198   0.166   3.036
 9863SOL    HW130488   3.161   0.259   3.032
 9863SOL    HW230489   3.279   0.165   3.093
 9864SOL     OW30490   4.778   5.937   2.848
 9864SOL    HW130491   4.861   5.895   2.811
 9864SOL    HW230492   4.802   6.022   2.895
 9865SOL     OW30493   0.851   0.291   3.615
 9865SOL    HW130494   0.829   0.327   3.706
 9865SOL    HW230495   0.932   0.232   3.621
 9866SOL     OW30496   4.919   3.741   4.384
 9866SOL    HW130497   5.019   3.735   4.385
 9866SOL    HW230498   4.880   3.649   4.391
 9867SOL     OW30499   5.076   1.506   0.680
 9867SOL    HW130500   5.082   1.416   0.724
 9867SOL    HW230501   4.981   1.535   0.677
 9868SOL     OW30502   6.800   4.586   6.883
 9868SOL    HW130503   6.768   4.552   6.971
 9868SOL    HW230504   6.826   4.509   6.825
 9869SOL     OW30505   2.163   4.008   3.198
 9869SOL    HW130506   2.201   4.094   3.164
 9869SOL    HW230507   2.073   4.024   3.237
 9870SOL     OW30508   4.593   4.401   2.441
 9870SOL    HW130509   4.557   4.387   2.349
 9870SOL    HW230510   4.535   4.467   2.489
 9871SOL     OW30511   2.260   0.674   5.606
 9871SOL    HW130512   2.241   0.736   5.529
 9871SOL    HW230513   2.287   0.585   5.572
 9872SOL     OW30514   2.897   4.806   3.259
 9872SOL    HW130515   2.814   4.859   3.243
 9872SOL    HW230516   2.888   4.757   3.346
 9873SOL     OW30517   1.751   2.643   0.501
 9873SOL    HW130518   1.706   2.639   0.411
 9873SOL    HW230519   1.806   2.561   0.514
 9874SOL     OW30520   0.484   2.715   3.417
 9874SOL    HW130521   0.388   2.690   3.407
 9874SOL    HW230522   0.514   2.766   3.336
 9875SOL     OW30523   0.535   0.684   2.454
 9875SOL    HW130524   0.532   0.772   2.501
 9875SOL    HW230525   0.524   0.699   2.355
 9876SOL     OW30526   6.434   6.888   2.772
 9876SOL    HW130527   6.474   6.880   2.863
 9876SOL    HW230528   6.363   6.818   2.760
 9877SOL     OW30529   3.322   6.891   2.730
 9877SOL    HW130530   3.288   6.974   2.773
 9877SOL    HW230531   3.422   6.896   2.722
 9878SOL     OW30532   1.493   5.753   5.557
 9878SOL    HW130533   1.487   5.719   5.463
 9878SOL    HW230534   1.561   5.700   5.607
 9879SOL     OW30535   4.213   5.437   5.010
 9879SOL    HW130536   4.191   5.343   5.033
 9879SOL    HW230537   4.164   5.499   5.071
 9880SOL     OW30538   1.088   2.161   5.869
 9880SOL    HW130539   1.167   2.220   5.852
 9880SOL    HW230540   1.074   2.100   5.791
 9881SOL     OW30541   0.544   1.953   5.866
 9881SOL    HW130542   0.616   1.940   5.934
 9881SOL    HW230543   0.464   1.995   5.910
 9882SOL     OW30544   1.248   2.274   3.887
 9882SOL    HW130545   1.339   2.302   3.855
 9882SOL    HW230546   1.183   2.282   3.812
 9883SOL     OW30547   1.567   0.640   1.717
 9883SOL    HW130548   1.648   0.588   1.744
 9883SOL    HW230549   1.493   0.577   1.694
 9884SOL     OW30550   4.175   0.581   3.753
 9884SOL    HW130551   4.121   0.553   3.832
 9884SOL    HW230552   4.271   0.560   3.769
 9885SOL     OW30553   5.906   4.627   4.626
 9885SOL    HW130554   5.818   4.652   4.668
 9885SOL    HW230555   5.891   4.602   4.530
 9886SOL     OW30556   1.337   4.879   2.557
 9886SOL    HW130557   1.352   4.976   2.576
 9886SOL    HW230558   1.287   4.838   2.632
 9887SOL     OW30559   3.611   1.595   6.990
 9887SOL    HW130560   3.673   1.578   0.044
 9887SOL    HW230561   3.607   1.693   6.972
 9888SOL     OW30562   6.973   3.815   0.331
 9888SOL    HW130563   6.894   3.779   0.381
 9888SOL    HW230564   0.024   3.836   0.395
 9889SOL     OW30565   6.223   5.052   0.526
 9889SOL    HW130566   6.150   5.041   0.459
 9889SOL    HW230567   6.311   5.031   0.484
 9890SOL     OW30568   1.462   2.689   1.159
 9890SOL    HW130569   1.428   2.740   1.081
 9890SOL    HW230570   1.555   2.656   1.140
 9891SOL     OW30571   5.874   2.668   0.359
 9891SOL    HW130572   5.793   2.619   0.392
 9891SOL    HW230573   5.865   2.687   0.262
 9892SOL     OW30574   6.616   4.798   0.054
 9892SOL    HW130575   6.701   4.774   0.101
 9892SOL    HW230576   6.540   4.796   0.119
 9893SOL     OW30577   2.171   0.890   1.070
 9893SOL    HW130578   2.080   0.887   1.030
 9893SOL    HW230579   2.228   0.820   1.028
 9894SOL     OW30580   1.285   1.627   0.463
 9894SOL    HW130581   1.349   1.693   0.502
 9894SOL    HW230582   1.246   1.664   0.378
 9895SOL     OW30583   5.601   3.404   4.807
 9895SOL    HW130584   5.637   3.397   4.714
 9895SOL    HW230585   5.640   3.484   4.853
 9896SOL     OW30586   6.425   0.145   0.025
 9896SOL    HW130587   6.417   0.073   6.978
 9896SOL    HW230588   6.345   0.142   0.085
 9897SOL     OW30589   5.785   5.227   3.472
 9897SOL    HW130590   5.847   5.149   3.468
 9897SOL    HW230591   5.696   5.201   3.437
 9898SOL     OW30592   3.199   6.456   5.535
 9898SOL    HW130593   3.132   6.442   5.462
 9898SOL    HW230594   3.187   6.548   5.574
 9899SOL     OW30595   0.710   5.211   0.217
 9899SOL    HW130596   0.697   5.303   0.180
 9899SOL    HW230597   0.807   5.195   0.233
 9900SOL     OW30598   1.558   4.277   3.504
 9900SOL    HW130599   1.545   4.260   3.406
 9900SOL    HW230600   1.471   4.265   3.552
 9901SOL     OW30601   2.523   2.516   5.594
 9901SOL    HW130602   2.593   2.478   5.654
 9901SOL    HW230603   2.567   2.555   5.513
 9902SOL     OW30604   2.534   4.758   6.495
 9902SOL    HW130605   2.435   4.769   6.498
 9902SOL    HW230606   2.572   4.824   6.431
 9903SOL     OW30607   4.981   1.787   3.410
 9903SOL    HW130608   5.011   1.696   3.378
 9903SOL    HW230609   5.018   1.803   3.501
 9904SOL     OW30610   0.076   3.451   6.354
 9904SOL    HW130611   0.117   3.542   6.363
 9904SOL    HW230612   0.015   3.434   6.432
 9905SOL     OW30613   4.250   1.347   0.625
 9905SOL    HW130614   4.326   1.299   0.580
 9905SOL    HW230615   4.179   1.366   0.559
 9906SOL     OW30616   3.781   2.947   2.633
 9906SOL    HW130617   3.827   3.001   2.563
 9906SOL    HW230618   3.706   2.895   2.592
 9907SOL     OW30619   0.244   0.716   2.013
 9907SOL    HW130620   0.310   0.660   1.962
 9907SOL    HW230621   0.260   0.812   1.993
 9908SOL     OW30622   4.904   2.478   2.902
 9908SOL    HW130623   4.848   2.558   2.877
 9908SOL    HW230624   4.845   2.409   2.944
 9909SOL     OW30625   3.436   6.411   3.947
 9909SOL    HW130626   3.395   6.367   4.027
 9909SOL    HW230627   3.374   6.482   3.912
 9910SOL     OW30628   0.998   4.563   2.390
 9910SOL    HW130629   1.067   4.560   2.317
 9910SOL    HW230630   1.012   4.487   2.453
 9911SOL     OW30631   4.196   6.870   2.070
 9911SOL    HW130632   4.191   6.970   2.071
 9911SOL    HW230633   4.218   6.837   2.162
 9912SOL     OW30634   4.792   1.970   0.821
 9912SOL    HW130635   4.769   2.067   0.815
 9912SOL    HW230636   4.768   1.924   0.736
 9913SOL     OW30637   5.800   3.156   6.823
 9913SOL    HW130638   5.856   3.093   6.876
 9913SOL    HW230639   5.705   3.151   6.854
 9914SOL     OW30640   0.629   2.587   4.761
 9914SOL    HW130641   0.718   2.602   4.719
 9914SOL    HW230642   0.559   2.581   4.690
 9915SOL     OW30643   4.710   0.875   3.350
 9915SOL    HW130644   4.717   0.936   3.429
 9915SOL    HW230645   4.679   0.785   3.381
 9916SOL     OW30646   2.426   2.664   2.227
 9916SOL    HW130647   2.384   2.579   2.259
 9916SOL    HW230648   2.481   2.703   2.301
 9917SOL     OW30649   6.639   4.279   6.397
 9917SOL    HW130650   6.735   4.304   6.393
 9917SOL    HW230651   6.597   4.317   6.479
 9918SOL     OW30652   3.965   1.474   3.123
 9918SOL    HW130653   4.046   1.444   3.074
 9918SOL    HW230654   3.974   1.571   3.146
 9919SOL     OW30655   6.256   6.727   1.565
 9919SOL    HW130656   6.252   6.749   1.468
 9919SOL    HW230657   6.165   6.705   1.599
 9920SOL     OW30658   5.053   1.320   2.731
 9920SOL    HW130659   5.149   1.297   2.749
 9920SOL    HW230660   5.045   1.417   2.711
 9921SOL     OW30661   4.439   5.418   5.735
 9921SOL    HW130662   4.442   5.403   5.834
 9921SOL    HW230663   4.343   5.422   5.705
 9922SOL     OW30664   1.159   5.626   6.866
 9922SOL    HW130665   1.142   5.580   6.780
 9922SOL    HW230666   1.143   5.724   6.856
 9923SOL     OW30667   4.719   5.120   6.751
 9923SOL    HW130668   4.743   5.044   6.690
 9923SOL    HW230669   4.639   5.095   6.806
 9924SOL     OW30670   0.012   3.067   5.246
 9924SOL    HW130671   0.109   3.074   5.222
 9924SOL    HW230672   0.001   3.078   5.345
 9925SOL     OW30673   5.924   2.631   4.261
 9925SOL    HW130674   5.941   2.659   4.355
 9925SOL    HW230675   5.838   2.579   4.256
 9926SOL     OW30676   2.604   4.068   6.998
 9926SOL    HW130677   2.655   4.098   0.057
 9926SOL    HW230678   2.530   4.007   0.003
 9927SOL     OW30679   6.413   0.290   2.802
 9927SOL    HW130680   6.393   0.263   2.895
 9927SOL    HW230681   6.378   0.222   2.738
 9928SOL     OW30682   4.918   4.753   1.082
 9928SOL    HW130683   4.859   4.803   1.019
 9928SOL    HW230684   4.876   4.752   1.173
 9929SOL     OW30685   2.053   5.713   4.973
 9929SOL    HW130686   2.141   5.693   4.930
 9929SOL    HW230687   2.026   5.636   5.032
 9930SOL     OW30688   6.870   0.057   4.521
 9930SOL    HW130689   6.831   6.989   4.536
 9930SOL    HW230690   6.873   0.077   4.423
 9931SOL     OW30691   1.034   4.459   5.170
 9931SOL    HW130692   0.971   4.489   5.243
 9931SOL    HW230693   1.045   4.359   5.175
 9932SOL     OW30694   1.099   6.573   6.319
 9932SOL    HW130695   1.016   6.622   6.346
 9932SOL    HW230696   1.178   6.634   6.326
 9933SOL     OW30697   1.776   5.411   2.825
 9933SOL    HW130698   1.840   5.391   2.750
 9933SOL    HW230699   1.825   5.459   2.898
 9934SOL     OW30700   5.810   2.063   5.538
 9934SOL    HW130701   5.776   2.083   5.446
 9934SOL    HW230702   5.733   2.054   5.600
 9935SOL     OW30703   2.268   1.036   0.166
 9935SOL    HW130704   2.226   0.945   0.165
 9935SOL    HW230705   2.364   1.028   0.139
 9936SOL     OW30706   0.520   4.618   5.133
 9936SOL    HW130707   0.515   4.610   5.232
 9936SOL    HW230708   0.508   4.714   5.107
 9937SOL     OW30709   6.164   2.044   5.853
 9937SOL    HW130710   6.118   2.120   5.808
 9937SOL    HW230711   6.248   2.023   5.803
 9938SOL     OW30712   0.245   6.003   3.140
 9938SOL    HW130713   0.241   5.915   3.186
 9938SOL    HW230714   0.156   6.023   3.098
 9939SOL     OW30715   3.272   2.687   1.086
 9939SOL    HW130716   3.315   2.756   1.028
 9939SOL    HW230717   3.173   2.697   1.083
 9940SOL     OW30718   0.133   0.388   1.375
 9940SOL    HW130719   0.054   0.329   1.391
 9940SOL    HW230720   0.203   0.337   1.324
 9941SOL     OW30721   2.883   3.993   5.272
 9941SOL    HW130722   2.856   4.090   5.272
 9941SOL    HW230723   2.802   3.936   5.269
 9942SOL     OW30724   2.029   5.726   2.537
 9942SOL    HW130725   2.085   5.759   2.461
 9942SOL    HW230726   2.046   5.782   2.618
 9943SOL     OW30727   0.611   5.759   6.241
 9943SOL    HW130728   0.523   5.793   6.275
 9943SOL    HW230729   0.650   5.826   6.178
 9944SOL     OW30730   1.904   4.538   6.505
 9944SOL    HW130731   1.810   4.539   6.468
 9944SOL    HW230732   1.911   4.468   6.576
 9945SOL     OW30733   6.933   5.523   0.363
 9945SOL    HW130734   6.858   5.461   0.340
 9945SOL    HW230735   6.945   5.590   0.289
 9946SOL     OW30736   4.869   1.186   4.792
 9946SOL    HW130737   4.817   1.130   4.857
 9946SOL    HW230738   4.806   1.235   4.732
 9947SOL     OW30739   6.423   4.407   5.789
 9947SOL    HW130740   6.388   4.383   5.879
 9947SOL    HW230741   6.349   4.404   5.722
 9948SOL     OW30742   4.683   4.271   5.008
 9948SOL    HW130743   4.609   4.334   4.984
 9948SOL    HW230744   4.734   4.247   4.925
 9949SOL     OW30745   5.591   4.519   3.698
 9949SOL    HW130746   5.533   4.578   3.641
 9949SOL    HW230747   5.560   4.525   3.793
 9950SOL     OW30748   5.026   6.014   5.128
 9950SOL    HW130749   4.978   5.964   5.056
 9950SOL    HW230750   4.977   6.098   5.149
 9951SOL     OW30751   5.619   2.117   3.385
 9951SOL    HW130752   5.616   2.133   3.286
 9951SOL    HW230753   5.612   2.019   3.403
 9952SOL     OW30754   6.452   4.146   0.690
 9952SOL    HW130755   6.401   4.233   0.695
 9952SOL    HW230756   6.512   4.139   0.769
 9953SOL     OW30757   6.572   1.883   3.634
 9953SOL    HW130758   6.649   1.832   3.597
 9953SOL    HW230759   6.552   1.851   3.727
 9954SOL     OW30760   6.037   0.148   5.138
 9954SOL    HW130761   6.103   0.204   5.187
 9954SOL    HW230762   5.948   0.153   5.183
 9955SOL     OW30763   6.844   4.823   4.453
 9955SOL    HW130764   6.846   4.738   4.402
 9955SOL    HW230765   6.751   4.839   4.487
 9956SOL     OW30766   2.053   6.984   2.315
 9956SOL    HW130767   2.137   0.015   2.321
 9956SOL    HW230768   2.064   6.898   2.365
 9957SOL     OW30769   6.349   5.325   3.577
 9957SOL    HW130770   6.337   5.425   3.577
 9957SOL    HW230771   6.331   5.289   3.486
 9958SOL     OW30772   2.944   4.324   0.946
 9958SOL    HW130773   2.859   4.367   0.913
 9958SOL    HW230774   3.016   4.336   0.877
 9959SOL     OW30775   3.903   3.674   6.353
 9959SOL    HW130776   3.948   3.687   6.265
 9959SOL    HW230777   3.953   3.722   6.424
 9960SOL     OW30778   7.004   1.175   3.051
 9960SOL    HW130779   7.009   1.078   3.025
 9960SOL    HW230780   0.074   1.213   3.057
 9961SOL     OW30781   2.005   5.550   4.230
 9961SOL    HW130782   2.023   5.639   4.272
 9961SOL    HW230783   1.939   5.560   4.156
 9962SOL     OW30784   5.474   6.276   4.913
 9962SOL    HW130785   5.397   6.339   4.903
 9962SOL    HW230786   5.554   6.325   4.946
 9963SOL     OW30787   3.810   1.731   1.056
 9963SOL    HW130788   3.754   1.777   0.987
 9963SOL    HW230789   3.779   1.637   1.068
 9964SOL     OW30790   4.377   5.627   4.456
 9964SOL    HW130791   4.326   5.713   4.448
 9964SOL    HW230792   4.325   5.554   4.412
 9965SOL     OW30793   3.881   0.069   6.925
 9965SOL    HW130794   3.821   0.136   6.881
 9965SOL    HW230795   3.957   0.116   6.969
 9966SOL     OW30796   1.281   5.270   2.071
 9966SOL    HW130797   1.325   5.355   2.099
 9966SOL    HW230798   1.268   5.211   2.150
 9967SOL     OW30799   1.673   5.723   1.618
 9967SOL    HW130800   1.610   5.679   1.553
 9967SOL    HW230801   1.740   5.656   1.650
 9968SOL     OW30802   4.082   3.840   1.984
 9968SOL    HW130803   4.076   3.742   2.001
 9968SOL    HW230804   4.155   3.879   2.040
 9969SOL     OW30805   1.353   3.614   2.220
 9969SOL    HW130806   1.394   3.527   2.247
 9969SOL    HW230807   1.317   3.661   2.300
 9970SOL     OW30808   6.064   4.577   2.027
 9970SOL    HW130809   6.143   4.632   1.997
 9970SOL    HW230810   6.019   4.537   1.947
 9971SOL     OW30811   1.885   4.209   0.417
 9971SOL    HW130812   1.884   4.129   0.477
 9971SOL    HW230813   1.979   4.236   0.398
 9972SOL     OW30814   6.603   4.742   3.019
 9972SOL    HW130815   6.686   4.738   2.964
 9972SOL    HW230816   6.607   4.821   3.080
 9973SOL     OW30817   6.195   1.015   4.358
 9973SOL    HW130818   6.118   1.050   4.411
 9973SOL    HW230819   6.268   0.986   4.420
 9974SOL     OW30820   1.421   0.474   3.703
 9974SOL    HW130821   1.491   0.478   3.632
 9974SOL    HW230822   1.361   0.396   3.686
 9975SOL     OW30823   6.980   2.841   0.357
 9975SOL    HW130824   0.015   2.923   0.364
 9975SOL    HW230825   0.008   2.763   0.395
 9976SOL     OW30826   1.290   0.014   5.476
 9976SOL    HW130827   1.223   6.975   5.517
 9976SOL    HW230828   1.264   0.109   5.493
 9977SOL     OW30829   6.116   4.510   4.758
 9977SOL    HW130830   6.080   4.493   4.850
 9977SOL    HW230831   6.044   4.550   4.702
 9978SOL     OW30832   0.445   2.710   4.125
 9978SOL    HW130833   0.530   2.706   4.176
 9978SOL    HW230834   0.374   2.658   4.173
 9979SOL     OW30835   6.151   3.552   4.766
 9979SOL    HW130836   6.137   3.565   4.865
 9979SOL    HW230837   6.217   3.619   4.733
 9980SOL     OW30838   3.344   0.618   6.534
 9980SOL    HW130839   3.422   0.657   6.486
 9980SOL    HW230840   3.294   0.557   6.473
 9981SOL     OW30841   2.833   2.047   4.022
 9981SOL    HW130842   2.872   2.135   4.047
 9981SOL    HW230843   2.755   2.061   3.962
 9982SOL     OW30844   0.226   6.270   4.230
 9982SOL    HW130845   0.247   6.315   4.142
 9982SOL    HW230846   0.217   6.172   4.216
 9983SOL     OW30847   0.168   1.349   2.135
 9983SOL    HW130848   0.171   1.449   2.139
 9983SOL    HW230849   0.074   1.318   2.147
 9984SOL     OW30850   3.015   1.671   6.531
 9984SOL    HW130851   3.009   1.584   6.580
 9984SOL    HW230852   2.925   1.715   6.532
 9985SOL     OW30853   1.572   1.151   1.741
 9985SOL    HW130854   1.652   1.091   1.748
 9985SOL    HW230855   1.517   1.124   1.662
 9986SOL     OW30856   5.414   3.789   5.008
 9986SOL    HW130857   5.319   3.764   4.991
 9986SOL    HW230858   5.463   3.796   4.921
 9987SOL     OW30859   6.425   3.744   6.262
 9987SOL    HW130860   6.458   3.790   6.180
 9987SOL    HW230861   6.496   3.683   6.297
 9988SOL     OW30862   6.603   6.683   5.380
 9988SOL    HW130863   6.606   6.705   5.478
 9988SOL    HW230864   6.660   6.748   5.330
 9989SOL     OW30865   0.277   3.089   5.239
 9989SOL    HW130866   0.335   3.119   5.162
 9989SOL    HW230867   0.310   3.131   5.323
 9990SOL     OW30868   0.963   4.566   2.966
 9990SOL    HW130869   0.924   4.497   2.905
 9990SOL    HW230870   0.994   4.521   3.050
 9991SOL     OW30871   3.139   2.045   4.122
 9991SOL    HW130872   3.129   1.948   4.143
 9991SOL    HW230873   3.156   2.096   4.206
 9992SOL     OW30874   6.290   5.736   6.365
 9992SOL    HW130875   6.268   5.802   6.294
 9992SOL    HW230876   6.294   5.782   6.454
 9993SOL     OW30877   1.368   1.567   1.613
 9993SOL    HW130878   1.334   1.661   1.619
 9993SOL    HW230879   1.426   1.547   1.692
 9994SOL     OW30880   5.810   4.624   3.587
 9994SOL    HW130881   5.730   4.581   3.629
 9994SOL    HW230882   5.878   4.645   3.657
 9995SOL     OW30883   5.883   0.928   4.696
 9995SOL    HW130884   5.926   0.841   4.669
 9995SOL    HW230885   5.895   0.943   4.794
 9996SOL     OW30886   3.255   4.854   6.763
 9996SOL    HW130887   3.349   4.821   6.763
 9996SOL    HW230888   3.212   4.834   6.851
 9997SOL     OW30889   2.189   0.159   5.323
 9997SOL    HW130890   2.103   0.169   5.274
 9997SOL    HW230891   2.260   0.127   5.261
 9998SOL     OW30892   5.845   5.790   5.762
 9998SOL    HW130893   5.856   5.815   5.858
 9998SOL    HW230894   5.758   5.744   5.749
 9999SOL     OW30895   6.294   2.521   5.488
 9999SOL    HW130896   6.290   2.615   5.522
 9999SOL    HW230897   6.237   2.513   5.406
10000SOL     OW30898   6.986   2.624   6.685
10000SOL    HW130899   6.903   2.585   6.727
10000SOL    HW230900   0.002   2.559   6.620
10001SOL     OW30901   4.611   0.325   2.774
10001SOL    HW130902   4.672   0.253   2.740
10001SOL    HW230903   4.665   0.393   2.824
10002SOL     OW30904   1.430   0.374   1.841
10002SOL    HW130905   1.473   0.296   1.887
10002SOL    HW230906   1.391   0.344   1.754
10003SOL     OW30907   3.845   1.694   3.598
10003SOL    HW130908   3.765   1.661   3.547
10003SOL    HW230909   3.835   1.793   3.614
10004SOL     OW30910   6.797   2.308   2.843
10004SOL    HW130911   6.771   2.381   2.906
10004SOL    HW230912   6.896   2.294   2.847
10005SOL     OW30913   4.488   6.484   3.875
10005SOL    HW130914   4.583   6.471   3.903
10005SOL    HW230915   4.438   6.533   3.947
10006SOL     OW30916   3.665   6.895   4.474
10006SOL    HW130917   3.648   6.814   4.529
10006SOL    HW230918   3.586   6.912   4.415
10007SOL     OW30919   0.308   3.644   4.400
10007SOL    HW130920   0.217   3.651   4.441
10007SOL    HW230921   0.378   3.659   4.470
10008SOL     OW30922   2.747   0.402   4.045
10008SOL    HW130923   2.836   0.406   3.999
10008SOL    HW230924   2.704   0.492   4.043
10009SOL     OW30925   1.327   4.302   1.669
10009SOL    HW130926   1.389   4.320   1.746
10009SOL    HW230927   1.288   4.389   1.637
10010SOL     OW30928   0.863   1.762   5.985
10010SOL    HW130929   0.857   1.861   5.989
10010SOL    HW230930   0.877   1.732   5.891
10011SOL     OW30931   6.791   6.815   5.781
10011SOL    HW130932   6.715   6.750   5.772
10011SOL    HW230933   6.766   6.901   5.736
10012SOL     OW30934   5.983   1.288   3.880
10012SOL    HW130935   5.929   1.357   3.832
10012SOL    HW230936   5.922   1.225   3.927
10013SOL     OW30937   0.584   0.900   2.656
10013SOL    HW130938   0.683   0.908   2.665
10013SOL    HW230939   0.543   0.889   2.747
10014SOL     OW30940   0.392   4.687   6.008
10014SOL    HW130941   0.391   4.659   6.104
10014SOL    HW230942   0.314   4.748   5.991
10015SOL     OW30943   1.837   4.104   0.180
10015SOL    HW130944   1.750   4.129   0.136
10015SOL    HW230945   1.841   4.143   0.272
10016SOL     OW30946   2.579   1.057   5.525
10016SOL    HW130947   2.577   1.032   5.428
10016SOL    HW230948   2.657   1.012   5.569
10017SOL     OW30949   1.717   2.400   4.333
10017SOL    HW130950   1.636   2.431   4.283
10017SOL    HW230951   1.697   2.396   4.430
10018SOL     OW30952   4.950   0.023   5.688
10018SOL    HW130953   5.004   6.992   5.622
10018SOL    HW230954   4.869   0.061   5.642
10019SOL     OW30955   1.136   0.819   3.197
10019SOL    HW130956   1.125   0.833   3.296
10019SOL    HW230957   1.230   0.838   3.171
10020SOL     OW30958   0.422   2.909   0.886
10020SOL    HW130959   0.451   2.817   0.861
10020SOL    HW230960   0.450   2.973   0.815
10021SOL     OW30961   0.267   3.655   0.849
10021SOL    HW130962   0.287   3.753   0.838
10021SOL    HW230963   0.333   3.601   0.797
10022SOL     OW30964   1.413   2.225   6.199
10022SOL    HW130965   1.451   2.283   6.127
10022SOL    HW230966   1.366   2.147   6.157
10023SOL     OW30967   0.046   3.584   0.971
10023SOL    HW130968   0.134   3.611   0.933
10023SOL    HW230969   0.058   3.504   1.029
10024SOL     OW30970   1.924   4.663   3.790
10024SOL    HW130971   1.992   4.626   3.727
10024SOL    HW230972   1.932   4.763   3.794
10025SOL     OW30973   1.400   0.863   0.671
10025SOL    HW130974   1.315   0.915   0.677
10025SOL    HW230975   1.468   0.917   0.621
10026SOL     OW30976   6.888   0.743   3.541
10026SOL    HW130977   6.800   0.705   3.511
10026SOL    HW230978   6.954   0.737   3.466
10027SOL     OW30979   4.709   2.901   5.212
10027SOL    HW130980   4.682   2.986   5.257
10027SOL    HW230981   4.787   2.861   5.260
10028SOL     OW30982   1.900   0.885   0.240
10028SOL    HW130983   1.808   0.882   0.201
10028SOL    HW230984   1.944   0.796   0.229
10029SOL     OW30985   5.808   1.686   3.765
10029SOL    HW130986   5.786   1.704   3.860
10029SOL    HW230987   5.887   1.741   3.738
10030SOL     OW30988   1.949   0.283   3.409
10030SOL    HW130989   1.854   0.304   3.433
10030SOL    HW230990   1.951   0.210   3.341
10031SOL     OW30991   5.981   4.650   3.837
10031SOL    HW130992   5.914   4.593   3.885
10031SOL    HW230993   6.073   4.613   3.853
10032SOL     OW30994   2.755   1.573   4.557
10032SOL    HW130995   2.682   1.518   4.519
10032SOL    HW230996   2.838   1.518   4.566
10033SOL     OW30997   5.711   2.967   4.879
10033SOL    HW130998   5.612   2.957   4.891
10033SOL    HW230999   5.735   3.064   4.880
10034SOL     OW31000   5.200   0.700   5.274
10034SOL    HW131001   5.179   0.604   5.253
10034SOL    HW231002   5.277   0.704   5.338
10035SOL     OW31003   0.508   5.822   1.840
10035SOL    HW131004   0.441   5.869   1.783
10035SOL    HW231005   0.463   5.786   1.922
10036SOL     OW31006   6.746   0.893   0.667
10036SOL    HW131007   6.720   0.979   0.624
10036SOL    HW231008   6.824   0.854   0.618
10037SOL     OW31009   0.875   6.714   0.014
10037SOL    HW131010   0.786   6.681   0.047
10037SOL    HW231011   0.871   6.729   6.938
10038SOL     OW31012   6.398   0.080   1.358
10038SOL    HW131013   6.423   0.133   1.277
10038SOL    HW231014   6.476   0.023   1.386
10039SOL     OW31015   3.425   0.374   3.567
10039SOL    HW131016   3.408   0.372   3.468
10039SOL    HW231017   3.463   0.463   3.593
10040SOL     OW31018   0.743   3.046   1.337
10040SOL    HW131019   0.798   3.040   1.420
10040SOL    HW231020   0.677   3.120   1.346
10041SOL     OW31021   2.182   5.850   0.254
10041SOL    HW131022   2.112   5.813   0.315
10041SOL    HW231023   2.201   5.784   0.181
10042SOL     OW31024   5.962   2.871   2.652
10042SOL    HW131025   5.871   2.864   2.612
10042SOL    HW231026   6.029   2.826   2.592
10043SOL     OW31027   0.263   1.767   4.981
10043SOL    HW131028   0.209   1.692   5.018
10043SOL    HW231029   0.273   1.756   4.882
10044SOL     OW31030   2.819   2.088   6.086
10044SOL    HW131031   2.813   2.002   6.036
10044SOL    HW231032   2.884   2.079   6.161
10045SOL     OW31033   3.422   1.015   0.744
10045SOL    HW131034   3.372   0.931   0.727
10045SOL    HW231035   3.358   1.091   0.753
10046SOL     OW31036   1.693   5.574   0.664
10046SOL    HW131037   1.617   5.517   0.694
10046SOL    HW231038   1.705   5.565   0.565
10047SOL     OW31039   0.691   3.544   1.040
10047SOL    HW131040   0.781   3.515   1.009
10047SOL    HW231041   0.642   3.466   1.079
10048SOL     OW31042   6.164   5.544   3.025
10048SOL    HW131043   6.108   5.471   2.984
10048SOL    HW231044   6.251   5.507   3.055
10049SOL     OW31045   6.930   0.570   5.606
10049SOL    HW131046   6.995   0.637   5.641
10049SOL    HW231047   6.951   0.480   5.645
10050SOL     OW31048   6.805   2.953   0.181
10050SOL    HW131049   6.864   2.898   0.239
10050SOL    HW231050   6.749   3.013   0.239
10051SOL     OW31051   2.250   2.943   3.695
10051SOL    HW131052   2.191   3.001   3.639
10051SOL    HW231053   2.342   2.940   3.655
10052SOL     OW31054   1.257   6.587   3.341
10052SOL    HW131055   1.233   6.528   3.417
10052SOL    HW231056   1.357   6.597   3.336
10053SOL     OW31057   5.823   5.299   5.091
10053SOL    HW131058   5.906   5.245   5.081
10053SOL    HW231059   5.781   5.313   5.001
10054SOL     OW31060   6.453   4.095   5.412
10054SOL    HW131061   6.509   4.071   5.333
10054SOL    HW231062   6.494   4.056   5.495
10055SOL     OW31063   0.904   1.599   0.116
10055SOL    HW131064   0.994   1.600   0.073
10055SOL    HW231065   0.905   1.655   0.199
10056SOL     OW31066   5.880   1.905   3.510
10056SOL    HW131067   5.892   1.951   3.598
10056SOL    HW231068   5.782   1.886   3.496
10057SOL     OW31069   6.076   5.170   5.182
10057SOL    HW131070   6.163   5.129   5.157
10057SOL    HW231071   6.024   5.107   5.239
10058SOL     OW31072   0.057   3.780   5.429
10058SOL    HW131073   0.124   3.778   5.503
10058SOL    HW231074   0.082   3.851   5.364
10059SOL     OW31075   6.108   0.968   6.963
10059SOL    HW131076   6.107   0.876   7.002
10059SOL    HW231077   6.104   1.035   0.014
10060SOL     OW31078   2.469   1.990   1.355
10060SOL    HW131079   2.512   2.079   1.342
10060SOL    HW231080   2.445   1.978   1.452
10061SOL     OW31081   3.941   6.859   3.177
10061SOL    HW131082   3.918   6.944   3.224
10061SOL    HW231083   3.899   6.782   3.225
10062SOL     OW31084   6.925   0.258   4.962
10062SOL    HW131085   6.879   0.258   4.873
10062SOL    HW231086   7.006   0.200   4.957
10063SOL     OW31087   2.403   2.366   5.302
10063SOL    HW131088   2.425   2.463   5.289
10063SOL    HW231089   2.386   2.323   5.214
10064SOL     OW31090   2.912   0.070   0.278
10064SOL    HW131091   2.920   0.095   0.374
10064SOL    HW231092   2.968   0.132   0.223
10065SOL     OW31093   0.642   1.839   1.902
10065SOL    HW131094   0.648   1.775   1.826
10065SOL    HW231095   0.645   1.933   1.867
10066SOL     OW31096   6.208   3.873   3.919
10066SOL    HW131097   6.187   3.786   3.965
10066SOL    HW231098   6.127   3.904   3.869
10067SOL     OW31099   6.706   3.451   5.737
10067SOL    HW131100   6.665   3.361   5.728
10067SOL    HW231101   6.788   3.456   5.680
10068SOL     OW31102   2.070   3.581   2.894
10068SOL    HW131103   2.083   3.565   2.796
10068SOL    HW231104   2.061   3.680   2.910
10069SOL     OW31105   2.938   5.232   0.611
10069SOL    HW131106   2.899   5.181   0.536
10069SOL    HW231107   2.885   5.215   0.695
10070SOL     OW31108   4.291   6.602   6.351
10070SOL    HW131109   4.308   6.692   6.310
10070SOL    HW231110   4.319   6.603   6.446
10071SOL     OW31111   5.664   0.013   4.294
10071SOL    HW131112   5.724   7.009   4.219
10071SOL    HW231113   5.609   6.956   4.322
10072SOL     OW31114   6.499   3.462   1.639
10072SOL    HW131115   6.421   3.483   1.581
10072SOL    HW231116   6.513   3.363   1.642
10073SOL     OW31117   5.723   4.725   4.854
10073SOL    HW131118   5.686   4.676   4.933
10073SOL    HW231119   5.647   4.751   4.794
10074SOL     OW31120   1.173   4.986   0.505
10074SOL    HW131121   1.219   4.936   0.579
10074SOL    HW231122   1.211   4.958   0.417
10075SOL     OW31123   1.551   3.129   2.165
10075SOL    HW131124   1.466   3.102   2.119
10075SOL    HW231125   1.579   3.220   2.134
10076SOL     OW31126   5.169   5.247   4.667
10076SOL    HW131127   5.180   5.302   4.750
10076SOL    HW231128   5.194   5.302   4.587
10077SOL     OW31129   5.397   3.687   6.549
10077SOL    HW131130   5.342   3.698   6.632
10077SOL    HW231131   5.384   3.766   6.490
10078SOL     OW31132   6.595   5.413   5.179
10078SOL    HW131133   6.587   5.427   5.277
10078SOL    HW231134   6.573   5.498   5.131
10079SOL     OW31135   5.114   3.193   3.915
10079SOL    HW131136   5.052   3.269   3.937
10079SOL    HW231137   5.088   3.154   3.827
10080SOL     OW31138   5.332   1.732   5.894
10080SOL    HW131139   5.333   1.637   5.864
10080SOL    HW231140   5.369   1.738   5.987
10081SOL     OW31141   1.412   4.237   0.756
10081SOL    HW131142   1.504   4.219   0.721
10081SOL    HW231143   1.408   4.328   0.796
10082SOL     OW31144   0.760   4.677   1.274
10082SOL    HW131145   0.801   4.767   1.260
10082SOL    HW231146   0.739   4.636   1.185
10083SOL     OW31147   3.292   5.381   2.911
10083SOL    HW131148   3.315   5.477   2.894
10083SOL    HW231149   3.230   5.348   2.839
10084SOL     OW31150   1.057   1.081   5.108
10084SOL    HW131151   1.005   1.054   5.189
10084SOL    HW231152   1.089   0.999   5.061
10085SOL     OW31153   5.050   0.353   0.619
10085SOL    HW131154   5.095   0.433   0.580
10085SOL    HW231155   5.028   0.288   0.547
10086SOL     OW31156   5.123   6.627   3.621
10086SOL    HW131157   5.144   6.535   3.655
10086SOL    HW231158   5.025   6.646   3.633
10087SOL     OW31159   1.232   6.025   5.368
10087SOL    HW131160   1.246   6.041   5.270
10087SOL    HW231161   1.321   6.022   5.414
10088SOL     OW31162   6.594   3.204   1.606
10088SOL    HW131163   6.545   3.163   1.529
10088SOL    HW231164   6.600   3.138   1.681
10089SOL     OW31165   3.330   0.728   1.139
10089SOL    HW131166   3.311   0.815   1.183
10089SOL    HW231167   3.297   0.654   1.198
10090SOL     OW31168   2.483   6.375   2.753
10090SOL    HW131169   2.394   6.386   2.709
10090SOL    HW231170   2.491   6.283   2.791
10091SOL     OW31171   6.260   4.726   5.586
10091SOL    HW131172   6.247   4.632   5.616
10091SOL    HW231173   6.330   4.769   5.644
10092SOL     OW31174   1.122   2.649   4.252
10092SOL    HW131175   1.154   2.743   4.256
10092SOL    HW231176   1.150   2.600   4.335
10093SOL     OW31177   4.670   4.649   6.149
10093SOL    HW131178   4.740   4.636   6.220
10093SOL    HW231179   4.643   4.560   6.113
10094SOL     OW31180   3.864   1.662   1.491
10094SOL    HW131181   3.921   1.668   1.409
10094SOL    HW231182   3.903   1.719   1.563
10095SOL     OW31183   4.112   3.024   5.661
10095SOL    HW131184   4.103   3.006   5.564
10095SOL    HW231185   4.047   3.095   5.688
10096SOL     OW31186   6.641   3.436   1.881
10096SOL    HW131187   6.590   3.383   1.948
10096SOL    HW231188   6.593   3.436   1.793
10097SOL     OW31189   0.306   1.122   0.580
10097SOL    HW131190   0.392   1.116   0.632
10097SOL    HW231191   0.232   1.146   0.642
10098SOL     OW31192   2.573   5.399   3.952
10098SOL    HW131193   2.575   5.393   3.852
10098SOL    HW231194   2.499   5.460   3.980
10099SOL     OW31195   0.446   5.033   2.020
10099SOL    HW131196   0.483   4.942   1.999
10099SOL    HW231197   0.489   5.101   1.961
10100SOL     OW31198   5.497   5.047   4.215
10100SOL    HW131199   5.430   5.080   4.281
10100SOL    HW231200   5.478   5.088   4.126
10101SOL     OW31201   6.975   3.102   0.990
10101SOL    HW131202   6.921   3.021   1.014
10101SOL    HW231203   6.917   3.168   0.941
10102SOL     OW31204   0.232   5.235   3.467
10102SOL    HW131205   0.153   5.255   3.410
10102SOL    HW231206   0.204   5.233   3.563
10103SOL     OW31207   0.184   5.669   6.710
10103SOL    HW131208   0.275   5.654   6.748
10103SOL    HW231209   0.125   5.592   6.735
10104SOL     OW31210   2.493   0.601   4.885
10104SOL    HW131211   2.467   0.636   4.796
10104SOL    HW231212   2.593   0.608   4.896
10105SOL     OW31213   3.306   1.589   4.928
10105SOL    HW131214   3.334   1.523   4.997
10105SOL    HW231215   3.262   1.667   4.972
10106SOL     OW31216   5.405   4.492   1.387
10106SOL    HW131217   5.391   4.526   1.294
10106SOL    HW231218   5.503   4.488   1.406
10107SOL     OW31219   5.733   5.066   0.411
10107SOL    HW131220   5.744   5.108   0.321
10107SOL    HW231221   5.814   5.085   0.466
10108SOL     OW31222   1.986   2.291   5.921
10108SOL    HW131223   2.029   2.250   5.841
10108SOL    HW231224   2.057   2.314   5.988
10109SOL     OW31225   1.007   2.497   1.504
10109SOL    HW131226   0.934   2.565   1.501
10109SOL    HW231227   0.972   2.409   1.473
10110SOL     OW31228   6.001   5.596   2.682
10110SOL    HW131229   5.971   5.581   2.588
10110SOL    HW231230   5.995   5.510   2.733
10111SOL     OW31231   0.247   2.390   1.747
10111SOL    HW131232   0.273   2.423   1.656
10111SOL    HW231233   0.291   2.447   1.816
10112SOL     OW31234   0.442   2.524   2.732
10112SOL    HW131235   0.504   2.446   2.726
10112SOL    HW231236   0.494   2.606   2.759
10113SOL     OW31237   6.016   0.187   6.238
10113SOL    HW131238   5.958   0.134   6.300
10113SOL    HW231239   5.958   0.244   6.180
10114SOL     OW31240   5.982   3.048   1.456
10114SOL    HW131241   6.018   2.966   1.499
10114SOL    HW231242   5.895   3.026   1.410
10115SOL     OW31243   3.482   2.635   5.702
10115SOL    HW131244   3.524   2.544   5.700
10115SOL    HW231245   3.460   2.664   5.609
10116SOL     OW31246   6.936   0.329   5.706
10116SOL    HW131247   6.992   0.250   5.681
10116SOL    HW231248   6.855   0.298   5.756
10117SOL     OW31249   6.331   4.573   3.474
10117SOL    HW131250   6.327   4.474   3.465
10117SOL    HW231251   6.259   4.603   3.537
10118SOL     OW31252   4.129   5.077   3.916
10118SOL    HW131253   4.164   4.990   3.881
10118SOL    HW231254   4.111   5.069   4.014
10119SOL     OW31255   6.506   5.998   6.374
10119SOL    HW131256   6.409   6.011   6.352
10119SOL    HW231257   6.524   5.901   6.391
10120SOL     OW31258   2.435   2.465   3.636
10120SOL    HW131259   2.359   2.408   3.604
10120SOL    HW231260   2.422   2.486   3.733
10121SOL     OW31261   0.250   4.885   0.768
10121SOL    HW131262   0.307   4.824   0.824
10121SOL    HW231263   0.300   4.910   0.685
10122SOL     OW31264   1.618   0.340   3.340
10122SOL    HW131265   1.659   0.251   3.355
10122SOL    HW231266   1.562   0.338   3.257
10123SOL     OW31267   6.725   5.093   6.673
10123SOL    HW131268   6.716   4.994   6.668
10123SOL    HW231269   6.755   5.128   6.584
10124SOL     OW31270   2.443   4.919   3.044
10124SOL    HW131271   2.454   4.912   2.945
10124SOL    HW231272   2.493   4.845   3.089
10125SOL     OW31273   1.099   0.599   5.024
10125SOL    HW131274   1.114   0.609   5.122
10125SOL    HW231275   1.001   0.594   5.005
10126SOL     OW31276   6.559   6.733   5.665
10126SOL    HW131277   6.505   6.653   5.693
10126SOL    HW231278   6.513   6.816   5.695
10127SOL     OW31279   3.133   6.894   5.796
10127SOL    HW131280   3.150   6.878   5.893
10127SOL    HW231281   3.150   6.991   5.775
10128SOL     OW31282   2.087   2.638   0.478
10128SOL    HW131283   2.115   2.614   0.571
10128SOL    HW231284   2.058   2.555   0.429
10129SOL     OW31285   6.066   1.840   4.581
10129SOL    HW131286   6.100   1.858   4.489
10129SOL    HW231287   5.972   1.806   4.577
10130SOL     OW31288   0.634   1.631   4.486
10130SOL    HW131289   0.586   1.604   4.402
10130SOL    HW231290   0.733   1.625   4.471
10131SOL     OW31291   2.415   6.663   4.471
10131SOL    HW131292   2.354   6.614   4.409
10131SOL    HW231293   2.506   6.669   4.431
10132SOL     OW31294   5.676   6.993   1.786
10132SOL    HW131295   5.774   7.006   1.801
10132SOL    HW231296   5.654   7.010   1.690
10133SOL     OW31297   5.538   6.942   1.101
10133SOL    HW131298   5.573   7.002   1.029
10133SOL    HW231299   5.487   6.866   1.060
10134SOL     OW31300   6.676   0.601   3.403
10134SOL    HW131301   6.717   0.592   3.313
10134SOL    HW231302   6.604   0.533   3.415
10135SOL     OW31303   5.708   0.094   3.398
10135SOL    HW131304   5.701   0.008   3.346
10135SOL    HW231305   5.644   0.091   3.475
10136SOL     OW31306   4.484   1.836   2.883
10136SOL    HW131307   4.566   1.779   2.883
10136SOL    HW231308   4.405   1.782   2.909
10137SOL     OW31309   6.617   5.002   5.200
10137SOL    HW131310   6.576   4.916   5.170
10137SOL    HW231311   6.551   5.076   5.189
10138SOL     OW31312   6.959   2.802   1.432
10138SOL    HW131313   0.027   2.806   1.389
10138SOL    HW231314   6.970   2.788   1.530
10139SOL     OW31315   3.407   2.956   6.544
10139SOL    HW131316   3.459   3.016   6.483
10139SOL    HW231317   3.394   2.867   6.501
10140SOL     OW31318   1.007   5.877   5.442
10140SOL    HW131319   0.915   5.909   5.464
10140SOL    HW231320   1.068   5.955   5.431
10141SOL     OW31321   1.496   2.751   4.263
10141SOL    HW131322   1.549   2.836   4.265
10141SOL    HW231323   1.489   2.714   4.356
10142SOL     OW31324   4.796   6.274   2.922
10142SOL    HW131325   4.885   6.229   2.915
10142SOL    HW231326   4.799   6.344   2.993
10143SOL     OW31327   5.756   2.572   6.495
10143SOL    HW131328   5.658   2.554   6.506
10143SOL    HW231329   5.803   2.487   6.474
10144SOL     OW31330   3.253   6.510   0.666
10144SOL    HW131331   3.229   6.605   0.684
10144SOL    HW231332   3.351   6.496   0.679
10145SOL     OW31333   6.041   6.974   5.975
10145SOL    HW131334   6.123   7.018   6.011
10145SOL    HW231335   6.060   6.879   5.952
10146SOL     OW31336   1.066   2.822   5.071
10146SOL    HW131337   1.012   2.835   4.988
10146SOL    HW231338   1.011   2.846   5.151
10147SOL     OW31339   4.010   5.917   5.434
10147SOL    HW131340   4.051   5.854   5.500
10147SOL    HW231341   4.066   5.921   5.351
10148SOL     OW31342   0.578   4.109   0.330
10148SOL    HW131343   0.545   4.180   0.268
10148SOL    HW231344   0.559   4.019   0.291
10149SOL     OW31345   4.044   3.348   1.179
10149SOL    HW131346   3.996   3.424   1.222
10149SOL    HW231347   4.128   3.330   1.229
10150SOL     OW31348   4.437   4.314   1.039
10150SOL    HW131349   4.393   4.383   0.982
10150SOL    HW231350   4.527   4.292   1.002
10151SOL     OW31351   6.493   0.641   6.020
10151SOL    HW131352   6.569   0.603   5.967
10151SOL    HW231353   6.480   0.587   6.103
10152SOL     OW31354   3.773   6.624   2.301
10152SOL    HW131355   3.842   6.591   2.365
10152SOL    HW231356   3.682   6.607   2.339
10153SOL     OW31357   4.834   4.566   2.130
10153SOL    HW131358   4.754   4.514   2.160
10153SOL    HW231359   4.857   4.540   2.036
10154SOL     OW31360   4.251   5.065   5.699
10154SOL    HW131361   4.164   5.089   5.658
10154SOL    HW231362   4.301   5.148   5.724
10155SOL     OW31363   4.365   1.754   4.147
10155SOL    HW131364   4.464   1.745   4.135
10155SOL    HW231365   4.332   1.829   4.090
10156SOL     OW31366   4.250   1.563   6.867
10156SOL    HW131367   4.245   1.470   6.905
10156SOL    HW231368   4.262   1.557   6.768
10157SOL     OW31369   0.209   4.424   1.590
10157SOL    HW131370   0.224   4.518   1.621
10157SOL    HW231371   0.161   4.425   1.503
10158SOL     OW31372   5.868   5.365   6.911
10158SOL    HW131373   5.961   5.370   6.874
10158SOL    HW231374   5.870   5.379   7.010
10159SOL     OW31375   3.145   2.816   1.855
10159SOL    HW131376   3.131   2.901   1.905
10159SOL    HW231377   3.231   2.774   1.882
10160SOL     OW31378   0.311   4.463   2.846
10160SOL    HW131379   0.406   4.491   2.831
10160SOL    HW231380   0.296   4.443   2.943
10161SOL     OW31381   5.658   3.243   5.389
10161SOL    HW131382   5.628   3.269   5.481
10161SOL    HW231383   5.646   3.145   5.376
10162SOL     OW31384   1.532   2.520   1.878
10162SOL    HW131385   1.503   2.515   1.783
10162SOL    HW231386   1.479   2.455   1.932
10163SOL     OW31387   2.822   5.365   4.841
10163SOL    HW131388   2.864   5.368   4.932
10163SOL    HW231389   2.805   5.270   4.815
10164SOL     OW31390   0.597   1.710   3.943
10164SOL    HW131391   0.614   1.785   3.878
10164SOL    HW231392   0.654   1.631   3.918
10165SOL     OW31393   0.480   3.718   4.600
10165SOL    HW131394   0.565   3.687   4.642
10165SOL    HW231395   0.499   3.792   4.535
10166SOL     OW31396   2.024   6.059   2.792
10166SOL    HW131397   2.025   6.100   2.701
10166SOL    HW231398   1.931   6.064   2.830
10167SOL     OW31399   2.191   1.871   6.962
10167SOL    HW131400   2.188   1.772   6.976
10167SOL    HW231401   2.189   1.891   6.864
10168SOL     OW31402   6.689   0.229   6.589
10168SOL    HW131403   6.785   0.200   6.585
10168SOL    HW231404   6.654   0.215   6.682
10169SOL     OW31405   5.007   4.326   3.624
10169SOL    HW131406   5.002   4.421   3.655
10169SOL    HW231407   5.067   4.274   3.684
10170SOL     OW31408   5.246   5.783   0.178
10170SOL    HW131409   5.163   5.830   0.146
10170SOL    HW231410   5.303   5.759   0.099
10171SOL     OW31411   2.223   4.876   4.983
10171SOL    HW131412   2.160   4.811   5.026
10171SOL    HW231413   2.195   4.969   5.006
10172SOL     OW31414   6.753   1.067   3.444
10172SOL    HW131415   6.788   1.070   3.538
10172SOL    HW231416   6.686   0.993   3.436
10173SOL     OW31417   3.591   3.451   4.903
10173SOL    HW131418   3.589   3.360   4.945
10173SOL    HW231419   3.661   3.452   4.831
10174SOL     OW31420   4.178   5.439   1.342
10174SOL    HW131421   4.164   5.371   1.414
10174SOL    HW231422   4.226   5.518   1.379
10175SOL     OW31423   0.109   0.107   4.545
10175SOL    HW131424   0.017   0.071   4.534
10175SOL    HW231425   0.141   0.147   4.459
10176SOL     OW31426   6.632   0.812   4.534
10176SOL    HW131427   6.731   0.812   4.519
10176SOL    HW231428   6.613   0.805   4.632
10177SOL     OW31429   2.420   0.620   3.936
10177SOL    HW131430   2.458   0.602   4.027
10177SOL    HW231431   2.458   0.705   3.900
10178SOL     OW31432   0.741   1.889   1.025
10178SOL    HW131433   0.644   1.912   1.033
10178SOL    HW231434   0.753   1.791   1.036
10179SOL     OW31435   0.826   4.228   0.114
10179SOL    HW131436   0.866   4.136   0.115
10179SOL    HW231437   0.728   4.222   0.131
10180SOL     OW31438   3.895   0.065   6.042
10180SOL    HW131439   3.826   0.015   5.990
10180SOL    HW231440   3.979   0.071   5.989
10181SOL     OW31441   6.255   3.325   3.167
10181SOL    HW131442   6.221   3.274   3.088
10181SOL    HW231443   6.355   3.325   3.166
10182SOL     OW31444   4.520   0.969   0.915
10182SOL    HW131445   4.506   0.922   1.002
10182SOL    HW231446   4.489   1.064   0.923
10183SOL     OW31447   5.018   0.685   5.537
10183SOL    HW131448   5.008   0.754   5.465
10183SOL    HW231449   5.011   0.729   5.626
10184SOL     OW31450   5.206   2.009   5.868
10184SOL    HW131451   5.247   1.922   5.896
10184SOL    HW231452   5.122   2.025   5.920
10185SOL     OW31453   3.516   5.143   1.122
10185SOL    HW131454   3.613   5.128   1.107
10185SOL    HW231455   3.502   5.227   1.175
10186SOL     OW31456   3.413   3.512   6.445
10186SOL    HW131457   3.391   3.522   6.542
10186SOL    HW231458   3.451   3.421   6.428
10187SOL     OW31459   1.975   4.606   5.445
10187SOL    HW131460   2.029   4.595   5.362
10187SOL    HW231461   1.973   4.519   5.495
10188SOL     OW31462   2.867   0.086   6.022
10188SOL    HW131463   2.819   0.007   5.984
10188SOL    HW231464   2.880   0.154   5.950
10189SOL     OW31465   2.000   1.584   4.715
10189SOL    HW131466   1.962   1.583   4.807
10189SOL    HW231467   1.995   1.492   4.676
10190SOL     OW31468   4.551   4.623   1.019
10190SOL    HW131469   4.625   4.587   0.962
10190SOL    HW231470   4.471   4.641   0.962
10191SOL     OW31471   5.232   0.125   0.344
10191SOL    HW131472   5.137   0.127   0.376
10191SOL    HW231473   5.268   0.218   0.339
10192SOL     OW31474   1.624   1.331   4.549
10192SOL    HW131475   1.631   1.271   4.628
10192SOL    HW231476   1.715   1.341   4.507
10193SOL     OW31477   3.577   3.616   3.729
10193SOL    HW131478   3.638   3.681   3.774
10193SOL    HW231479   3.487   3.618   3.773
10194SOL     OW31480   2.706   0.336   2.622
10194SOL    HW131481   2.721   0.424   2.577
10194SOL    HW231482   2.689   0.266   2.553
10195SOL     OW31483   5.122   6.965   2.413
10195SOL    HW131484   5.147   0.038   2.431
10195SOL    HW231485   5.198   6.905   2.440
10196SOL     OW31486   5.433   3.177   4.599
10196SOL    HW131487   5.475   3.109   4.539
10196SOL    HW231488   5.497   3.254   4.612
10197SOL     OW31489   5.567   1.589   2.415
10197SOL    HW131490   5.521   1.500   2.413
10197SOL    HW231491   5.578   1.619   2.509
10198SOL     OW31492   2.440   0.080   1.334
10198SOL    HW131493   2.480   0.032   1.256
10198SOL    HW231494   2.386   0.157   1.302
10199SOL     OW31495   0.862   1.785   0.337
10199SOL    HW131496   0.828   1.849   0.406
10199SOL    HW231497   0.831   1.692   0.359
10200SOL     OW31498   5.864   5.293   5.571
10200SOL    HW131499   5.831   5.238   5.494
10200SOL    HW231500   5.809   5.272   5.652
10201SOL     OW31501   1.988   4.762   2.786
10201SOL    HW131502   1.966   4.808   2.872
10201SOL    HW231503   2.081   4.725   2.792
10202SOL     OW31504   0.549   2.752   2.783
10202SOL    HW131505   0.623   2.801   2.829
10202SOL    HW231506   0.465   2.806   2.789
10203SOL     OW31507   1.281   3.602   1.942
10203SOL    HW131508   1.312   3.630   2.033
10203SOL    HW231509   1.256   3.505   1.944
10204SOL     OW31510   3.132   5.123   4.154
10204SOL    HW131511   3.166   5.049   4.095
10204SOL    HW231512   3.074   5.084   4.225
10205SOL     OW31513   4.430   0.926   2.501
10205SOL    HW131514   4.339   0.891   2.478
10205SOL    HW231515   4.495   0.849   2.506
10206SOL     OW31516   4.297   0.404   6.223
10206SOL    HW131517   4.308   0.335   6.152
10206SOL    HW231518   4.384   0.450   6.239
10207SOL     OW31519   4.244   0.981   3.147
10207SOL    HW131520   4.186   1.061   3.132
10207SOL    HW231521   4.340   1.009   3.143
10208SOL     OW31522   5.884   3.875   4.957
10208SOL    HW131523   5.812   3.814   4.922
10208SOL    HW231524   5.845   3.933   5.028
10209SOL     OW31525   5.178   6.798   6.639
10209SOL    HW131526   5.152   6.755   6.553
10209SOL    HW231527   5.274   6.779   6.658
10210SOL     OW31528   5.096   5.596   1.798
10210SOL    HW131529   5.181   5.558   1.834
10210SOL    HW231530   5.040   5.521   1.761
10211SOL     OW31531   3.822   5.591   4.846
10211SOL    HW131532   3.882   5.590   4.766
10211SOL    HW231533   3.742   5.533   4.829
10212SOL     OW31534   6.122   6.794   5.086
10212SOL    HW131535   6.167   6.879   5.061
10212SOL    HW231536   6.116   6.734   5.007
10213SOL     OW31537   4.981   0.309   3.787
10213SOL    HW131538   4.973   0.263   3.876
10213SOL    HW231539   5.061   0.369   3.787
10214SOL     OW31540   0.022   0.507   1.869
10214SOL    HW131541   0.051   0.557   1.951
10214SOL    HW231542   6.945   0.513   1.860
10215SOL     OW31543   3.594   2.873   0.089
10215SOL    HW131544   3.649   2.790   0.100
10215SOL    HW231545   3.576   2.888   7.014
10216SOL     OW31546   4.890   0.204   2.446
10216SOL    HW131547   4.809   0.250   2.409
10216SOL    HW231548   4.906   0.119   2.397
10217SOL     OW31549   2.857   2.024   5.492
10217SOL    HW131550   2.854   2.014   5.591
10217SOL    HW231551   2.953   2.024   5.462
10218SOL     OW31552   2.335   2.391   1.158
10218SOL    HW131553   2.252   2.356   1.203
10218SOL    HW231554   2.408   2.401   1.226
10219SOL     OW31555   0.882   4.128   0.915
10219SOL    HW131556   0.881   4.031   0.939
10219SOL    HW231557   0.793   4.168   0.935
10220SOL     OW31558   3.815   2.695   0.693
10220SOL    HW131559   3.881   2.696   0.768
10220SOL    HW231560   3.816   2.605   0.649
10221SOL     OW31561   2.905   0.892   5.256
10221SOL    HW131562   2.981   0.901   5.193
10221SOL    HW231563   2.855   0.978   5.260
10222SOL     OW31564   1.932   4.889   5.904
10222SOL    HW131565   1.957   4.801   5.865
10222SOL    HW231566   1.907   4.877   6.001
10223SOL     OW31567   6.573   4.666   0.346
10223SOL    HW131568   6.585   4.688   0.443
10223SOL    HW231569   6.543   4.571   0.337
10224SOL     OW31570   2.180   0.013   4.698
10224SOL    HW131571   2.145   0.104   4.677
10224SOL    HW231572   2.154   6.972   4.625
10225SOL     OW31573   5.542   5.838   4.527
10225SOL    HW131574   5.599   5.771   4.575
10225SOL    HW231575   5.574   5.930   4.549
10226SOL     OW31576   6.807   2.618   0.378
10226SOL    HW131577   6.860   2.703   0.373
10226SOL    HW231578   6.746   2.621   0.457
10227SOL     OW31579   5.385   6.141   6.418
10227SOL    HW131580   5.305   6.102   6.372
10227SOL    HW231581   5.366   6.148   6.516
10228SOL     OW31582   0.897   3.563   3.409
10228SOL    HW131583   0.915   3.635   3.343
10228SOL    HW231584   0.949   3.580   3.492
10229SOL     OW31585   2.323   1.016   1.914
10229SOL    HW131586   2.375   1.086   1.865
10229SOL    HW231587   2.333   0.928   1.867
10230SOL     OW31588   6.450   6.577   4.756
10230SOL    HW131589   6.373   6.615   4.809
10230SOL    HW231590   6.496   6.507   4.811
10231SOL     OW31591   4.414   6.486   4.418
10231SOL    HW131592   4.318   6.502   4.397
10231SOL    HW231593   4.443   6.546   4.492
10232SOL     OW31594   3.804   2.038   4.660
10232SOL    HW131595   3.820   1.956   4.604
10232SOL    HW231596   3.863   2.112   4.628
10233SOL     OW31597   4.673   0.837   5.762
10233SOL    HW131598   4.742   0.815   5.831
10233SOL    HW231599   4.672   0.936   5.747
10234SOL     OW31600   5.726   6.015   1.376
10234SOL    HW131601   5.693   5.932   1.330
10234SOL    HW231602   5.739   5.996   1.473
10235SOL     OW31603   5.080   1.620   5.996
10235SOL    HW131604   5.011   1.655   6.059
10235SOL    HW231605   5.137   1.696   5.964
10236SOL     OW31606   2.118   5.777   2.788
10236SOL    HW131607   2.206   5.743   2.820
10236SOL    HW231608   2.108   5.873   2.813
10237SOL     OW31609   6.367   2.347   3.178
10237SOL    HW131610   6.368   2.413   3.253
10237SOL    HW231611   6.441   2.280   3.192
10238SOL     OW31612   4.634   5.561   4.428
10238SOL    HW131613   4.536   5.570   4.444
10238SOL    HW231614   4.684   5.590   4.509
10239SOL     OW31615   6.946   4.017   4.280
10239SOL    HW131616   7.001   3.990   4.200
10239SOL    HW231617   6.996   4.085   4.333
10240SOL     OW31618   6.505   3.810   3.909
10240SOL    HW131619   6.429   3.874   3.892
10240SOL    HW231620   6.550   3.834   3.994
10241SOL     OW31621   1.934   1.185   3.525
10241SOL    HW131622   1.859   1.191   3.459
10241SOL    HW231623   1.924   1.258   3.593
10242SOL     OW31624   0.719   6.371   5.865
10242SOL    HW131625   0.746   6.388   5.960
10242SOL    HW231626   0.629   6.411   5.849
10243SOL     OW31627   0.917   5.856   2.630
10243SOL    HW131628   0.837   5.917   2.628
10243SOL    HW231629   1.000   5.911   2.616
10244SOL     OW31630   1.976   6.199   6.928
10244SOL    HW131631   2.052   6.252   6.890
10244SOL    HW231632   1.917   6.261   6.981
10245SOL     OW31633   2.168   2.209   0.355
10245SOL    HW131634   2.172   2.115   0.323
10245SOL    HW231635   2.253   2.231   0.404
10246SOL     OW31636   3.834   3.735   4.297
10246SOL    HW131637   3.746   3.697   4.270
10246SOL    HW231638   3.839   3.831   4.268
10247SOL     OW31639   1.341   5.971   5.643
10247SOL    HW131640   1.281   5.927   5.710
10247SOL    HW231641   1.403   5.904   5.604
10248SOL     OW31642   4.785   0.506   2.267
10248SOL    HW131643   4.865   0.472   2.219
10248SOL    HW231644   4.708   0.516   2.203
10249SOL     OW31645   4.354   1.363   0.180
10249SOL    HW131646   4.334   1.268   0.154
10249SOL    HW231647   4.269   1.415   0.188
10250SOL     OW31648   5.686   0.234   0.111
10250SOL    HW131649   5.643   0.299   0.173
10250SOL    HW231650   5.674   0.265   0.016
10251SOL     OW31651   3.814   4.529   6.567
10251SOL    HW131652   3.836   4.583   6.485
10251SOL    HW231653   3.721   4.492   6.558
10252SOL     OW31654   6.409   5.293   2.427
10252SOL    HW131655   6.313   5.296   2.455
10252SOL    HW231656   6.414   5.271   2.329
10253SOL     OW31657   3.729   5.213   6.543
10253SOL    HW131658   3.643   5.188   6.498
10253SOL    HW231659   3.717   5.298   6.594
10254SOL     OW31660   2.481   1.586   4.177
10254SOL    HW131661   2.446   1.666   4.226
10254SOL    HW231662   2.434   1.504   4.207
10255SOL     OW31663   3.158   5.550   3.162
10255SOL    HW131664   3.176   5.557   3.064
10255SOL    HW231665   3.227   5.603   3.212
10256SOL     OW31666   5.681   6.461   6.787
10256SOL    HW131667   5.589   6.422   6.785
10256SOL    HW231668   5.748   6.392   6.761
10257SOL     OW31669   1.545   6.375   6.291
10257SOL    HW131670   1.464   6.397   6.237
10257SOL    HW231671   1.539   6.280   6.323
10258SOL     OW31672   4.266   0.407   3.357
10258SOL    HW131673   4.195   0.397   3.427
10258SOL    HW231674   4.320   0.489   3.375
10259SOL     OW31675   1.035   3.631   3.626
10259SOL    HW131676   1.002   3.589   3.711
10259SOL    HW231677   1.117   3.583   3.596
10260SOL     OW31678   6.945   6.702   1.153
10260SOL    HW131679   6.948   6.725   1.251
10260SOL    HW231680   6.981   6.610   1.139
10261SOL     OW31681   2.268   6.594   1.665
10261SOL    HW131682   2.183   6.544   1.648
10261SOL    HW231683   2.253   6.692   1.650
10262SOL     OW31684   1.573   5.293   5.105
10262SOL    HW131685   1.477   5.307   5.082
10262SOL    HW231686   1.604   5.206   5.068
10263SOL     OW31687   6.512   2.068   5.687
10263SOL    HW131688   6.477   1.988   5.638
10263SOL    HW231689   6.570   2.122   5.626
10264SOL     OW31690   0.225   6.537   6.518
10264SOL    HW131691   0.235   6.479   6.599
10264SOL    HW231692   0.190   6.482   6.442
10265SOL     OW31693   4.378   1.997   2.297
10265SOL    HW131694   4.339   1.905   2.296
10265SOL    HW231695   4.393   2.026   2.392
10266SOL     OW31696   4.109   4.070   6.190
10266SOL    HW131697   4.033   4.122   6.228
10266SOL    HW231698   4.160   4.128   6.126
10267SOL     OW31699   6.293   1.917   6.190
10267SOL    HW131700   6.218   1.860   6.223
10267SOL    HW231701   6.256   2.000   6.148
10268SOL     OW31702   6.247   4.496   1.717
10268SOL    HW131703   6.265   4.548   1.801
10268SOL    HW231704   6.172   4.431   1.733
10269SOL     OW31705   3.066   2.947   6.170
10269SOL    HW131706   3.096   3.034   6.133
10269SOL    HW231707   3.061   2.879   6.096
10270SOL     OW31708   2.968   6.224   0.819
10270SOL    HW131709   3.051   6.188   0.863
10270SOL    HW231710   2.925   6.291   0.880
10271SOL     OW31711   3.626   4.859   0.887
10271SOL    HW131712   3.650   4.954   0.906
10271SOL    HW231713   3.551   4.857   0.821
10272SOL     OW31714   0.581   0.898   5.933
10272SOL    HW131715   0.581   0.966   5.860
10272SOL    HW231716   0.508   0.921   5.999
10273SOL     OW31717   4.503   6.182   4.136
10273SOL    HW131718   4.541   6.258   4.083
10273SOL    HW231719   4.549   6.176   4.224
10274SOL     OW31720   2.213   6.068   6.044
10274SOL    HW131721   2.184   6.018   6.126
10274SOL    HW231722   2.187   6.164   6.052
10275SOL     OW31723   1.146   6.375   1.978
10275SOL    HW131724   1.160   6.425   2.063
10275SOL    HW231725   1.168   6.434   1.900
10276SOL     OW31726   6.901   6.190   6.379
10276SOL    HW131727   6.867   6.260   6.442
10276SOL    HW231728   6.824   6.148   6.331
10277SOL     OW31729   2.070   5.443   3.207
10277SOL    HW131730   1.971   5.452   3.202
10277SOL    HW231731   2.104   5.400   3.123
10278SOL     OW31732   6.379   0.315   6.059
10278SOL    HW131733   6.296   0.371   6.066
10278SOL    HW231734   6.354   0.219   6.056
10279SOL     OW31735   3.523   6.372   3.594
10279SOL    HW131736   3.574   6.419   3.667
10279SOL    HW231737   3.572   6.382   3.508
10280SOL     OW31738   3.158   2.548   6.712
10280SOL    HW131739   3.202   2.497   6.638
10280SOL    HW231740   3.120   2.483   6.779
10281SOL     OW31741   3.940   6.961   4.403
10281SOL    HW131742   3.850   6.937   4.440
10281SOL    HW231743   3.941   6.948   4.304
10282SOL     OW31744   1.126   2.501   4.782
10282SOL    HW131745   1.159   2.570   4.846
10282SOL    HW231746   1.198   2.433   4.767
10283SOL     OW31747   1.224   3.229   5.760
10283SOL    HW131748   1.222   3.134   5.729
10283SOL    HW231749   1.293   3.280   5.709
10284SOL     OW31750   5.645   3.583   6.234
10284SOL    HW131751   5.556   3.542   6.253
10284SOL    HW231752   5.711   3.510   6.214
10285SOL     OW31753   5.732   0.573   0.540
10285SOL    HW131754   5.672   0.497   0.565
10285SOL    HW231755   5.806   0.581   0.608
10286SOL     OW31756   4.561   0.333   3.616
10286SOL    HW131757   4.474   0.319   3.569
10286SOL    HW231758   4.550   0.402   3.687
10287SOL     OW31759   2.044   5.849   1.707
10287SOL    HW131760   2.131   5.866   1.752
10287SOL    HW231761   2.055   5.860   1.608
10288SOL     OW31762   5.223   6.197   3.773
10288SOL    HW131763   5.194   6.167   3.864
10288SOL    HW231764   5.144   6.231   3.722
10289SOL     OW31765   3.310   1.216   1.775
10289SOL    HW131766   3.231   1.223   1.715
10289SOL    HW231767   3.352   1.306   1.786
10290SOL     OW31768   2.950   3.716   2.517
10290SOL    HW131769   2.948   3.643   2.450
10290SOL    HW231770   2.952   3.677   2.610
10291SOL     OW31771   3.821   0.375   5.828
10291SOL    HW131772   3.906   0.374   5.881
10291SOL    HW231773   3.753   0.433   5.874
10292SOL     OW31774   6.592   0.730   4.791
10292SOL    HW131775   6.584   0.748   4.889
10292SOL    HW231776   6.626   0.638   4.776
10293SOL     OW31777   2.654   5.633   2.679
10293SOL    HW131778   2.619   5.565   2.615
10293SOL    HW231779   2.645   5.724   2.638
10294SOL     OW31780   5.908   1.414   3.003
10294SOL    HW131781   5.906   1.443   2.908
10294SOL    HW231782   6.003   1.393   3.030
10295SOL     OW31783   0.931   5.025   5.659
10295SOL    HW131784   1.019   5.036   5.704
10295SOL    HW231785   0.922   5.094   5.587
10296SOL     OW31786   6.234   2.469   1.217
10296SOL    HW131787   6.226   2.379   1.259
10296SOL    HW231788   6.159   2.527   1.250
10297SOL     OW31789   2.228   5.202   4.584
10297SOL    HW131790   2.153   5.192   4.650
10297SOL    HW231791   2.275   5.115   4.573
10298SOL     OW31792   5.438   3.507   3.395
10298SOL    HW131793   5.468   3.445   3.323
10298SOL    HW231794   5.515   3.563   3.425
10299SOL     OW31795   5.022   4.720   2.255
10299SOL    HW131796   4.967   4.639   2.234
10299SOL    HW231797   5.074   4.747   2.174
10300SOL     OW31798   2.148   5.233   2.734
10300SOL    HW131799   2.126   5.137   2.715
10300SOL    HW231800   2.243   5.251   2.709
10301SOL     OW31801   5.780   1.871   1.711
10301SOL    HW131802   5.859   1.929   1.726
10301SOL    HW231803   5.761   1.864   1.613
10302SOL     OW31804   1.448   5.160   3.200
10302SOL    HW131805   1.434   5.142   3.297
10302SOL    HW231806   1.455   5.074   3.151
10303SOL     OW31807   3.803   2.889   1.174
10303SOL    HW131808   3.716   2.929   1.143
10303SOL    HW231809   3.850   2.954   1.234
10304SOL     OW31810   5.967   6.443   3.723
10304SOL    HW131811   5.925   6.474   3.638
10304SOL    HW231812   6.028   6.366   3.704
10305SOL     OW31813   1.823   5.745   1.321
10305SOL    HW131814   1.866   5.755   1.411
10305SOL    HW231815   1.764   5.823   1.303
10306SOL     OW31816   4.370   4.697   0.494
10306SOL    HW131817   4.271   4.701   0.479
10306SOL    HW231818   4.394   4.754   0.573
10307SOL     OW31819   3.006   1.142   5.519
10307SOL    HW131820   3.088   1.192   5.493
10307SOL    HW231821   3.029   1.045   5.533
10308SOL     OW31822   3.284   5.593   3.550
10308SOL    HW131823   3.205   5.644   3.584
10308SOL    HW231824   3.361   5.604   3.613
10309SOL     OW31825   0.853   6.491   3.574
10309SOL    HW131826   0.778   6.523   3.517
10309SOL    HW231827   0.867   6.555   3.650
10310SOL     OW31828   3.721   3.415   4.420
10310SOL    HW131829   3.722   3.510   4.391
10310SOL    HW231830   3.783   3.361   4.363
10311SOL     OW31831   0.177   6.229   0.904
10311SOL    HW131832   0.077   6.216   0.902
10311SOL    HW231833   0.221   6.139   0.901
10312SOL     OW31834   1.932   5.274   0.989
10312SOL    HW131835   1.891   5.280   0.898
10312SOL    HW231836   1.860   5.283   1.058
10313SOL     OW31837   6.044   5.848   3.514
10313SOL    HW131838   6.103   5.798   3.451
10313SOL    HW231839   6.072   5.829   3.608
10314SOL     OW31840   6.605   5.209   5.989
10314SOL    HW131841   6.545   5.154   6.047
10314SOL    HW231842   6.601   5.305   6.017
10315SOL     OW31843   5.840   6.003   4.914
10315SOL    HW131844   5.816   6.051   4.999
10315SOL    HW231845   5.837   6.067   4.837
10316SOL     OW31846   7.017   3.944   2.988
10316SOL    HW131847   6.924   3.977   3.005
10316SOL    HW231848   0.060   4.019   3.004
10317SOL     OW31849   3.549   4.551   0.871
10317SOL    HW131850   3.572   4.643   0.838
10317SOL    HW231851   3.550   4.550   0.971
10318SOL     OW31852   6.706   5.736   2.645
10318SOL    HW131853   6.659   5.792   2.713
10318SOL    HW231854   6.639   5.682   2.594
10319SOL     OW31855   4.947   5.649   4.818
10319SOL    HW131856   4.906   5.591   4.889
10319SOL    HW231857   4.875   5.683   4.757
10320SOL     OW31858   4.424   6.410   1.246
10320SOL    HW131859   4.462   6.455   1.166
10320SOL    HW231860   4.393   6.479   1.312
10321SOL     OW31861   4.163   0.152   4.449
10321SOL    HW131862   4.165   0.152   4.349
10321SOL    HW231863   4.083   0.100   4.481
10322SOL     OW31864   6.516   2.447   0.089
10322SOL    HW131865   6.492   2.402   0.176
10322SOL    HW231866   6.601   2.497   0.100
10323SOL     OW31867   5.823   2.454   5.208
10323SOL    HW131868   5.781   2.404   5.283
10323SOL    HW231869   5.765   2.531   5.182
10324SOL     OW31870   2.977   3.804   3.828
10324SOL    HW131871   3.009   3.709   3.836
10324SOL    HW231872   2.877   3.806   3.836
10325SOL     OW31873   0.870   3.779   3.903
10325SOL    HW131874   0.924   3.702   3.935
10325SOL    HW231875   0.797   3.746   3.842
10326SOL     OW31876   4.820   1.460   1.475
10326SOL    HW131877   4.842   1.370   1.514
10326SOL    HW231878   4.868   1.531   1.526
10327SOL     OW31879   0.190   0.954   3.721
10327SOL    HW131880   0.232   0.871   3.684
10327SOL    HW231881   0.181   0.945   3.820
10328SOL     OW31882   5.925   3.264   2.384
10328SOL    HW131883   5.863   3.245   2.307
10328SOL    HW231884   6.001   3.320   2.351
10329SOL     OW31885   4.230   6.255   2.469
10329SOL    HW131886   4.193   6.320   2.536
10329SOL    HW231887   4.241   6.301   2.381
10330SOL     OW31888   3.436   4.218   0.984
10330SOL    HW131889   3.491   4.190   1.063
10330SOL    HW231890   3.496   4.239   0.907
10331SOL     OW31891   5.265   0.534   4.432
10331SOL    HW131892   5.249   0.487   4.519
10331SOL    HW231893   5.273   0.633   4.448
10332SOL     OW31894   0.165   1.791   0.001
10332SOL    HW131895   0.227   1.853   6.975
10332SOL    HW231896   0.106   1.843   0.062
10333SOL     OW31897   4.867   4.051   4.791
10333SOL    HW131898   4.914   4.131   4.754
10333SOL    HW231899   4.933   3.977   4.804
10334SOL     OW31900   1.142   4.784   4.849
10334SOL    HW131901   1.149   4.801   4.947
10334SOL    HW231902   1.048   4.760   4.826
10335SOL     OW31903   2.424   5.290   1.992
10335SOL    HW131904   2.382   5.210   2.034
10335SOL    HW231905   2.452   5.267   1.898
10336SOL     OW31906   4.232   6.126   2.840
10336SOL    HW131907   4.222   6.112   2.742
10336SOL    HW231908   4.327   6.148   2.861
10337SOL     OW31909   0.675   5.084   5.683
10337SOL    HW131910   0.774   5.081   5.675
10337SOL    HW231911   0.639   4.991   5.693
10338SOL     OW31912   3.827   4.974   3.524
10338SOL    HW131913   3.829   5.074   3.530
10338SOL    HW231914   3.866   4.935   3.607
10339SOL     OW31915   2.996   5.602   0.467
10339SOL    HW131916   3.043   5.536   0.409
10339SOL    HW231917   2.994   5.691   0.421
10340SOL     OW31918   1.960   6.765   7.008
10340SOL    HW131919   2.034   6.815   6.962
10340SOL    HW231920   1.920   6.698   6.945
10341SOL     OW31921   1.413   2.191   2.625
10341SOL    HW131922   1.490   2.213   2.686
10341SOL    HW231923   1.413   2.093   2.607
10342SOL     OW31924   2.914   6.649   4.181
10342SOL    HW131925   2.902   6.633   4.279
10342SOL    HW231926   2.858   6.727   4.153
10343SOL     OW31927   2.072   3.009   3.957
10343SOL    HW131928   2.132   3.004   4.037
10343SOL    HW231929   2.127   3.031   3.876
10344SOL     OW31930   4.077   4.022   0.233
10344SOL    HW131931   4.175   4.037   0.217
10344SOL    HW231932   4.045   3.947   0.175
10345SOL     OW31933   1.591   1.624   5.852
10345SOL    HW131934   1.581   1.677   5.936
10345SOL    HW231935   1.678   1.647   5.809
10346SOL     OW31936   5.627   5.477   0.335
10346SOL    HW131937   5.632   5.575   0.317
10346SOL    HW231938   5.533   5.446   0.325
10347SOL     OW31939   4.823   1.285   2.003
10347SOL    HW131940   4.870   1.252   1.922
10347SOL    HW231941   4.848   1.380   2.021
10348SOL     OW31942   6.675   4.883   5.882
10348SOL    HW131943   6.750   4.947   5.897
10348SOL    HW231944   6.587   4.930   5.891
10349SOL     OW31945   0.548   1.742   1.354
10349SOL    HW131946   0.623   1.803   1.380
10349SOL    HW231947   0.576   1.647   1.364
10350SOL     OW31948   2.406   4.418   4.631
10350SOL    HW131949   2.430   4.394   4.725
10350SOL    HW231950   2.332   4.485   4.631
10351SOL     OW31951   4.567   4.533   4.913
10351SOL    HW131952   4.475   4.553   4.945
10351SOL    HW231953   4.569   4.537   4.813
10352SOL     OW31954   5.664   1.034   6.799
10352SOL    HW131955   5.607   1.010   6.721
10352SOL    HW231956   5.731   0.962   6.815
10353SOL     OW31957   6.331   2.585   3.733
10353SOL    HW131958   6.313   2.495   3.691
10353SOL    HW231959   6.247   2.639   3.732
10354SOL     OW31960   6.009   3.347   1.116
10354SOL    HW131961   6.035   3.251   1.130
10354SOL    HW231962   6.011   3.367   1.018
10355SOL     OW31963   0.557   1.664   0.802
10355SOL    HW131964   0.630   1.673   0.734
10355SOL    HW231965   0.597   1.642   0.891
10356SOL     OW31966   6.149   3.552   5.702
10356SOL    HW131967   6.064   3.506   5.676
10356SOL    HW231968   6.130   3.648   5.722
10357SOL     OW31969   0.735   1.080   5.763
10357SOL    HW131970   0.795   1.089   5.843
10357SOL    HW231971   0.777   1.125   5.685
10358SOL     OW31972   1.097   2.656   3.189
10358SOL    HW131973   1.134   2.608   3.110
10358SOL    HW231974   1.012   2.703   3.164
10359SOL     OW31975   6.238   2.389   2.182
10359SOL    HW131976   6.279   2.298   2.189
10359SOL    HW231977   6.199   2.415   2.270
10360SOL     OW31978   5.829   4.336   1.574
10360SOL    HW131979   5.779   4.249   1.574
10360SOL    HW231980   5.765   4.412   1.583
10361SOL     OW31981   6.453   2.124   2.493
10361SOL    HW131982   6.539   2.172   2.509
10361SOL    HW231983   6.405   2.112   2.580
10362SOL     OW31984   1.259   6.199   1.766
10362SOL    HW131985   1.167   6.238   1.774
10362SOL    HW231986   1.252   6.100   1.752
10363SOL     OW31987   5.475   4.312   6.338
10363SOL    HW131988   5.427   4.260   6.267
10363SOL    HW231989   5.458   4.410   6.324
10364SOL     OW31990   5.982   4.870   2.349
10364SOL    HW131991   6.067   4.905   2.388
10364SOL    HW231992   5.904   4.916   2.392
10365SOL     OW31993   5.672   5.261   0.729
10365SOL    HW131994   5.728   5.297   0.655
10365SOL    HW231995   5.582   5.236   0.693
10366SOL     OW31996   2.779   5.911   3.238
10366SOL    HW131997   2.742   5.818   3.237
10366SOL    HW231998   2.829   5.927   3.153
10367SOL     OW31999   6.057   6.373   1.511
10367SOL    HW132000   6.068   6.274   1.518
10367SOL    HW232001   6.139   6.413   1.468
10368SOL     OW32002   2.087   6.560   1.373
10368SOL    HW132003   2.121   6.653   1.360
10368SOL    HW232004   2.108   6.505   1.292
10369SOL     OW32005   2.411   0.357   5.763
10369SOL    HW132006   2.412   0.284   5.831
10369SOL    HW232007   2.410   0.446   5.809
10370SOL     OW32008   1.154   1.277   5.390
10370SOL    HW132009   1.251   1.298   5.384
10370SOL    HW232010   1.108   1.306   5.306
10371SOL     OW32011   4.811   5.323   2.755
10371SOL    HW132012   4.771   5.312   2.664
10371SOL    HW232013   4.750   5.380   2.811
10372SOL     OW32014   3.021   6.347   1.833
10372SOL    HW132015   2.942   6.389   1.789
10372SOL    HW232016   3.030   6.253   1.802
10373SOL     OW32017   6.638   1.203   6.059
10373SOL    HW132018   6.679   1.266   5.994
10373SOL    HW232019   6.582   1.135   6.010
10374SOL     OW32020   3.681   5.587   3.449
10374SOL    HW132021   3.718   5.662   3.503
10374SOL    HW232022   3.631   5.524   3.509
10375SOL     OW32023   2.457   5.074   0.081
10375SOL    HW132024   2.387   5.040   0.018
10375SOL    HW232025   2.420   5.150   0.134
10376SOL     OW32026   2.175   5.099   3.887
10376SOL    HW132027   2.162   5.149   3.801
10376SOL    HW232028   2.105   5.127   3.953
10377SOL     OW32029   1.691   0.873   2.128
10377SOL    HW132030   1.628   0.822   2.069
10377SOL    HW232031   1.784   0.861   2.094
10378SOL     OW32032   0.187   5.735   4.282
10378SOL    HW132033   0.168   5.821   4.235
10378SOL    HW232034   0.102   5.694   4.314
10379SOL     OW32035   1.974   0.034   4.183
10379SOL    HW132036   1.999   0.049   4.278
10379SOL    HW232037   2.057   0.020   4.128
10380SOL     OW32038   2.891   2.245   4.435
10380SOL    HW132039   2.855   2.156   4.408
10380SOL    HW232040   2.938   2.237   4.523
10381SOL     OW32041   4.582   6.452   1.768
10381SOL    HW132042   4.607   6.444   1.864
10381SOL    HW232043   4.589   6.362   1.724
10382SOL     OW32044   4.208   5.902   1.480
10382SOL    HW132045   4.147   5.928   1.405
10382SOL    HW232046   4.175   5.944   1.565
10383SOL     OW32047   1.645   4.712   0.013
10383SOL    HW132048   1.570   4.725   0.078
10383SOL    HW232049   1.710   4.788   0.021
10384SOL     OW32050   5.776   6.008   1.689
10384SOL    HW132051   5.824   6.091   1.719
10384SOL    HW232052   5.718   5.975   1.763
10385SOL     OW32053   4.441   4.786   7.014
10385SOL    HW132054   4.528   4.762   0.034
10385SOL    HW232055   4.374   4.807   0.063
10386SOL     OW32056   0.146   0.812   0.749
10386SOL    HW132057   0.238   0.827   0.713
10386SOL    HW232058   0.150   0.754   0.830
10387SOL     OW32059   5.385   3.031   2.027
10387SOL    HW132060   5.356   3.086   1.949
10387SOL    HW232061   5.366   3.081   2.112
10388SOL     OW32062   2.625   0.065   4.774
10388SOL    HW132063   2.546   0.125   4.782
10388SOL    HW232064   2.613   7.007   4.832
10389SOL     OW32065   0.470   3.518   0.697
10389SOL    HW132066   0.484   3.421   0.677
10389SOL    HW232067   0.529   3.573   0.638
10390SOL     OW32068   2.387   2.358   1.477
10390SOL    HW132069   2.301   2.328   1.433
10390SOL    HW232070   2.464   2.311   1.434
10391SOL     OW32071   5.123   7.021   4.437
10391SOL    HW132072   5.138   0.075   4.501
10391SOL    HW232073   5.034   6.980   4.456
10392SOL     OW32074   6.476   4.002   4.489
10392SOL    HW132075   6.415   3.926   4.465
10392SOL    HW232076   6.546   4.011   4.420
10393SOL     OW32077   1.222   3.531   4.102
10393SOL    HW132078   1.271   3.544   4.016
10393SOL    HW232079   1.251   3.601   4.167
10394SOL     OW32080   3.312   0.118   4.449
10394SOL    HW132081   3.389   0.149   4.394
10394SOL    HW232082   3.226   0.149   4.408
10395SOL     OW32083   1.396   0.499   0.994
10395SOL    HW132084   1.357   0.544   0.913
10395SOL    HW232085   1.359   0.540   1.077
10396SOL     OW32086   2.697   2.231   4.749
10396SOL    HW132087   2.792   2.221   4.722
10396SOL    HW232088   2.646   2.149   4.723
10397SOL     OW32089   3.280   1.937   3.028
10397SOL    HW132090   3.379   1.925   3.027
10397SOL    HW232091   3.253   1.981   3.114
10398SOL     OW32092   6.398   2.816   1.565
10398SOL    HW132093   6.457   2.753   1.513
10398SOL    HW232094   6.407   2.796   1.663
10399SOL     OW32095   0.415   3.739   1.782
10399SOL    HW132096   0.376   3.685   1.857
10399SOL    HW232097   0.495   3.790   1.815
10400SOL     OW32098   3.986   6.428   0.225
10400SOL    HW132099   4.008   6.438   0.322
10400SOL    HW232100   4.063   6.459   0.169
10401SOL     OW32101   0.184   1.137   5.521
10401SOL    HW132102   0.278   1.109   5.503
10401SOL    HW232103   0.160   1.213   5.461
10402SOL     OW32104   6.789   3.095   4.713
10402SOL    HW132105   6.858   3.076   4.783
10402SOL    HW232106   6.714   3.147   4.753
10403SOL     OW32107   2.669   0.273   2.127
10403SOL    HW132108   2.759   0.288   2.168
10403SOL    HW232109   2.657   0.175   2.111
10404SOL     OW32110   0.105   6.787   6.430
10404SOL    HW132111   0.162   6.714   6.466
10404SOL    HW232112   0.070   6.760   6.340
10405SOL     OW32113   6.925   1.861   6.316
10405SOL    HW132114   0.001   1.848   6.302
10405SOL    HW232115   6.901   1.833   6.409
10406SOL     OW32116   2.895   4.525   1.530
10406SOL    HW132117   2.890   4.519   1.630
10406SOL    HW232118   2.965   4.461   1.497
10407SOL     OW32119   2.865   6.843   0.204
10407SOL    HW132120   2.959   6.810   0.210
10407SOL    HW232121   2.857   6.931   0.251
10408SOL     OW32122   3.736   0.865   0.332
10408SOL    HW132123   3.653   0.879   0.279
10408SOL    HW232124   3.712   0.834   0.424
10409SOL     OW32125   5.946   4.701   1.295
10409SOL    HW132126   6.004   4.783   1.292
10409SOL    HW232127   5.866   4.715   1.237
10410SOL     OW32128   5.743   0.810   0.984
10410SOL    HW132129   5.681   0.756   0.928
10410SOL    HW232130   5.803   0.864   0.925
10411SOL     OW32131   3.104   5.287   3.246
10411SOL    HW132132   3.171   5.245   3.308
10411SOL    HW232133   3.132   5.380   3.225
10412SOL     OW32134   6.345   0.409   0.689
10412SOL    HW132135   6.312   0.346   0.758
10412SOL    HW232136   6.399   0.481   0.732
10413SOL     OW32137   6.075   2.822   1.585
10413SOL    HW132138   6.156   2.788   1.537
10413SOL    HW232139   6.009   2.748   1.596
10414SOL     OW32140   4.689   2.773   4.185
10414SOL    HW132141   4.677   2.723   4.099
10414SOL    HW232142   4.645   2.722   4.259
10415SOL     OW32143   0.747   6.362   6.424
10415SOL    HW132144   0.822   6.348   6.360
10415SOL    HW232145   0.725   6.276   6.469
10416SOL     OW32146   6.035   2.758   4.466
10416SOL    HW132147   6.117   2.701   4.469
10416SOL    HW232148   6.018   2.797   4.556
10417SOL     OW32149   2.785   4.818   4.239
10417SOL    HW132150   2.715   4.747   4.235
10417SOL    HW232151   2.742   4.908   4.238
10418SOL     OW32152   0.881   4.717   6.060
10418SOL    HW132153   0.936   4.647   6.107
10418SOL    HW232154   0.821   4.762   6.126
10419SOL     OW32155   1.220   1.064   0.685
10419SOL    HW132156   1.130   1.079   0.642
10419SOL    HW232157   1.219   1.099   0.778
10420SOL     OW32158   0.192   3.368   3.411
10420SOL    HW132159   0.194   3.403   3.318
10420SOL    HW232160   0.284   3.336   3.436
10421SOL     OW32161   0.463   0.558   3.070
10421SOL    HW132162   0.388   0.496   3.048
10421SOL    HW232163   0.427   0.646   3.101
10422SOL     OW32164   6.156   2.838   6.288
10422SOL    HW132165   6.211   2.778   6.346
10422SOL    HW232166   6.203   2.926   6.278
10423SOL     OW32167   4.825   4.475   3.399
10423SOL    HW132168   4.854   4.440   3.488
10423SOL    HW232169   4.737   4.434   3.374
10424SOL     OW32170   5.192   1.719   6.593
10424SOL    HW132171   5.277   1.683   6.633
10424SOL    HW232172   5.215   1.780   6.518
10425SOL     OW32173   1.403   5.869   2.525
10425SOL    HW132174   1.394   5.788   2.583
10425SOL    HW232175   1.452   5.940   2.576
10426SOL     OW32176   6.458   4.474   0.140
10426SOL    HW132177   6.377   4.524   0.109
10426SOL    HW232178   6.441   4.436   0.231
10427SOL     OW32179   5.530   2.274   6.931
10427SOL    HW132180   5.514   2.334   7.010
10427SOL    HW232181   5.483   2.187   6.945
10428SOL     OW32182   4.799   0.446   4.551
10428SOL    HW132183   4.713   0.424   4.596
10428SOL    HW232184   4.856   0.500   4.613
10429SOL     OW32185   6.730   6.412   1.784
10429SOL    HW132186   6.649   6.353   1.790
10429SOL    HW232187   6.743   6.459   1.872
10430SOL     OW32188   4.167   6.482   2.298
10430SOL    HW132189   4.094   6.535   2.340
10430SOL    HW232190   4.255   6.520   2.323
10431SOL     OW32191   3.225   0.413   4.500
10431SOL    HW132192   3.228   0.463   4.587
10431SOL    HW232193   3.157   0.341   4.506
10432SOL     OW32194   5.639   0.911   5.191
10432SOL    HW132195   5.635   0.978   5.265
10432SOL    HW232196   5.712   0.936   5.127
10433SOL     OW32197   2.085   6.622   0.784
10433SOL    HW132198   1.988   6.641   0.798
10433SOL    HW232199   2.114   6.657   0.695
10434SOL     OW32200   2.255   0.233   3.925
10434SOL    HW132201   2.337   0.266   3.973
10434SOL    HW232202   2.183   0.302   3.933
10435SOL     OW32203   5.203   6.498   6.222
10435SOL    HW132204   5.300   6.479   6.237
10435SOL    HW232205   5.152   6.412   6.217
10436SOL     OW32206   1.616   4.949   3.706
10436SOL    HW132207   1.650   4.936   3.799
10436SOL    HW232208   1.531   4.896   3.694
10437SOL     OW32209   0.032   4.958   5.801
10437SOL    HW132210   7.002   5.013   5.866
10437SOL    HW232211   0.047   5.011   5.717
10438SOL     OW32212   4.047   6.519   0.505
10438SOL    HW132213   4.118   6.590   0.512
10438SOL    HW232214   4.082   6.434   0.544
10439SOL     OW32215   3.708   6.924   5.930
10439SOL    HW132216   3.722   6.852   5.997
10439SOL    HW232217   3.620   6.911   5.884
10440SOL     OW32218   1.750   6.291   0.670
10440SOL    HW132219   1.681   6.306   0.600
10440SOL    HW232220   1.710   6.308   0.760
10441SOL     OW32221   5.230   1.847   6.329
10441SOL    HW132222   5.269   1.928   6.284
10441SOL    HW232223   5.134   1.864   6.350
10442SOL     OW32224   3.879   5.195   5.944
10442SOL    HW132225   3.937   5.115   5.958
10442SOL    HW232226   3.811   5.200   6.018
10443SOL     OW32227   5.899   3.449   5.015
10443SOL    HW132228   5.823   3.506   5.047
10443SOL    HW232229   5.981   3.505   5.008
10444SOL     OW32230   3.824   5.350   4.622
10444SOL    HW132231   3.832   5.431   4.564
10444SOL    HW232232   3.751   5.291   4.588
10445SOL     OW32233   6.985   5.968   5.189
10445SOL    HW132234   6.948   5.897   5.129
10445SOL    HW232235   0.025   5.926   5.255
10446SOL     OW32236   1.201   5.101   6.128
10446SOL    HW132237   1.112   5.146   6.141
10446SOL    HW232238   1.271   5.170   6.112
10447SOL     OW32239   5.981   2.621   1.318
10447SOL    HW132240   5.899   2.659   1.275
10447SOL    HW232241   6.057   2.685   1.305
10448SOL     OW32242   4.034   3.877   2.366
10448SOL    HW132243   4.116   3.918   2.406
10448SOL    HW232244   3.959   3.943   2.372
10449SOL     OW32245   2.696   5.363   4.471
10449SOL    HW132246   2.622   5.426   4.445
10449SOL    HW232247   2.706   5.364   4.571
10450SOL     OW32248   6.985   2.181   0.721
10450SOL    HW132249   6.887   2.161   0.730
10450SOL    HW232250   7.013   2.241   0.796
10451SOL     OW32251   2.421   4.422   3.003
10451SOL    HW132252   2.513   4.383   3.005
10451SOL    HW232253   2.386   4.420   2.909
10452SOL     OW32254   0.906   3.309   3.970
10452SOL    HW132255   0.970   3.238   3.941
10452SOL    HW232256   0.860   3.281   4.054
10453SOL     OW32257   4.872   6.558   1.739
10453SOL    HW132258   4.916   6.473   1.768
10453SOL    HW232259   4.773   6.549   1.748
10454SOL     OW32260   5.104   3.033   2.198
10454SOL    HW132261   5.027   3.033   2.263
10454SOL    HW232262   5.110   3.122   2.153
10455SOL     OW32263   6.960   4.964   3.760
10455SOL    HW132264   6.890   4.899   3.789
10455SOL    HW232265   0.013   4.964   3.826
10456SOL     OW32266   4.462   5.937   1.213
10456SOL    HW132267   4.545   5.953   1.265
10456SOL    HW232268   4.414   6.024   1.198
10457SOL     OW32269   4.092   3.527   3.215
10457SOL    HW132270   4.098   3.433   3.248
10457SOL    HW232271   3.998   3.560   3.223
10458SOL     OW32272   0.931   6.623   0.812
10458SOL    HW132273   0.868   6.681   0.759
10458SOL    HW232274   0.960   6.545   0.756
10459SOL     OW32275   6.231   5.258   2.900
10459SOL    HW132276   6.230   5.158   2.893
10459SOL    HW232277   6.325   5.289   2.914
10460SOL     OW32278   2.096   5.293   2.232
10460SOL    HW132279   2.019   5.285   2.295
10460SOL    HW232280   2.061   5.307   2.139
10461SOL     OW32281   2.768   1.486   6.711
10461SOL    HW132282   2.743   1.521   6.801
10461SOL    HW232283   2.771   1.561   6.645
10462SOL     OW32284   6.929   0.160   0.932
10462SOL    HW132285   6.869   0.080   0.929
10462SOL    HW232286   6.957   0.177   1.027
10463SOL     OW32287   3.022   4.582   0.682
10463SOL    HW132288   3.052   4.621   0.595
10463SOL    HW232289   2.978   4.653   0.737
10464SOL     OW32290   5.057   0.477   1.211
10464SOL    HW132291   5.056   0.538   1.133
10464SOL    HW232292   4.963   0.460   1.241
10465SOL     OW32293   6.271   5.090   6.064
10465SOL    HW132294   6.197   5.025   6.047
10465SOL    HW232295   6.233   5.181   6.083
10466SOL     OW32296   4.946   5.817   5.882
10466SOL    HW132297   4.965   5.872   5.801
10466SOL    HW232298   4.892   5.737   5.857
10467SOL     OW32299   2.826   0.632   5.204
10467SOL    HW132300   2.851   0.726   5.228
10467SOL    HW232301   2.884   0.569   5.255
10468SOL     OW32302   3.505   6.459   3.185
10468SOL    HW132303   3.502   6.495   3.279
10468SOL    HW232304   3.412   6.448   3.151
10469SOL     OW32305   1.439   4.512   0.847
10469SOL    HW132306   1.343   4.504   0.874
10469SOL    HW232307   1.466   4.608   0.852
10470SOL     OW32308   2.123   1.572   4.057
10470SOL    HW132309   2.083   1.506   4.121
10470SOL    HW232310   2.209   1.536   4.021
10471SOL     OW32311   3.368   3.543   0.093
10471SOL    HW132312   3.325   3.492   0.168
10471SOL    HW232313   3.313   3.624   0.072
10472SOL     OW32314   4.640   1.134   2.552
10472SOL    HW132315   4.577   1.057   2.566
10472SOL    HW232316   4.708   1.110   2.484
10473SOL     OW32317   4.681   6.278   0.810
10473SOL    HW132318   4.647   6.301   0.901
10473SOL    HW232319   4.665   6.355   0.748
10474SOL     OW32320   3.777   0.616   5.171
10474SOL    HW132321   3.786   0.542   5.104
10474SOL    HW232322   3.860   0.623   5.225
10475SOL     OW32323   4.083   6.567   1.750
10475SOL    HW132324   4.083   6.481   1.700
10475SOL    HW232325   4.177   6.600   1.761
10476SOL     OW32326   0.021   5.210   0.104
10476SOL    HW132327   0.081   5.151   0.050
10476SOL    HW232328   0.053   5.305   0.098
10477SOL     OW32329   5.715   3.905   5.394
10477SOL    HW132330   5.773   3.826   5.372
10477SOL    HW232331   5.729   3.931   5.490
10478SOL     OW32332   0.350   6.622   1.174
10478SOL    HW132333   0.399   6.660   1.252
10478SOL    HW232334   0.288   6.550   1.205
10479SOL     OW32335   1.291   4.297   3.596
10479SOL    HW132336   1.269   4.203   3.573
10479SOL    HW232337   1.272   4.313   3.693
10480SOL     OW32338   5.940   0.041   1.905
10480SOL    HW132339   5.901   0.116   1.958
10480SOL    HW232340   6.040   0.047   1.907
10481SOL     OW32341   2.007   0.579   4.967
10481SOL    HW132342   2.049   0.667   4.947
10481SOL    HW232343   1.919   0.573   4.921
10482SOL     OW32344   1.437   5.402   5.911
10482SOL    HW132345   1.378   5.322   5.921
10482SOL    HW232346   1.526   5.373   5.875
10483SOL     OW32347   0.124   5.210   0.562
10483SOL    HW132348   0.215   5.220   0.522
10483SOL    HW232349   0.056   5.200   0.489
10484SOL     OW32350   6.192   1.177   1.740
10484SOL    HW132351   6.139   1.236   1.679
10484SOL    HW232352   6.290   1.194   1.725
10485SOL     OW32353   3.576   4.016   3.372
10485SOL    HW132354   3.523   4.056   3.447
10485SOL    HW232355   3.671   4.046   3.379
10486SOL     OW32356   6.173   6.949   5.357
10486SOL    HW132357   6.235   6.873   5.341
10486SOL    HW232358   6.212   7.011   5.425
10487SOL     OW32359   4.759   2.353   1.723
10487SOL    HW132360   4.708   2.434   1.750
10487SOL    HW232361   4.827   2.331   1.793
10488SOL     OW32362   5.995   2.682   5.682
10488SOL    HW132363   5.946   2.615   5.625
10488SOL    HW232364   6.072   2.637   5.726
10489SOL     OW32365   5.959   4.532   5.020
10489SOL    HW132366   5.907   4.616   5.006
10489SOL    HW232367   5.997   4.531   5.113
10490SOL     OW32368   5.463   6.521   6.514
10490SOL    HW132369   5.437   6.477   6.428
10490SOL    HW232370   5.558   6.550   6.508
10491SOL     OW32371   1.915   2.798   5.894
10491SOL    HW132372   1.895   2.884   5.941
10491SOL    HW232373   1.890   2.806   5.798
10492SOL     OW32374   3.683   0.365   0.330
10492SOL    HW132375   3.638   0.441   0.377
10492SOL    HW232376   3.711   0.296   0.396
10493SOL     OW32377   4.350   5.676   1.210
10493SOL    HW132378   4.355   5.773   1.187
10493SOL    HW232379   4.318   5.666   1.305
10494SOL     OW32380   0.883   4.579   5.365
10494SOL    HW132381   0.789   4.545   5.352
10494SOL    HW232382   0.882   4.652   5.433
10495SOL     OW32383   0.118   6.672   0.690
10495SOL    HW132384   0.079   6.723   0.767
10495SOL    HW232385   0.176   6.598   0.725
10496SOL     OW32386   0.129   3.458   5.352
10496SOL    HW132387   0.077   3.531   5.308
10496SOL    HW232388   0.166   3.491   5.439
10497SOL     OW32389   2.492   0.156   1.040
10497SOL    HW132390   2.530   0.140   0.949
10497SOL    HW232391   2.394   0.174   1.032
10498SOL     OW32392   4.178   4.369   0.377
10498SOL    HW132393   4.099   4.396   0.322
10498SOL    HW232394   4.221   4.288   0.336
10499SOL     OW32395   5.993   4.425   2.827
10499SOL    HW132396   6.012   4.467   2.738
10499SOL    HW232397   5.976   4.497   2.895
10500SOL     OW32398   0.353   3.140   5.501
10500SOL    HW132399   0.382   3.044   5.509
10500SOL    HW232400   0.431   3.199   5.523
10501SOL     OW32401   3.656   4.953   2.655
10501SOL    HW132402   3.625   5.032   2.708
10501SOL    HW232403   3.690   4.882   2.718
10502SOL     OW32404   3.387   3.822   2.232
10502SOL    HW132405   3.336   3.896   2.186
10502SOL    HW232406   3.484   3.832   2.213
10503SOL     OW32407   6.346   2.337   6.398
10503SOL    HW132408   6.376   2.318   6.491
10503SOL    HW232409   6.246   2.328   6.393
10504SOL     OW32410   1.337   2.733   6.013
10504SOL    HW132411   1.244   2.698   5.998
10504SOL    HW232412   1.389   2.667   6.068
10505SOL     OW32413   5.952   6.536   0.711
10505SOL    HW132414   6.012   6.615   0.724
10505SOL    HW232415   5.980   6.463   0.773
10506SOL     OW32416   1.205   2.311   6.953
10506SOL    HW132417   1.185   2.383   6.886
10506SOL    HW232418   1.132   2.243   6.952
10507SOL     OW32419   0.986   5.286   6.146
10507SOL    HW132420   0.890   5.301   6.123
10507SOL    HW232421   1.041   5.361   6.109
10508SOL     OW32422   1.817   4.813   4.798
10508SOL    HW132423   1.792   4.796   4.703
10508SOL    HW232424   1.878   4.741   4.830
10509SOL     OW32425   4.671   2.704   2.920
10509SOL    HW132426   4.613   2.671   2.995
10509SOL    HW232427   4.696   2.799   2.937
10510SOL     OW32428   5.881   5.953   3.854
10510SOL    HW132429   5.971   5.916   3.830
10510SOL    HW232430   5.868   6.041   3.809
10511SOL     OW32431   4.961   1.906   1.780
10511SOL    HW132432   5.014   1.949   1.707
10511SOL    HW232433   4.998   1.932   1.869
10512SOL     OW32434   4.681   1.026   4.957
10512SOL    HW132435   4.675   0.929   4.933
10512SOL    HW232436   4.590   1.066   4.958
10513SOL     OW32437   4.534   3.208   1.189
10513SOL    HW132438   4.596   3.182   1.263
10513SOL    HW232439   4.581   3.199   1.101
10514SOL     OW32440   1.549   3.475   1.801
10514SOL    HW132441   1.452   3.496   1.819
10514SOL    HW232442   1.602   3.559   1.803
10515SOL     OW32443   2.311   2.705   5.032
10515SOL    HW132444   2.221   2.684   5.069
10515SOL    HW232445   2.326   2.804   5.034
10516SOL     OW32446   3.978   1.883   1.621
10516SOL    HW132447   3.919   1.963   1.631
10516SOL    HW232448   4.006   1.852   1.712
10517SOL     OW32449   1.778   2.225   2.519
10517SOL    HW132450   1.717   2.234   2.440
10517SOL    HW232451   1.724   2.211   2.601
10518SOL     OW32452   0.641   4.760   2.879
10518SOL    HW132453   0.583   4.818   2.822
10518SOL    HW232454   0.635   4.790   2.974
10519SOL     OW32455   3.904   6.962   1.184
10519SOL    HW132456   3.991   6.986   1.227
10519SOL    HW232457   3.848   6.912   1.250
10520SOL     OW32458   6.819   2.594   5.664
10520SOL    HW132459   6.840   2.671   5.723
10520SOL    HW232460   6.795   2.514   5.719
10521SOL     OW32461   0.036   2.897   2.265
10521SOL    HW132462   0.002   2.961   2.197
10521SOL    HW232463   6.982   2.847   2.305
10522SOL     OW32464   5.049   2.598   3.521
10522SOL    HW132465   5.020   2.692   3.541
10522SOL    HW232466   5.092   2.594   3.431
10523SOL     OW32467   0.526   4.071   3.266
10523SOL    HW132468   0.598   4.063   3.335
10523SOL    HW232469   0.496   4.167   3.260
10524SOL     OW32470   0.283   6.111   5.094
10524SOL    HW132471   0.224   6.109   5.013
10524SOL    HW232472   0.329   6.200   5.100
10525SOL     OW32473   4.984   1.729   3.730
10525SOL    HW132474   4.885   1.741   3.727
10525SOL    HW232475   5.029   1.812   3.698
10526SOL     OW32476   1.077   4.590   0.368
10526SOL    HW132477   1.034   4.503   0.344
10526SOL    HW232478   1.008   4.652   0.404
10527SOL     OW32479   0.323   0.448   4.870
10527SOL    HW132480   0.274   0.396   4.800
10527SOL    HW232481   0.311   0.404   4.959
10528SOL     OW32482   1.761   3.420   5.390
10528SOL    HW132483   1.833   3.420   5.459
10528SOL    HW232484   1.759   3.509   5.344
10529SOL     OW32485   0.656   6.198   1.355
10529SOL    HW132486   0.750   6.167   1.374
10529SOL    HW232487   0.659   6.267   1.282
10530SOL     OW32488   0.481   5.332   0.642
10530SOL    HW132489   0.499   5.310   0.738
10530SOL    HW232490   0.407   5.399   0.636
10531SOL     OW32491   2.858   3.379   5.109
10531SOL    HW132492   2.876   3.287   5.073
10531SOL    HW232493   2.808   3.372   5.195
10532SOL     OW32494   5.338   6.410   6.738
10532SOL    HW132495   5.372   6.467   6.662
10532SOL    HW232496   5.358   6.314   6.718
10533SOL     OW32497   4.021   6.528   2.903
10533SOL    HW132498   4.093   6.544   2.970
10533SOL    HW232499   4.005   6.611   2.850
10534SOL     OW32500   1.536   6.289   4.082
10534SOL    HW132501   1.564   6.204   4.127
10534SOL    HW232502   1.466   6.269   4.014
10535SOL     OW32503   3.986   2.137   2.401
10535SOL    HW132504   3.944   2.150   2.311
10535SOL    HW232505   3.916   2.111   2.467
10536SOL     OW32506   5.212   2.644   4.500
10536SOL    HW132507   5.189   2.715   4.433
10536SOL    HW232508   5.127   2.603   4.534
10537SOL     OW32509   3.871   0.260   4.345
10537SOL    HW132510   3.897   0.284   4.251
10537SOL    HW232511   3.781   0.215   4.343
10538SOL     OW32512   0.309   3.499   2.955
10538SOL    HW132513   0.344   3.592   2.971
10538SOL    HW232514   0.222   3.505   2.905
10539SOL     OW32515   6.276   0.251   3.527
10539SOL    HW132516   6.177   0.259   3.542
10539SOL    HW232517   6.312   0.176   3.583
10540SOL     OW32518   1.690   3.576   6.131
10540SOL    HW132519   1.784   3.557   6.159
10540SOL    HW232520   1.686   3.579   6.031
10541SOL     OW32521   3.354   3.312   5.077
10541SOL    HW132522   3.309   3.401   5.076
10541SOL    HW232523   3.337   3.266   4.990
10542SOL     OW32524   4.835   6.990   4.309
10542SOL    HW132525   4.741   6.992   4.275
10542SOL    HW232526   4.897   7.020   4.236
10543SOL     OW32527   1.202   3.486   4.942
10543SOL    HW132528   1.115   3.520   4.979
10543SOL    HW232529   1.193   3.389   4.920
10544SOL     OW32530   2.199   1.992   3.081
10544SOL    HW132531   2.170   1.991   3.177
10544SOL    HW232532   2.237   1.903   3.057
10545SOL     OW32533   2.212   2.830   2.545
10545SOL    HW132534   2.197   2.882   2.461
10545SOL    HW232535   2.298   2.779   2.538
10546SOL     OW32536   3.032   6.631   6.795
10546SOL    HW132537   2.938   6.663   6.783
10546SOL    HW232538   3.076   6.683   6.867
10547SOL     OW32539   4.218   6.733   5.018
10547SOL    HW132540   4.121   6.739   4.995
10547SOL    HW232541   4.273   6.737   4.935
10548SOL     OW32542   0.277   5.730   3.337
10548SOL    HW132543   0.348   5.721   3.407
10548SOL    HW232544   0.195   5.679   3.366
10549SOL     OW32545   0.251   0.510   1.660
10549SOL    HW132546   0.185   0.494   1.734
10549SOL    HW232547   0.218   0.584   1.602
10550SOL     OW32548   4.650   5.412   3.417
10550SOL    HW132549   4.621   5.419   3.513
10550SOL    HW232550   4.665   5.316   3.394
10551SOL     OW32551   2.701   1.650   5.794
10551SOL    HW132552   2.714   1.581   5.722
10551SOL    HW232553   2.664   1.605   5.876
10552SOL     OW32554   2.881   0.810   4.282
10552SOL    HW132555   2.950   0.841   4.216
10552SOL    HW232556   2.925   0.751   4.350
10553SOL     OW32557   6.776   5.745   1.035
10553SOL    HW132558   6.719   5.714   0.959
10553SOL    HW232559   6.846   5.808   1.000
10554SOL     OW32560   6.147   6.145   2.593
10554SOL    HW132561   6.214   6.103   2.531
10554SOL    HW232562   6.098   6.218   2.545
10555SOL     OW32563   3.985   3.137   1.033
10555SOL    HW132564   3.997   3.203   1.108
10555SOL    HW232565   4.031   3.052   1.056
10556SOL     OW32566   2.361   1.301   2.604
10556SOL    HW132567   2.262   1.307   2.615
10556SOL    HW232568   2.389   1.357   2.526
10557SOL     OW32569   2.638   4.664   3.406
10557SOL    HW132570   2.726   4.691   3.446
10557SOL    HW232571   2.607   4.578   3.447
10558SOL     OW32572   3.445   5.644   5.265
10558SOL    HW132573   3.515   5.581   5.231
10558SOL    HW232574   3.474   5.681   5.353
10559SOL     OW32575   4.045   6.653   0.924
10559SOL    HW132576   3.996   6.639   1.010
10559SOL    HW232577   4.049   6.566   0.874
10560SOL     OW32578   5.796   0.231   2.032
10560SOL    HW132579   5.736   0.263   1.959
10560SOL    HW232580   5.769   0.273   2.119
10561SOL     OW32581   6.214   4.681   0.055
10561SOL    HW132582   6.221   4.744   0.132
10561SOL    HW232583   6.171   4.596   0.086
10562SOL     OW32584   4.367   5.783   2.606
10562SOL    HW132585   4.462   5.800   2.633
10562SOL    HW232586   4.316   5.869   2.610
10563SOL     OW32587   0.066   6.923   2.034
10563SOL    HW132588   0.093   7.020   2.039
10563SOL    HW232589   0.147   6.866   2.042
10564SOL     OW32590   5.244   4.659   3.773
10564SOL    HW132591   5.230   4.750   3.812
10564SOL    HW232592   5.279   4.668   3.680
10565SOL     OW32593   0.412   0.408   6.090
10565SOL    HW132594   0.368   0.343   6.028
10565SOL    HW232595   0.466   0.474   6.038
10566SOL     OW32596   3.231   2.721   0.600
10566SOL    HW132597   3.321   2.712   0.557
10566SOL    HW232598   3.166   2.761   0.534
10567SOL     OW32599   1.422   1.993   6.429
10567SOL    HW132600   1.347   2.030   6.484
10567SOL    HW232601   1.418   2.032   6.336
10568SOL     OW32602   4.769   2.515   6.135
10568SOL    HW132603   4.730   2.558   6.053
10568SOL    HW232604   4.866   2.539   6.142
10569SOL     OW32605   5.795   6.411   0.212
10569SOL    HW132606   5.825   6.375   0.300
10569SOL    HW232607   5.795   6.338   0.144
10570SOL     OW32608   1.283   4.497   3.410
10570SOL    HW132609   1.271   4.448   3.324
10570SOL    HW232610   1.292   4.431   3.485
10571SOL     OW32611   6.249   4.546   6.543
10571SOL    HW132612   6.288   4.553   6.451
10571SOL    HW232613   6.170   4.606   6.551
10572SOL     OW32614   5.680   4.053   0.775
10572SOL    HW132615   5.723   3.964   0.759
10572SOL    HW232616   5.716   4.120   0.710
10573SOL     OW32617   5.808   1.654   3.116
10573SOL    HW132618   5.817   1.655   3.216
10573SOL    HW232619   5.849   1.570   3.080
10574SOL     OW32620   6.582   2.672   3.429
10574SOL    HW132621   6.645   2.674   3.506
10574SOL    HW232622   6.621   2.724   3.353
10575SOL     OW32623   6.299   6.881   2.011
10575SOL    HW132624   6.269   6.973   1.990
10575SOL    HW232625   6.299   6.868   2.111
10576SOL     OW32626   1.390   4.367   4.569
10576SOL    HW132627   1.377   4.457   4.610
10576SOL    HW232628   1.418   4.378   4.474
10577SOL     OW32629   3.673   4.501   0.321
10577SOL    HW132630   3.653   4.404   0.307
10577SOL    HW232631   3.620   4.535   0.398
10578SOL     OW32632   0.292   3.319   4.895
10578SOL    HW132633   0.220   3.385   4.913
10578SOL    HW232634   0.327   3.283   4.982
10579SOL     OW32635   1.221   3.684   6.707
10579SOL    HW132636   1.159   3.703   6.631
10579SOL    HW232637   1.188   3.603   6.757
10580SOL     OW32638   6.266   6.918   0.270
10580SOL    HW132639   6.254   6.842   0.333
10580SOL    HW232640   6.358   6.914   0.230
10581SOL     OW32641   4.794   6.835   3.306
10581SOL    HW132642   4.717   6.885   3.265
10581SOL    HW232643   4.859   6.900   3.344
10582SOL     OW32644   5.488   4.061   6.483
10582SOL    HW132645   5.481   4.151   6.440
10582SOL    HW232646   5.451   3.992   6.421
10583SOL     OW32647   2.930   1.740   4.960
10583SOL    HW132648   2.918   1.721   4.862
10583SOL    HW232649   2.936   1.839   4.974
10584SOL     OW32650   1.009   6.882   4.416
10584SOL    HW132651   0.971   6.831   4.493
10584SOL    HW232652   1.071   6.952   4.449
10585SOL     OW32653   0.987   7.005   5.122
10585SOL    HW132654   0.931   7.011   5.205
10585SOL    HW232655   0.934   6.960   5.050
10586SOL     OW32656   4.077   4.342   5.310
10586SOL    HW132657   4.058   4.245   5.293
10586SOL    HW232658   4.133   4.378   5.236
10587SOL     OW32659   2.511   4.950   5.436
10587SOL    HW132660   2.415   4.976   5.436
10587SOL    HW232661   2.539   4.924   5.528
10588SOL     OW32662   0.987   4.148   4.177
10588SOL    HW132663   1.064   4.173   4.235
10588SOL    HW232664   0.975   4.049   4.178
10589SOL     OW32665   5.489   5.835   4.000
10589SOL    HW132666   5.527   5.919   4.038
10589SOL    HW232667   5.459   5.852   3.906
10590SOL     OW32668   0.864   4.999   2.572
10590SOL    HW132669   0.929   4.955   2.510
10590SOL    HW232670   0.771   4.971   2.549
10591SOL     OW32671   6.677   2.765   1.522
10591SOL    HW132672   6.755   2.800   1.469
10591SOL    HW232673   6.710   2.697   1.587
10592SOL     OW32674   6.389   2.194   5.140
10592SOL    HW132675   6.477   2.240   5.129
10592SOL    HW232676   6.358   2.204   5.235
10593SOL     OW32677   3.255   5.186   3.444
10593SOL    HW132678   3.195   5.106   3.432
10593SOL    HW232679   3.349   5.154   3.455
10594SOL     OW32680   2.763   6.355   3.556
10594SOL    HW132681   2.828   6.420   3.595
10594SOL    HW232682   2.802   6.262   3.562
10595SOL     OW32683   4.985   6.549   0.318
10595SOL    HW132684   4.975   6.644   0.291
10595SOL    HW232685   5.076   6.536   0.359
10596SOL     OW32686   4.799   3.202   0.133
10596SOL    HW132687   4.763   3.278   0.079
10596SOL    HW232688   4.759   3.204   0.224
10597SOL     OW32689   2.406   0.223   5.084
10597SOL    HW132690   2.308   0.243   5.090
10597SOL    HW232691   2.424   0.135   5.127
10598SOL     OW32692   2.917   1.160   6.130
10598SOL    HW132693   2.830   1.137   6.086
10598SOL    HW232694   2.900   1.217   6.210
10599SOL     OW32695   6.951   2.177   6.614
10599SOL    HW132696   6.853   2.181   6.593
10599SOL    HW232697   6.967   2.113   6.689
10600SOL     OW32698   2.555   2.578   1.305
10600SOL    HW132699   2.637   2.526   1.327
10600SOL    HW232700   2.493   2.577   1.383
10601SOL     OW32701   1.288   0.876   5.656
10601SOL    HW132702   1.199   0.877   5.701
10601SOL    HW232703   1.349   0.941   5.701
10602SOL     OW32704   7.003   6.734   1.405
10602SOL    HW132705   6.944   6.714   1.483
10602SOL    HW232706   0.074   6.704   1.425
10603SOL     OW32707   5.178   0.712   2.803
10603SOL    HW132708   5.223   0.679   2.886
10603SOL    HW232709   5.191   0.647   2.729
10604SOL     OW32710   5.102   0.212   4.851
10604SOL    HW132711   5.025   0.152   4.829
10604SOL    HW232712   5.188   0.162   4.838
10605SOL     OW32713   2.210   1.704   1.322
10605SOL    HW132714   2.254   1.782   1.279
10605SOL    HW232715   2.266   1.672   1.399
10606SOL     OW32716   6.151   0.257   0.217
10606SOL    HW132717   6.087   0.260   0.293
10606SOL    HW232718   6.238   0.297   0.244
10607SOL     OW32719   3.125   5.216   6.578
10607SOL    HW132720   3.129   5.179   6.485
10607SOL    HW232721   3.075   5.153   6.637
10608SOL     OW32722   5.925   4.000   3.801
10608SOL    HW132723   5.921   3.900   3.799
10608SOL    HW232724   5.883   4.036   3.718
10609SOL     OW32725   4.812   1.406   6.719
10609SOL    HW132726   4.721   1.366   6.710
10609SOL    HW232727   4.820   1.453   6.807
10610SOL     OW32728   0.674   1.451   3.364
10610SOL    HW132729   0.751   1.514   3.352
10610SOL    HW232730   0.694   1.366   3.315
10611SOL     OW32731   3.820   5.541   4.421
10611SOL    HW132732   3.731   5.583   4.401
10611SOL    HW232733   3.876   5.539   4.339
10612SOL     OW32734   5.896   1.652   3.365
10612SOL    HW132735   5.994   1.661   3.351
10612SOL    HW232736   5.866   1.719   3.434
10613SOL     OW32737   4.276   6.191   4.540
10613SOL    HW132738   4.371   6.221   4.550
10613SOL    HW232739   4.243   6.218   4.450
10614SOL     OW32740   3.744   1.403   6.074
10614SOL    HW132741   3.805   1.345   6.020
10614SOL    HW232742   3.798   1.457   6.138
10615SOL     OW32743   1.596   1.755   5.427
10615SOL    HW132744   1.687   1.752   5.468
10615SOL    HW232745   1.590   1.685   5.355
10616SOL     OW32746   2.483   6.470   0.238
10616SOL    HW132747   2.450   6.564   0.250
10616SOL    HW232748   2.535   6.442   0.319
10617SOL     OW32749   2.292   3.311   1.343
10617SOL    HW132750   2.315   3.334   1.437
10617SOL    HW232751   2.332   3.221   1.320
10618SOL     OW32752   1.528   5.313   3.707
10618SOL    HW132753   1.570   5.267   3.629
10618SOL    HW232754   1.437   5.346   3.682
10619SOL     OW32755   2.337   2.386   2.345
10619SOL    HW132756   2.322   2.397   2.443
10619SOL    HW232757   2.314   2.292   2.318
10620SOL     OW32758   3.255   1.491   6.081
10620SOL    HW132759   3.166   1.458   6.050
10620SOL    HW232760   3.242   1.554   6.158
10621SOL     OW32761   0.312   3.942   3.236
10621SOL    HW132762   0.405   3.976   3.252
10621SOL    HW232763   0.263   3.936   3.322
10622SOL     OW32764   4.642   2.072   0.528
10622SOL    HW132765   4.687   2.147   0.577
10622SOL    HW232766   4.620   2.102   0.435
10623SOL     OW32767   4.916   6.745   6.076
10623SOL    HW132768   4.991   6.685   6.048
10623SOL    HW232769   4.836   6.691   6.101
10624SOL     OW32770   0.364   1.990   6.915
10624SOL    HW132771   0.351   2.049   6.835
10624SOL    HW232772   0.455   2.005   6.953
10625SOL     OW32773   5.369   4.551   6.957
10625SOL    HW132774   5.436   4.568   0.007
10625SOL    HW232775   5.286   4.604   6.975
10626SOL     OW32776   5.294   3.258   1.029
10626SOL    HW132777   5.314   3.328   0.961
10626SOL    HW232778   5.263   3.174   0.983
10627SOL     OW32779   5.769   5.266   5.835
10627SOL    HW132780   5.691   5.205   5.818
10627SOL    HW232781   5.738   5.347   5.885
10628SOL     OW32782   3.865   6.926   0.928
10628SOL    HW132783   3.880   6.959   1.021
10628SOL    HW232784   3.896   6.832   0.920
10629SOL     OW32785   3.186   5.728   4.806
10629SOL    HW132786   3.268   5.780   4.782
10629SOL    HW232787   3.211   5.653   4.867
10630SOL     OW32788   4.090   0.773   2.297
10630SOL    HW132789   4.051   0.851   2.346
10630SOL    HW232790   4.134   0.804   2.213
10631SOL     OW32791   3.761   6.090   0.551
10631SOL    HW132792   3.846   6.089   0.499
10631SOL    HW232793   3.782   6.096   0.649
10632SOL     OW32794   5.081   5.964   3.330
10632SOL    HW132795   5.094   5.887   3.392
10632SOL    HW232796   5.166   5.979   3.278
10633SOL     OW32797   1.366   3.201   1.439
10633SOL    HW132798   1.378   3.228   1.343
10633SOL    HW232799   1.361   3.283   1.496
10634SOL     OW32800   0.764   3.543   0.050
10634SOL    HW132801   0.698   3.592   7.015
10634SOL    HW232802   0.852   3.592   0.050
10635SOL     OW32803   2.386   4.716   6.092
10635SOL    HW132804   2.472   4.766   6.103
10635SOL    HW232805   2.403   4.618   6.105
10636SOL     OW32806   6.672   2.136   6.611
10636SOL    HW132807   6.602   2.207   6.598
10636SOL    HW232808   6.649   2.055   6.558
10637SOL     OW32809   2.974   0.951   7.013
10637SOL    HW132810   2.923   1.025   6.968
10637SOL    HW232811   3.044   0.917   6.951
10638SOL     OW32812   6.483   5.849   1.578
10638SOL    HW132813   6.473   5.765   1.632
10638SOL    HW232814   6.575   5.885   1.590
10639SOL     OW32815   1.328   4.847   1.870
10639SOL    HW132816   1.306   4.945   1.865
10639SOL    HW232817   1.426   4.836   1.887
10640SOL     OW32818   4.175   6.700   3.346
10640SOL    HW132819   4.106   6.641   3.389
10640SOL    HW232820   4.188   6.672   3.251
10641SOL     OW32821   1.445   0.978   3.456
10641SOL    HW132822   1.491   0.889   3.453
10641SOL    HW232823   1.367   0.972   3.519
10642SOL     OW32824   6.016   2.330   6.350
10642SOL    HW132825   5.982   2.401   6.288
10642SOL    HW232826   5.979   2.241   6.324
10643SOL     OW32827   2.517   4.851   5.674
10643SOL    HW132828   2.600   4.853   5.730
10643SOL    HW232829   2.439   4.824   5.731
10644SOL     OW32830   6.222   3.227   2.909
10644SOL    HW132831   6.241   3.289   2.833
10644SOL    HW232832   6.145   3.168   2.886
10645SOL     OW32833   2.733   2.336   3.702
10645SOL    HW132834   2.799   2.272   3.664
10645SOL    HW232835   2.721   2.413   3.639
10646SOL     OW32836   5.498   0.603   3.708
10646SOL    HW132837   5.568   0.621   3.776
10646SOL    HW232838   5.499   0.506   3.683
10647SOL     OW32839   3.332   5.342   4.676
10647SOL    HW132840   3.349   5.309   4.583
10647SOL    HW232841   3.322   5.442   4.674
10648SOL     OW32842   5.001   5.004   5.883
10648SOL    HW132843   4.999   5.098   5.851
10648SOL    HW232844   4.908   4.968   5.886
10649SOL     OW32845   6.455   3.526   2.885
10649SOL    HW132846   6.493   3.449   2.936
10649SOL    HW232847   6.529   3.580   2.845
10650SOL     OW32848   0.309   0.380   3.721
10650SOL    HW132849   0.219   0.423   3.716
10650SOL    HW232850   0.327   0.329   3.637
10651SOL     OW32851   3.982   5.920   5.887
10651SOL    HW132852   4.007   5.977   5.965
10651SOL    HW232853   3.888   5.887   5.900
10652SOL     OW32854   1.964   0.329   6.849
10652SOL    HW132855   1.985   0.377   6.934
10652SOL    HW232856   1.880   0.367   6.809
10653SOL     OW32857   4.229   5.573   3.962
10653SOL    HW132858   4.286   5.631   4.020
10653SOL    HW232859   4.270   5.567   3.871
10654SOL     OW32860   6.074   1.821   4.184
10654SOL    HW132861   5.993   1.766   4.202
10654SOL    HW232862   6.050   1.918   4.187
10655SOL     OW32863   0.244   4.922   1.079
10655SOL    HW132864   0.149   4.952   1.085
10655SOL    HW232865   0.248   4.822   1.089
10656SOL     OW32866   6.077   2.505   3.331
10656SOL    HW132867   6.151   2.442   3.306
10656SOL    HW232868   5.996   2.485   3.274
10657SOL     OW32869   4.972   6.621   4.447
10657SOL    HW132870   4.878   6.602   4.419
10657SOL    HW232871   5.006   6.547   4.506
10658SOL     OW32872   0.672   3.187   5.479
10658SOL    HW132873   0.661   3.119   5.406
10658SOL    HW232874   0.699   3.141   5.563
10659SOL     OW32875   1.185   5.391   0.702
10659SOL    HW132876   1.159   5.478   0.660
10659SOL    HW232877   1.111   5.325   0.689
10660SOL     OW32878   5.687   2.978   5.344
10660SOL    HW132879   5.759   2.973   5.413
10660SOL    HW232880   5.721   2.941   5.257
10661SOL     OW32881   2.227   5.059   5.748
10661SOL    HW132882   2.238   4.968   5.789
10661SOL    HW232883   2.149   5.105   5.791
10662SOL     OW32884   2.637   1.182   2.536
10662SOL    HW132885   2.611   1.205   2.443
10662SOL    HW232886   2.580   1.234   2.600
10663SOL     OW32887   1.430   1.598   4.027
10663SOL    HW132888   1.423   1.689   4.069
10663SOL    HW232889   1.486   1.604   3.944
10664SOL     OW32890   0.995   5.080   4.855
10664SOL    HW132891   0.944   5.066   4.770
10664SOL    HW232892   0.984   5.000   4.914
10665SOL     OW32893   1.980   2.900   6.324
10665SOL    HW132894   2.007   2.980   6.271
10665SOL    HW232895   1.881   2.890   6.323
10666SOL     OW32896   3.294   3.648   1.948
10666SOL    HW132897   3.377   3.627   1.897
10666SOL    HW232898   3.311   3.722   2.013
10667SOL     OW32899   5.487   2.149   3.704
10667SOL    HW132900   5.533   2.068   3.741
10667SOL    HW232901   5.513   2.162   3.609
10668SOL     OW32902   3.014   2.447   5.331
10668SOL    HW132903   3.046   2.537   5.361
10668SOL    HW232904   3.065   2.419   5.250
10669SOL     OW32905   6.418   1.517   1.191
10669SOL    HW132906   6.513   1.537   1.165
10669SOL    HW232907   6.395   1.424   1.165
10670SOL     OW32908   4.884   3.669   4.084
10670SOL    HW132909   4.915   3.725   4.160
10670SOL    HW232910   4.893   3.720   3.998
10671SOL     OW32911   1.357   3.070   4.378
10671SOL    HW132912   1.431   3.118   4.329
10671SOL    HW232913   1.313   3.005   4.316
10672SOL     OW32914   5.830   3.492   1.288
10672SOL    HW132915   5.768   3.413   1.286
10672SOL    HW232916   5.904   3.478   1.222
10673SOL     OW32917   2.064   1.187   1.007
10673SOL    HW132918   1.988   1.133   0.971
10673SOL    HW232919   2.123   1.216   0.932
10674SOL     OW32920   3.432   3.841   3.868
10674SOL    HW132921   3.374   3.902   3.814
10674SOL    HW232922   3.385   3.755   3.885
10675SOL     OW32923   3.631   6.866   5.606
10675SOL    HW132924   3.729   6.872   5.625
10675SOL    HW232925   3.595   6.782   5.645
10676SOL     OW32926   1.886   6.296   5.502
10676SOL    HW132927   1.852   6.388   5.482
10676SOL    HW232928   1.923   6.294   5.595
10677SOL     OW32929   0.256   1.460   0.753
10677SOL    HW132930   0.219   1.372   0.783
10677SOL    HW232931   0.355   1.459   0.762
10678SOL     OW32932   4.266   5.363   3.541
10678SOL    HW132933   4.220   5.276   3.560
10678SOL    HW232934   4.322   5.389   3.620
10679SOL     OW32935   3.789   3.410   6.885
10679SOL    HW132936   3.791   3.459   6.798
10679SOL    HW232937   3.865   3.441   6.942
10680SOL     OW32938   4.243   0.883   3.762
10680SOL    HW132939   4.253   0.911   3.667
10680SOL    HW232940   4.224   0.785   3.766
10681SOL     OW32941   1.204   2.731   5.696
10681SOL    HW132942   1.118   2.781   5.687
10681SOL    HW232943   1.203   2.679   5.781
10682SOL     OW32944   5.210   2.991   6.369
10682SOL    HW132945   5.253   3.074   6.405
10682SOL    HW232946   5.187   3.005   6.273
10683SOL     OW32947   3.219   0.612   3.781
10683SOL    HW132948   3.290   0.589   3.715
10683SOL    HW232949   3.199   0.710   3.776
10684SOL     OW32950   4.347   4.851   1.830
10684SOL    HW132951   4.394   4.762   1.833
10684SOL    HW232952   4.381   4.908   1.904
10685SOL     OW32953   0.835   5.942   1.475
10685SOL    HW132954   0.872   5.849   1.476
10685SOL    HW232955   0.859   5.986   1.388
10686SOL     OW32956   2.216   2.767   6.818
10686SOL    HW132957   2.265   2.717   6.746
10686SOL    HW232958   2.142   2.821   6.777
10687SOL     OW32959   0.837   4.253   3.338
10687SOL    HW132960   0.786   4.338   3.346
10687SOL    HW232961   0.833   4.204   3.425
10688SOL     OW32962   5.552   1.649   2.677
10688SOL    HW132963   5.458   1.615   2.679
10688SOL    HW232964   5.581   1.673   2.770
10689SOL     OW32965   6.787   6.936   2.617
10689SOL    HW132966   6.797   6.838   2.635
10689SOL    HW232967   6.785   6.952   2.519
10690SOL     OW32968   0.188   6.953   3.912
10690SOL    HW132969   0.089   6.966   3.911
10690SOL    HW232970   0.211   6.880   3.977
10691SOL     OW32971   3.048   1.287   3.084
10691SOL    HW132972   3.025   1.361   3.147
10691SOL    HW232973   3.036   1.317   2.990
10692SOL     OW32974   2.729   0.657   4.090
10692SOL    HW132975   2.743   0.743   4.041
10692SOL    HW232976   2.758   0.668   4.186
10693SOL     OW32977   1.237   5.711   0.347
10693SOL    HW132978   1.213   5.808   0.356
10693SOL    HW232979   1.190   5.658   0.418
10694SOL     OW32980   4.782   6.299   5.494
10694SOL    HW132981   4.784   6.206   5.458
10694SOL    HW232982   4.836   6.304   5.578
10695SOL     OW32983   0.238   3.923   1.655
10695SOL    HW132984   0.283   4.012   1.664
10695SOL    HW232985   0.292   3.853   1.701
10696SOL     OW32986   0.311   4.772   4.585
10696SOL    HW132987   0.250   4.696   4.604
10696SOL    HW232988   0.258   4.855   4.570
10697SOL     OW32989   1.460   5.076   5.613
10697SOL    HW132990   1.445   4.991   5.663
10697SOL    HW232991   1.372   5.120   5.593
10698SOL     OW32992   4.428   3.601   6.992
10698SOL    HW132993   4.422   3.590   6.893
10698SOL    HW232994   4.483   3.682   7.014
10699SOL     OW32995   3.378   3.939   0.397
10699SOL    HW132996   3.285   3.923   0.430
10699SOL    HW232997   3.379   3.941   0.298
10700SOL     OW32998   4.956   0.207   0.393
10700SOL    HW132999   4.914   0.264   0.323
10700SOL    HW233000   4.910   0.118   0.396
10701SOL     OW33001   2.762   0.465   6.343
10701SOL    HW133002   2.724   0.549   6.383
10701SOL    HW233003   2.734   0.458   6.248
10702SOL     OW33004   4.931   2.471   2.230
10702SOL    HW133005   4.905   2.561   2.266
10702SOL    HW233006   4.879   2.400   2.276
10703SOL     OW33007   1.479   2.563   6.217
10703SOL    HW133008   1.577   2.544   6.223
10703SOL    HW233009   1.439   2.563   6.308
10704SOL     OW33010   0.041   6.525   2.456
10704SOL    HW133011   0.071   6.536   2.551
10704SOL    HW233012   0.053   6.611   2.407
10705SOL     OW33013   5.778   4.798   1.111
10705SOL    HW133014   5.705   4.808   1.043
10705SOL    HW233015   5.808   4.889   1.141
10706SOL     OW33016   5.304   0.309   2.192
10706SOL    HW133017   5.387   0.356   2.223
10706SOL    HW233018   5.290   0.328   2.094
10707SOL     OW33019   5.702   6.930   4.000
10707SOL    HW133020   5.792   6.918   4.041
10707SOL    HW233021   5.664   6.840   3.977
10708SOL     OW33022   4.398   2.324   2.449
10708SOL    HW133023   4.338   2.324   2.369
10708SOL    HW233024   4.452   2.409   2.450
10709SOL     OW33025   6.020   5.242   4.114
10709SOL    HW133026   5.991   5.271   4.023
10709SOL    HW233027   6.012   5.319   4.177
10710SOL     OW33028   5.142   1.124   2.987
10710SOL    HW133029   5.114   1.206   3.038
10710SOL    HW233030   5.223   1.146   2.933
10711SOL     OW33031   3.620   6.685   1.541
10711SOL    HW133032   3.523   6.697   1.564
10711SOL    HW233033   3.669   6.650   1.621
10712SOL     OW33034   3.738   0.240   3.187
10712SOL    HW133035   3.786   0.273   3.106
10712SOL    HW233036   3.640   0.261   3.178
10713SOL     OW33037   1.633   3.525   0.619
10713SOL    HW133038   1.541   3.502   0.653
10713SOL    HW233039   1.686   3.442   0.605
10714SOL     OW33040   3.887   3.115   3.959
10714SOL    HW133041   3.856   3.197   4.006
10714SOL    HW233042   3.904   3.042   4.026
10715SOL     OW33043   6.054   0.393   1.843
10715SOL    HW133044   6.000   0.331   1.787
10715SOL    HW233045   6.022   0.487   1.829
10716SOL     OW33046   6.743   2.501   2.466
10716SOL    HW133047   6.796   2.565   2.522
10716SOL    HW233048   6.653   2.541   2.447
10717SOL     OW33049   1.223   2.669   0.493
10717SOL    HW133050   1.209   2.573   0.470
10717SOL    HW233051   1.260   2.676   0.585
10718SOL     OW33052   1.175   4.609   6.238
10718SOL    HW133053   1.195   4.707   6.226
10718SOL    HW233054   1.226   4.574   6.317
10719SOL     OW33055   6.613   6.004   3.970
10719SOL    HW133056   6.619   6.073   3.897
10719SOL    HW233057   6.606   5.913   3.929
10720SOL     OW33058   5.639   5.443   4.137
10720SOL    HW133059   5.566   5.470   4.199
10720SOL    HW233060   5.687   5.363   4.173
10721SOL     OW33061   4.993   4.043   5.243
10721SOL    HW133062   4.991   4.137   5.208
10721SOL    HW233063   5.078   4.028   5.292
10722SOL     OW33064   6.618   3.578   6.363
10722SOL    HW133065   6.679   3.580   6.284
10722SOL    HW233066   6.649   3.645   6.431
10723SOL     OW33067   0.206   0.761   6.983
10723SOL    HW133068   0.254   0.824   0.021
10723SOL    HW233069   0.238   0.774   6.889
10724SOL     OW33070   0.175   6.796   0.469
10724SOL    HW133071   0.119   6.876   0.492
10724SOL    HW233072   0.164   6.727   0.540
10725SOL     OW33073   2.744   5.276   5.293
10725SOL    HW133074   2.818   5.292   5.227
10725SOL    HW233075   2.736   5.177   5.310
10726SOL     OW33076   5.225   1.228   3.700
10726SOL    HW133077   5.201   1.144   3.651
10726SOL    HW233078   5.272   1.204   3.785
10727SOL     OW33079   1.125   5.498   6.066
10727SOL    HW133080   1.115   5.581   6.120
10727SOL    HW233081   1.207   5.449   6.094
10728SOL     OW33082   6.463   5.208   0.478
10728SOL    HW133083   6.473   5.306   0.494
10728SOL    HW233084   6.414   5.193   0.392
10729SOL     OW33085   6.778   2.278   1.387
10729SOL    HW133086   6.723   2.355   1.354
10729SOL    HW233087   6.781   2.281   1.487
10730SOL     OW33088   3.787   0.528   1.590
10730SOL    HW133089   3.786   0.478   1.676
10730SOL    HW233090   3.842   0.611   1.601
10731SOL     OW33091   3.984   0.993   1.006
10731SOL    HW133092   3.992   1.087   1.038
10731SOL    HW233093   4.030   0.983   0.918
10732SOL     OW33094   0.309   5.262   5.082
10732SOL    HW133095   0.282   5.260   4.986
10732SOL    HW233096   0.249   5.201   5.134
10733SOL     OW33097   5.676   1.572   6.893
10733SOL    HW133098   5.679   1.494   6.831
10733SOL    HW233099   5.727   1.649   6.853
10734SOL     OW33100   0.923   1.235   0.921
10734SOL    HW133101   0.860   1.182   0.979
10734SOL    HW233102   1.016   1.223   0.955
10735SOL     OW33103   6.936   3.044   2.097
10735SOL    HW133104   6.903   2.996   2.016
10735SOL    HW233105   6.858   3.080   2.149
10736SOL     OW33106   2.231   0.115   3.684
10736SOL    HW133107   2.250   0.184   3.754
10736SOL    HW233108   2.236   0.157   3.593
10737SOL     OW33109   0.025   2.219   1.708
10737SOL    HW133110   0.012   2.150   1.779
10737SOL    HW233111   0.111   2.266   1.723
10738SOL     OW33112   3.876   6.361   2.700
10738SOL    HW133113   3.795   6.315   2.737
10738SOL    HW233114   3.930   6.399   2.774
10739SOL     OW33115   1.464   2.998   1.652
10739SOL    HW133116   1.443   2.917   1.596
10739SOL    HW233117   1.429   3.080   1.607
10740SOL     OW33118   5.662   5.013   4.878
10740SOL    HW133119   5.622   4.974   4.795
10740SOL    HW233120   5.748   5.058   4.856
10741SOL     OW33121   3.866   0.566   2.544
10741SOL    HW133122   3.951   0.611   2.571
10741SOL    HW233123   3.857   0.566   2.445
10742SOL     OW33124   5.788   5.491   1.059
10742SOL    HW133125   5.847   5.457   1.132
10742SOL    HW233126   5.843   5.536   0.990
10743SOL     OW33127   1.886   2.328   4.021
10743SOL    HW133128   1.847   2.420   4.011
10743SOL    HW233129   1.949   2.327   4.099
10744SOL     OW33130   3.087   1.656   1.084
10744SOL    HW133131   3.157   1.609   1.137
10744SOL    HW233132   3.124   1.679   0.994
10745SOL     OW33133   0.114   5.702   6.068
10745SOL    HW133134   0.114   5.790   6.021
10745SOL    HW233135   0.207   5.666   6.071
10746SOL     OW33136   1.167   3.814   5.558
10746SOL    HW133137   1.127   3.734   5.513
10746SOL    HW233138   1.094   3.875   5.589
10747SOL     OW33139   2.827   1.144   4.413
10747SOL    HW133140   2.791   1.083   4.342
10747SOL    HW233141   2.862   1.089   4.489
10748SOL     OW33142   6.185   1.139   2.385
10748SOL    HW133143   6.167   1.237   2.382
10748SOL    HW233144   6.277   1.121   2.349
10749SOL     OW33145   1.129   6.635   5.185
10749SOL    HW133146   1.185   6.718   5.193
10749SOL    HW233147   1.046   6.645   5.239
10750SOL     OW33148   3.504   0.661   5.219
10750SOL    HW133149   3.603   0.647   5.223
10750SOL    HW233150   3.485   0.759   5.215
10751SOL     OW33151   2.277   4.775   3.707
10751SOL    HW133152   2.354   4.717   3.733
10751SOL    HW233153   2.268   4.775   3.607
10752SOL     OW33154   5.366   5.015   5.387
10752SOL    HW133155   5.297   4.945   5.404
10752SOL    HW233156   5.332   5.080   5.318
10753SOL     OW33157   0.415   3.832   3.906
10753SOL    HW133158   0.336   3.866   3.855
10753SOL    HW233159   0.389   3.811   4.000
10754SOL     OW33160   0.774   0.011   2.973
10754SOL    HW133161   0.824   0.070   2.909
10754SOL    HW233162   0.793   0.038   3.067
10755SOL     OW33163   6.716   6.823   2.279
10755SOL    HW133164   6.748   6.729   2.287
10755SOL    HW233165   6.792   6.886   2.293
10756SOL     OW33166   6.934   5.597   5.544
10756SOL    HW133167   6.930   5.497   5.549
10756SOL    HW233168   0.002   5.629   5.573
10757SOL     OW33169   2.276   2.768   0.089
10757SOL    HW133170   2.235   2.679   0.107
10757SOL    HW233171   2.302   2.773   7.014
10758SOL     OW33172   0.618   6.280   3.250
10758SOL    HW133173   0.636   6.377   3.267
10758SOL    HW233174   0.682   6.224   3.304
10759SOL     OW33175   0.633   3.020   0.707
10759SOL    HW133176   0.698   2.944   0.702
10759SOL    HW233177   0.626   3.064   0.618
10760SOL     OW33178   5.521   1.006   3.661
10760SOL    HW133179   5.537   1.104   3.670
10760SOL    HW233180   5.597   0.964   3.611
10761SOL     OW33181   1.804   5.192   6.484
10761SOL    HW133182   1.724   5.132   6.477
10761SOL    HW233183   1.834   5.218   6.392
10762SOL     OW33184   2.769   0.368   5.302
10762SOL    HW133185   2.739   0.376   5.207
10762SOL    HW233186   2.705   0.417   5.361
10763SOL     OW33187   3.689   0.682   3.476
10763SOL    HW133188   3.754   0.752   3.446
10763SOL    HW233189   3.727   0.591   3.454
10764SOL     OW33190   4.894   1.239   4.342
10764SOL    HW133191   4.992   1.227   4.324
10764SOL    HW233192   4.881   1.314   4.406
10765SOL     OW33193   5.259   2.969   0.996
10765SOL    HW133194   5.180   2.927   1.041
10765SOL    HW233195   5.293   2.907   0.925
10766SOL     OW33196   3.615   4.227   0.776
10766SOL    HW133197   3.667   4.312   0.768
10766SOL    HW233198   3.669   4.151   0.739
10767SOL     OW33199   2.572   6.924   1.131
10767SOL    HW133200   2.558   6.863   1.053
10767SOL    HW233201   2.577   7.019   1.099
10768SOL     OW33202   6.727   4.954   0.942
10768SOL    HW133203   6.704   4.976   0.847
10768SOL    HW233204   6.752   5.038   0.991
10769SOL     OW33205   2.107   3.350   5.955
10769SOL    HW133206   2.151   3.439   5.972
10769SOL    HW233207   2.142   3.312   5.869
10770SOL     OW33208   4.978   5.343   2.971
10770SOL    HW133209   4.906   5.315   2.907
10770SOL    HW233210   4.936   5.373   3.057
10771SOL     OW33211   3.536   0.197   4.085
10771SOL    HW133212   3.576   0.106   4.092
10771SOL    HW233213   3.493   0.208   3.996
10772SOL     OW33214   6.865   5.889   4.232
10772SOL    HW133215   6.877   5.957   4.305
10772SOL    HW233216   6.878   5.933   4.143
10773SOL     OW33217   5.761   4.366   4.919
10773SOL    HW133218   5.837   4.402   4.972
10773SOL    HW233219   5.790   4.285   4.868
10774SOL     OW33220   1.391   1.323   3.937
10774SOL    HW133221   1.487   1.313   3.963
10774SOL    HW233222   1.347   1.392   3.994
10775SOL     OW33223   1.106   4.201   1.806
10775SOL    HW133224   1.023   4.233   1.761
10775SOL    HW233225   1.186   4.230   1.753
10776SOL     OW33226   1.894   1.096   5.936
10776SOL    HW133227   1.900   1.002   5.902
10776SOL    HW233228   1.822   1.145   5.886
10777SOL     OW33229   3.749   5.060   1.581
10777SOL    HW133230   3.812   4.988   1.552
10777SOL    HW233231   3.672   5.065   1.518
10778SOL     OW33232   5.379   6.259   4.144
10778SOL    HW133233   5.452   6.192   4.132
10778SOL    HW233234   5.297   6.228   4.096
10779SOL     OW33235   6.003   3.015   3.257
10779SOL    HW133236   6.074   2.947   3.238
10779SOL    HW233237   5.941   3.021   3.179
10780SOL     OW33238   1.237   0.923   3.658
10780SOL    HW133239   1.194   0.994   3.713
10780SOL    HW233240   1.276   0.853   3.718
10781SOL     OW33241   3.968   0.420   4.554
10781SOL    HW133242   3.957   0.346   4.486
10781SOL    HW233243   4.000   0.502   4.509
10782SOL     OW33244   6.081   6.706   3.971
10782SOL    HW133245   5.996   6.665   4.003
10782SOL    HW233246   6.061   6.795   3.930
10783SOL     OW33247   6.686   2.508   3.087
10783SOL    HW133248   6.717   2.452   3.164
10783SOL    HW233249   6.594   2.481   3.061
10784SOL     OW33250   2.894   1.128   4.045
10784SOL    HW133251   2.963   1.149   3.975
10784SOL    HW233252   2.939   1.090   4.125
10785SOL     OW33253   0.899   3.843   0.183
10785SOL    HW133254   0.953   3.787   0.120
10785SOL    HW233255   0.836   3.900   0.131
10786SOL     OW33256   6.320   5.817   3.056
10786SOL    HW133257   6.270   5.736   3.025
10786SOL    HW233258   6.415   5.812   3.023
10787SOL     OW33259   0.438   1.048   5.500
10787SOL    HW133260   0.426   0.979   5.572
10787SOL    HW233261   0.536   1.060   5.482
10788SOL     OW33262   0.610   3.696   6.928
10788SOL    HW133263   0.531   3.666   6.875
10788SOL    HW233264   0.614   3.796   6.928
10789SOL     OW33265   6.747   2.555   0.121
10789SOL    HW133266   6.770   2.578   0.216
10789SOL    HW233267   6.825   2.576   0.062
10790SOL     OW33268   0.414   6.866   1.785
10790SOL    HW133269   0.351   6.793   1.811
10790SOL    HW233270   0.362   6.946   1.753
10791SOL     OW33271   6.432   6.318   2.536
10791SOL    HW133272   6.391   6.248   2.477
10791SOL    HW233273   6.376   6.401   2.534
10792SOL     OW33274   3.802   3.530   5.345
10792SOL    HW133275   3.765   3.600   5.405
10792SOL    HW233276   3.902   3.530   5.352
10793SOL     OW33277   5.575   3.359   5.630
10793SOL    HW133278   5.480   3.372   5.659
10793SOL    HW233279   5.634   3.352   5.710
10794SOL     OW33280   3.347   3.601   3.911
10794SOL    HW133281   3.248   3.590   3.921
10794SOL    HW233282   3.392   3.516   3.939
10795SOL     OW33283   0.830   4.373   2.818
10795SOL    HW133284   0.758   4.434   2.785
10795SOL    HW233285   0.791   4.284   2.840
10796SOL     OW33286   0.747   6.485   5.399
10796SOL    HW133287   0.771   6.437   5.315
10796SOL    HW233288   0.724   6.580   5.379
10797SOL     OW33289   4.042   2.927   0.510
10797SOL    HW133290   4.129   2.948   0.467
10797SOL    HW233291   3.990   3.011   0.524
10798SOL     OW33292   1.763   1.137   1.061
10798SOL    HW133293   1.678   1.154   1.111
10798SOL    HW233294   1.742   1.103   0.970
10799SOL     OW33295   3.923   0.338   2.677
10799SOL    HW133296   4.002   0.350   2.617
10799SOL    HW233297   3.890   0.428   2.707
10800SOL     OW33298   0.982   6.291   0.187
10800SOL    HW133299   1.053   6.305   0.256
10800SOL    HW233300   0.982   6.195   0.159
10801SOL     OW33301   1.447   0.455   0.298
10801SOL    HW133302   1.430   0.543   0.342
10801SOL    HW233303   1.385   0.444   0.220
10802SOL     OW33304   6.196   6.576   3.747
10802SOL    HW133305   6.114   6.519   3.751
10802SOL    HW233306   6.195   6.640   3.824
10803SOL     OW33307   1.452   5.424   6.572
10803SOL    HW133308   1.419   5.455   6.661
10803SOL    HW233309   1.552   5.427   6.571
10804SOL     OW33310   0.389   3.252   3.567
10804SOL    HW133311   0.355   3.183   3.631
10804SOL    HW233312   0.448   3.317   3.616
10805SOL     OW33313   6.143   0.649   4.698
10805SOL    HW133314   6.059   0.655   4.752
10805SOL    HW233315   6.210   0.714   4.733
10806SOL     OW33316   2.795   4.834   6.789
10806SOL    HW133317   2.836   4.883   6.867
10806SOL    HW233318   2.696   4.848   6.791
10807SOL     OW33319   2.251   5.779   3.743
10807SOL    HW133320   2.257   5.721   3.662
10807SOL    HW233321   2.192   5.857   3.725
10808SOL     OW33322   6.631   2.220   6.006
10808SOL    HW133323   6.691   2.207   6.085
10808SOL    HW233324   6.539   2.245   6.038
10809SOL     OW33325   2.671   5.076   4.291
10809SOL    HW133326   2.597   5.139   4.313
10809SOL    HW233327   2.758   5.124   4.294
10810SOL     OW33328   0.752   0.480   4.151
10810SOL    HW133329   0.799   0.408   4.200
10810SOL    HW233330   0.789   0.569   4.179
10811SOL     OW33331   5.042   5.616   5.240
10811SOL    HW133332   4.944   5.610   5.259
10811SOL    HW233333   5.070   5.711   5.241
10812SOL     OW33334   0.310   3.179   6.533
10812SOL    HW133335   0.215   3.196   6.559
10812SOL    HW233336   0.325   3.080   6.528
10813SOL     OW33337   0.700   3.698   6.118
10813SOL    HW133338   0.666   3.625   6.059
10813SOL    HW233339   0.664   3.686   6.211
10814SOL     OW33340   2.241   0.168   7.019
10814SOL    HW133341   2.161   0.227   0.004
10814SOL    HW233342   2.307   0.208   6.955
10815SOL     OW33343   5.341   1.217   3.962
10815SOL    HW133344   5.376   1.310   3.950
10815SOL    HW233345   5.249   1.221   4.001
10816SOL     OW33346   3.376   3.016   3.631
10816SOL    HW133347   3.386   3.112   3.604
10816SOL    HW233348   3.328   2.967   3.559
10817SOL     OW33349   2.515   0.233   3.139
10817SOL    HW133350   2.578   0.302   3.104
10817SOL    HW233351   2.447   0.212   3.070
10818SOL     OW33352   4.743   5.150   5.843
10818SOL    HW133353   4.808   5.211   5.890
10818SOL    HW233354   4.691   5.203   5.776
10819SOL     OW33355   0.048   5.136   6.712
10819SOL    HW133356   0.068   5.124   6.615
10819SOL    HW233357   6.991   5.080   6.736
10820SOL     OW33358   1.207   4.955   5.483
10820SOL    HW133359   1.256   4.940   5.397
10820SOL    HW233360   1.236   4.887   5.550
10821SOL     OW33361   4.571   5.088   2.600
10821SOL    HW133362   4.571   5.104   2.698
10821SOL    HW233363   4.584   5.175   2.552
10822SOL     OW33364   5.770   2.568   0.861
10822SOL    HW133365   5.852   2.551   0.914
10822SOL    HW233366   5.772   2.514   0.777
10823SOL     OW33367   6.958   6.925   3.529
10823SOL    HW133368   6.940   6.862   3.604
10823SOL    HW233369   7.001   7.008   3.565
10824SOL     OW33370   1.302   1.127   4.729
10824SOL    HW133371   1.212   1.096   4.757
10824SOL    HW233372   1.335   1.197   4.793
10825SOL     OW33373   1.493   1.777   0.553
10825SOL    HW133374   1.501   1.840   0.631
10825SOL    HW233375   1.584   1.752   0.521
10826SOL     OW33376   1.894   1.954   2.399
10826SOL    HW133377   1.798   1.969   2.374
10826SOL    HW233378   1.940   2.042   2.408
10827SOL     OW33379   6.685   3.207   5.583
10827SOL    HW133380   6.609   3.212   5.519
10827SOL    HW233381   6.765   3.252   5.544
10828SOL     OW33382   6.641   3.838   6.892
10828SOL    HW133383   6.572   3.766   6.887
10828SOL    HW233384   6.632   3.898   6.812
10829SOL     OW33385   4.637   3.315   6.391
10829SOL    HW133386   4.675   3.407   6.387
10829SOL    HW233387   4.550   3.312   6.342
10830SOL     OW33388   5.218   1.426   3.498
10830SOL    HW133389   5.146   1.407   3.431
10830SOL    HW233390   5.218   1.355   3.568
10831SOL     OW33391   3.880   0.908   2.657
10831SOL    HW133392   3.783   0.926   2.672
10831SOL    HW233393   3.902   0.815   2.687
10832SOL     OW33394   6.680   3.382   0.696
10832SOL    HW133395   6.756   3.436   0.663
10832SOL    HW233396   6.608   3.442   0.730
10833SOL     OW33397   0.557   1.060   0.724
10833SOL    HW133398   0.617   1.054   0.803
10833SOL    HW233399   0.608   1.097   0.646
10834SOL     OW33400   6.486   7.004   0.616
10834SOL    HW133401   6.577   6.980   0.583
10834SOL    HW233402   6.445   0.049   0.554
10835SOL     OW33403   6.320   2.907   5.898
10835SOL    HW133404   6.327   2.819   5.945
10835SOL    HW233405   6.412   2.942   5.879
10836SOL     OW33406   0.377   1.875   3.145
10836SOL    HW133407   0.445   1.847   3.213
10836SOL    HW233408   0.286   1.857   3.181
10837SOL     OW33409   6.967   4.228   2.511
10837SOL    HW133410   0.036   4.185   2.509
10837SOL    HW233411   6.947   4.268   2.421
10838SOL     OW33412   6.066   5.535   3.608
10838SOL    HW133413   6.006   5.525   3.528
10838SOL    HW233414   6.156   5.567   3.578
10839SOL     OW33415   4.733   4.079   0.171
10839SOL    HW133416   4.706   4.065   0.266
10839SOL    HW233417   4.651   4.079   0.113
10840SOL     OW33418   3.213   0.244   0.828
10840SOL    HW133419   3.244   0.275   0.917
10840SOL    HW233420   3.148   0.310   0.790
10841SOL     OW33421   0.903   4.758   4.695
10841SOL    HW133422   0.804   4.762   4.706
10841SOL    HW233423   0.926   4.774   4.598
10842SOL     OW33424   4.678   4.302   0.904
10842SOL    HW133425   4.678   4.356   0.820
10842SOL    HW233426   4.706   4.360   0.981
10843SOL     OW33427   1.613   1.847   1.009
10843SOL    HW133428   1.675   1.776   1.044
10843SOL    HW233429   1.524   1.838   1.053
10844SOL     OW33430   0.930   5.440   4.448
10844SOL    HW133431   0.927   5.421   4.350
10844SOL    HW233432   1.023   5.427   4.482
10845SOL     OW33433   4.511   6.405   5.014
10845SOL    HW133434   4.528   6.376   5.108
10845SOL    HW233435   4.515   6.505   5.009
10846SOL     OW33436   5.528   6.524   0.558
10846SOL    HW133437   5.465   6.517   0.636
10846SOL    HW233438   5.479   6.563   0.480
10847SOL     OW33439   1.722   1.666   0.139
10847SOL    HW133440   1.776   1.707   0.066
10847SOL    HW233441   1.698   1.572   0.114
10848SOL     OW33442   1.693   4.445   0.813
10848SOL    HW133443   1.602   4.484   0.826
10848SOL    HW233444   1.693   4.384   0.734
10849SOL     OW33445   2.566   5.681   4.194
10849SOL    HW133446   2.665   5.692   4.187
10849SOL    HW233447   2.545   5.605   4.256
10850SOL     OW33448   3.787   6.542   0.571
10850SOL    HW133449   3.884   6.543   0.550
10850SOL    HW233450   3.739   6.482   0.507
10851SOL     OW33451   2.518   4.658   2.044
10851SOL    HW133452   2.613   4.660   2.074
10851SOL    HW233453   2.496   4.743   1.996
10852SOL     OW33454   2.085   1.647   1.057
10852SOL    HW133455   2.013   1.578   1.063
10852SOL    HW233456   2.091   1.697   1.143
10853SOL     OW33457   1.938   2.119   6.314
10853SOL    HW133458   1.990   2.186   6.367
10853SOL    HW233459   1.939   2.031   6.361
10854SOL     OW33460   4.179   5.911   5.211
10854SOL    HW133461   4.169   5.938   5.115
10854SOL    HW233462   4.252   5.965   5.254
10855SOL     OW33463   3.251   1.362   0.971
10855SOL    HW133464   3.209   1.385   1.058
10855SOL    HW233465   3.180   1.350   0.902
10856SOL     OW33466   7.007   0.564   6.880
10856SOL    HW133467   6.960   0.572   6.792
10856SOL    HW233468   6.949   0.601   6.952
10857SOL     OW33469   6.811   1.181   2.347
10857SOL    HW133470   6.738   1.206   2.410
10857SOL    HW233471   6.891   1.152   2.399
10858SOL     OW33472   2.281   5.577   1.635
10858SOL    HW133473   2.274   5.593   1.734
10858SOL    HW233474   2.210   5.629   1.588
10859SOL     OW33475   0.857   5.568   4.044
10859SOL    HW133476   0.922   5.512   4.095
10859SOL    HW233477   0.764   5.536   4.061
10860SOL     OW33478   6.834   2.762   2.600
10860SOL    HW133479   6.754   2.775   2.659
10860SOL    HW233480   6.906   2.826   2.628
10861SOL     OW33481   3.446   2.873   4.457
10861SOL    HW133482   3.538   2.849   4.426
10861SOL    HW233483   3.385   2.878   4.379
10862SOL     OW33484   1.736   0.223   5.191
10862SOL    HW133485   1.661   0.160   5.213
10862SOL    HW233486   1.711   0.315   5.221
10863SOL     OW33487   3.262   5.994   4.584
10863SOL    HW133488   3.329   5.933   4.626
10863SOL    HW233489   3.310   6.063   4.529
10864SOL     OW33490   3.487   6.042   2.400
10864SOL    HW133491   3.464   6.139   2.413
10864SOL    HW233492   3.573   6.035   2.350
10865SOL     OW33493   6.284   1.708   6.474
10865SOL    HW133494   6.244   1.632   6.423
10865SOL    HW233495   6.378   1.723   6.445
10866SOL     OW33496   5.492   4.867   0.267
10866SOL    HW133497   5.535   4.888   0.179
10866SOL    HW233498   5.515   4.939   0.333
10867SOL     OW33499   3.227   3.573   0.632
10867SOL    HW133500   3.194   3.506   0.698
10867SOL    HW233501   3.317   3.546   0.599
10868SOL     OW33502   3.222   1.698   3.135
10868SOL    HW133503   3.288   1.730   3.202
10868SOL    HW233504   3.210   1.767   3.063
10869NA      NA33505   6.037   2.106   5.496
10870NA      NA33506   4.312   4.667   5.213
10871NA      NA33507   2.051   3.789   1.233
10872NA      NA33508   4.810   3.863   5.187
10873NA      NA33509   4.337   2.446   5.257
10874NA      NA33510   3.884   4.502   1.607
10875NA      NA33511   6.698   5.643   5.547
10876NA      NA33512   3.695   3.523   5.141
10877NA      NA33513   4.911   6.636   6.724
10878NA      NA33514   3.538   0.054   5.615
10879NA      NA33515   6.461   4.726   2.284
10880NA      NA33516   2.128   0.487   3.350
10881NA      NA33517   3.156   4.881   1.143
10882NA      NA33518   3.463   3.747   2.800
   7.02211   7.02211   7.02211
