Generated by trjconv : CNT in water t= 156.00000
33518
    1C        C    1   2.850   2.775   4.748
    1C        C    2   2.904   2.722   4.867
    1C        C    3   2.847   2.774   4.985
    1C        C    4   2.858   2.781   4.264
    1C        C    5   2.908   2.734   4.387
    1C        C    6   2.852   2.778   4.509
    1C        C    7   3.015   2.638   4.627
    1C        C    8   2.902   2.722   4.628
    1C        C    9   3.080   2.604   4.748
    1C        C   10   3.016   2.636   4.870
    1C        C   11   3.186   2.495   4.984
    1C        C   12   3.064   2.562   4.979
    1C        C   13   2.853   2.777   3.774
    1C        C   14   2.904   2.725   3.895
    1C        C   15   2.852   2.775   4.017
    1C        C   16   3.020   2.650   4.140
    1C        C   17   2.903   2.729   4.140
    1C        C   18   3.084   2.618   4.262
    1C        C   19   3.025   2.654   4.385
    1C        C   20   3.211   2.553   4.506
    1C        C   21   3.080   2.605   4.505
    1C        C   22   3.280   2.532   4.628
    1C        C   23   3.209   2.545   4.750
    1C        C   24   3.414   2.484   4.867
    1C        C   25   3.273   2.504   4.870
    1C        C   26   3.491   2.481   4.985
    1C        C   27   2.857   2.780   3.283
    1C        C   28   2.910   2.735   3.406
    1C        C   29   2.856   2.776   3.529
    1C        C   30   3.023   2.649   3.654
    1C        C   31   2.908   2.730   3.653
    1C        C   32   3.083   2.609   3.775
    1C        C   33   3.018   2.642   3.896
    1C        C   34   3.210   2.554   4.018
    1C        C   35   3.081   2.611   4.019
    1C        C   36   3.279   2.533   4.139
    1C        C   37   3.213   2.559   4.262
    1C        C   38   3.418   2.507   4.383
    1C        C   39   3.279   2.537   4.384
    1C        C   40   3.489   2.503   4.505
    1C        C   41   3.419   2.510   4.628
    1C        C   42   3.632   2.485   4.750
    1C        C   43   3.490   2.483   4.747
    1C        C   44   3.707   2.487   4.870
    1C        C   45   3.630   2.480   4.986
    1C        C   46   2.839   2.755   2.796
    1C        C   47   2.898   2.715   2.918
    1C        C   48   2.849   2.769   3.039
    1C        C   49   3.021   2.645   3.166
    1C        C   50   2.908   2.731   3.161
    1C        C   51   3.085   2.612   3.287
    1C        C   52   3.021   2.647   3.408
    1C        C   53   3.210   2.554   3.532
    1C        C   54   3.081   2.611   3.530
    1C        C   55   3.281   2.530   3.652
    1C        C   56   3.212   2.551   3.774
    1C        C   57   3.419   2.508   3.895
    1C        C   58   3.280   2.534   3.897
    1C        C   59   3.488   2.499   4.017
    1C        C   60   3.418   2.510   4.140
    1C        C   61   3.630   2.505   4.262
    1C        C   62   3.489   2.505   4.262
    1C        C   63   3.701   2.505   4.384
    1C        C   64   3.630   2.500   4.506
    1C        C   65   3.836   2.538   4.624
    1C        C   66   3.701   2.496   4.628
    1C        C   67   3.906   2.563   4.745
    1C        C   68   3.841   2.531   4.866
    1C        C   69   4.053   2.585   4.978
    1C        C   70   3.925   2.529   4.979
    1C        C   71   2.826   2.735   2.311
    1C        C   72   2.885   2.693   2.432
    1C        C   73   2.837   2.750   2.551
    1C        C   74   3.009   2.629   2.675
    1C        C   75   2.891   2.706   2.674
    1C        C   76   3.074   2.598   2.797
    1C        C   77   3.014   2.634   2.919
    1C        C   78   3.207   2.549   3.038
    1C        C   79   3.077   2.605   3.042
    1C        C   80   3.277   2.532   3.160
    1C        C   81   3.214   2.554   3.285
    1C        C   82   3.416   2.509   3.405
    1C        C   83   3.276   2.530   3.409
    1C        C   84   3.488   2.501   3.526
    1C        C   85   3.420   2.509   3.650
    1C        C   86   3.630   2.501   3.771
    1C        C   87   3.489   2.498   3.773
    1C        C   88   3.699   2.510   3.894
    1C        C   89   3.629   2.503   4.017
    1C        C   90   3.837   2.547   4.138
    1C        C   91   3.699   2.515   4.139
    1C        C   92   3.902   2.570   4.261
    1C        C   93   3.836   2.547   4.384
    1C        C   94   4.029   2.636   4.498
    1C        C   95   3.906   2.568   4.505
    1C        C   96   4.089   2.674   4.620
    1C        C   97   4.032   2.628   4.741
    1C        C   98   4.191   2.766   4.863
    1C        C   99   4.100   2.656   4.863
    1C        C  100   4.211   2.845   4.977
    1C        C  101   2.819   2.726   2.072
    1C        C  102   2.993   2.595   2.194
    1C        C  103   2.880   2.683   2.191
    1C        C  104   3.068   2.580   2.314
    1C        C  105   3.004   2.616   2.434
    1C        C  106   3.203   2.537   2.554
    1C        C  107   3.072   2.589   2.555
    1C        C  108   3.275   2.521   2.675
    1C        C  109   3.205   2.546   2.795
    1C        C  110   3.412   2.493   2.918
    1C        C  111   3.273   2.522   2.917
    1C        C  112   3.485   2.491   3.038
    1C        C  113   3.415   2.503   3.160
    1C        C  114   3.626   2.494   3.281
    1C        C  115   3.485   2.494   3.283
    1C        C  116   3.697   2.505   3.402
    1C        C  117   3.630   2.501   3.526
    1C        C  118   3.838   2.536   3.647
    1C        C  119   3.700   2.509   3.648
    1C        C  120   3.904   2.564   3.769
    1C        C  121   3.837   2.543   3.892
    1C        C  122   4.026   2.637   4.014
    1C        C  123   3.900   2.572   4.014
    1C        C  124   4.087   2.674   4.136
    1C        C  125   4.028   2.636   4.258
    1C        C  126   4.196   2.768   4.379
    1C        C  127   4.095   2.670   4.378
    1C        C  128   4.248   2.818   4.501
    1C        C  129   4.198   2.764   4.622
    1C        C  130   4.328   2.935   4.742
    1C        C  131   4.243   2.821   4.743
    1C        C  132   4.354   3.007   4.861
    1C        C  133   4.287   2.962   4.976
    1C        C  134   3.176   2.469   2.083
    1C        C  135   3.043   2.513   2.087
    1C        C  136   3.262   2.480   2.193
    1C        C  137   3.200   2.525   2.312
    1C        C  138   3.409   2.482   2.430
    1C        C  139   3.270   2.507   2.433
    1C        C  140   3.482   2.482   2.551
    1C        C  141   3.414   2.499   2.674
    1C        C  142   3.625   2.492   2.795
    1C        C  143   3.484   2.487   2.796
    1C        C  144   3.697   2.502   2.916
    1C        C  145   3.626   2.488   3.038
    1C        C  146   3.834   2.535   3.158
    1C        C  147   3.698   2.496   3.159
    1C        C  148   3.900   2.564   3.279
    1C        C  149   3.836   2.535   3.402
    1C        C  150   4.024   2.631   3.522
    1C        C  151   3.903   2.559   3.523
    1C        C  152   4.083   2.670   3.645
    1C        C  153   4.027   2.633   3.770
    1C        C  154   4.195   2.764   3.887
    1C        C  155   4.085   2.676   3.891
    1C        C  156   4.245   2.814   4.010
    1C        C  157   4.196   2.764   4.132
    1C        C  158   4.335   2.923   4.255
    1C        C  159   4.245   2.814   4.255
    1C        C  160   4.374   2.983   4.377
    1C        C  161   4.333   2.931   4.502
    1C        C  162   4.435   3.121   4.617
    1C        C  163   4.366   2.998   4.622
    1C        C  164   4.460   3.188   4.739
    1C        C  165   4.427   3.128   4.862
    1C        C  166   4.513   3.323   4.977
    1C        C  167   4.481   3.188   4.977
    1C        C  168   3.479   2.436   2.076
    1C        C  169   3.402   2.461   2.191
    1C        C  170   3.621   2.460   2.311
    1C        C  171   3.479   2.462   2.309
    1C        C  172   3.695   2.480   2.429
    1C        C  173   3.623   2.487   2.550
    1C        C  174   3.830   2.536   2.669
    1C        C  175   3.694   2.499   2.672
    1C        C  176   3.898   2.562   2.790
    1C        C  177   3.833   2.540   2.913
    1C        C  178   4.027   2.619   3.032
    1C        C  179   3.901   2.555   3.036
    1C        C  180   4.087   2.661   3.153
    1C        C  181   4.027   2.626   3.276
    1C        C  182   4.192   2.757   3.399
    1C        C  183   4.085   2.665   3.399
    1C        C  184   4.243   2.808   3.521
    1C        C  185   4.197   2.753   3.642
    1C        C  186   4.332   2.919   3.768
    1C        C  187   4.248   2.806   3.763
    1C        C  188   4.370   2.983   3.889
    1C        C  189   4.330   2.927   4.012
    1C        C  190   4.449   3.103   4.133
    1C        C  191   4.377   2.982   4.134
    1C        C  192   4.472   3.173   4.254
    1C        C  193   4.440   3.108   4.375
    1C        C  194   4.512   3.315   4.493
    1C        C  195   4.467   3.181   4.493
    1C        C  196   4.529   3.387   4.614
    1C        C  197   4.510   3.321   4.737
    1C        C  198   4.554   3.535   4.852
    1C        C  199   4.525   3.395   4.858
    1C        C  200   4.586   3.620   4.963
    1C        C  201   3.618   2.418   2.075
    1C        C  202   3.829   2.506   2.187
    1C        C  203   3.693   2.462   2.188
    1C        C  204   3.901   2.537   2.306
    1C        C  205   3.832   2.514   2.427
    1C        C  206   4.022   2.621   2.545
    1C        C  207   3.898   2.553   2.546
    1C        C  208   4.083   2.662   2.665
    1C        C  209   4.024   2.627   2.789
    1C        C  210   4.197   2.749   2.910
    1C        C  211   4.084   2.663   2.911
    1C        C  212   4.250   2.798   3.032
    1C        C  213   4.197   2.750   3.153
    1C        C  214   4.333   2.912   3.276
    1C        C  215   4.243   2.803   3.276
    1C        C  216   4.373   2.973   3.397
    1C        C  217   4.330   2.920   3.521
    1C        C  218   4.432   3.103   3.641
    1C        C  219   4.368   2.977   3.644
    1C        C  220   4.459   3.171   3.762
    1C        C  221   4.436   3.107   3.887
    1C        C  222   4.507   3.304   4.005
    1C        C  223   4.473   3.167   4.009
    1C        C  224   4.516   3.376   4.126
    1C        C  225   4.508   3.309   4.251
    1C        C  226   4.523   3.524   4.367
    1C        C  227   4.524   3.383   4.370
    1C        C  228   4.525   3.599   4.487
    1C        C  229   4.528   3.528   4.609
    1C        C  230   4.501   3.741   4.727
    1C        C  231   4.538   3.603   4.728
    1C        C  232   4.495   3.819   4.844
    1C        C  233   4.547   3.754   4.956
    1C        C  234   4.017   2.608   2.067
    1C        C  235   3.893   2.547   2.069
    1C        C  236   4.088   2.644   2.182
    1C        C  237   4.027   2.603   2.302
    1C        C  238   4.200   2.734   2.424
    1C        C  239   4.085   2.651   2.422
    1C        C  240   4.255   2.785   2.544
    1C        C  241   4.200   2.741   2.666
    1C        C  242   4.338   2.905   2.786
    1C        C  243   4.250   2.794   2.787
    1C        C  244   4.370   2.966   2.909
    1C        C  245   4.337   2.909   3.034
    1C        C  246   4.440   3.096   3.151
    1C        C  247   4.376   2.970   3.155
    1C        C  248   4.461   3.164   3.273
    1C        C  249   4.433   3.100   3.396
    1C        C  250   4.498   3.303   3.513
    1C        C  251   4.458   3.167   3.518
    1C        C  252   4.507   3.373   3.636
    1C        C  253   4.495   3.307   3.760
    1C        C  254   4.521   3.516   3.879
    1C        C  255   4.515   3.375   3.883
    1C        C  256   4.513   3.589   4.000
    1C        C  257   4.516   3.518   4.122
    1C        C  258   4.497   3.731   4.242
    1C        C  259   4.512   3.591   4.243
    1C        C  260   4.482   3.804   4.362
    1C        C  261   4.497   3.737   4.486
    1C        C  262   4.426   3.941   4.605
    1C        C  263   4.477   3.809   4.605
    1C        C  264   4.398   4.010   4.725
    1C        C  265   4.432   3.945   4.847
    1C        C  266   4.326   4.137   4.959
    1C        C  267   4.393   4.015   4.962
    1C        C  268   4.265   2.773   2.067
    1C        C  269   4.198   2.733   2.183
    1C        C  270   4.349   2.889   2.299
    1C        C  271   4.256   2.782   2.303
    1C        C  272   4.385   2.952   2.420
    1C        C  273   4.343   2.896   2.543
    1C        C  274   4.444   3.086   2.662
    1C        C  275   4.379   2.961   2.663
    1C        C  276   4.473   3.152   2.784
    1C        C  277   4.441   3.088   2.906
    1C        C  278   4.503   3.293   3.024
    1C        C  279   4.466   3.157   3.027
    1C        C  280   4.509   3.367   3.144
    1C        C  281   4.495   3.301   3.269
    1C        C  282   4.520   3.512   3.390
    1C        C  283   4.510   3.372   3.390
    1C        C  284   4.519   3.584   3.512
    1C        C  285   4.517   3.514   3.635
    1C        C  286   4.500   3.726   3.753
    1C        C  287   4.520   3.586   3.756
    1C        C  288   4.483   3.797   3.874
    1C        C  289   4.492   3.728   3.997
    1C        C  290   4.422   3.928   4.119
    1C        C  291   4.476   3.798   4.119
    1C        C  292   4.393   3.996   4.239
    1C        C  293   4.427   3.934   4.362
    1C        C  294   4.325   4.124   4.482
    1C        C  295   4.399   4.003   4.481
    1C        C  296   4.279   4.183   4.602
    1C        C  297   4.325   4.132   4.726
    1C        C  298   4.197   4.316   4.837
    1C        C  299   4.283   4.201   4.842
    1C        C  300   4.166   4.398   4.951
    1C        C  301   4.352   2.881   2.059
    1C        C  302   4.470   3.065   2.179
    1C        C  303   4.399   2.941   2.177
    1C        C  304   4.487   3.141   2.298
    1C        C  305   4.454   3.075   2.418
    1C        C  306   4.510   3.283   2.536
    1C        C  307   4.479   3.145   2.539
    1C        C  308   4.515   3.356   2.657
    1C        C  309   4.507   3.289   2.781
    1C        C  310   4.527   3.503   2.900
    1C        C  311   4.517   3.362   2.901
    1C        C  312   4.525   3.577   3.021
    1C        C  313   4.519   3.508   3.144
    1C        C  314   4.492   3.718   3.265
    1C        C  315   4.517   3.579   3.266
    1C        C  316   4.477   3.788   3.386
    1C        C  317   4.495   3.723   3.510
    1C        C  318   4.428   3.926   3.629
    1C        C  319   4.476   3.794   3.631
    1C        C  320   4.398   3.990   3.752
    1C        C  321   4.432   3.929   3.874
    1C        C  322   4.319   4.110   3.993
    1C        C  323   4.396   3.992   3.995
    1C        C  324   4.277   4.168   4.115
    1C        C  325   4.320   4.117   4.240
    1C        C  326   4.182   4.281   4.356
    1C        C  327   4.280   4.179   4.360
    1C        C  328   4.134   4.338   4.476
    1C        C  329   4.186   4.289   4.597
    1C        C  330   4.028   4.443   4.715
    1C        C  331   4.135   4.349   4.714
    1C        C  332   3.972   4.495   4.834
    1C        C  333   4.052   4.478   4.947
    1C        C  334   4.549   3.265   2.063
    1C        C  335   4.543   3.125   2.071
    1C        C  336   4.535   3.349   2.174
    1C        C  337   4.523   3.279   2.296
    1C        C  338   4.522   3.495   2.414
    1C        C  339   4.525   3.354   2.415
    1C        C  340   4.519   3.568   2.535
    1C        C  341   4.523   3.497   2.657
    1C        C  342   4.494   3.711   2.773
    1C        C  343   4.523   3.572   2.777
    1C        C  344   4.477   3.782   2.894
    1C        C  345   4.500   3.716   3.017
    1C        C  346   4.426   3.914   3.137
    1C        C  347   4.477   3.782   3.140
    1C        C  348   4.392   3.978   3.258
    1C        C  349   4.425   3.920   3.383
    1C        C  350   4.319   4.103   3.503
    1C        C  351   4.398   3.986   3.505
    1C        C  352   4.272   4.159   3.624
    1C        C  353   4.318   4.106   3.747
    1C        C  354   4.181   4.267   3.868
    1C        C  355   4.277   4.164   3.869
    1C        C  356   4.127   4.316   3.989
    1C        C  357   4.179   4.270   4.112
    1C        C  358   4.011   4.402   4.230
    1C        C  359   4.128   4.323   4.232
    1C        C  360   3.953   4.448   4.350
    1C        C  361   4.017   4.418   4.472
    1C        C  362   3.830   4.518   4.597
    1C        C  363   3.961   4.466   4.593
    1C        C  364   3.764   4.550   4.717
    1C        C  365   3.840   4.547   4.836
    1C        C  366   3.628   4.595   4.953
    1C        C  367   3.766   4.575   4.952
    1C        C  368   4.515   3.564   2.054
    1C        C  369   4.524   3.490   2.173
    1C        C  370   4.498   3.706   2.289
    1C        C  371   4.518   3.566   2.292
    1C        C  372   4.485   3.780   2.409
    1C        C  373   4.496   3.707   2.529
    1C        C  374   4.428   3.911   2.649
    1C        C  375   4.475   3.777   2.650
    1C        C  376   4.400   3.977   2.771
    1C        C  377   4.430   3.915   2.894
    1C        C  378   4.317   4.094   3.011
    1C        C  379   4.400   3.980   3.016
    1C        C  380   4.273   4.151   3.133
    1C        C  381   4.311   4.094   3.257
    1C        C  382   4.172   4.252   3.378
    1C        C  383   4.271   4.152   3.379
    1C        C  384   4.123   4.304   3.500
    1C        C  385   4.177   4.264   3.624
    1C        C  386   4.011   4.394   3.744
    1C        C  387   4.127   4.313   3.746
    1C        C  388   3.950   4.436   3.864
    1C        C  389   4.012   4.399   3.986
    1C        C  390   3.820   4.492   4.109
    1C        C  391   3.950   4.436   4.107
    1C        C  392   3.756   4.519   4.232
    1C        C  393   3.823   4.504   4.355
    1C        C  394   3.619   4.561   4.474
    1C        C  395   3.757   4.533   4.477
    1C        C  396   3.548   4.570   4.595
    1C        C  397   3.624   4.571   4.714
    1C        C  398   3.414   4.556   4.838
    1C        C  399   3.553   4.582   4.835
    1C        C  400   3.346   4.521   4.955
    1C        C  401   4.501   3.702   2.051
    1C        C  402   4.450   3.914   2.165
    1C        C  403   4.487   3.777   2.168
    1C        C  404   4.410   3.979   2.284
    1C        C  405   4.440   3.913   2.405
    1C        C  406   4.328   4.096   2.525
    1C        C  407   4.403   3.976   2.526
    1C        C  408   4.282   4.151   2.647
    1C        C  409   4.321   4.094   2.770
    1C        C  410   4.174   4.252   2.889
    1C        C  411   4.272   4.150   2.889
    1C        C  412   4.122   4.297   3.012
    1C        C  413   4.176   4.254   3.135
    1C        C  414   4.002   4.380   3.253
    1C        C  415   4.118   4.299   3.256
    1C        C  416   3.946   4.416   3.378
    1C        C  417   4.006   4.384   3.501
    1C        C  418   3.814   4.477   3.621
    1C        C  419   3.944   4.420   3.623
    1C        C  420   3.750   4.511   3.742
    1C        C  421   3.818   4.488   3.864
    1C        C  422   3.615   4.541   3.988
    1C        C  423   3.754   4.514   3.987
    1C        C  424   3.544   4.545   4.109
    1C        C  425   3.616   4.540   4.230
    1C        C  426   3.405   4.556   4.356
    1C        C  427   3.547   4.557   4.352
    1C        C  428   3.334   4.546   4.478
    1C        C  429   3.407   4.561   4.598
    1C        C  430   3.198   4.519   4.723
    1C        C  431   3.337   4.550   4.720
    1C        C  432   3.130   4.497   4.846
    1C        C  433   3.209   4.495   4.962
    1C        C  434   4.384   4.123   2.055
    1C        C  435   4.440   3.995   2.051
    1C        C  436   4.301   4.163   2.164
    1C        C  437   4.332   4.097   2.286
    1C        C  438   4.187   4.260   2.406
    1C        C  439   4.283   4.156   2.405
    1C        C  440   4.133   4.308   2.527
    1C        C  441   4.183   4.252   2.646
    1C        C  442   4.005   4.375   2.766
    1C        C  443   4.123   4.298   2.765
    1C        C  444   3.944   4.414   2.887
    1C        C  445   4.005   4.377   3.009
    1C        C  446   3.815   4.475   3.133
    1C        C  447   3.942   4.414   3.130
    1C        C  448   3.748   4.494   3.256
    1C        C  449   3.817   4.474   3.378
    1C        C  450   3.610   4.532   3.499
    1C        C  451   3.748   4.500   3.499
    1C        C  452   3.543   4.547   3.622
    1C        C  453   3.613   4.542   3.745
    1C        C  454   3.401   4.548   3.867
    1C        C  455   3.542   4.553   3.867
    1C        C  456   3.331   4.538   3.989
    1C        C  457   3.402   4.542   4.111
    1C        C  458   3.199   4.503   4.238
    1C        C  459   3.334   4.545   4.235
    1C        C  460   3.131   4.486   4.360
    1C        C  461   3.196   4.517   4.481
    1C        C  462   3.002   4.431   4.604
    1C        C  463   3.128   4.494   4.603
    1C        C  464   2.937   4.397   4.726
    1C        C  465   2.998   4.442   4.846
    1C        C  466   2.809   4.336   4.962
    1C        C  467   2.918   4.425   4.963
    1C        C  468   4.125   4.285   2.041
    1C        C  469   4.190   4.254   2.161
    1C        C  470   4.008   4.371   2.281
    1C        C  471   4.130   4.298   2.282
    1C        C  472   3.949   4.413   2.402
    1C        C  473   4.012   4.382   2.525
    1C        C  474   3.816   4.473   2.645
    1C        C  475   3.945   4.414   2.644
    1C        C  476   3.749   4.497   2.767
    1C        C  477   3.815   4.473   2.890
    1C        C  478   3.610   4.530   3.011
    1C        C  479   3.748   4.497   3.011
    1C        C  480   3.539   4.538   3.133
    1C        C  481   3.611   4.527   3.254
    1C        C  482   3.399   4.535   3.378
    1C        C  483   3.540   4.535   3.376
    1C        C  484   3.329   4.532   3.501
    1C        C  485   3.402   4.543   3.621
    1C        C  486   3.195   4.501   3.744
    1C        C  487   3.332   4.534   3.744
    1C        C  488   3.131   4.478   3.867
    1C        C  489   3.195   4.502   3.991
    1C        C  490   3.007   4.414   4.117
    1C        C  491   3.133   4.478   4.116
    1C        C  492   2.944   4.383   4.240
    1C        C  493   3.001   4.429   4.360
    1C        C  494   2.831   4.304   4.484
    1C        C  495   2.942   4.391   4.483
    1C        C  496   2.775   4.258   4.606
    1C        C  497   2.826   4.308   4.728
    1C        C  498   2.668   4.166   4.848
    1C        C  499   2.760   4.274   4.847
    1C        C  500   2.599   4.119   4.961
    1C        C  501   4.008   4.360   2.043
    1C        C  502   3.815   4.463   2.157
    1C        C  503   3.942   4.401   2.160
    1C        C  504   3.749   4.485   2.279
    1C        C  505   3.819   4.467   2.401
    1C        C  506   3.611   4.513   2.522
    1C        C  507   3.751   4.492   2.522
    1C        C  508   3.539   4.517   2.644
    1C        C  509   3.609   4.515   2.766
    1C        C  510   3.399   4.526   2.887
    1C        C  511   3.540   4.527   2.889
    1C        C  512   3.327   4.524   3.009
    1C        C  513   3.398   4.533   3.131
    1C        C  514   3.193   4.492   3.257
    1C        C  515   3.330   4.527   3.255
    1C        C  516   3.124   4.473   3.379
    1C        C  517   3.191   4.504   3.500
    1C        C  518   3.002   4.410   3.626
    1C        C  519   3.125   4.479   3.623
    1C        C  520   2.945   4.372   3.749
    1C        C  521   3.006   4.410   3.871
    1C        C  522   2.845   4.278   3.997
    1C        C  523   2.950   4.373   3.995
    1C        C  524   2.790   4.235   4.120
    1C        C  525   2.836   4.292   4.240
    1C        C  526   2.696   4.136   4.365
    1C        C  527   2.783   4.248   4.364
    1C        C  528   2.653   4.082   4.488
    1C        C  529   2.688   4.147   4.608
    1C        C  530   2.585   3.964   4.731
    1C        C  531   2.639   4.096   4.730
    1C        C  532   2.542   3.905   4.853
    1C        C  533   2.528   3.998   4.961
    1C        C  534   3.623   4.554   2.044
    1C        C  535   3.757   4.515   2.041
    1C        C  536   3.538   4.536   2.157
    1C        C  537   3.609   4.513   2.278
    1C        C  538   3.399   4.511   2.401
    1C        C  539   3.539   4.520   2.401
    1C        C  540   3.327   4.506   2.523
    1C        C  541   3.397   4.515   2.646
    1C        C  542   3.188   4.483   2.766
    1C        C  543   3.325   4.513   2.767
    1C        C  544   3.123   4.463   2.890
    1C        C  545   3.192   4.484   3.012
    1C        C  546   3.001   4.400   3.136
    1C        C  547   3.127   4.464   3.135
    1C        C  548   2.944   4.358   3.258
    1C        C  549   3.003   4.400   3.380
    1C        C  550   2.840   4.273   3.507
    1C        C  551   2.946   4.366   3.504
    1C        C  552   2.788   4.228   3.630
    1C        C  553   2.838   4.280   3.751
    1C        C  554   2.701   4.122   3.875
    1C        C  555   2.792   4.230   3.875
    1C        C  556   2.668   4.061   3.998
    1C        C  557   2.701   4.125   4.119
    1C        C  558   2.598   3.946   4.248
    1C        C  559   2.658   4.074   4.244
    1C        C  560   2.571   3.883   4.371
    1C        C  561   2.594   3.953   4.492
    1C        C  562   2.529   3.752   4.613
    1C        C  563   2.564   3.889   4.613
    1C        C  564   2.515   3.685   4.737
    1C        C  565   2.519   3.764   4.855
    1C        C  566   2.536   3.549   4.979
    1C        C  567   2.528   3.687   4.972
    1C        C  568   3.335   4.468   2.041
    1C        C  569   3.398   4.513   2.157
    1C        C  570   3.187   4.478   2.280
    1C        C  571   3.326   4.508   2.280
    1C        C  572   3.119   4.456   2.402
    1C        C  573   3.189   4.478   2.523
    1C        C  574   2.992   4.399   2.648
    1C        C  575   3.120   4.459   2.645
    1C        C  576   2.932   4.362   2.771
    1C        C  577   2.996   4.400   2.891
    1C        C  578   2.835   4.266   3.016
    1C        C  579   2.939   4.362   3.014
    1C        C  580   2.784   4.217   3.138
    1C        C  581   2.838   4.264   3.259
    1C        C  582   2.703   4.111   3.385
    1C        C  583   2.789   4.223   3.385
    1C        C  584   2.666   4.053   3.509
    1C        C  585   2.698   4.118   3.630
    1C        C  586   2.599   3.934   3.754
    1C        C  587   2.662   4.060   3.754
    1C        C  588   2.575   3.873   3.879
    1C        C  589   2.603   3.936   4.003
    1C        C  590   2.530   3.742   4.128
    1C        C  591   2.575   3.876   4.128
    1C        C  592   2.516   3.675   4.252
    1C        C  593   2.531   3.748   4.372
    1C        C  594   2.515   3.536   4.498
    1C        C  595   2.516   3.677   4.494
    1C        C  596   2.522   3.469   4.622
    1C        C  597   2.518   3.543   4.742
    1C        C  598   2.534   3.330   4.863
    1C        C  599   2.532   3.471   4.862
    1C        C  600   2.541   3.256   4.982
    1C        C  601   3.202   4.429   2.045
    1C        C  602   2.986   4.393   2.160
    1C        C  603   3.123   4.436   2.160
    1C        C  604   2.932   4.352   2.284
    1C        C  605   2.994   4.391   2.405
    1C        C  606   2.821   4.270   2.528
    1C        C  607   2.932   4.358   2.527
    1C        C  608   2.772   4.220   2.650
    1C        C  609   2.824   4.271   2.771
    1C        C  610   2.698   4.104   2.896
    1C        C  611   2.781   4.218   2.895
    1C        C  612   2.653   4.050   3.019
    1C        C  613   2.691   4.110   3.141
    1C        C  614   2.586   3.930   3.265
    1C        C  615   2.655   4.053   3.265
    1C        C  616   2.564   3.864   3.389
    1C        C  617   2.595   3.931   3.510
    1C        C  618   2.528   3.732   3.638
    1C        C  619   2.568   3.868   3.633
    1C        C  620   2.516   3.668   3.763
    1C        C  621   2.530   3.739   3.884
    1C        C  622   2.506   3.530   4.010
    1C        C  623   2.516   3.671   4.007
    1C        C  624   2.510   3.460   4.133
    1C        C  625   2.510   3.534   4.254
    1C        C  626   2.545   3.325   4.382
    1C        C  627   2.520   3.464   4.376
    1C        C  628   2.557   3.254   4.503
    1C        C  629   2.541   3.329   4.622
    1C        C  630   2.596   3.122   4.743
    1C        C  631   2.553   3.258   4.743
    1C        C  632   2.624   3.054   4.864
    1C        C  633   2.571   3.119   4.980
    1C        C  634   2.786   4.301   2.053
    1C        C  635   2.896   4.389   2.049
    1C        C  636   2.753   4.228   2.168
    1C        C  637   2.819   4.266   2.287
    1C        C  638   2.679   4.106   2.410
    1C        C  639   2.766   4.218   2.409
    1C        C  640   2.638   4.049   2.533
    1C        C  641   2.681   4.111   2.652
    1C        C  642   2.588   3.922   2.778
    1C        C  643   2.653   4.048   2.774
    1C        C  644   2.560   3.858   2.901
    1C        C  645   2.586   3.926   3.022
    1C        C  646   2.525   3.724   3.150
    1C        C  647   2.560   3.861   3.145
    1C        C  648   2.513   3.654   3.272
    1C        C  649   2.529   3.728   3.391
    1C        C  650   2.509   3.521   3.520
    1C        C  651   2.515   3.662   3.516
    1C        C  652   2.512   3.455   3.645
    1C        C  653   2.507   3.527   3.766
    1C        C  654   2.532   3.318   3.891
    1C        C  655   2.506   3.457   3.889
    1C        C  656   2.555   3.254   4.015
    1C        C  657   2.539   3.322   4.137
    1C        C  658   2.609   3.123   4.259
    1C        C  659   2.556   3.254   4.260
    1C        C  660   2.639   3.057   4.380
    1C        C  661   2.600   3.119   4.501
    1C        C  662   2.713   2.942   4.626
    1C        C  663   2.625   3.053   4.623
    1C        C  664   2.758   2.883   4.746
    1C        C  665   2.705   2.935   4.867
    1C        C  666   2.747   2.871   4.984
    1C        C  667   2.682   4.020   2.057
    1C        C  668   2.685   4.104   2.169
    1C        C  669   2.586   3.914   2.291
    1C        C  670   2.641   4.045   2.289
    1C        C  671   2.558   3.848   2.413
    1C        C  672   2.585   3.918   2.533
    1C        C  673   2.517   3.721   2.663
    1C        C  674   2.559   3.856   2.657
    1C        C  675   2.501   3.650   2.784
    1C        C  676   2.522   3.722   2.904
    1C        C  677   2.503   3.513   3.029
    1C        C  678   2.514   3.654   3.028
    1C        C  679   2.505   3.443   3.152
    1C        C  680   2.505   3.513   3.275
    1C        C  681   2.532   3.308   3.400
    1C        C  682   2.508   3.447   3.400
    1C        C  683   2.556   3.247   3.525
    1C        C  684   2.535   3.316   3.647
    1C        C  685   2.606   3.117   3.774
    1C        C  686   2.553   3.248   3.770
    1C        C  687   2.636   3.057   3.898
    1C        C  688   2.601   3.121   4.019
    1C        C  689   2.714   2.938   4.138
    1C        C  690   2.635   3.055   4.139
    1C        C  691   2.764   2.887   4.260
    1C        C  692   2.718   2.940   4.383
    1C        C  693   2.758   2.884   4.506
    1C        C  694   2.632   3.889   2.055
    1C        C  695   2.536   3.701   2.178
    1C        C  696   2.581   3.835   2.174
    1C        C  697   2.505   3.638   2.301
    1C        C  698   2.516   3.714   2.419
    1C        C  699   2.487   3.507   2.543
    1C        C  700   2.501   3.648   2.543
    1C        C  701   2.503   3.437   2.664
    1C        C  702   2.497   3.509   2.786
    1C        C  703   2.528   3.301   2.908
    1C        C  704   2.499   3.439   2.909
    1C        C  705   2.548   3.235   3.031
    1C        C  706   2.530   3.304   3.154
    1C        C  707   2.595   3.106   3.282
    1C        C  708   2.546   3.238   3.278
    1C        C  709   2.632   3.048   3.405
    1C        C  710   2.609   3.116   3.527
    1C        C  711   2.714   2.936   3.652
    1C        C  712   2.637   3.055   3.651
    1C        C  713   2.756   2.880   3.774
    1C        C  714   2.720   2.943   3.896
    1C        C  715   2.765   2.886   4.017
    1C        C  716   2.441   3.502   2.064
    1C        C  717   2.489   3.634   2.065
    1C        C  718   2.462   3.424   2.183
    1C        C  719   2.480   3.498   2.303
    1C        C  720   2.518   3.290   2.424
    1C        C  721   2.489   3.428   2.426
    1C        C  722   2.534   3.222   2.547
    1C        C  723   2.520   3.297   2.666
    1C        C  724   2.599   3.099   2.789
    1C        C  725   2.543   3.229   2.787
    1C        C  726   2.626   3.038   2.914
    1C        C  727   2.596   3.102   3.036
    1C        C  728   2.706   2.925   3.162
    1C        C  729   2.625   3.040   3.160
    1C        C  730   2.752   2.875   3.286
    1C        C  731   2.713   2.932   3.409
    1C        C  732   2.756   2.876   3.531
    1C        C  733   2.483   3.196   2.074
    1C        C  734   2.490   3.284   2.183
    1C        C  735   2.584   3.088   2.305
    1C        C  736   2.531   3.219   2.303
    1C        C  737   2.613   3.023   2.428
    1C        C  738   2.587   3.091   2.549
    1C        C  739   2.700   2.909   2.671
    1C        C  740   2.627   3.030   2.670
    1C        C  741   2.743   2.858   2.795
    1C        C  742   2.701   2.918   2.916
    1C        C  743   2.752   2.872   3.039
    1C        C  744   2.540   3.069   2.076
    1C        C  745   2.684   2.897   2.186
    1C        C  746   2.605   3.014   2.187
    1C        C  747   2.733   2.843   2.307
    1C        C  748   2.687   2.902   2.427
    1C        C  749   2.735   2.848   2.548
    1C        C  750   2.731   2.833   2.070
    1C        C  751   3.665   2.328   1.968
    1C        O  752   3.755   2.242   1.989
    1C        O  753   3.666   2.369   1.834
    1C        C  754   4.643   3.042   1.999
    1C        O  755   4.619   2.934   1.939
    1C        O  756   4.778   3.074   2.015
    1C        C  757   4.414   4.212   1.940
    1C        O  758   4.502   4.300   1.958
    1C        O  759   4.421   4.163   1.809
    1C        C  760   3.597   4.676   1.963
    1C        O  761   3.636   4.782   2.019
    1C        O  762   3.551   4.698   1.833
    1C        C  763   2.897   4.484   1.935
    1C        O  764   2.925   4.449   1.818
    1C        O  765   2.878   4.622   1.951
    1C        C  766   2.322   3.482   1.979
    1C        O  767   2.322   3.449   1.857
    1C        O  768   2.196   3.512   2.032
    1C        C  769   4.703   3.598   5.051
    1C        O  770   4.676   3.586   5.174
    1C        O  771   4.827   3.662   5.037
    1C        C  772   4.280   4.450   5.030
    1C        O  773   4.277   4.442   5.155
    1C        O  774   4.363   4.550   4.978
    1C        C  775   4.138   2.490   5.053
    1C        O  776   4.195   2.395   4.993
    1C        O  777   4.199   2.536   5.171
    1C        C  778   2.920   4.539   5.057
    1C        O  779   2.895   4.655   5.015
    1C        O  780   2.971   4.551   5.187
    1C        C  781   2.485   3.035   5.066
    1C        O  782   2.372   2.994   5.029
    1C        O  783   2.534   3.008   5.194
    1C        C  784   2.408   3.989   5.047
    1C        O  785   2.287   4.015   5.028
    1C        O  786   2.432   3.964   5.183
    1C        C  787   2.956   2.456   1.982
    1C        O  788   2.974   2.493   1.863
    1C        O  789   2.918   2.322   1.987
    1C        C  790   3.208   2.409   5.103
    1C        O  791   3.184   2.285   5.102
    1C        O  792   3.188   2.456   5.233
    1C        H  793   4.283   3.024   5.063
    1C        H  794   4.203   2.792   5.070
    1C        H  795   4.497   3.130   5.066
    1C        H  796   4.520   3.377   5.069
    1C        H  797   4.565   3.816   5.042
    1C        H  798   4.433   3.982   5.056
    1C        H  799   4.338   4.199   5.045
    1C        H  800   4.019   4.522   5.040
    1C        H  801   3.821   4.629   5.025
    1C        H  802   3.603   4.673   5.022
    1C        H  803   3.394   4.531   5.050
    1C        H  804   3.169   4.462   5.055
    1C        H  805   3.878   2.528   5.075
    1C        H  806   3.673   2.450   5.079
    1C        H  807   2.989   2.541   5.052
    1C        H  808   3.448   2.526   5.072
    1C        H  809   2.915   2.786   5.066
    1C        H  810   2.714   2.907   5.079
    1C        H  811   2.511   3.303   5.074
    1C        H  812   2.477   3.510   5.059
    1C        H  813   2.501   3.738   5.063
    1C        H  814   2.620   4.161   5.057
    1C        H  815   2.741   4.351   5.043
    1C        H  816   2.690   2.856   1.974
    1C        H  817   2.839   2.683   1.976
    1C        H  818   3.204   2.409   2.000
    1C        H  819   3.433   2.458   1.982
    1C        H  820   3.845   2.532   1.974
    1C        H  821   4.064   2.602   1.971
    1C        H  822   4.259   2.707   1.983
    1C        H  823   4.367   2.930   1.965
    1C        H  824   4.527   3.308   1.968
    1C        H  825   4.486   3.514   1.964
    1C        H  826   4.482   3.747   1.955
    1C        H  827   3.820   4.553   1.963
    1C        H  828   3.970   4.392   1.948
    1C        H  829   4.181   4.284   1.949
    1C        H  830   4.513   3.977   1.975
    1C        H  831   2.695   3.820   2.002
    1C        H  832   2.734   4.053   1.969
    1C        H  833   2.727   4.289   1.965
    1C        H  834   3.367   4.499   1.944
    1C        H  835   3.170   4.360   1.970
    1C        H  836   2.549   3.022   1.980
    1C        H  837   2.452   3.230   1.978
    1C        H  838   2.491   3.683   1.970
    2V3OU   H29  839   2.797   3.542   1.653
    2V3OU   C27  840   2.789   3.507   1.759
    2V3OU   H27  841   2.730   3.573   1.829
    2V3OU   H28  842   2.732   3.411   1.750
    2V3OU   O11  843   2.914   3.476   1.821
    2V3OU   C15  844   2.926   3.398   1.934
    2V3OU   C13  845   3.054   3.371   1.985
    2V3OU   C14  846   3.078   3.268   2.076
    2V3OU   C16  847   2.974   3.185   2.116
    2V3OU    H6  848   2.992   3.109   2.194
    2V3OU   C12  849   3.214   3.232   2.125
    2V3OU    O2  850   3.237   3.124   2.184
    2V3OU   C10  851   3.330   3.311   2.081
    2V3OU    C8  852   3.459   3.272   2.113
    2V3OU   O10  853   3.484   3.158   2.184
    2V3OU   H26  854   3.397   3.121   2.204
    2V3OU    C6  855   3.568   3.353   2.068
    2V3OU    C5  856   3.537   3.473   2.004
    2V3OU    C4  857   3.703   3.295   2.050
    2V3OU    H4  858   3.722   3.228   2.139
    2V3OU    H5  859   3.720   3.233   1.957
    2V3OU    C2  860   3.817   3.397   2.060
    2V3OU    O6  861   3.809   3.476   2.179
    2V3OU   H21  862   3.764   3.557   2.149
    2V3OU    C3  863   3.785   3.495   1.947
    2V3OU    H2  864   3.866   3.573   1.949
    2V3OU    H3  865   3.787   3.436   1.852
    2V3OU   C25  866   3.951   3.326   2.051
    2V3OU    O7  867   4.002   3.302   1.941
    2V3OU   C26  868   4.030   3.292   2.176
    2V3OU   H22  869   4.070   3.390   2.212
    2V3OU   H23  870   4.120   3.231   2.150
    2V3OU    O8  871   3.966   3.211   2.273
    2V3OU   H24  872   3.921   3.270   2.336
    2V3OU    C1  873   3.650   3.562   1.962
    2V3OU    H1  874   3.627   3.615   1.865
    2V3OU    O3  875   3.662   3.655   2.071
    2V3OU   C19  876   3.626   3.793   2.064
    2V3OU    H9  877   3.524   3.802   2.016
    2V3OU    O4  878   3.720   3.852   1.977
    2V3OU   C20  879   3.848   3.876   2.035
    2V3OU   H10  880   3.896   3.774   2.047
    2V3OU   C24  881   3.609   3.858   2.201
    2V3OU   H16  882   3.545   3.791   2.264
    2V3OU   H17  883   3.559   3.957   2.186
    2V3OU   C23  884   3.749   3.880   2.261
    2V3OU   H15  885   3.790   3.776   2.281
    2V3OU    N1  886   3.738   3.961   2.381
    2V3OU   H19  887   3.809   3.925   2.441
    2V3OU   H20  888   3.652   3.940   2.427
    2V3OU   C21  889   3.851   3.952   2.168
    2V3OU   H11  890   3.949   3.926   2.217
    2V3OU    O5  891   3.830   4.093   2.170
    2V3OU   H18  892   3.785   4.109   2.255
    2V3OU   C22  893   3.915   3.950   1.921
    2V3OU   H12  894   3.865   4.049   1.904
    2V3OU   H13  895   3.907   3.892   1.826
    2V3OU   H14  896   4.024   3.962   1.946
    2V3OU   C11  897   3.163   3.469   1.970
    2V3OU    O1  898   3.142   3.576   1.908
    2V3OU    C9  899   3.299   3.432   2.013
    2V3OU    C7  900   3.404   3.514   1.973
    2V3OU    O9  901   3.387   3.617   1.882
    2V3OU   H25  902   3.291   3.627   1.881
    2V3OU   C17  903   2.817   3.319   1.977
    2V3OU    H7  904   2.714   3.342   1.949
    2V3OU   C18  905   2.849   3.215   2.063
    2V3OU    H8  906   2.761   3.149   2.066
    3SOL     OW  907   2.206   4.310   0.917
    3SOL    HW1  908   2.196   4.222   0.963
    3SOL    HW2  909   2.121   4.335   0.871
    4SOL     OW  910   6.678   5.356   1.966
    4SOL    HW1  911   6.635   5.437   1.924
    4SOL    HW2  912   6.671   5.362   2.065
    5SOL     OW  913   3.566   1.310   2.351
    5SOL    HW1  914   3.647   1.309   2.293
    5SOL    HW2  915   3.590   1.341   2.442
    6SOL     OW  916   3.844   0.999   2.076
    6SOL    HW1  917   3.812   1.078   2.129
    6SOL    HW2  918   3.782   0.985   1.998
    7SOL     OW  919   6.357   3.313   1.767
    7SOL    HW1  920   6.292   3.240   1.785
    7SOL    HW2  921   6.325   3.397   1.811
    8SOL     OW  922   2.531   7.008   5.191
    8SOL    HW1  923   2.550   0.001   5.095
    8SOL    HW2  924   2.564   0.057   5.247
    9SOL     OW  925   0.866   5.652   6.354
    9SOL    HW1  926   0.829   5.610   6.271
    9SOL    HW2  927   0.955   5.693   6.334
   10SOL     OW  928   1.107   4.801   5.432
   10SOL    HW1  929   1.193   4.778   5.386
   10SOL    HW2  930   1.125   4.868   5.504
   11SOL     OW  931   2.565   0.471   0.149
   11SOL    HW1  932   2.485   0.466   0.209
   11SOL    HW2  933   2.620   0.550   0.174
   12SOL     OW  934   3.939   5.841   4.382
   12SOL    HW1  935   3.857   5.802   4.340
   12SOL    HW2  936   3.925   5.849   4.481
   13SOL     OW  937   3.787   6.062   4.090
   13SOL    HW1  938   3.717   5.996   4.118
   13SOL    HW2  939   3.877   6.019   4.098
   14SOL     OW  940   4.606   5.471   6.804
   14SOL    HW1  941   4.683   5.416   6.771
   14SOL    HW2  942   4.543   5.413   6.855
   15SOL     OW  943   1.622   5.460   0.541
   15SOL    HW1  944   1.586   5.532   0.600
   15SOL    HW2  945   1.546   5.403   0.509
   16SOL     OW  946   5.650   2.055   5.887
   16SOL    HW1  947   5.563   2.065   5.934
   16SOL    HW2  948   5.718   2.016   5.949
   17SOL     OW  949   6.336   5.975   4.817
   17SOL    HW1  950   6.381   5.942   4.900
   17SOL    HW2  951   6.405   6.002   4.750
   18SOL     OW  952   2.823   0.977   6.942
   18SOL    HW1  953   2.792   1.072   6.938
   18SOL    HW2  954   2.882   0.958   6.864
   19SOL     OW  955   0.348   6.997   2.979
   19SOL    HW1  956   0.330   6.925   2.912
   19SOL    HW2  957   0.425   6.970   3.037
   20SOL     OW  958   3.479   1.933   4.049
   20SOL    HW1  959   3.391   1.922   4.003
   20SOL    HW2  960   3.534   1.850   4.038
   21SOL     OW  961   3.212   2.146   2.390
   21SOL    HW1  962   3.311   2.134   2.386
   21SOL    HW2  963   3.188   2.233   2.348
   22SOL     OW  964   1.944   0.174   6.721
   22SOL    HW1  965   1.845   0.187   6.733
   22SOL    HW2  966   1.993   0.219   6.796
   23SOL     OW  967   4.413   6.655   3.882
   23SOL    HW1  968   4.376   6.678   3.792
   23SOL    HW2  969   4.408   6.556   3.895
   24SOL     OW  970   5.414   1.740   3.962
   24SOL    HW1  971   5.375   1.691   4.040
   24SOL    HW2  972   5.368   1.828   3.952
   25SOL     OW  973   3.009   5.971   5.945
   25SOL    HW1  974   2.914   5.974   5.977
   25SOL    HW2  975   3.025   5.884   5.898
   26SOL     OW  976   6.303   1.148   0.886
   26SOL    HW1  977   6.346   1.234   0.912
   26SOL    HW2  978   6.226   1.128   0.947
   27SOL     OW  979   0.375   1.049   2.017
   27SOL    HW1  980   0.299   0.990   2.043
   27SOL    HW2  981   0.356   1.143   2.046
   28SOL     OW  982   3.912   0.653   6.789
   28SOL    HW1  983   3.849   0.723   6.822
   28SOL    HW2  984   3.966   0.618   6.865
   29SOL     OW  985   5.591   2.544   1.658
   29SOL    HW1  986   5.626   2.610   1.591
   29SOL    HW2  987   5.570   2.592   1.743
   30SOL     OW  988   3.935   6.985   5.252
   30SOL    HW1  989   3.851   6.966   5.304
   30SOL    HW2  990   3.977   0.042   5.287
   31SOL     OW  991   1.114   2.138   5.955
   31SOL    HW1  992   1.078   2.230   5.940
   31SOL    HW2  993   1.186   2.140   6.023
   32SOL     OW  994   0.616   1.410   3.092
   32SOL    HW1  995   0.640   1.469   3.169
   32SOL    HW2  996   0.610   1.315   3.124
   33SOL     OW  997   2.273   3.586   6.939
   33SOL    HW1  998   2.250   3.575   6.842
   33SOL    HW2  999   2.344   3.521   6.964
   34SOL     OW 1000   2.319   0.900   3.719
   34SOL    HW1 1001   2.323   0.942   3.628
   34SOL    HW2 1002   2.233   0.924   3.763
   35SOL     OW 1003   4.010   2.051   6.663
   35SOL    HW1 1004   4.077   1.981   6.684
   35SOL    HW2 1005   3.918   2.012   6.668
   36SOL     OW 1006   1.123   0.454   6.383
   36SOL    HW1 1007   1.138   0.376   6.322
   36SOL    HW2 1008   1.141   0.427   6.477
   37SOL     OW 1009   2.153   0.693   0.265
   37SOL    HW1 1010   2.125   0.644   0.348
   37SOL    HW2 1011   2.088   0.768   0.249
   38SOL     OW 1012   0.441   4.932   3.225
   38SOL    HW1 1013   0.429   5.029   3.203
   38SOL    HW2 1014   0.468   4.883   3.142
   39SOL     OW 1015   6.240   4.475   6.436
   39SOL    HW1 1016   6.299   4.489   6.515
   39SOL    HW2 1017   6.297   4.462   6.354
   40SOL     OW 1018   6.133   2.156   1.263
   40SOL    HW1 1019   6.224   2.140   1.223
   40SOL    HW2 1020   6.118   2.254   1.272
   41SOL     OW 1021   1.215   6.764   4.030
   41SOL    HW1 1022   1.126   6.759   3.985
   41SOL    HW2 1023   1.203   6.792   4.125
   42SOL     OW 1024   3.129   6.298   6.417
   42SOL    HW1 1025   3.114   6.343   6.505
   42SOL    HW2 1026   3.041   6.269   6.379
   43SOL     OW 1027   6.071   6.327   5.663
   43SOL    HW1 1028   6.043   6.400   5.600
   43SOL    HW2 1029   6.034   6.240   5.631
   44SOL     OW 1030   6.323   2.561   6.033
   44SOL    HW1 1031   6.328   2.600   5.942
   44SOL    HW2 1032   6.389   2.605   6.093
   45SOL     OW 1033   3.157   0.754   3.503
   45SOL    HW1 1034   3.172   0.655   3.508
   45SOL    HW2 1035   3.193   0.789   3.417
   46SOL     OW 1036   1.340   3.601   4.422
   46SOL    HW1 1037   1.260   3.595   4.362
   46SOL    HW2 1038   1.423   3.608   4.366
   47SOL     OW 1039   5.174   4.056   2.886
   47SOL    HW1 1040   5.241   4.128   2.864
   47SOL    HW2 1041   5.139   4.016   2.802
   48SOL     OW 1042   0.499   3.106   4.994
   48SOL    HW1 1043   0.531   3.024   4.946
   48SOL    HW2 1044   0.556   3.122   5.074
   49SOL     OW 1045   4.565   3.982   1.694
   49SOL    HW1 1046   4.515   4.063   1.726
   49SOL    HW2 1047   4.552   3.972   1.596
   50SOL     OW 1048   6.466   2.491   5.653
   50SOL    HW1 1049   6.379   2.452   5.624
   50SOL    HW2 1050   6.506   2.434   5.724
   51SOL     OW 1051   2.977   5.945   2.999
   51SOL    HW1 1052   3.005   5.853   3.027
   51SOL    HW2 1053   2.989   6.009   3.075
   52SOL     OW 1054   4.608   2.108   3.820
   52SOL    HW1 1055   4.556   2.112   3.905
   52SOL    HW2 1056   4.659   2.022   3.817
   53SOL     OW 1057   4.446   0.653   4.598
   53SOL    HW1 1058   4.533   0.702   4.608
   53SOL    HW2 1059   4.440   0.616   4.505
   54SOL     OW 1060   3.813   4.865   0.934
   54SOL    HW1 1061   3.868   4.888   1.015
   54SOL    HW2 1062   3.739   4.804   0.960
   55SOL     OW 1063   3.525   1.303   6.226
   55SOL    HW1 1064   3.541   1.272   6.132
   55SOL    HW2 1065   3.455   1.374   6.226
   56SOL     OW 1066   1.365   0.671   1.380
   56SOL    HW1 1067   1.350   0.751   1.438
   56SOL    HW2 1068   1.302   0.674   1.302
   57SOL     OW 1069   5.180   0.935   1.686
   57SOL    HW1 1070   5.270   0.901   1.657
   57SOL    HW2 1071   5.178   1.035   1.676
   58SOL     OW 1072   6.881   6.787   5.529
   58SOL    HW1 1073   6.914   6.693   5.535
   58SOL    HW2 1074   6.806   6.792   5.463
   59SOL     OW 1075   2.025   1.272   5.978
   59SOL    HW1 1076   1.940   1.284   5.926
   59SOL    HW2 1077   2.003   1.258   6.074
   60SOL     OW 1078   6.221   0.755   5.950
   60SOL    HW1 1079   6.250   0.701   5.871
   60SOL    HW2 1080   6.247   0.706   6.034
   61SOL     OW 1081   5.538   1.221   4.556
   61SOL    HW1 1082   5.539   1.295   4.623
   61SOL    HW2 1083   5.593   1.144   4.589
   62SOL     OW 1084   0.841   0.875   3.513
   62SOL    HW1 1085   0.806   0.795   3.561
   62SOL    HW2 1086   0.808   0.958   3.559
   63SOL     OW 1087   6.636   1.336   3.712
   63SOL    HW1 1088   6.547   1.304   3.681
   63SOL    HW2 1089   6.685   1.378   3.636
   64SOL     OW 1090   0.627   3.958   6.495
   64SOL    HW1 1091   0.678   3.902   6.560
   64SOL    HW2 1092   0.642   4.055   6.516
   65SOL     OW 1093   6.700   4.306   5.214
   65SOL    HW1 1094   6.735   4.225   5.261
   65SOL    HW2 1095   6.692   4.381   5.279
   66SOL     OW 1096   3.674   0.148   6.626
   66SOL    HW1 1097   3.770   0.162   6.648
   66SOL    HW2 1098   3.664   0.063   6.574
   67SOL     OW 1099   5.753   5.107   5.426
   67SOL    HW1 1100   5.691   5.179   5.392
   67SOL    HW2 1101   5.788   5.134   5.515
   68SOL     OW 1102   6.036   0.541   6.268
   68SOL    HW1 1103   6.038   0.458   6.323
   68SOL    HW2 1104   6.120   0.547   6.213
   69SOL     OW 1105   1.851   3.939   6.749
   69SOL    HW1 1106   1.931   3.878   6.746
   69SOL    HW2 1107   1.800   3.931   6.663
   70SOL     OW 1108   6.333   5.201   3.494
   70SOL    HW1 1109   6.426   5.164   3.489
   70SOL    HW2 1110   6.330   5.290   3.449
   71SOL     OW 1111   3.479   2.084   2.402
   71SOL    HW1 1112   3.493   2.084   2.501
   71SOL    HW2 1113   3.566   2.098   2.356
   72SOL     OW 1114   3.088   5.776   4.849
   72SOL    HW1 1115   3.131   5.848   4.903
   72SOL    HW2 1116   3.069   5.697   4.908
   73SOL     OW 1117   3.520   1.552   0.322
   73SOL    HW1 1118   3.469   1.478   0.279
   73SOL    HW2 1119   3.557   1.612   0.251
   74SOL     OW 1120   5.509   6.589   6.255
   74SOL    HW1 1121   5.561   6.504   6.258
   74SOL    HW2 1122   5.572   6.665   6.234
   75SOL     OW 1123   3.525   6.592   6.019
   75SOL    HW1 1124   3.515   6.554   5.927
   75SOL    HW2 1125   3.439   6.633   6.048
   76SOL     OW 1126   1.960   2.786   1.051
   76SOL    HW1 1127   2.027   2.716   1.078
   76SOL    HW2 1128   1.875   2.773   1.103
   77SOL     OW 1129   4.976   5.959   4.649
   77SOL    HW1 1130   5.050   6.022   4.626
   77SOL    HW2 1131   4.908   5.961   4.575
   78SOL     OW 1132   6.205   0.378   5.802
   78SOL    HW1 1133   6.212   0.348   5.706
   78SOL    HW2 1134   6.126   0.438   5.812
   79SOL     OW 1135   3.179   0.033   0.322
   79SOL    HW1 1136   3.095   7.010   0.345
   79SOL    HW2 1137   3.258   7.001   0.341
   80SOL     OW 1138   5.758   1.336   4.319
   80SOL    HW1 1139   5.691   1.290   4.378
   80SOL    HW2 1140   5.847   1.337   4.364
   81SOL     OW 1141   2.292   0.248   2.523
   81SOL    HW1 1142   2.206   0.277   2.479
   81SOL    HW2 1143   2.292   0.148   2.533
   82SOL     OW 1144   6.960   5.755   0.389
   82SOL    HW1 1145   6.959   5.691   0.465
   82SOL    HW2 1146   6.903   5.720   0.315
   83SOL     OW 1147   6.550   0.094   0.368
   83SOL    HW1 1148   6.570   0.134   0.278
   83SOL    HW2 1149   6.591   0.150   0.439
   84SOL     OW 1150   4.929   3.296   3.296
   84SOL    HW1 1151   4.869   3.217   3.288
   84SOL    HW2 1152   5.020   3.267   3.326
   85SOL     OW 1153   1.637   1.682   5.163
   85SOL    HW1 1154   1.558   1.648   5.112
   85SOL    HW2 1155   1.669   1.610   5.225
   86SOL     OW 1156   0.572   0.264   5.710
   86SOL    HW1 1157   0.614   0.355   5.710
   86SOL    HW2 1158   0.643   0.194   5.706
   87SOL     OW 1159   5.100   3.441   0.500
   87SOL    HW1 1160   5.124   3.535   0.526
   87SOL    HW2 1161   5.064   3.441   0.406
   88SOL     OW 1162   4.430   1.855   6.409
   88SOL    HW1 1163   4.525   1.847   6.440
   88SOL    HW2 1164   4.423   1.928   6.342
   89SOL     OW 1165   1.143   3.249   6.629
   89SOL    HW1 1166   1.131   3.220   6.724
   89SOL    HW2 1167   1.058   3.235   6.579
   90SOL     OW 1168   4.466   6.406   3.663
   90SOL    HW1 1169   4.465   6.336   3.735
   90SOL    HW2 1170   4.550   6.459   3.669
   91SOL     OW 1171   4.848   4.226   4.242
   91SOL    HW1 1172   4.944   4.236   4.268
   91SOL    HW2 1173   4.790   4.245   4.321
   92SOL     OW 1174   3.300   4.279   0.549
   92SOL    HW1 1175   3.334   4.208   0.611
   92SOL    HW2 1176   3.223   4.244   0.497
   93SOL     OW 1177   2.545   4.472   6.637
   93SOL    HW1 1178   2.453   4.475   6.598
   93SOL    HW2 1179   2.612   4.504   6.570
   94SOL     OW 1180   2.501   6.222   6.391
   94SOL    HW1 1181   2.487   6.200   6.487
   94SOL    HW2 1182   2.417   6.262   6.353
   95SOL     OW 1183   0.795   1.456   2.893
   95SOL    HW1 1184   0.722   1.445   2.960
   95SOL    HW2 1185   0.758   1.494   2.809
   96SOL     OW 1186   3.002   6.845   5.595
   96SOL    HW1 1187   3.071   6.916   5.581
   96SOL    HW2 1188   2.948   6.835   5.511
   97SOL     OW 1189   0.654   3.882   5.573
   97SOL    HW1 1190   0.597   3.801   5.559
   97SOL    HW2 1191   0.634   3.922   5.663
   98SOL     OW 1192   6.427   4.015   6.930
   98SOL    HW1 1193   6.374   3.947   6.980
   98SOL    HW2 1194   6.515   4.029   6.975
   99SOL     OW 1195   4.370   3.902   0.969
   99SOL    HW1 1196   4.283   3.872   1.010
   99SOL    HW2 1197   4.411   3.972   1.028
  100SOL     OW 1198   0.397   0.142   5.873
  100SOL    HW1 1199   0.307   0.145   5.831
  100SOL    HW2 1200   0.465   0.176   5.808
  101SOL     OW 1201   1.770   5.657   2.655
  101SOL    HW1 1202   1.818   5.744   2.663
  101SOL    HW2 1203   1.700   5.664   2.584
  102SOL     OW 1204   5.054   0.591   2.474
  102SOL    HW1 1205   4.957   0.599   2.498
  102SOL    HW2 1206   5.063   0.538   2.389
  103SOL     OW 1207   3.874   0.751   2.416
  103SOL    HW1 1208   3.943   0.759   2.344
  103SOL    HW2 1209   3.785   0.728   2.374
  104SOL     OW 1210   0.236   5.243   2.551
  104SOL    HW1 1211   0.331   5.257   2.575
  104SOL    HW2 1212   0.180   5.243   2.634
  105SOL     OW 1213   6.350   1.969   6.270
  105SOL    HW1 1214   6.299   2.006   6.347
  105SOL    HW2 1215   6.314   2.007   6.184
  106SOL     OW 1216   3.467   6.216   5.058
  106SOL    HW1 1217   3.468   6.116   5.062
  106SOL    HW2 1218   3.492   6.246   4.966
  107SOL     OW 1219   1.871   2.112   2.066
  107SOL    HW1 1220   1.876   2.191   2.006
  107SOL    HW2 1221   1.952   2.055   2.054
  108SOL     OW 1222   4.191   4.752   6.251
  108SOL    HW1 1223   4.180   4.827   6.316
  108SOL    HW2 1224   4.185   4.665   6.300
  109SOL     OW 1225   0.680   1.413   1.222
  109SOL    HW1 1226   0.767   1.381   1.185
  109SOL    HW2 1227   0.629   1.462   1.151
  110SOL     OW 1228   3.723   6.458   5.448
  110SOL    HW1 1229   3.704   6.405   5.366
  110SOL    HW2 1230   3.738   6.396   5.525
  111SOL     OW 1231   3.138   0.522   5.500
  111SOL    HW1 1232   3.127   0.459   5.423
  111SOL    HW2 1233   3.191   0.602   5.471
  112SOL     OW 1234   6.127   6.340   6.315
  112SOL    HW1 1235   6.066   6.384   6.249
  112SOL    HW2 1236   6.219   6.333   6.277
  113SOL     OW 1237   6.710   5.319   3.458
  113SOL    HW1 1238   6.645   5.388   3.488
  113SOL    HW2 1239   6.696   5.235   3.510
  114SOL     OW 1240   0.889   0.431   1.267
  114SOL    HW1 1241   0.849   0.424   1.358
  114SOL    HW2 1242   0.835   0.494   1.211
  115SOL     OW 1243   3.678   1.435   4.071
  115SOL    HW1 1244   3.626   1.510   4.113
  115SOL    HW2 1245   3.617   1.359   4.051
  116SOL     OW 1246   6.209   5.177   2.085
  116SOL    HW1 1247   6.276   5.217   2.148
  116SOL    HW2 1248   6.134   5.242   2.072
  117SOL     OW 1249   1.329   1.463   6.301
  117SOL    HW1 1250   1.429   1.466   6.300
  117SOL    HW2 1251   1.293   1.517   6.225
  118SOL     OW 1252   1.089   1.428   2.485
  118SOL    HW1 1253   1.189   1.425   2.491
  118SOL    HW2 1254   1.062   1.453   2.391
  119SOL     OW 1255   1.550   2.185   6.174
  119SOL    HW1 1256   1.634   2.181   6.227
  119SOL    HW2 1257   1.537   2.098   6.126
  120SOL     OW 1258   6.718   6.794   0.468
  120SOL    HW1 1259   6.710   6.790   0.368
  120SOL    HW2 1260   6.738   6.887   0.496
  121SOL     OW 1261   2.595   4.007   6.999
  121SOL    HW1 1262   2.530   4.081   6.982
  121SOL    HW2 1263   2.682   4.046   0.002
  122SOL     OW 1264   1.708   4.551   6.308
  122SOL    HW1 1265   1.791   4.606   6.300
  122SOL    HW2 1266   1.731   4.455   6.292
  123SOL     OW 1267   0.557   2.678   1.838
  123SOL    HW1 1268   0.467   2.634   1.840
  123SOL    HW2 1269   0.600   2.662   1.750
  124SOL     OW 1270   5.507   3.137   0.352
  124SOL    HW1 1271   5.457   3.189   0.282
  124SOL    HW2 1272   5.469   3.158   0.442
  125SOL     OW 1273   2.375   1.801   1.952
  125SOL    HW1 1274   2.408   1.729   2.012
  125SOL    HW2 1275   2.377   1.769   1.857
  126SOL     OW 1276   2.359   4.405   1.141
  126SOL    HW1 1277   2.449   4.401   1.098
  126SOL    HW2 1278   2.289   4.389   1.072
  127SOL     OW 1279   7.026   5.588   6.126
  127SOL    HW1 1280   6.980   5.499   6.130
  127SOL    HW2 1281   0.050   5.604   6.211
  128SOL     OW 1282   4.454   2.464   1.505
  128SOL    HW1 1283   4.363   2.449   1.544
  128SOL    HW2 1284   4.469   2.399   1.431
  129SOL     OW 1285   4.479   3.929   5.807
  129SOL    HW1 1286   4.459   3.898   5.900
  129SOL    HW2 1287   4.395   3.962   5.764
  130SOL     OW 1288   0.564   1.131   4.086
  130SOL    HW1 1289   0.633   1.087   4.143
  130SOL    HW2 1290   0.477   1.083   4.095
  131SOL     OW 1291   5.770   1.346   2.064
  131SOL    HW1 1292   5.829   1.268   2.043
  131SOL    HW2 1293   5.732   1.382   1.978
  132SOL     OW 1294   2.387   2.998   0.903
  132SOL    HW1 1295   2.290   2.979   0.917
  132SOL    HW2 1296   2.442   2.930   0.952
  133SOL     OW 1297   5.043   6.241   4.008
  133SOL    HW1 1298   5.027   6.197   3.919
  133SOL    HW2 1299   5.140   6.236   4.031
  134SOL     OW 1300   5.896   1.474   2.272
  134SOL    HW1 1301   5.844   1.431   2.198
  134SOL    HW2 1302   5.860   1.443   2.360
  135SOL     OW 1303   5.963   3.306   1.566
  135SOL    HW1 1304   6.017   3.388   1.586
  135SOL    HW2 1305   5.950   3.253   1.650
  136SOL     OW 1306   3.831   3.881   6.385
  136SOL    HW1 1307   3.885   3.801   6.412
  136SOL    HW2 1308   3.891   3.948   6.340
  137SOL     OW 1309   5.023   0.782   4.716
  137SOL    HW1 1310   5.106   0.745   4.759
  137SOL    HW2 1311   4.960   0.707   4.697
  138SOL     OW 1312   0.508   4.048   3.542
  138SOL    HW1 1313   0.530   3.951   3.556
  138SOL    HW2 1314   0.593   4.100   3.536
  139SOL     OW 1315   2.686   6.000   5.209
  139SOL    HW1 1316   2.657   6.017   5.303
  139SOL    HW2 1317   2.606   5.979   5.153
  140SOL     OW 1318   0.528   5.894   3.231
  140SOL    HW1 1319   0.577   5.972   3.269
  140SOL    HW2 1320   0.432   5.897   3.260
  141SOL     OW 1321   6.080   3.300   5.458
  141SOL    HW1 1322   6.095   3.242   5.539
  141SOL    HW2 1323   6.096   3.396   5.483
  142SOL     OW 1324   1.912   4.768   0.494
  142SOL    HW1 1325   2.005   4.738   0.473
  142SOL    HW2 1326   1.912   4.865   0.516
  143SOL     OW 1327   5.636   4.315   1.593
  143SOL    HW1 1328   5.660   4.252   1.519
  143SOL    HW2 1329   5.667   4.276   1.680
  144SOL     OW 1330   1.363   6.629   6.911
  144SOL    HW1 1331   1.413   6.556   6.957
  144SOL    HW2 1332   1.317   6.687   6.979
  145SOL     OW 1333   0.605   5.089   0.193
  145SOL    HW1 1334   0.507   5.105   0.200
  145SOL    HW2 1335   0.654   5.168   0.231
  146SOL     OW 1336   4.957   0.303   6.148
  146SOL    HW1 1337   4.962   0.359   6.065
  146SOL    HW2 1338   4.968   0.206   6.123
  147SOL     OW 1339   5.967   3.000   6.463
  147SOL    HW1 1340   6.059   3.040   6.461
  147SOL    HW2 1341   5.906   3.058   6.517
  148SOL     OW 1342   0.413   4.763   6.642
  148SOL    HW1 1343   0.396   4.760   6.544
  148SOL    HW2 1344   0.394   4.855   6.677
  149SOL     OW 1345   2.980   2.049   4.404
  149SOL    HW1 1346   3.006   1.954   4.419
  149SOL    HW2 1347   2.959   2.063   4.307
  150SOL     OW 1348   5.380   5.180   6.350
  150SOL    HW1 1349   5.309   5.158   6.417
  150SOL    HW2 1350   5.431   5.097   6.328
  151SOL     OW 1351   3.497   2.063   1.076
  151SOL    HW1 1352   3.454   2.057   0.986
  151SOL    HW2 1353   3.459   1.993   1.136
  152SOL     OW 1354   1.520   1.783   3.884
  152SOL    HW1 1355   1.425   1.752   3.889
  152SOL    HW2 1356   1.530   1.851   3.812
  153SOL     OW 1357   2.700   0.213   1.573
  153SOL    HW1 1358   2.763   0.288   1.553
  153SOL    HW2 1359   2.708   0.143   1.501
  154SOL     OW 1360   0.386   2.681   3.062
  154SOL    HW1 1361   0.365   2.720   3.151
  154SOL    HW2 1362   0.481   2.650   3.060
  155SOL     OW 1363   0.191   0.751   3.225
  155SOL    HW1 1364   0.195   0.710   3.134
  155SOL    HW2 1365   0.103   0.731   3.267
  156SOL     OW 1366   6.735   1.989   1.315
  156SOL    HW1 1367   6.767   2.060   1.252
  156SOL    HW2 1368   6.640   1.967   1.296
  157SOL     OW 1369   6.019   3.520   1.933
  157SOL    HW1 1370   5.974   3.590   1.989
  157SOL    HW2 1371   6.100   3.559   1.889
  158SOL     OW 1372   2.849   6.858   2.146
  158SOL    HW1 1373   2.843   6.943   2.199
  158SOL    HW2 1374   2.835   6.878   2.049
  159SOL     OW 1375   4.483   4.311   1.564
  159SOL    HW1 1376   4.481   4.242   1.637
  159SOL    HW2 1377   4.519   4.397   1.601
  160SOL     OW 1378   6.676   5.035   0.146
  160SOL    HW1 1379   6.648   5.012   0.239
  160SOL    HW2 1380   6.676   4.953   0.090
  161SOL     OW 1381   1.450   5.464   4.783
  161SOL    HW1 1382   1.355   5.450   4.754
  161SOL    HW2 1383   1.483   5.381   4.830
  162SOL     OW 1384   3.888   6.632   0.235
  162SOL    HW1 1385   3.972   6.669   0.195
  162SOL    HW2 1386   3.910   6.554   0.293
  163SOL     OW 1387   5.205   5.627   1.217
  163SOL    HW1 1388   5.134   5.643   1.148
  163SOL    HW2 1389   5.276   5.568   1.179
  164SOL     OW 1390   6.473   4.560   0.863
  164SOL    HW1 1391   6.517   4.629   0.920
  164SOL    HW2 1392   6.533   4.538   0.786
  165SOL     OW 1393   5.590   3.040   0.825
  165SOL    HW1 1394   5.595   3.052   0.924
  165SOL    HW2 1395   5.661   3.094   0.781
  166SOL     OW 1396   0.686   4.898   3.418
  166SOL    HW1 1397   0.630   4.876   3.338
  166SOL    HW2 1398   0.745   4.820   3.440
  167SOL     OW 1399   6.026   2.445   0.424
  167SOL    HW1 1400   6.056   2.436   0.329
  167SOL    HW2 1401   6.009   2.354   0.463
  168SOL     OW 1402   2.576   3.535   1.038
  168SOL    HW1 1403   2.580   3.496   1.130
  168SOL    HW2 1404   2.547   3.630   1.044
  169SOL     OW 1405   4.119   0.470   2.422
  169SOL    HW1 1406   4.058   0.465   2.343
  169SOL    HW2 1407   4.065   0.476   2.506
  170SOL     OW 1408   0.433   1.659   3.579
  170SOL    HW1 1409   0.526   1.622   3.576
  170SOL    HW2 1410   0.437   1.758   3.595
  171SOL     OW 1411   3.900   4.307   0.352
  171SOL    HW1 1412   3.919   4.361   0.270
  171SOL    HW2 1413   3.909   4.366   0.433
  172SOL     OW 1414   6.509   1.720   4.418
  172SOL    HW1 1415   6.560   1.805   4.435
  172SOL    HW2 1416   6.451   1.700   4.497
  173SOL     OW 1417   6.662   1.516   4.296
  173SOL    HW1 1418   6.598   1.569   4.351
  173SOL    HW2 1419   6.742   1.572   4.274
  174SOL     OW 1420   3.074   5.542   4.112
  174SOL    HW1 1421   3.107   5.510   4.200
  174SOL    HW2 1422   3.092   5.473   4.042
  175SOL     OW 1423   1.949   0.032   2.027
  175SOL    HW1 1424   1.962   6.985   1.959
  175SOL    HW2 1425   1.879   0.004   2.092
  176SOL     OW 1426   0.848   3.998   1.341
  176SOL    HW1 1427   0.927   3.940   1.320
  176SOL    HW2 1428   0.863   4.089   1.303
  177SOL     OW 1429   5.939   3.213   2.524
  177SOL    HW1 1430   5.861   3.157   2.496
  177SOL    HW2 1431   5.942   3.295   2.468
  178SOL     OW 1432   4.028   2.826   6.104
  178SOL    HW1 1433   3.942   2.846   6.058
  178SOL    HW2 1434   4.044   2.892   6.177
  179SOL     OW 1435   2.415   1.676   6.113
  179SOL    HW1 1436   2.445   1.582   6.104
  179SOL    HW2 1437   2.477   1.736   6.063
  180SOL     OW 1438   1.497   6.858   6.257
  180SOL    HW1 1439   1.447   6.773   6.277
  180SOL    HW2 1440   1.593   6.847   6.282
  181SOL     OW 1441   3.386   1.608   6.724
  181SOL    HW1 1442   3.452   1.549   6.679
  181SOL    HW2 1443   3.409   1.616   6.821
  182SOL     OW 1444   3.732   2.118   4.427
  182SOL    HW1 1445   3.651   2.128   4.369
  182SOL    HW2 1446   3.814   2.127   4.371
  183SOL     OW 1447   3.216   1.861   3.467
  183SOL    HW1 1448   3.309   1.839   3.497
  183SOL    HW2 1449   3.211   1.856   3.367
  184SOL     OW 1450   1.404   6.159   4.107
  184SOL    HW1 1451   1.324   6.125   4.057
  184SOL    HW2 1452   1.410   6.258   4.097
  185SOL     OW 1453   0.703   2.290   6.327
  185SOL    HW1 1454   0.786   2.294   6.384
  185SOL    HW2 1455   0.710   2.211   6.265
  186SOL     OW 1456   6.482   1.345   3.339
  186SOL    HW1 1457   6.418   1.416   3.369
  186SOL    HW2 1458   6.454   1.311   3.249
  187SOL     OW 1459   5.002   0.413   3.487
  187SOL    HW1 1460   4.989   0.423   3.586
  187SOL    HW2 1461   5.090   0.453   3.461
  188SOL     OW 1462   6.162   1.787   2.431
  188SOL    HW1 1463   6.121   1.768   2.520
  188SOL    HW2 1464   6.255   1.750   2.429
  189SOL     OW 1465   2.083   5.515   2.912
  189SOL    HW1 1466   2.141   5.544   2.835
  189SOL    HW2 1467   2.059   5.595   2.967
  190SOL     OW 1468   3.959   1.595   4.819
  190SOL    HW1 1469   4.048   1.557   4.844
  190SOL    HW2 1470   3.911   1.531   4.759
  191SOL     OW 1471   5.478   5.895   5.787
  191SOL    HW1 1472   5.416   5.915   5.862
  191SOL    HW2 1473   5.437   5.925   5.700
  192SOL     OW 1474   0.132   5.742   1.797
  192SOL    HW1 1475   0.141   5.838   1.821
  192SOL    HW2 1476   0.142   5.731   1.698
  193SOL     OW 1477   4.796   2.677   5.606
  193SOL    HW1 1478   4.806   2.578   5.603
  193SOL    HW2 1479   4.728   2.706   5.538
  194SOL     OW 1480   3.548   0.916   2.868
  194SOL    HW1 1481   3.520   1.006   2.901
  194SOL    HW2 1482   3.597   0.868   2.940
  195SOL     OW 1483   1.655   6.448   4.280
  195SOL    HW1 1484   1.640   6.350   4.271
  195SOL    HW2 1485   1.673   6.470   4.376
  196SOL     OW 1486   2.591   1.396   6.888
  196SOL    HW1 1487   2.560   1.465   6.954
  196SOL    HW2 1488   2.621   1.441   6.805
  197SOL     OW 1489   2.183   1.115   0.085
  197SOL    HW1 1490   2.102   1.057   0.075
  197SOL    HW2 1491   2.156   1.210   0.099
  198SOL     OW 1492   4.918   1.007   3.256
  198SOL    HW1 1493   4.831   1.038   3.293
  198SOL    HW2 1494   4.907   0.914   3.219
  199SOL     OW 1495   1.058   2.076   4.259
  199SOL    HW1 1496   1.096   2.046   4.172
  199SOL    HW2 1497   1.073   2.174   4.270
  200SOL     OW 1498   1.091   3.818   0.659
  200SOL    HW1 1499   1.012   3.825   0.598
  200SOL    HW2 1500   1.090   3.894   0.723
  201SOL     OW 1501   0.698   6.349   5.301
  201SOL    HW1 1502   0.705   6.297   5.386
  201SOL    HW2 1503   0.788   6.351   5.256
  202SOL     OW 1504   3.789   1.775   6.477
  202SOL    HW1 1505   3.716   1.731   6.425
  202SOL    HW2 1506   3.857   1.813   6.414
  203SOL     OW 1507   5.857   1.985   5.039
  203SOL    HW1 1508   5.887   1.911   5.100
  203SOL    HW2 1509   5.862   2.072   5.088
  204SOL     OW 1510   0.559   6.785   4.023
  204SOL    HW1 1511   0.612   6.769   3.940
  204SOL    HW2 1512   0.533   6.698   4.064
  205SOL     OW 1513   2.098   2.665   2.823
  205SOL    HW1 1514   2.013   2.671   2.772
  205SOL    HW2 1515   2.079   2.630   2.915
  206SOL     OW 1516   1.134   3.318   1.312
  206SOL    HW1 1517   1.121   3.258   1.233
  206SOL    HW2 1518   1.195   3.393   1.288
  207SOL     OW 1519   5.889   0.394   3.650
  207SOL    HW1 1520   5.966   0.445   3.688
  207SOL    HW2 1521   5.810   0.454   3.641
  208SOL     OW 1522   0.364   4.033   5.777
  208SOL    HW1 1523   0.377   3.969   5.853
  208SOL    HW2 1524   0.272   4.022   5.740
  209SOL     OW 1525   6.450   4.628   2.822
  209SOL    HW1 1526   6.360   4.603   2.857
  209SOL    HW2 1527   6.520   4.571   2.866
  210SOL     OW 1528   4.467   2.156   0.777
  210SOL    HW1 1529   4.391   2.108   0.822
  210SOL    HW2 1530   4.430   2.216   0.706
  211SOL     OW 1531   1.096   6.636   2.337
  211SOL    HW1 1532   1.024   6.631   2.407
  211SOL    HW2 1533   1.184   6.651   2.382
  212SOL     OW 1534   1.413   3.875   2.730
  212SOL    HW1 1535   1.431   3.780   2.757
  212SOL    HW2 1536   1.364   3.922   2.804
  213SOL     OW 1537   1.568   5.997   1.031
  213SOL    HW1 1538   1.511   5.951   1.099
  213SOL    HW2 1539   1.605   6.081   1.069
  214SOL     OW 1540   3.695   5.290   3.021
  214SOL    HW1 1541   3.705   5.283   2.921
  214SOL    HW2 1542   3.605   5.329   3.042
  215SOL     OW 1543   2.680   4.428   1.180
  215SOL    HW1 1544   2.706   4.524   1.191
  215SOL    HW2 1545   2.677   4.384   1.270
  216SOL     OW 1546   0.850   6.139   3.005
  216SOL    HW1 1547   0.800   6.153   2.920
  216SOL    HW2 1548   0.833   6.046   3.038
  217SOL     OW 1549   1.215   2.460   4.820
  217SOL    HW1 1550   1.201   2.478   4.918
  217SOL    HW2 1551   1.311   2.442   4.803
  218SOL     OW 1552   0.438   2.809   4.621
  218SOL    HW1 1553   0.359   2.797   4.562
  218SOL    HW2 1554   0.455   2.725   4.673
  219SOL     OW 1555   4.592   0.423   0.831
  219SOL    HW1 1556   4.665   0.481   0.868
  219SOL    HW2 1557   4.511   0.479   0.814
  220SOL     OW 1558   2.703   0.359   0.628
  220SOL    HW1 1559   2.791   0.386   0.588
  220SOL    HW2 1560   2.664   0.437   0.677
  221SOL     OW 1561   6.006   4.040   1.343
  221SOL    HW1 1562   6.035   4.135   1.353
  221SOL    HW2 1563   5.949   4.030   1.261
  222SOL     OW 1564   1.718   4.626   5.807
  222SOL    HW1 1565   1.633   4.578   5.832
  222SOL    HW2 1566   1.702   4.724   5.810
  223SOL     OW 1567   6.679   3.003   5.513
  223SOL    HW1 1568   6.657   2.923   5.457
  223SOL    HW2 1569   6.660   3.087   5.461
  224SOL     OW 1570   3.087   1.091   0.072
  224SOL    HW1 1571   3.060   1.006   0.027
  224SOL    HW2 1572   3.141   1.146   0.008
  225SOL     OW 1573   4.195   3.873   6.273
  225SOL    HW1 1574   4.229   3.783   6.301
  225SOL    HW2 1575   4.196   3.935   6.352
  226SOL     OW 1576   0.794   1.253   5.975
  226SOL    HW1 1577   0.780   1.160   6.008
  226SOL    HW2 1578   0.755   1.318   6.041
  227SOL     OW 1579   2.175   4.545   2.627
  227SOL    HW1 1580   2.083   4.521   2.596
  227SOL    HW2 1581   2.237   4.469   2.608
  228SOL     OW 1582   1.996   0.472   2.806
  228SOL    HW1 1583   2.000   0.448   2.903
  228SOL    HW2 1584   1.952   0.398   2.755
  229SOL     OW 1585   5.385   5.773   6.060
  229SOL    HW1 1586   5.344   5.863   6.045
  229SOL    HW2 1587   5.317   5.702   6.042
  230SOL     OW 1588   4.501   5.585   4.066
  230SOL    HW1 1589   4.599   5.567   4.078
  230SOL    HW2 1590   4.473   5.560   3.973
  231SOL     OW 1591   6.110   1.181   6.204
  231SOL    HW1 1592   6.112   1.178   6.304
  231SOL    HW2 1593   6.187   1.129   6.167
  232SOL     OW 1594   0.324   3.215   6.377
  232SOL    HW1 1595   0.283   3.140   6.326
  232SOL    HW2 1596   0.289   3.215   6.471
  233SOL     OW 1597   4.476   1.335   3.360
  233SOL    HW1 1598   4.551   1.350   3.424
  233SOL    HW2 1599   4.480   1.403   3.287
  234SOL     OW 1600   6.070   1.064   6.909
  234SOL    HW1 1601   6.105   1.145   6.957
  234SOL    HW2 1602   6.064   0.987   6.972
  235SOL     OW 1603   4.838   2.971   2.247
  235SOL    HW1 1604   4.782   2.888   2.243
  235SOL    HW2 1605   4.827   3.024   2.163
  236SOL     OW 1606   4.957   2.973   7.003
  236SOL    HW1 1607   4.936   2.956   6.906
  236SOL    HW2 1608   5.032   2.914   0.005
  237SOL     OW 1609   0.192   4.296   1.813
  237SOL    HW1 1610   0.130   4.319   1.888
  237SOL    HW2 1611   0.259   4.229   1.843
  238SOL     OW 1612   5.898   1.824   7.000
  238SOL    HW1 1613   5.986   1.836   6.954
  238SOL    HW2 1614   5.895   1.734   0.017
  239SOL     OW 1615   0.920   4.686   0.421
  239SOL    HW1 1616   0.883   4.750   0.354
  239SOL    HW2 1617   0.859   4.608   0.431
  240SOL     OW 1618   0.760   3.274   3.345
  240SOL    HW1 1619   0.834   3.326   3.388
  240SOL    HW2 1620   0.756   3.182   3.385
  241SOL     OW 1621   3.013   2.089   4.912
  241SOL    HW1 1622   2.916   2.113   4.904
  241SOL    HW2 1623   3.053   2.138   4.989
  242SOL     OW 1624   3.065   3.375   3.785
  242SOL    HW1 1625   3.160   3.399   3.803
  242SOL    HW2 1626   3.014   3.373   3.871
  243SOL     OW 1627   4.433   1.664   0.282
  243SOL    HW1 1628   4.402   1.751   0.320
  243SOL    HW2 1629   4.506   1.679   0.216
  244SOL     OW 1630   6.040   3.938   5.496
  244SOL    HW1 1631   5.990   4.015   5.456
  244SOL    HW2 1632   5.983   3.895   5.567
  245SOL     OW 1633   4.243   2.320   3.684
  245SOL    HW1 1634   4.180   2.252   3.722
  245SOL    HW2 1635   4.212   2.347   3.593
  246SOL     OW 1636   4.823   1.821   3.952
  246SOL    HW1 1637   4.862   1.729   3.955
  246SOL    HW2 1638   4.854   1.867   3.869
  247SOL     OW 1639   2.525   1.654   0.603
  247SOL    HW1 1640   2.480   1.726   0.656
  247SOL    HW2 1641   2.624   1.658   0.618
  248SOL     OW 1642   2.876   1.281   3.135
  248SOL    HW1 1643   2.873   1.328   3.047
  248SOL    HW2 1644   2.958   1.310   3.186
  249SOL     OW 1645   5.265   6.579   5.578
  249SOL    HW1 1646   5.196   6.651   5.571
  249SOL    HW2 1647   5.265   6.525   5.493
  250SOL     OW 1648   4.447   3.174   0.615
  250SOL    HW1 1649   4.479   3.265   0.643
  250SOL    HW2 1650   4.481   3.105   0.679
  251SOL     OW 1651   4.490   3.469   5.328
  251SOL    HW1 1652   4.398   3.504   5.312
  251SOL    HW2 1653   4.555   3.520   5.271
  252SOL     OW 1654   6.980   6.440   4.777
  252SOL    HW1 1655   6.946   6.434   4.871
  252SOL    HW2 1656   6.983   6.535   4.748
  253SOL     OW 1657   3.542   5.344   6.830
  253SOL    HW1 1658   3.474   5.351   6.757
  253SOL    HW2 1659   3.501   5.369   6.917
  254SOL     OW 1660   6.386   2.461   3.659
  254SOL    HW1 1661   6.482   2.471   3.683
  254SOL    HW2 1662   6.374   2.472   3.560
  255SOL     OW 1663   2.217   4.597   5.708
  255SOL    HW1 1664   2.169   4.510   5.708
  255SOL    HW2 1665   2.204   4.642   5.619
  256SOL     OW 1666   5.819   3.495   5.963
  256SOL    HW1 1667   5.740   3.498   5.902
  256SOL    HW2 1668   5.787   3.505   6.058
  257SOL     OW 1669   5.262   0.507   3.440
  257SOL    HW1 1670   5.291   0.589   3.390
  257SOL    HW2 1671   5.335   0.479   3.502
  258SOL     OW 1672   2.475   4.127   5.390
  258SOL    HW1 1673   2.533   4.201   5.353
  258SOL    HW2 1674   2.458   4.060   5.318
  259SOL     OW 1675   6.164   0.524   2.236
  259SOL    HW1 1676   6.209   0.494   2.151
  259SOL    HW2 1677   6.110   0.605   2.217
  260SOL     OW 1678   4.352   5.751   3.014
  260SOL    HW1 1679   4.265   5.773   3.058
  260SOL    HW2 1680   4.356   5.795   2.924
  261SOL     OW 1681   5.758   3.621   0.959
  261SOL    HW1 1682   5.680   3.571   0.922
  261SOL    HW2 1683   5.773   3.705   0.906
  262SOL     OW 1684   1.103   4.327   0.380
  262SOL    HW1 1685   1.105   4.249   0.442
  262SOL    HW2 1686   1.085   4.411   0.432
  263SOL     OW 1687   2.094   0.432   4.686
  263SOL    HW1 1688   2.146   0.479   4.615
  263SOL    HW2 1689   2.006   0.477   4.699
  264SOL     OW 1690   6.216   2.491   0.090
  264SOL    HW1 1691   6.157   2.496   0.009
  264SOL    HW2 1692   6.284   2.564   0.086
  265SOL     OW 1693   5.378   6.455   3.063
  265SOL    HW1 1694   5.324   6.514   3.003
  265SOL    HW2 1695   5.399   6.369   3.015
  266SOL     OW 1696   4.508   3.053   5.915
  266SOL    HW1 1697   4.576   3.099   5.973
  266SOL    HW2 1698   4.547   3.037   5.824
  267SOL     OW 1699   0.624   1.736   6.004
  267SOL    HW1 1700   0.607   1.783   5.917
  267SOL    HW2 1701   0.722   1.726   6.018
  268SOL     OW 1702   3.022   0.936   6.447
  268SOL    HW1 1703   3.027   1.026   6.402
  268SOL    HW2 1704   2.934   0.894   6.428
  269SOL     OW 1705   1.854   3.743   0.975
  269SOL    HW1 1706   1.920   3.671   0.954
  269SOL    HW2 1707   1.855   3.762   1.073
  270SOL     OW 1708   1.058   6.450   0.879
  270SOL    HW1 1709   0.975   6.442   0.824
  270SOL    HW2 1710   1.060   6.377   0.948
  271SOL     OW 1711   6.893   1.394   6.305
  271SOL    HW1 1712   6.974   1.339   6.284
  271SOL    HW2 1713   6.916   1.464   6.372
  272SOL     OW 1714   3.931   6.313   3.997
  272SOL    HW1 1715   3.898   6.262   4.076
  272SOL    HW2 1716   3.858   6.372   3.962
  273SOL     OW 1717   2.267   4.824   4.579
  273SOL    HW1 1718   2.300   4.866   4.495
  273SOL    HW2 1719   2.344   4.786   4.630
  274SOL     OW 1720   3.936   1.368   3.475
  274SOL    HW1 1721   3.982   1.283   3.450
  274SOL    HW2 1722   3.907   1.364   3.570
  275SOL     OW 1723   6.351   5.712   3.506
  275SOL    HW1 1724   6.396   5.779   3.447
  275SOL    HW2 1725   6.300   5.759   3.578
  276SOL     OW 1726   6.781   6.715   3.549
  276SOL    HW1 1727   6.819   6.740   3.460
  276SOL    HW2 1728   6.696   6.766   3.565
  277SOL     OW 1729   1.746   4.117   0.559
  277SOL    HW1 1730   1.786   4.043   0.614
  277SOL    HW2 1731   1.732   4.197   0.616
  278SOL     OW 1732   0.186   3.670   1.589
  278SOL    HW1 1733   0.176   3.753   1.535
  278SOL    HW2 1734   0.142   3.594   1.541
  279SOL     OW 1735   5.405   3.016   4.594
  279SOL    HW1 1736   5.479   3.038   4.658
  279SOL    HW2 1737   5.371   3.100   4.552
  280SOL     OW 1738   2.835   5.709   2.298
  280SOL    HW1 1739   2.767   5.743   2.363
  280SOL    HW2 1740   2.797   5.713   2.205
  281SOL     OW 1741   2.609   4.851   1.606
  281SOL    HW1 1742   2.575   4.938   1.571
  281SOL    HW2 1743   2.651   4.865   1.696
  282SOL     OW 1744   3.300   1.582   5.723
  282SOL    HW1 1745   3.229   1.526   5.681
  282SOL    HW2 1746   3.299   1.674   5.683
  283SOL     OW 1747   6.297   2.757   6.554
  283SOL    HW1 1748   6.315   2.671   6.600
  283SOL    HW2 1749   6.357   2.828   6.592
  284SOL     OW 1750   1.664   3.419   4.057
  284SOL    HW1 1751   1.702   3.410   3.965
  284SOL    HW2 1752   1.666   3.331   4.103
  285SOL     OW 1753   5.128   4.934   4.293
  285SOL    HW1 1754   5.221   4.897   4.285
  285SOL    HW2 1755   5.080   4.921   4.206
  286SOL     OW 1756   3.321   4.897   6.762
  286SOL    HW1 1757   3.388   4.972   6.764
  286SOL    HW2 1758   3.235   4.929   6.802
  287SOL     OW 1759   1.153   3.297   0.748
  287SOL    HW1 1760   1.182   3.231   0.679
  287SOL    HW2 1761   1.232   3.341   0.789
  288SOL     OW 1762   3.864   1.642   6.711
  288SOL    HW1 1763   3.823   1.710   6.772
  288SOL    HW2 1764   3.828   1.655   6.619
  289SOL     OW 1765   2.202   4.291   5.395
  289SOL    HW1 1766   2.300   4.306   5.387
  289SOL    HW2 1767   2.175   4.213   5.340
  290SOL     OW 1768   6.064   1.979   4.868
  290SOL    HW1 1769   5.976   2.010   4.903
  290SOL    HW2 1770   6.137   2.009   4.930
  291SOL     OW 1771   0.520   1.638   4.373
  291SOL    HW1 1772   0.515   1.586   4.287
  291SOL    HW2 1773   0.459   1.717   4.368
  292SOL     OW 1774   2.416   1.737   2.994
  292SOL    HW1 1775   2.425   1.817   3.054
  292SOL    HW2 1776   2.473   1.751   2.912
  293SOL     OW 1777   4.513   5.747   2.582
  293SOL    HW1 1778   4.495   5.672   2.644
  293SOL    HW2 1779   4.430   5.769   2.531
  294SOL     OW 1780   6.632   6.077   6.736
  294SOL    HW1 1781   6.547   6.128   6.754
  294SOL    HW2 1782   6.710   6.136   6.756
  295SOL     OW 1783   3.597   1.446   3.165
  295SOL    HW1 1784   3.688   1.405   3.164
  295SOL    HW2 1785   3.562   1.452   3.071
  296SOL     OW 1786   3.499   1.458   2.901
  296SOL    HW1 1787   3.481   1.556   2.911
  296SOL    HW2 1788   3.412   1.410   2.890
  297SOL     OW 1789   2.414   4.345   4.261
  297SOL    HW1 1790   2.361   4.261   4.254
  297SOL    HW2 1791   2.434   4.380   4.169
  298SOL     OW 1792   4.358   6.118   1.863
  298SOL    HW1 1793   4.452   6.107   1.895
  298SOL    HW2 1794   4.335   6.043   1.801
  299SOL     OW 1795   5.168   3.883   5.329
  299SOL    HW1 1796   5.224   3.814   5.375
  299SOL    HW2 1797   5.079   3.844   5.306
  300SOL     OW 1798   6.639   0.481   2.218
  300SOL    HW1 1799   6.653   0.478   2.119
  300SOL    HW2 1800   6.582   0.560   2.241
  301SOL     OW 1801   5.311   3.777   0.517
  301SOL    HW1 1802   5.285   3.857   0.572
  301SOL    HW2 1803   5.371   3.718   0.570
  302SOL     OW 1804   1.705   0.062   3.064
  302SOL    HW1 1805   1.771   0.097   3.131
  302SOL    HW2 1806   1.632   0.013   3.112
  303SOL     OW 1807   5.302   0.419   1.932
  303SOL    HW1 1808   5.284   0.323   1.952
  303SOL    HW2 1809   5.369   0.425   1.858
  304SOL     OW 1810   2.198   0.093   3.609
  304SOL    HW1 1811   2.175   0.118   3.703
  304SOL    HW2 1812   2.297   0.095   3.597
  305SOL     OW 1813   0.393   3.466   6.450
  305SOL    HW1 1814   0.486   3.440   6.423
  305SOL    HW2 1815   0.333   3.387   6.444
  306SOL     OW 1816   1.627   1.417   3.681
  306SOL    HW1 1817   1.611   1.512   3.652
  306SOL    HW2 1818   1.578   1.355   3.619
  307SOL     OW 1819   4.907   6.485   1.378
  307SOL    HW1 1820   4.853   6.434   1.311
  307SOL    HW2 1821   4.854   6.561   1.413
  308SOL     OW 1822   6.813   4.952   4.408
  308SOL    HW1 1823   6.876   4.934   4.332
  308SOL    HW2 1824   6.724   4.911   4.388
  309SOL     OW 1825   3.597   4.449   5.281
  309SOL    HW1 1826   3.696   4.447   5.276
  309SOL    HW2 1827   3.559   4.366   5.241
  310SOL     OW 1828   5.805   0.141   5.532
  310SOL    HW1 1829   5.758   0.135   5.620
  310SOL    HW2 1830   5.794   0.054   5.483
  311SOL     OW 1831   6.603   4.816   2.003
  311SOL    HW1 1832   6.540   4.752   2.048
  311SOL    HW2 1833   6.581   4.910   2.031
  312SOL     OW 1834   4.975   1.673   5.364
  312SOL    HW1 1835   4.955   1.695   5.459
  312SOL    HW2 1836   4.977   1.757   5.310
  313SOL     OW 1837   2.697   4.134   1.670
  313SOL    HW1 1838   2.694   4.212   1.607
  313SOL    HW2 1839   2.722   4.051   1.619
  314SOL     OW 1840   3.162   5.907   0.369
  314SOL    HW1 1841   3.081   5.894   0.312
  314SOL    HW2 1842   3.152   5.855   0.454
  315SOL     OW 1843   0.481   2.160   3.435
  315SOL    HW1 1844   0.492   2.137   3.338
  315SOL    HW2 1845   0.468   2.259   3.444
  316SOL     OW 1846   2.418   2.769   4.750
  316SOL    HW1 1847   2.382   2.842   4.808
  316SOL    HW2 1848   2.403   2.792   4.654
  317SOL     OW 1849   0.592   1.575   6.650
  317SOL    HW1 1850   0.653   1.499   6.628
  317SOL    HW2 1851   0.527   1.590   6.576
  318SOL     OW 1852   1.029   5.225   1.236
  318SOL    HW1 1853   1.012   5.154   1.168
  318SOL    HW2 1854   1.063   5.307   1.190
  319SOL     OW 1855   0.896   0.459   1.886
  319SOL    HW1 1856   0.888   0.558   1.904
  319SOL    HW2 1857   0.969   0.420   1.942
  320SOL     OW 1858   5.951   2.764   0.023
  320SOL    HW1 1859   5.907   2.801   6.967
  320SOL    HW2 1860   6.028   2.705   7.022
  321SOL     OW 1861   2.320   1.904   2.376
  321SOL    HW1 1862   2.359   1.833   2.435
  321SOL    HW2 1863   2.288   1.980   2.433
  322SOL     OW 1864   3.395   2.892   4.268
  322SOL    HW1 1865   3.386   2.794   4.253
  322SOL    HW2 1866   3.490   2.914   4.290
  323SOL     OW 1867   0.871   4.444   0.202
  323SOL    HW1 1868   0.795   4.449   0.137
  323SOL    HW2 1869   0.834   4.443   0.295
  324SOL     OW 1870   1.197   2.750   4.355
  324SOL    HW1 1871   1.231   2.843   4.349
  324SOL    HW2 1872   1.097   2.751   4.357
  325SOL     OW 1873   2.253   3.236   1.265
  325SOL    HW1 1874   2.221   3.266   1.355
  325SOL    HW2 1875   2.265   3.137   1.266
  326SOL     OW 1876   1.636   5.991   6.715
  326SOL    HW1 1877   1.702   5.990   6.790
  326SOL    HW2 1878   1.586   6.078   6.716
  327SOL     OW 1879   0.315   4.548   4.253
  327SOL    HW1 1880   0.351   4.625   4.306
  327SOL    HW2 1881   0.368   4.539   4.169
  328SOL     OW 1882   3.454   5.248   2.451
  328SOL    HW1 1883   3.416   5.331   2.493
  328SOL    HW2 1884   3.544   5.269   2.412
  329SOL     OW 1885   3.506   3.812   3.630
  329SOL    HW1 1886   3.511   3.831   3.728
  329SOL    HW2 1887   3.594   3.778   3.598
  330SOL     OW 1888   2.993   6.576   1.923
  330SOL    HW1 1889   2.989   6.497   1.983
  330SOL    HW2 1890   2.984   6.660   1.978
  331SOL     OW 1891   4.989   5.215   6.236
  331SOL    HW1 1892   5.037   5.283   6.291
  331SOL    HW2 1893   5.020   5.220   6.142
  332SOL     OW 1894   3.382   2.094   3.736
  332SOL    HW1 1895   3.319   2.056   3.804
  332SOL    HW2 1896   3.468   2.119   3.781
  333SOL     OW 1897   3.846   0.103   6.349
  333SOL    HW1 1898   3.844   0.186   6.404
  333SOL    HW2 1899   3.832   0.023   6.408
  334SOL     OW 1900   3.155   6.711   2.337
  334SOL    HW1 1901   3.074   6.722   2.395
  334SOL    HW2 1902   3.147   6.625   2.285
  335SOL     OW 1903   3.696   5.923   3.814
  335SOL    HW1 1904   3.690   5.878   3.903
  335SOL    HW2 1905   3.700   6.022   3.828
  336SOL     OW 1906   2.068   1.116   3.360
  336SOL    HW1 1907   2.094   1.206   3.324
  336SOL    HW2 1908   2.012   1.068   3.293
  337SOL     OW 1909   6.914   3.203   1.276
  337SOL    HW1 1910   6.847   3.130   1.293
  337SOL    HW2 1911   6.941   3.200   1.180
  338SOL     OW 1912   2.826   3.079   1.652
  338SOL    HW1 1913   2.833   3.161   1.595
  338SOL    HW2 1914   2.917   3.048   1.678
  339SOL     OW 1915   3.588   0.342   3.116
  339SOL    HW1 1916   3.526   0.401   3.168
  339SOL    HW2 1917   3.678   0.342   3.159
  340SOL     OW 1918   5.533   4.154   4.744
  340SOL    HW1 1919   5.469   4.223   4.712
  340SOL    HW2 1920   5.627   4.182   4.722
  341SOL     OW 1921   5.584   6.188   4.121
  341SOL    HW1 1922   5.573   6.276   4.166
  341SOL    HW2 1923   5.680   6.177   4.092
  342SOL     OW 1924   5.670   4.068   6.968
  342SOL    HW1 1925   5.624   4.003   0.003
  342SOL    HW2 1926   5.740   4.117   7.019
  343SOL     OW 1927   2.873   6.619   1.386
  343SOL    HW1 1928   2.854   6.523   1.407
  343SOL    HW2 1929   2.910   6.626   1.293
  344SOL     OW 1930   2.256   5.249   0.905
  344SOL    HW1 1931   2.214   5.273   0.817
  344SOL    HW2 1932   2.331   5.185   0.889
  345SOL     OW 1933   0.093   0.799   5.637
  345SOL    HW1 1934   0.014   0.781   5.695
  345SOL    HW2 1935   0.132   0.712   5.605
  346SOL     OW 1936   1.470   0.883   2.343
  346SOL    HW1 1937   1.374   0.858   2.342
  346SOL    HW2 1938   1.481   0.974   2.382
  347SOL     OW 1939   5.635   0.238   6.663
  347SOL    HW1 1940   5.671   0.292   6.586
  347SOL    HW2 1941   5.692   0.158   6.677
  348SOL     OW 1942   4.135   5.105   1.577
  348SOL    HW1 1943   4.103   5.019   1.536
  348SOL    HW2 1944   4.127   5.179   1.510
  349SOL     OW 1945   0.235   4.519   2.258
  349SOL    HW1 1946   0.268   4.606   2.296
  349SOL    HW2 1947   0.140   4.506   2.284
  350SOL     OW 1948   4.039   3.674   1.526
  350SOL    HW1 1949   4.064   3.757   1.575
  350SOL    HW2 1950   4.075   3.594   1.574
  351SOL     OW 1951   2.912   1.986   0.992
  351SOL    HW1 1952   2.971   1.909   1.012
  351SOL    HW2 1953   2.967   2.068   0.978
  352SOL     OW 1954   3.560   0.752   4.915
  352SOL    HW1 1955   3.532   0.848   4.909
  352SOL    HW2 1956   3.623   0.731   4.841
  353SOL     OW 1957   2.184   6.698   0.116
  353SOL    HW1 1958   2.204   6.679   0.020
  353SOL    HW2 1959   2.268   6.686   0.170
  354SOL     OW 1960   4.120   2.233   1.006
  354SOL    HW1 1961   4.043   2.251   1.067
  354SOL    HW2 1962   4.172   2.318   0.994
  355SOL     OW 1963   6.759   2.958   2.699
  355SOL    HW1 1964   6.758   3.000   2.608
  355SOL    HW2 1965   6.731   2.862   2.691
  356SOL     OW 1966   4.703   5.187   5.020
  356SOL    HW1 1967   4.670   5.209   4.928
  356SOL    HW2 1968   4.773   5.253   5.048
  357SOL     OW 1969   0.320   6.030   5.722
  357SOL    HW1 1970   0.237   6.058   5.769
  357SOL    HW2 1971   0.347   6.101   5.657
  358SOL     OW 1972   6.368   0.113   1.236
  358SOL    HW1 1973   6.286   0.152   1.277
  358SOL    HW2 1974   6.445   0.176   1.247
  359SOL     OW 1975   1.500   2.505   2.541
  359SOL    HW1 1976   1.530   2.530   2.633
  359SOL    HW2 1977   1.483   2.587   2.487
  360SOL     OW 1978   3.217   6.396   6.170
  360SOL    HW1 1979   3.297   6.341   6.143
  360SOL    HW2 1980   3.183   6.364   6.259
  361SOL     OW 1981   5.754   5.520   3.137
  361SOL    HW1 1982   5.758   5.482   3.229
  361SOL    HW2 1983   5.840   5.565   3.115
  362SOL     OW 1984   3.045   4.179   0.400
  362SOL    HW1 1985   2.990   4.250   0.357
  362SOL    HW2 1986   3.036   4.093   0.349
  363SOL     OW 1987   3.637   4.906   4.122
  363SOL    HW1 1988   3.583   4.895   4.039
  363SOL    HW2 1989   3.733   4.923   4.098
  364SOL     OW 1990   0.618   5.848   5.964
  364SOL    HW1 1991   0.713   5.830   5.938
  364SOL    HW2 1992   0.557   5.809   5.895
  365SOL     OW 1993   5.077   5.965   2.931
  365SOL    HW1 1994   5.062   6.015   2.845
  365SOL    HW2 1995   5.121   6.026   2.997
  366SOL     OW 1996   5.854   1.172   6.785
  366SOL    HW1 1997   5.925   1.115   6.826
  366SOL    HW2 1998   5.783   1.190   6.852
  367SOL     OW 1999   4.881   3.049   0.640
  367SOL    HW1 2000   4.847   2.961   0.607
  367SOL    HW2 2001   4.979   3.056   0.622
  368SOL     OW 2002   1.370   4.907   4.712
  368SOL    HW1 2003   1.441   4.840   4.735
  368SOL    HW2 2004   1.281   4.863   4.714
  369SOL     OW 2005   6.102   4.293   1.653
  369SOL    HW1 2006   6.042   4.226   1.698
  369SOL    HW2 2007   6.194   4.255   1.646
  370SOL     OW 2008   2.733   0.566   5.341
  370SOL    HW1 2009   2.755   0.476   5.377
  370SOL    HW2 2010   2.817   0.620   5.333
  371SOL     OW 2011   2.509   3.701   6.741
  371SOL    HW1 2012   2.567   3.724   6.663
  371SOL    HW2 2013   2.494   3.602   6.743
  372SOL     OW 2014   0.104   0.396   4.848
  372SOL    HW1 2015   0.089   0.419   4.752
  372SOL    HW2 2016   0.017   0.374   4.892
  373SOL     OW 2017   0.188   6.520   6.616
  373SOL    HW1 2018   0.144   6.500   6.704
  373SOL    HW2 2019   0.128   6.490   6.542
  374SOL     OW 2020   4.135   0.012   2.613
  374SOL    HW1 2021   4.158   0.082   2.545
  374SOL    HW2 2022   4.056   0.043   2.666
  375SOL     OW 2023   6.762   4.725   4.180
  375SOL    HW1 2024   6.820   4.644   4.193
  375SOL    HW2 2025   6.667   4.697   4.169
  376SOL     OW 2026   1.754   3.041   3.897
  376SOL    HW1 2027   1.779   3.074   3.806
  376SOL    HW2 2028   1.822   3.072   3.963
  377SOL     OW 2029   5.314   2.237   2.808
  377SOL    HW1 2030   5.381   2.306   2.835
  377SOL    HW2 2031   5.276   2.193   2.889
  378SOL     OW 2032   4.053   3.393   5.555
  378SOL    HW1 2033   4.086   3.391   5.461
  378SOL    HW2 2034   3.955   3.412   5.555
  379SOL     OW 2035   6.040   3.553   0.982
  379SOL    HW1 2036   6.031   3.474   0.921
  379SOL    HW2 2037   5.950   3.593   0.998
  380SOL     OW 2038   1.281   1.949   1.184
  380SOL    HW1 2039   1.206   1.977   1.125
  380SOL    HW2 2040   1.301   1.852   1.168
  381SOL     OW 2041   2.569   5.040   1.990
  381SOL    HW1 2042   2.529   5.008   2.076
  381SOL    HW2 2043   2.601   4.962   1.936
  382SOL     OW 2044   3.139   6.149   0.489
  382SOL    HW1 2045   3.080   6.089   0.543
  382SOL    HW2 2046   3.186   6.096   0.418
  383SOL     OW 2047   6.560   2.525   6.855
  383SOL    HW1 2048   6.603   2.436   6.868
  383SOL    HW2 2049   6.611   2.594   6.906
  384SOL     OW 2050   0.856   5.442   5.428
  384SOL    HW1 2051   0.836   5.344   5.418
  384SOL    HW2 2052   0.802   5.480   5.503
  385SOL     OW 2053   4.698   6.240   0.283
  385SOL    HW1 2054   4.692   6.167   0.216
  385SOL    HW2 2055   4.789   6.281   0.280
  386SOL     OW 2056   3.906   6.797   5.064
  386SOL    HW1 2057   3.928   6.712   5.111
  386SOL    HW2 2058   3.899   6.872   5.130
  387SOL     OW 2059   7.002   0.137   4.126
  387SOL    HW1 2060   0.037   0.057   4.132
  387SOL    HW2 2061   6.924   0.123   4.187
  388SOL     OW 2062   6.945   2.839   5.261
  388SOL    HW1 2063   6.906   2.817   5.172
  388SOL    HW2 2064   6.884   2.807   5.333
  389SOL     OW 2065   4.193   4.297   1.685
  389SOL    HW1 2066   4.107   4.246   1.681
  389SOL    HW2 2067   4.264   4.239   1.725
  390SOL     OW 2068   3.835   1.116   0.638
  390SOL    HW1 2069   3.904   1.164   0.691
  390SOL    HW2 2070   3.746   1.162   0.650
  391SOL     OW 2071   2.819   3.930   5.945
  391SOL    HW1 2072   2.765   3.881   5.876
  391SOL    HW2 2073   2.757   3.975   6.010
  392SOL     OW 2074   1.185   3.959   2.538
  392SOL    HW1 2075   1.234   4.014   2.471
  392SOL    HW2 2076   1.251   3.915   2.599
  393SOL     OW 2077   0.684   4.600   1.027
  393SOL    HW1 2078   0.734   4.583   1.112
  393SOL    HW2 2079   0.632   4.519   1.001
  394SOL     OW 2080   6.695   2.738   6.953
  394SOL    HW1 2081   6.768   2.806   6.963
  394SOL    HW2 2082   6.628   2.749   7.026
  395SOL     OW 2083   4.660   4.412   1.755
  395SOL    HW1 2084   4.589   4.369   1.810
  395SOL    HW2 2085   4.745   4.416   1.807
  396SOL     OW 2086   3.103   2.063   2.066
  396SOL    HW1 2087   3.035   2.099   2.002
  396SOL    HW2 2088   3.062   2.052   2.156
  397SOL     OW 2089   4.656   1.038   5.257
  397SOL    HW1 2090   4.685   1.071   5.168
  397SOL    HW2 2091   4.634   0.941   5.251
  398SOL     OW 2092   1.224   0.362   4.414
  398SOL    HW1 2093   1.208   0.326   4.506
  398SOL    HW2 2094   1.183   0.301   4.347
  399SOL     OW 2095   5.338   5.509   4.173
  399SOL    HW1 2096   5.286   5.425   4.162
  399SOL    HW2 2097   5.314   5.573   4.100
  400SOL     OW 2098   6.172   0.449   4.557
  400SOL    HW1 2099   6.091   0.417   4.507
  400SOL    HW2 2100   6.227   0.371   4.585
  401SOL     OW 2101   6.425   0.158   5.424
  401SOL    HW1 2102   6.366   0.121   5.496
  401SOL    HW2 2103   6.432   0.257   5.434
  402SOL     OW 2104   6.230   0.290   2.635
  402SOL    HW1 2105   6.237   0.191   2.630
  402SOL    HW2 2106   6.263   0.322   2.724
  403SOL     OW 2107   2.771   0.550   6.428
  403SOL    HW1 2108   2.809   0.462   6.398
  403SOL    HW2 2109   2.792   0.563   6.525
  404SOL     OW 2110   3.640   6.139   5.859
  404SOL    HW1 2111   3.578   6.062   5.877
  404SOL    HW2 2112   3.706   6.147   5.934
  405SOL     OW 2113   1.950   4.004   3.720
  405SOL    HW1 2114   1.986   4.044   3.805
  405SOL    HW2 2115   1.851   4.012   3.718
  406SOL     OW 2116   1.015   5.472   5.664
  406SOL    HW1 2117   1.000   5.482   5.566
  406SOL    HW2 2118   0.971   5.388   5.696
  407SOL     OW 2119   1.375   3.320   4.296
  407SOL    HW1 2120   1.442   3.260   4.253
  407SOL    HW2 2121   1.411   3.413   4.299
  408SOL     OW 2122   3.222   1.598   3.305
  408SOL    HW1 2123   3.190   1.641   3.221
  408SOL    HW2 2124   3.318   1.624   3.321
  409SOL     OW 2125   1.263   4.034   2.894
  409SOL    HW1 2126   1.309   4.117   2.862
  409SOL    HW2 2127   1.168   4.034   2.861
  410SOL     OW 2128   1.559   2.380   1.011
  410SOL    HW1 2129   1.460   2.365   1.005
  410SOL    HW2 2130   1.602   2.299   1.052
  411SOL     OW 2131   0.019   2.006   1.702
  411SOL    HW1 2132   0.064   2.043   1.620
  411SOL    HW2 2133   7.011   2.082   1.758
  412SOL     OW 2134   2.710   4.965   3.097
  412SOL    HW1 2135   2.710   4.993   3.001
  412SOL    HW2 2136   2.775   5.021   3.148
  413SOL     OW 2137   3.886   5.098   2.539
  413SOL    HW1 2138   3.853   5.047   2.618
  413SOL    HW2 2139   3.986   5.109   2.546
  414SOL     OW 2140   2.582   6.794   4.017
  414SOL    HW1 2141   2.553   6.877   3.969
  414SOL    HW2 2142   2.615   6.819   4.108
  415SOL     OW 2143   6.538   0.778   0.757
  415SOL    HW1 2144   6.464   0.758   0.693
  415SOL    HW2 2145   6.500   0.820   0.840
  416SOL     OW 2146   5.294   3.759   4.991
  416SOL    HW1 2147   5.240   3.685   5.032
  416SOL    HW2 2148   5.278   3.844   5.041
  417SOL     OW 2149   3.424   2.557   6.589
  417SOL    HW1 2150   3.440   2.479   6.649
  417SOL    HW2 2151   3.484   2.551   6.510
  418SOL     OW 2152   3.628   6.752   4.297
  418SOL    HW1 2153   3.618   6.736   4.199
  418SOL    HW2 2154   3.537   6.762   4.338
  419SOL     OW 2155   0.978   6.929   1.871
  419SOL    HW1 2156   1.021   7.015   1.845
  419SOL    HW2 2157   1.009   6.903   1.962
  420SOL     OW 2158   5.688   0.331   6.401
  420SOL    HW1 2159   5.713   0.245   6.356
  420SOL    HW2 2160   5.704   0.407   6.337
  421SOL     OW 2161   5.276   4.183   3.956
  421SOL    HW1 2162   5.191   4.133   3.935
  421SOL    HW2 2163   5.253   4.268   4.001
  422SOL     OW 2164   5.384   2.744   1.434
  422SOL    HW1 2165   5.444   2.810   1.388
  422SOL    HW2 2166   5.358   2.672   1.370
  423SOL     OW 2167   3.026   1.232   6.359
  423SOL    HW1 2168   3.106   1.231   6.419
  423SOL    HW2 2169   3.053   1.202   6.267
  424SOL     OW 2170   1.556   4.678   3.160
  424SOL    HW1 2171   1.475   4.727   3.128
  424SOL    HW2 2172   1.529   4.593   3.204
  425SOL     OW 2173   3.675   0.781   5.511
  425SOL    HW1 2174   3.619   0.856   5.545
  425SOL    HW2 2175   3.711   0.728   5.588
  426SOL     OW 2176   2.623   2.322   4.707
  426SOL    HW1 2177   2.619   2.400   4.770
  426SOL    HW2 2178   2.700   2.263   4.732
  427SOL     OW 2179   4.197   1.759   3.219
  427SOL    HW1 2180   4.225   1.664   3.237
  427SOL    HW2 2181   4.264   1.821   3.259
  428SOL     OW 2182   2.711   1.092   5.285
  428SOL    HW1 2183   2.706   1.045   5.197
  428SOL    HW2 2184   2.661   1.178   5.280
  429SOL     OW 2185   0.972   5.863   3.597
  429SOL    HW1 2186   0.937   5.783   3.646
  429SOL    HW2 2187   0.942   5.859   3.502
  430SOL     OW 2188   1.802   6.886   3.717
  430SOL    HW1 2189   1.795   6.956   3.787
  430SOL    HW2 2190   1.772   6.798   3.754
  431SOL     OW 2191   2.672   2.249   1.581
  431SOL    HW1 2192   2.576   2.232   1.603
  431SOL    HW2 2193   2.679   2.316   1.507
  432SOL     OW 2194   4.101   1.863   1.403
  432SOL    HW1 2195   4.079   1.929   1.475
  432SOL    HW2 2196   4.159   1.907   1.334
  433SOL     OW 2197   2.265   6.628   6.887
  433SOL    HW1 2198   2.253   6.706   6.825
  433SOL    HW2 2199   2.363   6.607   6.896
  434SOL     OW 2200   4.392   6.396   3.957
  434SOL    HW1 2201   4.427   6.411   4.049
  434SOL    HW2 2202   4.331   6.317   3.957
  435SOL     OW 2203   3.312   1.551   6.459
  435SOL    HW1 2204   3.302   1.649   6.439
  435SOL    HW2 2205   3.295   1.535   6.556
  436SOL     OW 2206   4.238   7.006   3.615
  436SOL    HW1 2207   4.294   6.999   3.698
  436SOL    HW2 2208   4.142   6.994   3.639
  437SOL     OW 2209   0.504   0.256   4.207
  437SOL    HW1 2210   0.420   0.308   4.217
  437SOL    HW2 2211   0.577   0.317   4.177
  438SOL     OW 2212   1.085   4.566   2.747
  438SOL    HW1 2213   1.159   4.526   2.800
  438SOL    HW2 2214   1.032   4.493   2.703
  439SOL     OW 2215   5.652   0.846   3.223
  439SOL    HW1 2216   5.746   0.852   3.190
  439SOL    HW2 2217   5.602   0.781   3.166
  440SOL     OW 2218   4.257   0.971   0.070
  440SOL    HW1 2219   4.252   1.060   0.115
  440SOL    HW2 2220   4.186   0.964   0.001
  441SOL     OW 2221   0.214   4.601   2.569
  441SOL    HW1 2222   0.147   4.574   2.501
  441SOL    HW2 2223   0.173   4.669   2.630
  442SOL     OW 2224   5.634   3.600   5.402
  442SOL    HW1 2225   5.708   3.664   5.422
  442SOL    HW2 2226   5.672   3.509   5.386
  443SOL     OW 2227   4.957   4.151   3.075
  443SOL    HW1 2228   4.998   4.215   3.140
  443SOL    HW2 2229   5.026   4.121   3.009
  444SOL     OW 2230   4.441   1.078   1.258
  444SOL    HW1 2231   4.424   1.132   1.175
  444SOL    HW2 2232   4.365   1.090   1.322
  445SOL     OW 2233   1.932   4.998   2.432
  445SOL    HW1 2234   2.028   4.982   2.454
  445SOL    HW2 2235   1.874   4.950   2.497
  446SOL     OW 2236   5.866   6.745   2.439
  446SOL    HW1 2237   5.870   6.832   2.488
  446SOL    HW2 2238   5.816   6.759   2.353
  447SOL     OW 2239   6.085   3.775   6.828
  447SOL    HW1 2240   6.005   3.739   6.876
  447SOL    HW2 2241   6.098   3.725   6.742
  448SOL     OW 2242   2.664   0.715   3.126
  448SOL    HW1 2243   2.567   0.695   3.114
  448SOL    HW2 2244   2.703   0.743   3.039
  449SOL     OW 2245   2.048   2.651   4.492
  449SOL    HW1 2246   2.010   2.614   4.407
  449SOL    HW2 2247   1.991   2.729   4.522
  450SOL     OW 2248   1.020   3.952   3.256
  450SOL    HW1 2249   1.031   4.011   3.336
  450SOL    HW2 2250   0.954   3.992   3.193
  451SOL     OW 2251   0.875   2.349   3.016
  451SOL    HW1 2252   0.884   2.249   3.017
  451SOL    HW2 2253   0.810   2.377   3.087
  452SOL     OW 2254   4.315   6.638   3.615
  452SOL    HW1 2255   4.221   6.668   3.602
  452SOL    HW2 2256   4.316   6.543   3.648
  453SOL     OW 2257   4.134   0.175   0.051
  453SOL    HW1 2258   4.159   0.085   0.087
  453SOL    HW2 2259   4.041   0.170   0.013
  454SOL     OW 2260   0.136   4.466   6.566
  454SOL    HW1 2261   0.124   4.468   6.665
  454SOL    HW2 2262   0.110   4.554   6.527
  455SOL     OW 2263   6.599   4.659   5.855
  455SOL    HW1 2264   6.600   4.651   5.955
  455SOL    HW2 2265   6.632   4.750   5.829
  456SOL     OW 2266   2.776   1.441   2.910
  456SOL    HW1 2267   2.693   1.413   2.863
  456SOL    HW2 2268   2.760   1.527   2.958
  457SOL     OW 2269   2.267   6.742   6.067
  457SOL    HW1 2270   2.345   6.694   6.026
  457SOL    HW2 2271   2.300   6.810   6.133
  458SOL     OW 2272   1.844   1.936   3.042
  458SOL    HW1 2273   1.835   1.904   2.948
  458SOL    HW2 2274   1.848   1.857   3.104
  459SOL     OW 2275   2.543   0.026   4.909
  459SOL    HW1 2276   2.509   6.994   4.835
  459SOL    HW2 2277   2.625   0.075   4.878
  460SOL     OW 2278   1.395   1.671   4.966
  460SOL    HW1 2279   1.426   1.601   4.902
  460SOL    HW2 2280   1.418   1.761   4.930
  461SOL     OW 2281   1.009   4.943   5.798
  461SOL    HW1 2282   1.050   4.978   5.883
  461SOL    HW2 2283   1.069   4.965   5.721
  462SOL     OW 2284   3.047   3.880   4.581
  462SOL    HW1 2285   3.008   3.788   4.574
  462SOL    HW2 2286   3.028   3.917   4.672
  463SOL     OW 2287   6.065   6.639   2.295
  463SOL    HW1 2288   6.041   6.558   2.241
  463SOL    HW2 2289   5.991   6.658   2.360
  464SOL     OW 2290   3.467   5.990   6.498
  464SOL    HW1 2291   3.527   6.066   6.473
  464SOL    HW2 2292   3.522   5.914   6.532
  465SOL     OW 2293   1.751   2.690   0.250
  465SOL    HW1 2294   1.741   2.606   0.304
  465SOL    HW2 2295   1.837   2.688   0.200
  466SOL     OW 2296   3.669   5.807   4.815
  466SOL    HW1 2297   3.581   5.779   4.777
  466SOL    HW2 2298   3.701   5.738   4.880
  467SOL     OW 2299   6.506   0.894   2.557
  467SOL    HW1 2300   6.471   0.986   2.536
  467SOL    HW2 2301   6.602   0.900   2.584
  468SOL     OW 2302   4.088   6.675   6.845
  468SOL    HW1 2303   4.157   6.642   6.780
  468SOL    HW2 2304   4.049   6.761   6.812
  469SOL     OW 2305   2.762   5.164   5.827
  469SOL    HW1 2306   2.785   5.233   5.895
  469SOL    HW2 2307   2.716   5.087   5.872
  470SOL     OW 2308   2.572   5.284   3.109
  470SOL    HW1 2309   2.492   5.281   3.048
  470SOL    HW2 2310   2.656   5.280   3.054
  471SOL     OW 2311   2.875   2.287   4.171
  471SOL    HW1 2312   2.846   2.362   4.112
  471SOL    HW2 2313   2.836   2.299   4.262
  472SOL     OW 2314   6.228   4.451   6.009
  472SOL    HW1 2315   6.255   4.496   5.923
  472SOL    HW2 2316   6.170   4.373   5.988
  473SOL     OW 2317   6.743   2.232   2.495
  473SOL    HW1 2318   6.724   2.314   2.441
  473SOL    HW2 2319   6.784   2.162   2.436
  474SOL     OW 2320   5.311   5.908   4.492
  474SOL    HW1 2321   5.306   5.878   4.587
  474SOL    HW2 2322   5.398   5.955   4.475
  475SOL     OW 2323   6.061   1.103   0.987
  475SOL    HW1 2324   5.975   1.149   0.964
  475SOL    HW2 2325   6.055   1.069   1.081
  476SOL     OW 2326   0.724   4.272   1.752
  476SOL    HW1 2327   0.784   4.204   1.708
  476SOL    HW2 2328   0.743   4.362   1.714
  477SOL     OW 2329   1.658   4.703   3.935
  477SOL    HW1 2330   1.734   4.650   3.898
  477SOL    HW2 2331   1.576   4.688   3.880
  478SOL     OW 2332   4.573   5.997   1.976
  478SOL    HW1 2333   4.529   5.978   2.064
  478SOL    HW2 2334   4.598   5.911   1.932
  479SOL     OW 2335   4.063   3.745   4.205
  479SOL    HW1 2336   3.995   3.803   4.251
  479SOL    HW2 2337   4.130   3.713   4.272
  480SOL     OW 2338   1.964   6.954   2.770
  480SOL    HW1 2339   1.998   7.010   2.846
  480SOL    HW2 2340   1.964   7.009   2.686
  481SOL     OW 2341   0.456   7.010   0.964
  481SOL    HW1 2342   0.442   7.023   1.062
  481SOL    HW2 2343   0.524   0.049   0.930
  482SOL     OW 2344   4.927   4.982   1.532
  482SOL    HW1 2345   4.984   4.902   1.553
  482SOL    HW2 2346   4.980   5.048   1.478
  483SOL     OW 2347   5.958   2.197   3.297
  483SOL    HW1 2348   5.998   2.194   3.205
  483SOL    HW2 2349   6.000   2.127   3.354
  484SOL     OW 2350   2.246   4.135   4.198
  484SOL    HW1 2351   2.242   4.073   4.119
  484SOL    HW2 2352   2.170   4.200   4.194
  485SOL     OW 2353   5.515   3.199   2.229
  485SOL    HW1 2354   5.423   3.163   2.247
  485SOL    HW2 2355   5.550   3.161   2.143
  486SOL     OW 2356   6.383   6.306   6.197
  486SOL    HW1 2357   6.430   6.355   6.124
  486SOL    HW2 2358   6.428   6.326   6.285
  487SOL     OW 2359   7.020   6.679   4.640
  487SOL    HW1 2360   6.976   6.665   4.552
  487SOL    HW2 2361   0.085   6.716   4.626
  488SOL     OW 2362   1.519   6.089   3.586
  488SOL    HW1 2363   1.443   6.082   3.650
  488SOL    HW2 2364   1.606   6.077   3.635
  489SOL     OW 2365   0.027   5.910   6.313
  489SOL    HW1 2366   0.014   5.908   6.412
  489SOL    HW2 2367   6.964   5.911   6.268
  490SOL     OW 2368   1.410   4.887   5.624
  490SOL    HW1 2369   1.442   4.896   5.719
  490SOL    HW2 2370   1.488   4.863   5.565
  491SOL     OW 2371   0.575   2.610   1.237
  491SOL    HW1 2372   0.528   2.610   1.149
  491SOL    HW2 2373   0.513   2.642   1.308
  492SOL     OW 2374   1.522   2.004   5.790
  492SOL    HW1 2375   1.424   2.021   5.781
  492SOL    HW2 2376   1.540   1.907   5.774
  493SOL     OW 2377   2.403   6.093   4.892
  493SOL    HW1 2378   2.322   6.103   4.835
  493SOL    HW2 2379   2.476   6.152   4.857
  494SOL     OW 2380   2.208   6.626   5.174
  494SOL    HW1 2381   2.193   6.669   5.086
  494SOL    HW2 2382   2.235   6.695   5.241
  495SOL     OW 2383   3.584   5.627   5.567
  495SOL    HW1 2384   3.582   5.597   5.472
  495SOL    HW2 2385   3.663   5.687   5.581
  496SOL     OW 2386   4.880   1.609   2.723
  496SOL    HW1 2387   4.954   1.552   2.688
  496SOL    HW2 2388   4.911   1.657   2.805
  497SOL     OW 2389   3.316   0.899   6.671
  497SOL    HW1 2390   3.291   0.901   6.768
  497SOL    HW2 2391   3.415   0.907   6.662
  498SOL     OW 2392   0.401   5.554   1.860
  498SOL    HW1 2393   0.451   5.637   1.838
  498SOL    HW2 2394   0.313   5.577   1.902
  499SOL     OW 2395   3.657   5.862   0.147
  499SOL    HW1 2396   3.716   5.943   0.149
  499SOL    HW2 2397   3.565   5.888   0.177
  500SOL     OW 2398   5.894   2.078   0.161
  500SOL    HW1 2399   5.817   2.112   0.106
  500SOL    HW2 2400   5.859   2.020   0.235
  501SOL     OW 2401   1.159   0.036   2.883
  501SOL    HW1 2402   1.070   0.069   2.851
  501SOL    HW2 2403   1.157   0.023   2.982
  502SOL     OW 2404   1.979   5.108   6.857
  502SOL    HW1 2405   1.924   5.155   6.789
  502SOL    HW2 2406   1.961   5.010   6.853
  503SOL     OW 2407   3.383   5.337   0.060
  503SOL    HW1 2408   3.291   5.330   0.020
  503SOL    HW2 2409   3.408   5.249   0.100
  504SOL     OW 2410   5.756   6.588   1.931
  504SOL    HW1 2411   5.815   6.669   1.937
  504SOL    HW2 2412   5.811   6.511   1.898
  505SOL     OW 2413   5.248   6.706   5.257
  505SOL    HW1 2414   5.224   6.618   5.297
  505SOL    HW2 2415   5.330   6.696   5.200
  506SOL     OW 2416   4.085   5.428   2.824
  506SOL    HW1 2417   4.140   5.431   2.740
  506SOL    HW2 2418   4.054   5.334   2.840
  507SOL     OW 2419   3.550   0.866   1.189
  507SOL    HW1 2420   3.460   0.826   1.203
  507SOL    HW2 2421   3.580   0.848   1.095
  508SOL     OW 2422   0.037   4.767   4.203
  508SOL    HW1 2423   6.966   4.756   4.183
  508SOL    HW2 2424   0.091   4.726   4.130
  509SOL     OW 2425   4.497   6.490   6.326
  509SOL    HW1 2426   4.413   6.436   6.318
  509SOL    HW2 2427   4.480   6.568   6.386
  510SOL     OW 2428   6.878   4.428   6.869
  510SOL    HW1 2429   6.857   4.453   6.964
  510SOL    HW2 2430   6.867   4.329   6.857
  511SOL     OW 2431   1.107   1.961   0.725
  511SOL    HW1 2432   1.024   2.014   0.706
  511SOL    HW2 2433   1.124   1.898   0.649
  512SOL     OW 2434   6.404   2.428   6.297
  512SOL    HW1 2435   6.463   2.393   6.225
  512SOL    HW2 2436   6.424   2.525   6.313
  513SOL     OW 2437   5.196   0.238   2.893
  513SOL    HW1 2438   5.115   0.192   2.929
  513SOL    HW2 2439   5.278   0.189   2.923
  514SOL     OW 2440   6.163   6.737   4.358
  514SOL    HW1 2441   6.177   6.830   4.325
  514SOL    HW2 2442   6.142   6.739   4.456
  515SOL     OW 2443   3.552   6.642   6.700
  515SOL    HW1 2444   3.502   6.627   6.615
  515SOL    HW2 2445   3.521   6.576   6.769
  516SOL     OW 2446   2.251   5.571   1.648
  516SOL    HW1 2447   2.253   5.643   1.579
  516SOL    HW2 2448   2.329   5.583   1.711
  517SOL     OW 2449   3.258   5.029   2.349
  517SOL    HW1 2450   3.338   5.036   2.408
  517SOL    HW2 2451   3.286   5.040   2.254
  518SOL     OW 2452   2.107   3.317   3.537
  518SOL    HW1 2453   2.115   3.218   3.546
  518SOL    HW2 2454   2.116   3.360   3.627
  519SOL     OW 2455   0.417   6.829   3.470
  519SOL    HW1 2456   0.377   6.739   3.455
  519SOL    HW2 2457   0.472   6.855   3.390
  520SOL     OW 2458   1.512   3.108   0.282
  520SOL    HW1 2459   1.582   3.179   0.287
  520SOL    HW2 2460   1.551   3.020   0.307
  521SOL     OW 2461   5.287   5.055   5.563
  521SOL    HW1 2462   5.190   5.045   5.539
  521SOL    HW2 2463   5.339   4.980   5.521
  522SOL     OW 2464   4.353   3.721   1.417
  522SOL    HW1 2465   4.392   3.707   1.508
  522SOL    HW2 2466   4.326   3.817   1.407
  523SOL     OW 2467   0.541   6.544   1.715
  523SOL    HW1 2468   0.613   6.476   1.701
  523SOL    HW2 2469   0.569   6.631   1.676
  524SOL     OW 2470   6.598   2.280   2.136
  524SOL    HW1 2471   6.577   2.368   2.094
  524SOL    HW2 2472   6.601   2.209   2.065
  525SOL     OW 2473   1.684   3.903   6.517
  525SOL    HW1 2474   1.599   3.858   6.489
  525SOL    HW2 2475   1.710   3.971   6.448
  526SOL     OW 2476   3.193   0.168   4.573
  526SOL    HW1 2477   3.175   0.145   4.669
  526SOL    HW2 2478   3.113   0.145   4.518
  527SOL     OW 2479   0.944   2.062   0.279
  527SOL    HW1 2480   0.947   2.041   0.182
  527SOL    HW2 2481   0.858   2.107   0.301
  528SOL     OW 2482   6.781   3.017   4.307
  528SOL    HW1 2483   6.688   2.980   4.301
  528SOL    HW2 2484   6.847   2.942   4.297
  529SOL     OW 2485   1.916   0.394   5.601
  529SOL    HW1 2486   1.985   0.403   5.673
  529SOL    HW2 2487   1.934   0.311   5.548
  530SOL     OW 2488   3.454   3.427   1.119
  530SOL    HW1 2489   3.376   3.448   1.060
  530SOL    HW2 2490   3.442   3.472   1.207
  531SOL     OW 2491   1.953   0.845   2.394
  531SOL    HW1 2492   2.024   0.774   2.383
  531SOL    HW2 2493   1.938   0.862   2.492
  532SOL     OW 2494   3.198   2.650   0.496
  532SOL    HW1 2495   3.285   2.688   0.529
  532SOL    HW2 2496   3.153   2.603   0.572
  533SOL     OW 2497   4.143   0.267   3.752
  533SOL    HW1 2498   4.079   0.260   3.829
  533SOL    HW2 2499   4.185   0.178   3.736
  534SOL     OW 2500   0.690   5.431   1.453
  534SOL    HW1 2501   0.597   5.397   1.467
  534SOL    HW2 2502   0.686   5.526   1.420
  535SOL     OW 2503   5.409   3.702   2.965
  535SOL    HW1 2504   5.368   3.742   3.047
  535SOL    HW2 2505   5.345   3.637   2.924
  536SOL     OW 2506   6.533   6.051   3.181
  536SOL    HW1 2507   6.596   6.105   3.125
  536SOL    HW2 2508   6.447   6.102   3.190
  537SOL     OW 2509   3.246   0.883   4.246
  537SOL    HW1 2510   3.326   0.825   4.259
  537SOL    HW2 2511   3.192   0.847   4.170
  538SOL     OW 2512   2.195   4.964   5.405
  538SOL    HW1 2513   2.240   5.023   5.473
  538SOL    HW2 2514   2.215   4.998   5.313
  539SOL     OW 2515   0.838   6.332   0.489
  539SOL    HW1 2516   0.798   6.422   0.474
  539SOL    HW2 2517   0.766   6.263   0.493
  540SOL     OW 2518   1.254   0.262   3.625
  540SOL    HW1 2519   1.239   0.179   3.571
  540SOL    HW2 2520   1.258   0.341   3.564
  541SOL     OW 2521   3.928   6.171   4.615
  541SOL    HW1 2522   3.893   6.081   4.641
  541SOL    HW2 2523   4.017   6.160   4.570
  542SOL     OW 2524   2.697   6.815   6.786
  542SOL    HW1 2525   2.751   6.795   6.705
  542SOL    HW2 2526   2.758   6.830   6.864
  543SOL     OW 2527   5.304   2.775   4.154
  543SOL    HW1 2528   5.204   2.769   4.155
  543SOL    HW2 2529   5.337   2.801   4.244
  544SOL     OW 2530   0.524   4.742   0.414
  544SOL    HW1 2531   0.434   4.771   0.381
  544SOL    HW2 2532   0.538   4.775   0.507
  545SOL     OW 2533   5.329   1.149   1.519
  545SOL    HW1 2534   5.302   1.141   1.423
  545SOL    HW2 2535   5.286   1.230   1.559
  546SOL     OW 2536   0.286   4.127   2.461
  546SOL    HW1 2537   0.243   4.125   2.551
  546SOL    HW2 2538   0.361   4.061   2.458
  547SOL     OW 2539   4.404   1.240   6.998
  547SOL    HW1 2540   4.376   1.159   6.945
  547SOL    HW2 2541   4.346   1.249   0.053
  548SOL     OW 2542   3.740   2.936   6.916
  548SOL    HW1 2543   3.725   2.984   7.003
  548SOL    HW2 2544   3.665   2.957   6.854
  549SOL     OW 2545   6.507   2.034   0.450
  549SOL    HW1 2546   6.540   2.118   0.407
  549SOL    HW2 2547   6.571   2.006   0.521
  550SOL     OW 2548   7.025   4.518   2.827
  550SOL    HW1 2549   0.008   4.600   2.771
  550SOL    HW2 2550   0.080   4.460   2.815
  551SOL     OW 2551   0.002   0.813   0.343
  551SOL    HW1 2552   0.001   0.907   0.310
  551SOL    HW2 2553   6.972   0.756   0.284
  552SOL     OW 2554   5.555   5.678   5.633
  552SOL    HW1 2555   5.465   5.636   5.637
  552SOL    HW2 2556   5.553   5.765   5.682
  553SOL     OW 2557   3.155   1.510   5.955
  553SOL    HW1 2558   3.209   1.562   5.889
  553SOL    HW2 2559   3.142   1.417   5.922
  554SOL     OW 2560   5.818   5.940   0.662
  554SOL    HW1 2561   5.849   5.847   0.641
  554SOL    HW2 2562   5.722   5.950   0.634
  555SOL     OW 2563   2.282   5.227   5.487
  555SOL    HW1 2564   2.301   5.254   5.393
  555SOL    HW2 2565   2.366   5.232   5.541
  556SOL     OW 2566   4.637   1.972   4.101
  556SOL    HW1 2567   4.574   1.920   4.158
  556SOL    HW2 2568   4.685   1.910   4.039
  557SOL     OW 2569   6.964   5.035   5.850
  557SOL    HW1 2570   6.950   5.046   5.752
  557SOL    HW2 2571   0.034   5.014   5.868
  558SOL     OW 2572   3.713   3.542   2.631
  558SOL    HW1 2573   3.734   3.611   2.700
  558SOL    HW2 2574   3.652   3.473   2.670
  559SOL     OW 2575   6.283   6.418   5.459
  559SOL    HW1 2576   6.283   6.378   5.367
  559SOL    HW2 2577   6.209   6.485   5.466
  560SOL     OW 2578   6.449   3.052   3.090
  560SOL    HW1 2579   6.377   3.016   3.149
  560SOL    HW2 2580   6.470   2.984   3.019
  561SOL     OW 2581   0.274   2.927   6.264
  561SOL    HW1 2582   0.185   2.910   6.221
  561SOL    HW2 2583   0.327   2.843   6.264
  562SOL     OW 2584   4.506   0.013   5.676
  562SOL    HW1 2585   4.474   0.063   5.596
  562SOL    HW2 2586   4.456   6.953   5.684
  563SOL     OW 2587   1.457   1.682   4.411
  563SOL    HW1 2588   1.372   1.697   4.463
  563SOL    HW2 2589   1.471   1.759   4.349
  564SOL     OW 2590   0.335   1.679   5.794
  564SOL    HW1 2591   0.244   1.704   5.827
  564SOL    HW2 2592   0.382   1.762   5.764
  565SOL     OW 2593   3.471   2.978   3.499
  565SOL    HW1 2594   3.379   2.992   3.536
  565SOL    HW2 2595   3.475   3.018   3.407
  566SOL     OW 2596   3.437   5.334   2.970
  566SOL    HW1 2597   3.352   5.283   2.953
  566SOL    HW2 2598   3.442   5.411   2.906
  567SOL     OW 2599   2.565   2.652   6.840
  567SOL    HW1 2600   2.514   2.594   6.776
  567SOL    HW2 2601   2.505   2.723   6.876
  568SOL     OW 2602   6.053   6.942   0.599
  568SOL    HW1 2603   6.036   6.887   0.517
  568SOL    HW2 2604   6.080   6.883   0.674
  569SOL     OW 2605   0.390   2.421   0.278
  569SOL    HW1 2606   0.443   2.403   0.195
  569SOL    HW2 2607   0.411   2.514   0.311
  570SOL     OW 2608   2.550   0.353   6.237
  570SOL    HW1 2609   2.492   0.379   6.314
  570SOL    HW2 2610   2.636   0.316   6.271
  571SOL     OW 2611   2.818   4.691   3.056
  571SOL    HW1 2612   2.875   4.680   2.974
  571SOL    HW2 2613   2.785   4.785   3.061
  572SOL     OW 2614   1.884   6.241   4.256
  572SOL    HW1 2615   1.979   6.261   4.276
  572SOL    HW2 2616   1.852   6.168   4.316
  573SOL     OW 2617   6.081   2.317   5.787
  573SOL    HW1 2618   6.135   2.234   5.777
  573SOL    HW2 2619   5.985   2.294   5.804
  574SOL     OW 2620   2.827   1.667   5.308
  574SOL    HW1 2621   2.741   1.622   5.284
  574SOL    HW2 2622   2.838   1.749   5.251
  575SOL     OW 2623   3.357   3.353   0.217
  575SOL    HW1 2624   3.344   3.257   0.240
  575SOL    HW2 2625   3.344   3.409   0.299
  576SOL     OW 2626   2.077   3.560   3.008
  576SOL    HW1 2627   2.007   3.551   3.079
  576SOL    HW2 2628   2.157   3.507   3.033
  577SOL     OW 2629   1.397   1.601   2.165
  577SOL    HW1 2630   1.326   1.658   2.124
  577SOL    HW2 2631   1.435   1.539   2.096
  578SOL     OW 2632   1.854   5.143   0.208
  578SOL    HW1 2633   1.874   5.216   0.142
  578SOL    HW2 2634   1.849   5.056   0.160
  579SOL     OW 2635   2.586   4.621   2.492
  579SOL    HW1 2636   2.638   4.703   2.471
  579SOL    HW2 2637   2.608   4.549   2.426
  580SOL     OW 2638   3.972   5.646   4.825
  580SOL    HW1 2639   4.014   5.737   4.833
  580SOL    HW2 2640   4.028   5.589   4.764
  581SOL     OW 2641   0.937   2.996   3.662
  581SOL    HW1 2642   1.025   2.973   3.705
  581SOL    HW2 2643   0.862   2.964   3.721
  582SOL     OW 2644   5.516   5.031   3.292
  582SOL    HW1 2645   5.509   5.112   3.351
  582SOL    HW2 2646   5.477   5.051   3.203
  583SOL     OW 2647   3.100   5.175   6.141
  583SOL    HW1 2648   3.140   5.156   6.231
  583SOL    HW2 2649   3.161   5.139   6.070
  584SOL     OW 2650   3.723   6.940   6.486
  584SOL    HW1 2651   3.740   6.890   6.572
  584SOL    HW2 2652   3.662   6.887   6.428
  585SOL     OW 2653   2.376   6.825   1.612
  585SOL    HW1 2654   2.415   6.851   1.524
  585SOL    HW2 2655   2.276   6.827   1.606
  586SOL     OW 2656   4.415   0.412   1.696
  586SOL    HW1 2657   4.388   0.371   1.783
  586SOL    HW2 2658   4.447   0.340   1.634
  587SOL     OW 2659   5.245   2.367   2.009
  587SOL    HW1 2660   5.310   2.299   2.043
  587SOL    HW2 2661   5.171   2.320   1.960
  588SOL     OW 2662   1.113   5.731   1.368
  588SOL    HW1 2663   1.149   5.804   1.309
  588SOL    HW2 2664   1.187   5.670   1.394
  589SOL     OW 2665   3.495   5.746   1.580
  589SOL    HW1 2666   3.543   5.752   1.493
  589SOL    HW2 2667   3.537   5.809   1.645
  590SOL     OW 2668   6.009   1.469   0.863
  590SOL    HW1 2669   6.055   1.463   0.775
  590SOL    HW2 2670   6.077   1.479   0.936
  591SOL     OW 2671   4.119   5.246   4.330
  591SOL    HW1 2672   4.141   5.260   4.233
  591SOL    HW2 2673   4.048   5.176   4.338
  592SOL     OW 2674   4.837   1.368   4.311
  592SOL    HW1 2675   4.810   1.365   4.214
  592SOL    HW2 2676   4.846   1.464   4.339
  593SOL     OW 2677   3.839   2.058   5.819
  593SOL    HW1 2678   3.770   2.049   5.747
  593SOL    HW2 2679   3.926   2.088   5.779
  594SOL     OW 2680   5.725   1.798   1.535
  594SOL    HW1 2681   5.676   1.845   1.608
  594SOL    HW2 2682   5.769   1.865   1.475
  595SOL     OW 2683   5.129   6.125   2.705
  595SOL    HW1 2684   5.195   6.118   2.630
  595SOL    HW2 2685   5.093   6.218   2.709
  596SOL     OW 2686   6.915   3.755   4.072
  596SOL    HW1 2687   6.933   3.794   4.162
  596SOL    HW2 2688   6.884   3.661   4.082
  597SOL     OW 2689   3.046   6.478   5.939
  597SOL    HW1 2690   3.115   6.459   6.009
  597SOL    HW2 2691   3.074   6.556   5.883
  598SOL     OW 2692   2.983   3.888   4.846
  598SOL    HW1 2693   3.050   3.821   4.878
  598SOL    HW2 2694   2.920   3.910   4.920
  599SOL     OW 2695   1.437   5.852   1.620
  599SOL    HW1 2696   1.337   5.856   1.619
  599SOL    HW2 2697   1.469   5.835   1.713
  600SOL     OW 2698   6.917   4.282   4.879
  600SOL    HW1 2699   7.001   4.244   4.839
  600SOL    HW2 2700   6.942   4.346   4.952
  601SOL     OW 2701   1.004   0.959   4.971
  601SOL    HW1 2702   1.032   0.863   4.962
  601SOL    HW2 2703   1.078   1.018   4.938
  602SOL     OW 2704   2.628   6.385   5.049
  602SOL    HW1 2705   2.643   6.305   4.992
  602SOL    HW2 2706   2.539   6.379   5.093
  603SOL     OW 2707   1.494   0.859   4.912
  603SOL    HW1 2708   1.588   0.836   4.935
  603SOL    HW2 2709   1.492   0.907   4.824
  604SOL     OW 2710   6.957   2.430   2.080
  604SOL    HW1 2711   6.922   2.512   2.124
  604SOL    HW2 2712   6.916   2.349   2.122
  605SOL     OW 2713   0.056   4.323   2.026
  605SOL    HW1 2714   7.007   4.258   2.013
  605SOL    HW2 2715   0.104   4.302   2.111
  606SOL     OW 2716   4.029   0.106   4.958
  606SOL    HW1 2717   4.002   0.049   4.880
  606SOL    HW2 2718   4.054   0.047   5.035
  607SOL     OW 2719   1.486   5.295   6.261
  607SOL    HW1 2720   1.430   5.297   6.344
  607SOL    HW2 2721   1.449   5.230   6.196
  608SOL     OW 2722   4.210   6.977   6.399
  608SOL    HW1 2723   4.116   6.945   6.385
  608SOL    HW2 2724   4.248   7.007   6.311
  609SOL     OW 2725   3.803   2.142   1.570
  609SOL    HW1 2726   3.833   2.232   1.601
  609SOL    HW2 2727   3.725   2.112   1.625
  610SOL     OW 2728   4.569   2.679   0.164
  610SOL    HW1 2729   4.591   2.661   0.260
  610SOL    HW2 2730   4.559   2.777   0.150
  611SOL     OW 2731   4.066   0.101   2.191
  611SOL    HW1 2732   4.054   0.011   2.148
  611SOL    HW2 2733   4.034   0.172   2.128
  612SOL     OW 2734   3.901   4.979   5.816
  612SOL    HW1 2735   3.973   4.939   5.872
  612SOL    HW2 2736   3.820   4.994   5.872
  613SOL     OW 2737   5.309   5.891   4.895
  613SOL    HW1 2738   5.386   5.853   4.844
  613SOL    HW2 2739   5.223   5.856   4.857
  614SOL     OW 2740   5.026   5.553   5.374
  614SOL    HW1 2741   5.118   5.568   5.338
  614SOL    HW2 2742   4.959   5.556   5.300
  615SOL     OW 2743   0.108   4.242   0.642
  615SOL    HW1 2744   0.066   4.182   0.710
  615SOL    HW2 2745   0.141   4.187   0.565
  616SOL     OW 2746   6.303   2.797   3.446
  616SOL    HW1 2747   6.265   2.777   3.536
  616SOL    HW2 2748   6.338   2.713   3.405
  617SOL     OW 2749   2.406   5.451   6.401
  617SOL    HW1 2750   2.380   5.461   6.305
  617SOL    HW2 2751   2.480   5.515   6.422
  618SOL     OW 2752   1.769   1.514   1.654
  618SOL    HW1 2753   1.854   1.464   1.672
  618SOL    HW2 2754   1.701   1.451   1.615
  619SOL     OW 2755   1.638   2.348   6.555
  619SOL    HW1 2756   1.554   2.318   6.510
  619SOL    HW2 2757   1.694   2.269   6.579
  620SOL     OW 2758   4.421   2.848   0.622
  620SOL    HW1 2759   4.482   2.877   0.696
  620SOL    HW2 2760   4.326   2.849   0.653
  621SOL     OW 2761   6.092   5.022   0.150
  621SOL    HW1 2762   6.000   5.060   0.142
  621SOL    HW2 2763   6.155   5.074   0.092
  622SOL     OW 2764   1.972   1.550   0.378
  622SOL    HW1 2765   1.948   1.564   0.282
  622SOL    HW2 2766   2.061   1.505   0.384
  623SOL     OW 2767   1.011   4.947   6.595
  623SOL    HW1 2768   0.945   5.016   6.567
  623SOL    HW2 2769   0.963   4.870   6.637
  624SOL     OW 2770   0.423   2.433   2.542
  624SOL    HW1 2771   0.513   2.430   2.498
  624SOL    HW2 2772   0.378   2.345   2.531
  625SOL     OW 2773   3.103   1.890   2.405
  625SOL    HW1 2774   3.140   1.832   2.478
  625SOL    HW2 2775   3.145   1.981   2.411
  626SOL     OW 2776   2.251   6.438   3.202
  626SOL    HW1 2777   2.317   6.447   3.277
  626SOL    HW2 2778   2.286   6.487   3.122
  627SOL     OW 2779   5.412   0.945   0.518
  627SOL    HW1 2780   5.375   0.921   0.608
  627SOL    HW2 2781   5.397   0.870   0.454
  628SOL     OW 2782   4.949   4.924   4.491
  628SOL    HW1 2783   5.032   4.942   4.438
  628SOL    HW2 2784   4.882   4.878   4.432
  629SOL     OW 2785   0.594   0.353   1.721
  629SOL    HW1 2786   0.572   0.279   1.785
  629SOL    HW2 2787   0.605   0.439   1.772
  630SOL     OW 2788   4.513   1.346   1.869
  630SOL    HW1 2789   4.513   1.353   1.769
  630SOL    HW2 2790   4.589   1.288   1.898
  631SOL     OW 2791   2.581   6.928   5.576
  631SOL    HW1 2792   2.594   7.016   5.622
  631SOL    HW2 2793   2.483   6.910   5.565
  632SOL     OW 2794   2.418   0.787   0.253
  632SOL    HW1 2795   2.417   0.885   0.236
  632SOL    HW2 2796   2.324   0.751   0.249
  633SOL     OW 2797   3.221   6.167   0.782
  633SOL    HW1 2798   3.164   6.096   0.825
  633SOL    HW2 2799   3.215   6.158   0.683
  634SOL     OW 2800   4.363   5.459   1.294
  634SOL    HW1 2801   4.413   5.495   1.216
  634SOL    HW2 2802   4.401   5.495   1.379
  635SOL     OW 2803   3.331   0.515   2.919
  635SOL    HW1 2804   3.414   0.477   2.878
  635SOL    HW2 2805   3.255   0.505   2.856
  636SOL     OW 2806   5.135   5.312   6.672
  636SOL    HW1 2807   5.148   5.286   6.768
  636SOL    HW2 2808   5.134   5.230   6.615
  637SOL     OW 2809   4.745   4.813   1.690
  637SOL    HW1 2810   4.791   4.878   1.630
  637SOL    HW2 2811   4.674   4.861   1.743
  638SOL     OW 2812   4.955   1.214   1.588
  638SOL    HW1 2813   4.921   1.150   1.656
  638SOL    HW2 2814   4.911   1.197   1.500
  639SOL     OW 2815   4.355   4.540   1.686
  639SOL    HW1 2816   4.322   4.604   1.616
  639SOL    HW2 2817   4.322   4.448   1.666
  640SOL     OW 2818   2.256   3.901   5.523
  640SOL    HW1 2819   2.218   3.974   5.580
  640SOL    HW2 2820   2.228   3.915   5.428
  641SOL     OW 2821   0.600   5.828   4.957
  641SOL    HW1 2822   0.648   5.877   5.030
  641SOL    HW2 2823   0.515   5.789   4.993
  642SOL     OW 2824   0.483   4.783   5.141
  642SOL    HW1 2825   0.574   4.777   5.100
  642SOL    HW2 2826   0.417   4.810   5.071
  643SOL     OW 2827   6.750   5.737   5.666
  643SOL    HW1 2828   6.752   5.820   5.610
  643SOL    HW2 2829   6.655   5.708   5.679
  644SOL     OW 2830   1.075   6.294   3.009
  644SOL    HW1 2831   1.017   6.221   2.974
  644SOL    HW2 2832   1.093   6.278   3.107
  645SOL     OW 2833   4.487   2.510   4.559
  645SOL    HW1 2834   4.489   2.443   4.485
  645SOL    HW2 2835   4.414   2.576   4.543
  646SOL     OW 2836   1.610   1.307   3.936
  646SOL    HW1 2837   1.641   1.361   3.858
  646SOL    HW2 2838   1.587   1.369   4.012
  647SOL     OW 2839   6.411   2.707   7.017
  647SOL    HW1 2840   6.430   2.687   6.921
  647SOL    HW2 2841   6.360   2.793   7.025
  648SOL     OW 2842   5.860   3.443   2.354
  648SOL    HW1 2843   5.775   3.445   2.302
  648SOL    HW2 2844   5.937   3.462   2.293
  649SOL     OW 2845   4.075   4.172   1.046
  649SOL    HW1 2846   4.010   4.136   1.113
  649SOL    HW2 2847   4.046   4.263   1.016
  650SOL     OW 2848   4.720   4.555   0.530
  650SOL    HW1 2849   4.691   4.643   0.567
  650SOL    HW2 2850   4.728   4.489   0.605
  651SOL     OW 2851   0.702   6.315   1.353
  651SOL    HW1 2852   0.720   6.389   1.288
  651SOL    HW2 2853   0.608   6.323   1.387
  652SOL     OW 2854   4.510   6.861   2.819
  652SOL    HW1 2855   4.438   6.837   2.754
  652SOL    HW2 2856   4.542   6.778   2.864
  653SOL     OW 2857   3.331   5.183   4.218
  653SOL    HW1 2858   3.251   5.229   4.256
  653SOL    HW2 2859   3.313   5.085   4.210
  654SOL     OW 2860   6.569   5.615   6.671
  654SOL    HW1 2861   6.473   5.634   6.648
  654SOL    HW2 2862   6.627   5.689   6.638
  655SOL     OW 2863   0.756   0.354   1.503
  655SOL    HW1 2864   0.695   0.342   1.581
  655SOL    HW2 2865   0.832   0.289   1.510
  656SOL     OW 2866   2.312   6.651   2.267
  656SOL    HW1 2867   2.391   6.675   2.212
  656SOL    HW2 2868   2.286   6.555   2.249
  657SOL     OW 2869   2.725   1.551   0.886
  657SOL    HW1 2870   2.763   1.640   0.861
  657SOL    HW2 2871   2.771   1.480   0.833
  658SOL     OW 2872   3.121   3.982   6.873
  658SOL    HW1 2873   3.133   3.889   6.907
  658SOL    HW2 2874   3.189   4.001   6.802
  659SOL     OW 2875   2.450   6.938   6.654
  659SOL    HW1 2876   2.410   6.924   6.563
  659SOL    HW2 2877   2.532   6.881   6.663
  660SOL     OW 2878   4.078   5.852   2.173
  660SOL    HW1 2879   4.010   5.868   2.102
  660SOL    HW2 2880   4.066   5.920   2.246
  661SOL     OW 2881   4.643   5.659   3.011
  661SOL    HW1 2882   4.545   5.682   3.011
  661SOL    HW2 2883   4.690   5.716   2.944
  662SOL     OW 2884   3.576   1.165   5.995
  662SOL    HW1 2885   3.490   1.116   5.988
  662SOL    HW2 2886   3.592   1.218   5.912
  663SOL     OW 2887   1.926   4.436   4.825
  663SOL    HW1 2888   1.969   4.352   4.791
  663SOL    HW2 2889   1.880   4.482   4.749
  664SOL     OW 2890   0.447   6.336   6.651
  664SOL    HW1 2891   0.385   6.413   6.634
  664SOL    HW2 2892   0.417   6.257   6.597
  665SOL     OW 2893   3.276   5.699   3.607
  665SOL    HW1 2894   3.200   5.761   3.589
  665SOL    HW2 2895   3.252   5.607   3.577
  666SOL     OW 2896   3.974   0.809   2.644
  666SOL    HW1 2897   3.935   0.763   2.565
  666SOL    HW2 2898   3.902   0.858   2.693
  667SOL     OW 2899   0.706   5.229   1.874
  667SOL    HW1 2900   0.750   5.319   1.869
  667SOL    HW2 2901   0.625   5.230   1.815
  668SOL     OW 2902   5.528   4.594   6.051
  668SOL    HW1 2903   5.585   4.571   6.130
  668SOL    HW2 2904   5.469   4.671   6.074
  669SOL     OW 2905   5.777   1.201   2.713
  669SOL    HW1 2906   5.678   1.206   2.730
  669SOL    HW2 2907   5.825   1.247   2.787
  670SOL     OW 2908   1.857   1.669   3.443
  670SOL    HW1 2909   1.927   1.710   3.502
  670SOL    HW2 2910   1.865   1.569   3.448
  671SOL     OW 2911   2.558   6.651   1.778
  671SOL    HW1 2912   2.496   6.666   1.701
  671SOL    HW2 2913   2.629   6.721   1.778
  672SOL     OW 2914   0.511   5.645   2.319
  672SOL    HW1 2915   0.514   5.556   2.275
  672SOL    HW2 2916   0.602   5.669   2.354
  673SOL     OW 2917   5.547   6.764   1.107
  673SOL    HW1 2918   5.541   6.665   1.094
  673SOL    HW2 2919   5.591   6.805   1.027
  674SOL     OW 2920   6.611   1.567   4.972
  674SOL    HW1 2921   6.667   1.640   5.011
  674SOL    HW2 2922   6.669   1.507   4.917
  675SOL     OW 2923   5.760   2.464   2.111
  675SOL    HW1 2924   5.681   2.447   2.052
  675SOL    HW2 2925   5.729   2.480   2.204
  676SOL     OW 2926   2.615   4.624   4.919
  676SOL    HW1 2927   2.570   4.578   4.995
  676SOL    HW2 2928   2.714   4.623   4.933
  677SOL     OW 2929   4.835   0.784   1.443
  677SOL    HW1 2930   4.763   0.848   1.470
  677SOL    HW2 2931   4.899   0.773   1.519
  678SOL     OW 2932   2.825   4.642   5.389
  678SOL    HW1 2933   2.840   4.588   5.472
  678SOL    HW2 2934   2.871   4.597   5.312
  679SOL     OW 2935   5.709   1.605   4.627
  679SOL    HW1 2936   5.795   1.585   4.673
  679SOL    HW2 2937   5.718   1.589   4.529
  680SOL     OW 2938   5.341   6.484   4.340
  680SOL    HW1 2939   5.302   6.432   4.264
  680SOL    HW2 2940   5.289   6.568   4.353
  681SOL     OW 2941   5.286   6.071   2.410
  681SOL    HW1 2942   5.240   5.988   2.379
  681SOL    HW2 2943   5.369   6.085   2.356
  682SOL     OW 2944   0.411   0.957   2.484
  682SOL    HW1 2945   0.461   0.898   2.420
  682SOL    HW2 2946   0.459   1.044   2.494
  683SOL     OW 2947   4.241   3.417   1.418
  683SOL    HW1 2948   4.262   3.405   1.515
  683SOL    HW2 2949   4.284   3.501   1.384
  684SOL     OW 2950   6.445   0.440   6.581
  684SOL    HW1 2951   6.500   0.413   6.660
  684SOL    HW2 2952   6.502   0.443   6.500
  685SOL     OW 2953   3.634   1.119   3.682
  685SOL    HW1 2954   3.573   1.061   3.735
  685SOL    HW2 2955   3.580   1.174   3.618
  686SOL     OW 2956   4.420   1.261   3.909
  686SOL    HW1 2957   4.390   1.311   3.991
  686SOL    HW2 2958   4.444   1.327   3.838
  687SOL     OW 2959   0.854   1.813   4.113
  687SOL    HW1 2960   0.909   1.730   4.114
  687SOL    HW2 2961   0.775   1.800   4.053
  688SOL     OW 2962   0.519   1.240   6.268
  688SOL    HW1 2963   0.428   1.265   6.301
  688SOL    HW2 2964   0.558   1.318   6.219
  689SOL     OW 2965   1.007   4.755   5.184
  689SOL    HW1 2966   1.043   4.788   5.271
  689SOL    HW2 2967   0.908   4.742   5.193
  690SOL     OW 2968   6.439   3.316   3.010
  690SOL    HW1 2969   6.450   3.222   3.042
  690SOL    HW2 2970   6.405   3.315   2.916
  691SOL     OW 2971   3.969   1.436   6.925
  691SOL    HW1 2972   3.976   1.437   7.025
  691SOL    HW2 2973   3.935   1.524   6.892
  692SOL     OW 2974   3.088   1.474   5.563
  692SOL    HW1 2975   3.059   1.458   5.468
  692SOL    HW2 2976   3.011   1.509   5.616
  693SOL     OW 2977   4.725   5.661   3.295
  693SOL    HW1 2978   4.675   5.652   3.209
  693SOL    HW2 2979   4.737   5.758   3.316
  694SOL     OW 2980   3.713   6.342   4.634
  694SOL    HW1 2981   3.724   6.436   4.603
  694SOL    HW2 2982   3.799   6.293   4.621
  695SOL     OW 2983   3.307   6.159   4.346
  695SOL    HW1 2984   3.332   6.159   4.250
  695SOL    HW2 2985   3.335   6.072   4.388
  696SOL     OW 2986   5.269   4.082   3.226
  696SOL    HW1 2987   5.287   4.117   3.133
  696SOL    HW2 2988   5.184   4.121   3.260
  697SOL     OW 2989   0.865   4.134   1.583
  697SOL    HW1 2990   0.898   4.221   1.546
  697SOL    HW2 2991   0.839   4.073   1.508
  698SOL     OW 2992   5.169   6.733   1.100
  698SOL    HW1 2993   5.234   6.786   1.154
  698SOL    HW2 2994   5.144   6.784   1.018
  699SOL     OW 2995   2.279   3.184   6.807
  699SOL    HW1 2996   2.230   3.100   6.830
  699SOL    HW2 2997   2.311   3.179   6.712
  700SOL     OW 2998   3.225   0.013   2.503
  700SOL    HW1 2999   3.272   7.000   2.424
  700SOL    HW2 3000   3.236   0.112   2.502
  701SOL     OW 3001   6.136   4.509   0.673
  701SOL    HW1 3002   6.075   4.584   0.649
  701SOL    HW2 3003   6.107   4.469   0.760
  702SOL     OW 3004   2.783   0.658   4.490
  702SOL    HW1 3005   2.722   0.606   4.429
  702SOL    HW2 3006   2.742   0.664   4.581
  703SOL     OW 3007   3.087   3.217   5.436
  703SOL    HW1 3008   3.142   3.251   5.360
  703SOL    HW2 3009   3.020   3.152   5.402
  704SOL     OW 3010   1.114   2.960   6.430
  704SOL    HW1 3011   1.035   3.014   6.458
  704SOL    HW2 3012   1.174   2.944   6.509
  705SOL     OW 3013   6.556   6.382   4.414
  705SOL    HW1 3014   6.548   6.474   4.452
  705SOL    HW2 3015   6.498   6.373   4.334
  706SOL     OW 3016   4.094   1.168   5.472
  706SOL    HW1 3017   3.995   1.178   5.465
  706SOL    HW2 3018   4.136   1.189   5.384
  707SOL     OW 3019   3.971   5.571   3.269
  707SOL    HW1 3020   3.889   5.627   3.258
  707SOL    HW2 3021   3.975   5.535   3.362
  708SOL     OW 3022   3.126   1.024   3.277
  708SOL    HW1 3023   3.072   1.031   3.361
  708SOL    HW2 3024   3.143   1.116   3.240
  709SOL     OW 3025   1.625   6.864   1.611
  709SOL    HW1 3026   1.530   6.846   1.637
  709SOL    HW2 3027   1.677   6.890   1.693
  710SOL     OW 3028   4.791   2.749   1.482
  710SOL    HW1 3029   4.887   2.731   1.462
  710SOL    HW2 3030   4.784   2.833   1.536
  711SOL     OW 3031   0.024   2.979   5.693
  711SOL    HW1 3032   0.005   3.045   5.620
  711SOL    HW2 3033   7.004   2.893   5.673
  712SOL     OW 3034   4.226   3.116   1.262
  712SOL    HW1 3035   4.203   3.211   1.279
  712SOL    HW2 3036   4.267   3.107   1.171
  713SOL     OW 3037   4.207   2.730   5.336
  713SOL    HW1 3038   4.136   2.796   5.310
  713SOL    HW2 3039   4.198   2.648   5.279
  714SOL     OW 3040   5.868   4.820   3.440
  714SOL    HW1 3041   5.939   4.885   3.413
  714SOL    HW2 3042   5.904   4.727   3.433
  715SOL     OW 3043   6.632   5.108   5.682
  715SOL    HW1 3044   6.561   5.109   5.611
  715SOL    HW2 3045   6.631   5.196   5.730
  716SOL     OW 3046   2.168   1.025   2.507
  716SOL    HW1 3047   2.096   1.088   2.538
  716SOL    HW2 3048   2.188   1.043   2.411
  717SOL     OW 3049   6.030   4.679   3.987
  717SOL    HW1 3050   6.099   4.616   3.952
  717SOL    HW2 3051   6.074   4.745   4.048
  718SOL     OW 3052   4.596   2.152   4.410
  718SOL    HW1 3053   4.665   2.202   4.358
  718SOL    HW2 3054   4.617   2.159   4.508
  719SOL     OW 3055   6.681   0.521   2.696
  719SOL    HW1 3056   6.744   0.466   2.750
  719SOL    HW2 3057   6.711   0.523   2.601
  720SOL     OW 3058   1.693   0.589   6.042
  720SOL    HW1 3059   1.681   0.558   5.948
  720SOL    HW2 3060   1.735   0.680   6.042
  721SOL     OW 3061   0.693   2.068   2.181
  721SOL    HW1 3062   0.683   2.021   2.093
  721SOL    HW2 3063   0.785   2.105   2.190
  722SOL     OW 3064   4.509   0.258   6.336
  722SOL    HW1 3065   4.447   0.240   6.412
  722SOL    HW2 3066   4.510   0.356   6.316
  723SOL     OW 3067   2.594   6.004   3.675
  723SOL    HW1 3068   2.588   6.081   3.611
  723SOL    HW2 3069   2.502   5.968   3.691
  724SOL     OW 3070   0.728   0.904   3.262
  724SOL    HW1 3071   0.786   0.911   3.343
  724SOL    HW2 3072   0.690   0.812   3.255
  725SOL     OW 3073   2.526   4.592   2.107
  725SOL    HW1 3074   2.537   4.575   2.009
  725SOL    HW2 3075   2.616   4.605   2.149
  726SOL     OW 3076   2.485   5.187   0.400
  726SOL    HW1 3077   2.439   5.247   0.334
  726SOL    HW2 3078   2.477   5.226   0.492
  727SOL     OW 3079   4.593   5.326   6.548
  727SOL    HW1 3080   4.642   5.302   6.465
  727SOL    HW2 3081   4.515   5.385   6.525
  728SOL     OW 3082   6.977   3.339   4.610
  728SOL    HW1 3083   6.898   3.381   4.654
  728SOL    HW2 3084   0.027   3.333   4.674
  729SOL     OW 3085   0.240   2.848   0.945
  729SOL    HW1 3086   0.193   2.849   1.034
  729SOL    HW2 3087   0.271   2.755   0.925
  730SOL     OW 3088   5.206   0.403   3.186
  730SOL    HW1 3089   5.236   0.440   3.274
  730SOL    HW2 3090   5.136   0.462   3.147
  731SOL     OW 3091   4.647   4.112   6.303
  731SOL    HW1 3092   4.629   4.014   6.292
  731SOL    HW2 3093   4.699   4.127   6.387
  732SOL     OW 3094   5.226   2.082   2.600
  732SOL    HW1 3095   5.262   1.989   2.600
  732SOL    HW2 3096   5.265   2.133   2.677
  733SOL     OW 3097   5.568   6.711   3.814
  733SOL    HW1 3098   5.512   6.793   3.801
  733SOL    HW2 3099   5.543   6.667   3.900
  734SOL     OW 3100   6.522   4.688   2.482
  734SOL    HW1 3101   6.536   4.704   2.580
  734SOL    HW2 3102   6.607   4.706   2.433
  735SOL     OW 3103   5.697   0.520   1.684
  735SOL    HW1 3104   5.771   0.515   1.616
  735SOL    HW2 3105   5.667   0.615   1.694
  736SOL     OW 3106   1.570   1.562   4.045
  736SOL    HW1 3107   1.488   1.531   4.092
  736SOL    HW2 3108   1.546   1.639   3.985
  737SOL     OW 3109   5.756   1.602   5.561
  737SOL    HW1 3110   5.733   1.652   5.644
  737SOL    HW2 3111   5.672   1.570   5.517
  738SOL     OW 3112   2.741   3.997   1.107
  738SOL    HW1 3113   2.746   3.934   1.185
  738SOL    HW2 3114   2.807   4.071   1.120
  739SOL     OW 3115   3.275   6.725   5.198
  739SOL    HW1 3116   3.312   6.818   5.188
  739SOL    HW2 3117   3.351   6.661   5.211
  740SOL     OW 3118   5.554   1.959   3.096
  740SOL    HW1 3119   5.620   1.975   3.170
  740SOL    HW2 3120   5.577   2.017   3.018
  741SOL     OW 3121   2.218   0.967   4.752
  741SOL    HW1 3122   2.264   0.937   4.669
  741SOL    HW2 3123   2.120   0.976   4.735
  742SOL     OW 3124   1.667   6.188   0.680
  742SOL    HW1 3125   1.717   6.153   0.759
  742SOL    HW2 3126   1.714   6.268   0.643
  743SOL     OW 3127   0.680   6.346   3.791
  743SOL    HW1 3128   0.682   6.378   3.696
  743SOL    HW2 3129   0.746   6.397   3.845
  744SOL     OW 3130   6.684   1.332   0.831
  744SOL    HW1 3131   6.726   1.342   0.741
  744SOL    HW2 3132   6.584   1.329   0.821
  745SOL     OW 3133   1.714   5.561   4.940
  745SOL    HW1 3134   1.724   5.507   4.856
  745SOL    HW2 3135   1.720   5.658   4.918
  746SOL     OW 3136   5.455   4.031   4.983
  746SOL    HW1 3137   5.361   4.034   5.015
  746SOL    HW2 3138   5.457   4.018   4.884
  747SOL     OW 3139   5.277   5.392   3.429
  747SOL    HW1 3140   5.331   5.399   3.345
  747SOL    HW2 3141   5.255   5.296   3.446
  748SOL     OW 3142   5.046   5.317   2.582
  748SOL    HW1 3143   4.962   5.313   2.637
  748SOL    HW2 3144   5.067   5.226   2.546
  749SOL     OW 3145   4.918   3.531   3.437
  749SOL    HW1 3146   4.875   3.442   3.423
  749SOL    HW2 3147   4.961   3.533   3.527
  750SOL     OW 3148   2.426   1.316   1.318
  750SOL    HW1 3149   2.427   1.353   1.225
  750SOL    HW2 3150   2.518   1.290   1.344
  751SOL     OW 3151   5.012   2.173   0.658
  751SOL    HW1 3152   5.088   2.215   0.609
  751SOL    HW2 3153   4.932   2.168   0.597
  752SOL     OW 3154   3.423   2.281   5.710
  752SOL    HW1 3155   3.452   2.206   5.771
  752SOL    HW2 3156   3.495   2.349   5.705
  753SOL     OW 3157   3.484   3.590   5.275
  753SOL    HW1 3158   3.516   3.496   5.280
  753SOL    HW2 3159   3.487   3.623   5.181
  754SOL     OW 3160   6.232   0.901   6.383
  754SOL    HW1 3161   6.240   0.898   6.482
  754SOL    HW2 3162   6.135   0.905   6.357
  755SOL     OW 3163   2.986   4.312   5.362
  755SOL    HW1 3164   3.029   4.341   5.447
  755SOL    HW2 3165   2.989   4.387   5.296
  756SOL     OW 3166   2.645   5.059   0.016
  756SOL    HW1 3167   2.623   5.017   6.954
  756SOL    HW2 3168   2.577   5.032   0.084
  757SOL     OW 3169   2.049   6.706   2.386
  757SOL    HW1 3170   2.132   6.655   2.361
  757SOL    HW2 3171   1.997   6.728   2.303
  758SOL     OW 3172   4.269   1.245   3.645
  758SOL    HW1 3173   4.308   1.157   3.672
  758SOL    HW2 3174   4.337   1.317   3.662
  759SOL     OW 3175   6.957   2.884   3.447
  759SOL    HW1 3176   0.001   2.837   3.500
  759SOL    HW2 3177   6.985   2.889   3.351
  760SOL     OW 3178   6.630   6.447   3.757
  760SOL    HW1 3179   6.602   6.398   3.840
  760SOL    HW2 3180   6.565   6.520   3.738
  761SOL     OW 3181   5.350   4.163   5.464
  761SOL    HW1 3182   5.274   4.225   5.483
  761SOL    HW2 3183   5.379   4.119   5.549
  762SOL     OW 3184   3.040   6.249   5.803
  762SOL    HW1 3185   3.026   6.330   5.861
  762SOL    HW2 3186   2.968   6.183   5.822
  763SOL     OW 3187   5.392   0.387   6.729
  763SOL    HW1 3188   5.429   0.479   6.722
  763SOL    HW2 3189   5.462   0.321   6.703
  764SOL     OW 3190   5.843   1.155   5.597
  764SOL    HW1 3191   5.866   1.063   5.628
  764SOL    HW2 3192   5.776   1.195   5.659
  765SOL     OW 3193   0.815   6.818   0.942
  765SOL    HW1 3194   0.851   6.879   1.012
  765SOL    HW2 3195   0.884   6.748   0.921
  766SOL     OW 3196   2.349   2.235   5.087
  766SOL    HW1 3197   2.441   2.266   5.066
  766SOL    HW2 3198   2.332   2.147   5.043
  767SOL     OW 3199   6.764   6.713   3.907
  767SOL    HW1 3200   6.680   6.698   3.854
  767SOL    HW2 3201   6.831   6.643   3.883
  768SOL     OW 3202   2.292   6.117   2.668
  768SOL    HW1 3203   2.255   6.207   2.646
  768SOL    HW2 3204   2.358   6.125   2.743
  769SOL     OW 3205   3.699   1.703   5.582
  769SOL    HW1 3206   3.693   1.793   5.539
  769SOL    HW2 3207   3.789   1.664   5.565
  770SOL     OW 3208   2.025   5.119   4.435
  770SOL    HW1 3209   1.964   5.082   4.505
  770SOL    HW2 3210   2.002   5.079   4.346
  771SOL     OW 3211   1.248   5.084   3.336
  771SOL    HW1 3212   1.212   5.138   3.259
  771SOL    HW2 3213   1.346   5.072   3.326
  772SOL     OW 3214   5.584   4.904   0.039
  772SOL    HW1 3215   5.526   4.832   0.001
  772SOL    HW2 3216   5.527   4.978   0.075
  773SOL     OW 3217   1.266   3.504   3.630
  773SOL    HW1 3218   1.219   3.590   3.612
  773SOL    HW2 3219   1.354   3.523   3.674
  774SOL     OW 3220   2.235   1.919   4.100
  774SOL    HW1 3221   2.320   1.883   4.138
  774SOL    HW2 3222   2.158   1.886   4.153
  775SOL     OW 3223   2.179   3.763   4.140
  775SOL    HW1 3224   2.188   3.669   4.173
  775SOL    HW2 3225   2.214   3.826   4.210
  776SOL     OW 3226   0.841   6.599   6.108
  776SOL    HW1 3227   0.854   6.608   6.206
  776SOL    HW2 3228   0.898   6.667   6.060
  777SOL     OW 3229   1.774   3.882   0.146
  777SOL    HW1 3230   1.705   3.883   0.219
  777SOL    HW2 3231   1.728   3.892   0.057
  778SOL     OW 3232   3.453   6.737   1.744
  778SOL    HW1 3233   3.457   6.727   1.844
  778SOL    HW2 3234   3.364   6.705   1.711
  779SOL     OW 3235   0.667   2.737   2.250
  779SOL    HW1 3236   0.663   2.698   2.158
  779SOL    HW2 3237   0.762   2.759   2.273
  780SOL     OW 3238   1.498   2.109   4.654
  780SOL    HW1 3239   1.556   2.050   4.709
  780SOL    HW2 3240   1.526   2.103   4.558
  781SOL     OW 3241   0.256   4.820   0.331
  781SOL    HW1 3242   0.185   4.753   0.355
  781SOL    HW2 3243   0.258   4.833   0.232
  782SOL     OW 3244   1.527   3.900   5.547
  782SOL    HW1 3245   1.465   3.858   5.481
  782SOL    HW2 3246   1.607   3.841   5.560
  783SOL     OW 3247   5.412   4.772   6.353
  783SOL    HW1 3248   5.507   4.765   6.383
  783SOL    HW2 3249   5.353   4.721   6.416
  784SOL     OW 3250   2.902   6.006   1.853
  784SOL    HW1 3251   2.895   6.100   1.819
  784SOL    HW2 3252   2.916   6.007   1.952
  785SOL     OW 3253   1.184   0.119   4.165
  785SOL    HW1 3254   1.143   0.130   4.074
  785SOL    HW2 3255   1.277   0.158   4.164
  786SOL     OW 3256   6.558   0.943   3.712
  786SOL    HW1 3257   6.481   0.983   3.662
  786SOL    HW2 3258   6.644   0.972   3.669
  787SOL     OW 3259   2.322   0.491   6.922
  787SOL    HW1 3260   2.314   0.575   6.977
  787SOL    HW2 3261   2.233   0.468   6.883
  788SOL     OW 3262   3.932   3.062   1.497
  788SOL    HW1 3263   3.915   3.107   1.585
  788SOL    HW2 3264   3.847   3.059   1.444
  789SOL     OW 3265   4.511   5.326   1.995
  789SOL    HW1 3266   4.559   5.413   1.997
  789SOL    HW2 3267   4.559   5.260   2.053
  790SOL     OW 3268   0.794   3.135   1.868
  790SOL    HW1 3269   0.809   3.055   1.926
  790SOL    HW2 3270   0.818   3.218   1.919
  791SOL     OW 3271   2.630   5.378   5.350
  791SOL    HW1 3272   2.719   5.402   5.388
  791SOL    HW2 3273   2.642   5.339   5.258
  792SOL     OW 3274   0.683   1.234   0.572
  792SOL    HW1 3275   0.770   1.204   0.612
  792SOL    HW2 3276   0.672   1.332   0.587
  793SOL     OW 3277   4.230   5.704   3.618
  793SOL    HW1 3278   4.161   5.776   3.623
  793SOL    HW2 3279   4.288   5.719   3.538
  794SOL     OW 3280   2.886   3.603   3.872
  794SOL    HW1 3281   2.834   3.624   3.788
  794SOL    HW2 3282   2.949   3.678   3.891
  795SOL     OW 3283   3.537   0.718   6.173
  795SOL    HW1 3284   3.539   0.701   6.075
  795SOL    HW2 3285   3.610   0.783   6.197
  796SOL     OW 3286   1.366   3.094   6.549
  796SOL    HW1 3287   1.357   3.044   6.635
  796SOL    HW2 3288   1.312   3.178   6.555
  797SOL     OW 3289   4.653   6.994   1.073
  797SOL    HW1 3290   4.569   0.008   1.037
  797SOL    HW2 3291   4.728   7.014   1.010
  798SOL     OW 3292   2.921   6.284   1.412
  798SOL    HW1 3293   3.018   6.279   1.390
  798SOL    HW2 3294   2.882   6.192   1.413
  799SOL     OW 3295   0.969   2.186   6.538
  799SOL    HW1 3296   1.033   2.183   6.615
  799SOL    HW2 3297   0.997   2.119   6.469
  800SOL     OW 3298   6.060   1.252   1.928
  800SOL    HW1 3299   6.032   1.329   1.871
  800SOL    HW2 3300   6.106   1.184   1.871
  801SOL     OW 3301   1.961   5.569   5.662
  801SOL    HW1 3302   1.980   5.485   5.612
  801SOL    HW2 3303   2.045   5.605   5.702
  802SOL     OW 3304   5.433   2.168   6.784
  802SOL    HW1 3305   5.383   2.174   6.871
  802SOL    HW2 3306   5.376   2.121   6.716
  803SOL     OW 3307   2.651   0.671   5.660
  803SOL    HW1 3308   2.678   0.766   5.644
  803SOL    HW2 3309   2.720   0.610   5.621
  804SOL     OW 3310   6.277   0.294   1.730
  804SOL    HW1 3311   6.226   0.379   1.730
  804SOL    HW2 3312   6.215   0.218   1.750
  805SOL     OW 3313   2.618   0.632   3.370
  805SOL    HW1 3314   2.652   0.678   3.288
  805SOL    HW2 3315   2.598   0.699   3.441
  806SOL     OW 3316   0.805   7.023   5.235
  806SOL    HW1 3317   0.839   0.060   5.165
  806SOL    HW2 3318   0.723   6.977   5.201
  807SOL     OW 3319   0.932   6.360   4.959
  807SOL    HW1 3320   0.835   6.369   4.935
  807SOL    HW2 3321   0.943   6.371   5.057
  808SOL     OW 3322   5.968   2.983   0.471
  808SOL    HW1 3323   5.911   3.020   0.398
  808SOL    HW2 3324   5.954   2.884   0.477
  809SOL     OW 3325   0.535   4.895   0.004
  809SOL    HW1 3326   0.586   4.955   0.065
  809SOL    HW2 3327   0.461   4.946   6.987
  810SOL     OW 3328   2.694   3.356   0.368
  810SOL    HW1 3329   2.717   3.446   0.329
  810SOL    HW2 3330   2.595   3.347   0.375
  811SOL     OW 3331   5.329   5.066   5.161
  811SOL    HW1 3332   5.305   5.030   5.071
  811SOL    HW2 3333   5.306   5.163   5.165
  812SOL     OW 3334   0.968   2.144   2.220
  812SOL    HW1 3335   0.979   2.045   2.212
  812SOL    HW2 3336   1.057   2.186   2.239
  813SOL     OW 3337   2.094   1.394   4.639
  813SOL    HW1 3338   2.176   1.444   4.611
  813SOL    HW2 3339   2.116   1.336   4.717
  814SOL     OW 3340   6.766   5.597   2.931
  814SOL    HW1 3341   6.716   5.673   2.973
  814SOL    HW2 3342   6.782   5.525   2.999
  815SOL     OW 3343   4.998   2.221   3.743
  815SOL    HW1 3344   4.912   2.261   3.710
  815SOL    HW2 3345   5.046   2.288   3.800
  816SOL     OW 3346   4.633   3.952   0.281
  816SOL    HW1 3347   4.552   3.934   0.337
  816SOL    HW2 3348   4.698   4.007   0.333
  817SOL     OW 3349   1.000   5.413   1.032
  817SOL    HW1 3350   0.995   5.429   0.934
  817SOL    HW2 3351   0.921   5.359   1.062
  818SOL     OW 3352   5.770   2.626   3.617
  818SOL    HW1 3353   5.751   2.567   3.696
  818SOL    HW2 3354   5.808   2.572   3.542
  819SOL     OW 3355   5.861   2.186   1.502
  819SOL    HW1 3356   5.947   2.163   1.547
  819SOL    HW2 3357   5.802   2.235   1.567
  820SOL     OW 3358   2.484   2.062   4.287
  820SOL    HW1 3359   2.508   2.079   4.383
  820SOL    HW2 3360   2.469   1.964   4.274
  821SOL     OW 3361   6.032   4.133   4.744
  821SOL    HW1 3362   6.072   4.057   4.692
  821SOL    HW2 3363   5.992   4.098   4.828
  822SOL     OW 3364   0.755   4.185   3.560
  822SOL    HW1 3365   0.729   4.213   3.467
  822SOL    HW2 3366   0.726   4.256   3.625
  823SOL     OW 3367   1.081   3.644   5.807
  823SOL    HW1 3368   1.062   3.597   5.893
  823SOL    HW2 3369   1.015   3.718   5.794
  824SOL     OW 3370   5.524   0.977   5.077
  824SOL    HW1 3371   5.503   1.072   5.054
  824SOL    HW2 3372   5.574   0.974   5.163
  825SOL     OW 3373   5.909   6.200   0.598
  825SOL    HW1 3374   6.006   6.222   0.604
  825SOL    HW2 3375   5.896   6.102   0.615
  826SOL     OW 3376   3.887   1.257   5.906
  826SOL    HW1 3377   3.969   1.274   5.852
  826SOL    HW2 3378   3.905   1.278   6.002
  827SOL     OW 3379   3.265   3.963   4.443
  827SOL    HW1 3380   3.173   3.943   4.478
  827SOL    HW2 3381   3.326   3.981   4.519
  828SOL     OW 3382   6.296   5.371   4.259
  828SOL    HW1 3383   6.360   5.297   4.240
  828SOL    HW2 3384   6.326   5.455   4.214
  829SOL     OW 3385   3.567   2.914   2.551
  829SOL    HW1 3386   3.580   2.864   2.466
  829SOL    HW2 3387   3.607   3.005   2.543
  830SOL     OW 3388   6.277   4.808   6.669
  830SOL    HW1 3389   6.297   4.861   6.751
  830SOL    HW2 3390   6.181   4.819   6.645
  831SOL     OW 3391   5.323   6.083   1.326
  831SOL    HW1 3392   5.395   6.076   1.257
  831SOL    HW2 3393   5.346   6.025   1.403
  832SOL     OW 3394   3.926   1.310   5.050
  832SOL    HW1 3395   3.839   1.358   5.059
  832SOL    HW2 3396   3.912   1.213   5.071
  833SOL     OW 3397   1.168   3.981   6.366
  833SOL    HW1 3398   1.136   3.922   6.293
  833SOL    HW2 3399   1.232   4.049   6.329
  834SOL     OW 3400   4.614   3.628   6.773
  834SOL    HW1 3401   4.583   3.581   6.856
  834SOL    HW2 3402   4.694   3.684   6.794
  835SOL     OW 3403   1.414   0.241   4.110
  835SOL    HW1 3404   1.417   0.318   4.046
  835SOL    HW2 3405   1.486   0.253   4.179
  836SOL     OW 3406   3.624   2.066   5.639
  836SOL    HW1 3407   3.563   1.993   5.671
  836SOL    HW2 3408   3.573   2.129   5.580
  837SOL     OW 3409   1.522   0.471   1.320
  837SOL    HW1 3410   1.457   0.544   1.343
  837SOL    HW2 3411   1.476   0.403   1.263
  838SOL     OW 3412   2.370   5.561   4.016
  838SOL    HW1 3413   2.431   5.639   4.001
  838SOL    HW2 3414   2.276   5.587   3.997
  839SOL     OW 3415   2.176   1.139   0.894
  839SOL    HW1 3416   2.131   1.166   0.809
  839SOL    HW2 3417   2.275   1.153   0.885
  840SOL     OW 3418   6.048   5.317   6.777
  840SOL    HW1 3419   6.021   5.226   6.808
  840SOL    HW2 3420   6.033   5.325   6.678
  841SOL     OW 3421   4.430   5.362   5.743
  841SOL    HW1 3422   4.386   5.277   5.715
  841SOL    HW2 3423   4.524   5.364   5.708
  842SOL     OW 3424   3.064   0.082   6.576
  842SOL    HW1 3425   3.151   0.082   6.625
  842SOL    HW2 3426   2.989   0.074   6.642
  843SOL     OW 3427   1.549   1.783   1.284
  843SOL    HW1 3428   1.537   1.715   1.357
  843SOL    HW2 3429   1.525   1.874   1.319
  844SOL     OW 3430   0.650   6.826   1.593
  844SOL    HW1 3431   0.586   6.887   1.546
  844SOL    HW2 3432   0.744   6.855   1.574
  845SOL     OW 3433   4.036   1.661   2.774
  845SOL    HW1 3434   4.025   1.562   2.762
  845SOL    HW2 3435   4.050   1.705   2.686
  846SOL     OW 3436   2.833   1.288   6.574
  846SOL    HW1 3437   2.903   1.286   6.503
  846SOL    HW2 3438   2.775   1.207   6.567
  847SOL     OW 3439   2.498   3.435   1.668
  847SOL    HW1 3440   2.420   3.442   1.731
  847SOL    HW2 3441   2.545   3.348   1.682
  848SOL     OW 3442   5.897   6.904   6.020
  848SOL    HW1 3443   5.837   6.947   5.953
  848SOL    HW2 3444   5.941   6.824   5.979
  849SOL     OW 3445   5.666   3.697   0.274
  849SOL    HW1 3446   5.601   3.633   0.234
  849SOL    HW2 3447   5.749   3.648   0.302
  850SOL     OW 3448   6.389   0.753   4.943
  850SOL    HW1 3449   6.316   0.815   4.914
  850SOL    HW2 3450   6.405   0.685   4.871
  851SOL     OW 3451   6.493   3.323   6.910
  851SOL    HW1 3452   6.486   3.400   6.974
  851SOL    HW2 3453   6.403   3.305   6.870
  852SOL     OW 3454   6.742   4.294   0.883
  852SOL    HW1 3455   6.675   4.344   0.827
  852SOL    HW2 3456   6.829   4.289   0.834
  853SOL     OW 3457   1.990   4.426   0.376
  853SOL    HW1 3458   1.993   4.456   0.471
  853SOL    HW2 3459   2.002   4.327   0.371
  854SOL     OW 3460   6.111   6.406   0.097
  854SOL    HW1 3461   6.019   6.385   0.065
  854SOL    HW2 3462   6.112   6.411   0.197
  855SOL     OW 3463   6.967   0.685   0.108
  855SOL    HW1 3464   6.976   0.596   0.153
  855SOL    HW2 3465   7.001   0.679   0.014
  856SOL     OW 3466   2.034   6.663   6.500
  856SOL    HW1 3467   2.066   6.641   6.407
  856SOL    HW2 3468   2.104   6.718   6.546
  857SOL     OW 3469   0.174   4.392   3.159
  857SOL    HW1 3470   0.162   4.316   3.222
  857SOL    HW2 3471   0.125   4.472   3.193
  858SOL     OW 3472   3.759   3.668   0.599
  858SOL    HW1 3473   3.737   3.762   0.627
  858SOL    HW2 3474   3.856   3.662   0.574
  859SOL     OW 3475   4.611   6.173   5.342
  859SOL    HW1 3476   4.606   6.256   5.398
  859SOL    HW2 3477   4.579   6.095   5.397
  860SOL     OW 3478   5.332   2.913   5.807
  860SOL    HW1 3479   5.372   3.002   5.826
  860SOL    HW2 3480   5.268   2.920   5.731
  861SOL     OW 3481   2.143   5.283   3.023
  861SOL    HW1 3482   2.125   5.379   3.000
  861SOL    HW2 3483   2.083   5.224   2.969
  862SOL     OW 3484   1.872   4.566   3.862
  862SOL    HW1 3485   1.899   4.561   3.766
  862SOL    HW2 3486   1.954   4.568   3.920
  863SOL     OW 3487   6.632   0.068   5.780
  863SOL    HW1 3488   6.577   0.151   5.788
  863SOL    HW2 3489   6.718   0.089   5.734
  864SOL     OW 3490   4.332   6.828   5.767
  864SOL    HW1 3491   4.267   6.895   5.803
  864SOL    HW2 3492   4.386   6.790   5.843
  865SOL     OW 3493   2.134   5.784   4.814
  865SOL    HW1 3494   2.086   5.853   4.761
  865SOL    HW2 3495   2.070   5.714   4.845
  866SOL     OW 3496   2.686   6.836   0.694
  866SOL    HW1 3497   2.697   6.919   0.747
  866SOL    HW2 3498   2.626   6.773   0.743
  867SOL     OW 3499   6.104   1.987   0.673
  867SOL    HW1 3500   6.070   2.058   0.736
  867SOL    HW2 3501   6.150   2.031   0.596
  868SOL     OW 3502   0.637   1.816   2.290
  868SOL    HW1 3503   0.733   1.818   2.262
  868SOL    HW2 3504   0.588   1.892   2.248
  869SOL     OW 3505   6.958   3.944   3.892
  869SOL    HW1 3506   6.932   3.877   3.961
  869SOL    HW2 3507   6.999   4.024   3.937
  870SOL     OW 3508   3.426   5.035   1.615
  870SOL    HW1 3509   3.515   5.020   1.572
  870SOL    HW2 3510   3.408   4.961   1.680
  871SOL     OW 3511   4.556   1.895   4.406
  871SOL    HW1 3512   4.477   1.877   4.348
  871SOL    HW2 3513   4.575   1.993   4.405
  872SOL     OW 3514   6.541   2.210   4.707
  872SOL    HW1 3515   6.577   2.240   4.618
  872SOL    HW2 3516   6.466   2.147   4.693
  873SOL     OW 3517   4.845   6.639   5.972
  873SOL    HW1 3518   4.939   6.668   5.990
  873SOL    HW2 3519   4.840   6.539   5.974
  874SOL     OW 3520   6.150   4.184   6.483
  874SOL    HW1 3521   6.158   4.283   6.498
  874SOL    HW2 3522   6.201   4.135   6.553
  875SOL     OW 3523   5.716   5.251   1.095
  875SOL    HW1 3524   5.674   5.243   1.185
  875SOL    HW2 3525   5.671   5.188   1.031
  876SOL     OW 3526   0.551   5.479   2.078
  876SOL    HW1 3527   0.628   5.472   2.015
  876SOL    HW2 3528   0.479   5.535   2.037
  877SOL     OW 3529   2.943   4.704   6.887
  877SOL    HW1 3530   2.851   4.708   6.926
  877SOL    HW2 3531   2.939   4.720   6.789
  878SOL     OW 3532   4.335   6.685   4.355
  878SOL    HW1 3533   4.243   6.708   4.387
  878SOL    HW2 3534   4.386   6.769   4.337
  879SOL     OW 3535   3.768   0.361   1.638
  879SOL    HW1 3536   3.764   0.432   1.568
  879SOL    HW2 3537   3.795   0.402   1.726
  880SOL     OW 3538   3.344   4.084   3.763
  880SOL    HW1 3539   3.360   4.133   3.677
  880SOL    HW2 3540   3.361   3.986   3.749
  881SOL     OW 3541   4.452   2.568   5.104
  881SOL    HW1 3542   4.458   2.552   5.006
  881SOL    HW2 3543   4.356   2.577   5.131
  882SOL     OW 3544   0.979   3.460   4.655
  882SOL    HW1 3545   0.887   3.494   4.640
  882SOL    HW2 3546   1.041   3.536   4.674
  883SOL     OW 3547   2.817   0.641   2.511
  883SOL    HW1 3548   2.869   0.710   2.460
  883SOL    HW2 3549   2.774   0.579   2.446
  884SOL     OW 3550   5.045   2.906   5.573
  884SOL    HW1 3551   4.965   2.905   5.633
  884SOL    HW2 3552   5.017   2.926   5.480
  885SOL     OW 3553   3.055   1.251   5.850
  885SOL    HW1 3554   3.119   1.253   5.773
  885SOL    HW2 3555   3.042   1.156   5.880
  886SOL     OW 3556   3.589   0.530   0.135
  886SOL    HW1 3557   3.514   0.501   0.076
  886SOL    HW2 3558   3.670   0.549   0.079
  887SOL     OW 3559   4.165   6.899   4.187
  887SOL    HW1 3560   4.127   6.845   4.262
  887SOL    HW2 3561   4.094   6.919   4.120
  888SOL     OW 3562   0.610   6.015   2.783
  888SOL    HW1 3563   0.578   6.072   2.708
  888SOL    HW2 3564   0.602   5.919   2.758
  889SOL     OW 3565   0.614   3.933   0.681
  889SOL    HW1 3566   0.668   3.849   0.676
  889SOL    HW2 3567   0.675   4.011   0.695
  890SOL     OW 3568   1.945   4.994   3.760
  890SOL    HW1 3569   1.964   5.092   3.749
  890SOL    HW2 3570   1.922   4.955   3.671
  891SOL     OW 3571   5.626   5.636   0.500
  891SOL    HW1 3572   5.640   5.723   0.452
  891SOL    HW2 3573   5.580   5.653   0.587
  892SOL     OW 3574   2.739   3.841   5.680
  892SOL    HW1 3575   2.761   3.932   5.645
  892SOL    HW2 3576   2.672   3.797   5.621
  893SOL     OW 3577   2.644   6.907   3.002
  893SOL    HW1 3578   2.678   6.995   2.969
  893SOL    HW2 3579   2.700   6.876   3.079
  894SOL     OW 3580   0.897   3.288   1.460
  894SOL    HW1 3581   0.992   3.289   1.428
  894SOL    HW2 3582   0.870   3.380   1.488
  895SOL     OW 3583   0.571   4.123   3.083
  895SOL    HW1 3584   0.515   4.201   3.110
  895SOL    HW2 3585   0.518   4.062   3.024
  896SOL     OW 3586   6.081   4.799   0.344
  896SOL    HW1 3587   6.092   4.878   0.283
  896SOL    HW2 3588   5.992   4.804   0.388
  897SOL     OW 3589   4.748   1.450   0.091
  897SOL    HW1 3590   4.763   1.410   0.001
  897SOL    HW2 3591   4.837   1.471   0.133
  898SOL     OW 3592   3.324   6.210   2.563
  898SOL    HW1 3593   3.408   6.162   2.538
  898SOL    HW2 3594   3.248   6.145   2.565
  899SOL     OW 3595   0.134   6.037   6.637
  899SOL    HW1 3596   0.229   6.046   6.607
  899SOL    HW2 3597   0.107   6.119   6.686
  900SOL     OW 3598   6.254   6.672   0.418
  900SOL    HW1 3599   6.161   6.703   0.399
  900SOL    HW2 3600   6.314   6.751   0.431
  901SOL     OW 3601   2.261   1.046   3.036
  901SOL    HW1 3602   2.185   1.014   2.978
  901SOL    HW2 3603   2.252   1.145   3.050
  902SOL     OW 3604   6.944   2.947   0.662
  902SOL    HW1 3605   7.014   3.003   0.706
  902SOL    HW2 3606   6.948   2.854   0.699
  903SOL     OW 3607   6.648   2.151   6.621
  903SOL    HW1 3608   6.629   2.111   6.711
  903SOL    HW2 3609   6.562   2.181   6.580
  904SOL     OW 3610   2.903   2.137   3.397
  904SOL    HW1 3611   2.964   2.178   3.465
  904SOL    HW2 3612   2.826   2.199   3.380
  905SOL     OW 3613   4.854   2.254   0.082
  905SOL    HW1 3614   4.933   2.299   0.122
  905SOL    HW2 3615   4.791   2.323   0.046
  906SOL     OW 3616   0.308   2.225   5.815
  906SOL    HW1 3617   0.299   2.272   5.727
  906SOL    HW2 3618   0.224   2.174   5.834
  907SOL     OW 3619   5.169   3.641   0.090
  907SOL    HW1 3620   5.150   3.739   0.100
  907SOL    HW2 3621   5.096   3.588   0.135
  908SOL     OW 3622   2.730   5.012   2.818
  908SOL    HW1 3623   2.720   5.101   2.774
  908SOL    HW2 3624   2.792   4.955   2.766
  909SOL     OW 3625   4.378   5.793   0.754
  909SOL    HW1 3626   4.282   5.784   0.726
  909SOL    HW2 3627   4.422   5.703   0.753
  910SOL     OW 3628   3.050   2.914   1.336
  910SOL    HW1 3629   3.091   2.920   1.245
  910SOL    HW2 3630   3.084   2.832   1.382
  911SOL     OW 3631   1.147   6.038   6.847
  911SOL    HW1 3632   1.191   6.123   6.875
  911SOL    HW2 3633   1.055   6.033   6.886
  912SOL     OW 3634   5.637   2.170   2.892
  912SOL    HW1 3635   5.717   2.188   2.834
  912SOL    HW2 3636   5.597   2.257   2.920
  913SOL     OW 3637   4.764   6.068   2.832
  913SOL    HW1 3638   4.805   6.143   2.781
  913SOL    HW2 3639   4.765   6.088   2.929
  914SOL     OW 3640   1.674   0.385   6.261
  914SOL    HW1 3641   1.637   0.392   6.168
  914SOL    HW2 3642   1.687   0.289   6.284
  915SOL     OW 3643   6.019   4.295   6.237
  915SOL    HW1 3644   6.087   4.228   6.266
  915SOL    HW2 3645   6.026   4.311   6.139
  916SOL     OW 3646   1.513   2.682   1.746
  916SOL    HW1 3647   1.548   2.774   1.761
  916SOL    HW2 3648   1.424   2.688   1.701
  917SOL     OW 3649   6.863   6.223   0.757
  917SOL    HW1 3650   6.923   6.287   0.709
  917SOL    HW2 3651   6.768   6.253   0.746
  918SOL     OW 3652   2.781   0.054   0.477
  918SOL    HW1 3653   2.772   0.154   0.468
  918SOL    HW2 3654   2.815   0.031   0.568
  919SOL     OW 3655   5.320   1.231   3.013
  919SOL    HW1 3656   5.233   1.193   3.043
  919SOL    HW2 3657   5.396   1.180   3.054
  920SOL     OW 3658   1.983   4.830   1.794
  920SOL    HW1 3659   2.052   4.898   1.771
  920SOL    HW2 3660   2.026   4.741   1.806
  921SOL     OW 3661   4.835   5.496   4.538
  921SOL    HW1 3662   4.810   5.457   4.449
  921SOL    HW2 3663   4.809   5.433   4.611
  922SOL     OW 3664   3.642   3.526   4.400
  922SOL    HW1 3665   3.684   3.566   4.319
  922SOL    HW2 3666   3.563   3.471   4.373
  923SOL     OW 3667   2.241   2.826   6.001
  923SOL    HW1 3668   2.293   2.741   5.995
  923SOL    HW2 3669   2.241   2.872   5.912
  924SOL     OW 3670   6.252   3.781   2.043
  924SOL    HW1 3671   6.206   3.835   2.113
  924SOL    HW2 3672   6.302   3.706   2.085
  925SOL     OW 3673   6.628   2.425   0.146
  925SOL    HW1 3674   6.591   2.504   0.195
  925SOL    HW2 3675   6.726   2.418   0.164
  926SOL     OW 3676   7.000   1.672   0.991
  926SOL    HW1 3677   7.001   1.603   1.063
  926SOL    HW2 3678   6.925   1.736   1.008
  927SOL     OW 3679   5.946   3.929   3.398
  927SOL    HW1 3680   5.895   3.893   3.320
  927SOL    HW2 3681   5.885   3.982   3.456
  928SOL     OW 3682   2.692   6.294   0.526
  928SOL    HW1 3683   2.764   6.257   0.467
  928SOL    HW2 3684   2.652   6.220   0.580
  929SOL     OW 3685   6.870   1.051   0.054
  929SOL    HW1 3686   6.771   1.038   0.068
  929SOL    HW2 3687   6.906   0.976   7.025
  930SOL     OW 3688   4.144   5.507   6.499
  930SOL    HW1 3689   4.075   5.440   6.522
  930SOL    HW2 3690   4.222   5.461   6.456
  931SOL     OW 3691   6.376   2.220   3.849
  931SOL    HW1 3692   6.302   2.286   3.836
  931SOL    HW2 3693   6.338   2.133   3.883
  932SOL     OW 3694   3.518   1.392   3.796
  932SOL    HW1 3695   3.422   1.371   3.784
  932SOL    HW2 3696   3.573   1.344   3.728
  933SOL     OW 3697   1.514   4.577   2.818
  933SOL    HW1 3698   1.570   4.652   2.855
  933SOL    HW2 3699   1.540   4.560   2.723
  934SOL     OW 3700   2.550   6.039   6.187
  934SOL    HW1 3701   2.493   5.959   6.204
  934SOL    HW2 3702   2.544   6.101   6.265
  935SOL     OW 3703   5.306   3.819   3.188
  935SOL    HW1 3704   5.304   3.916   3.209
  935SOL    HW2 3705   5.215   3.789   3.159
  936SOL     OW 3706   1.435   0.009   6.029
  936SOL    HW1 3707   1.481   7.002   6.111
  936SOL    HW2 3708   1.390   6.958   5.983
  937SOL     OW 3709   4.742   1.303   5.726
  937SOL    HW1 3710   4.807   1.284   5.652
  937SOL    HW2 3711   4.682   1.378   5.698
  938SOL     OW 3712   6.914   6.065   3.894
  938SOL    HW1 3713   6.898   5.997   3.966
  938SOL    HW2 3714   6.987   6.127   3.924
  939SOL     OW 3715   6.823   6.879   4.718
  939SOL    HW1 3716   6.766   6.824   4.779
  939SOL    HW2 3717   6.899   6.823   4.685
  940SOL     OW 3718   0.878   4.816   1.027
  940SOL    HW1 3719   0.879   4.775   0.936
  940SOL    HW2 3720   0.802   4.778   1.080
  941SOL     OW 3721   4.920   0.163   6.605
  941SOL    HW1 3722   4.937   0.252   6.562
  941SOL    HW2 3723   4.824   0.139   6.595
  942SOL     OW 3724   6.754   6.380   1.349
  942SOL    HW1 3725   6.750   6.302   1.287
  942SOL    HW2 3726   6.836   6.374   1.406
  943SOL     OW 3727   2.789   5.145   2.574
  943SOL    HW1 3728   2.885   5.124   2.559
  943SOL    HW2 3729   2.761   5.220   2.515
  944SOL     OW 3730   0.423   5.976   4.416
  944SOL    HW1 3731   0.416   5.964   4.515
  944SOL    HW2 3732   0.468   6.063   4.396
  945SOL     OW 3733   0.782   5.233   5.238
  945SOL    HW1 3734   0.705   5.295   5.228
  945SOL    HW2 3735   0.781   5.166   5.163
  946SOL     OW 3736   5.105   4.655   4.406
  946SOL    HW1 3737   5.110   4.753   4.388
  946SOL    HW2 3738   5.192   4.612   4.381
  947SOL     OW 3739   3.986   3.275   3.757
  947SOL    HW1 3740   3.954   3.192   3.711
  947SOL    HW2 3741   4.042   3.250   3.836
  948SOL     OW 3742   4.920   1.204   2.647
  948SOL    HW1 3743   4.878   1.117   2.669
  948SOL    HW2 3744   4.917   1.218   2.548
  949SOL     OW 3745   2.933   6.668   0.294
  949SOL    HW1 3746   2.983   6.584   0.316
  949SOL    HW2 3747   2.899   6.709   0.378
  950SOL     OW 3748   6.222   5.745   1.967
  950SOL    HW1 3749   6.249   5.649   1.975
  950SOL    HW2 3750   6.266   5.798   2.039
  951SOL     OW 3751   1.645   0.213   3.574
  951SOL    HW1 3752   1.577   0.279   3.606
  951SOL    HW2 3753   1.736   0.242   3.601
  952SOL     OW 3754   4.096   1.792   2.450
  952SOL    HW1 3755   4.043   1.819   2.369
  952SOL    HW2 3756   4.179   1.847   2.454
  953SOL     OW 3757   6.899   6.135   4.816
  953SOL    HW1 3758   6.932   6.090   4.733
  953SOL    HW2 3759   6.971   6.194   4.852
  954SOL     OW 3760   4.613   5.404   2.286
  954SOL    HW1 3761   4.691   5.408   2.348
  954SOL    HW2 3762   4.641   5.436   2.195
  955SOL     OW 3763   1.720   4.238   0.186
  955SOL    HW1 3764   1.790   4.190   0.239
  955SOL    HW2 3765   1.725   4.337   0.205
  956SOL     OW 3766   0.380   1.103   1.107
  956SOL    HW1 3767   0.443   1.133   1.178
  956SOL    HW2 3768   0.426   1.103   1.018
  957SOL     OW 3769   6.233   1.239   2.130
  957SOL    HW1 3770   6.158   1.258   2.067
  957SOL    HW2 3771   6.220   1.290   2.215
  958SOL     OW 3772   5.054   6.516   1.894
  958SOL    HW1 3773   5.037   6.419   1.911
  958SOL    HW2 3774   5.012   6.571   1.967
  959SOL     OW 3775   3.557   6.728   4.635
  959SOL    HW1 3776   3.478   6.787   4.614
  959SOL    HW2 3777   3.580   6.737   4.732
  960SOL     OW 3778   0.913   0.629   0.877
  960SOL    HW1 3779   0.875   0.682   0.954
  960SOL    HW2 3780   0.855   0.642   0.796
  961SOL     OW 3781   3.115   6.633   3.242
  961SOL    HW1 3782   3.210   6.660   3.254
  961SOL    HW2 3783   3.101   6.600   3.148
  962SOL     OW 3784   6.307   6.735   4.976
  962SOL    HW1 3785   6.327   6.776   4.887
  962SOL    HW2 3786   6.388   6.741   5.035
  963SOL     OW 3787   4.837   1.948   1.364
  963SOL    HW1 3788   4.859   1.990   1.276
  963SOL    HW2 3789   4.739   1.935   1.371
  964SOL     OW 3790   5.025   4.742   4.905
  964SOL    HW1 3791   5.000   4.815   4.968
  964SOL    HW2 3792   4.942   4.691   4.878
  965SOL     OW 3793   5.488   2.311   2.335
  965SOL    HW1 3794   5.501   2.289   2.238
  965SOL    HW2 3795   5.486   2.227   2.389
  966SOL     OW 3796   4.911   1.967   3.738
  966SOL    HW1 3797   4.972   2.044   3.756
  966SOL    HW2 3798   4.860   1.983   3.653
  967SOL     OW 3799   4.214   4.664   5.989
  967SOL    HW1 3800   4.187   4.567   5.987
  967SOL    HW2 3801   4.204   4.699   6.082
  968SOL     OW 3802   3.373   0.227   2.057
  968SOL    HW1 3803   3.415   0.172   1.984
  968SOL    HW2 3804   3.425   0.312   2.068
  969SOL     OW 3805   3.453   5.312   6.277
  969SOL    HW1 3806   3.548   5.308   6.247
  969SOL    HW2 3807   3.394   5.335   6.199
  970SOL     OW 3808   6.348   0.732   5.297
  970SOL    HW1 3809   6.438   0.698   5.268
  970SOL    HW2 3810   6.278   0.698   5.235
  971SOL     OW 3811   6.830   4.273   2.880
  971SOL    HW1 3812   6.765   4.336   2.838
  971SOL    HW2 3813   6.910   4.323   2.912
  972SOL     OW 3814   6.744   2.605   1.027
  972SOL    HW1 3815   6.651   2.607   0.988
  972SOL    HW2 3816   6.800   2.540   0.976
  973SOL     OW 3817   0.491   4.326   5.982
  973SOL    HW1 3818   0.569   4.347   6.042
  973SOL    HW2 3819   0.520   4.263   5.910
  974SOL     OW 3820   0.498   4.872   3.637
  974SOL    HW1 3821   0.583   4.875   3.584
  974SOL    HW2 3822   0.421   4.897   3.578
  975SOL     OW 3823   2.077   6.903   1.589
  975SOL    HW1 3824   2.053   6.901   1.492
  975SOL    HW2 3825   2.114   6.993   1.612
  976SOL     OW 3826   6.368   4.207   1.775
  976SOL    HW1 3827   6.356   4.115   1.739
  976SOL    HW2 3828   6.397   4.202   1.871
  977SOL     OW 3829   1.029   1.494   2.228
  977SOL    HW1 3830   1.082   1.555   2.170
  977SOL    HW2 3831   0.943   1.471   2.183
  978SOL     OW 3832   5.784   2.045   1.878
  978SOL    HW1 3833   5.751   2.131   1.841
  978SOL    HW2 3834   5.884   2.041   1.869
  979SOL     OW 3835   7.016   3.145   6.410
  979SOL    HW1 3836   0.017   3.230   6.456
  979SOL    HW2 3837   6.952   3.094   6.469
  980SOL     OW 3838   4.237   1.246   4.927
  980SOL    HW1 3839   4.208   1.322   4.870
  980SOL    HW2 3840   4.199   1.256   5.019
  981SOL     OW 3841   6.974   0.083   4.757
  981SOL    HW1 3842   0.016   0.010   4.767
  981SOL    HW2 3843   6.891   0.047   4.715
  982SOL     OW 3844   0.497   1.941   5.230
  982SOL    HW1 3845   0.585   1.905   5.259
  982SOL    HW2 3846   0.450   1.981   5.308
  983SOL     OW 3847   6.861   3.669   3.231
  983SOL    HW1 3848   6.829   3.580   3.263
  983SOL    HW2 3849   6.790   3.738   3.248
  984SOL     OW 3850   1.821   2.231   3.175
  984SOL    HW1 3851   1.734   2.192   3.144
  984SOL    HW2 3852   1.809   2.328   3.196
  985SOL     OW 3853   5.969   3.629   3.735
  985SOL    HW1 3854   6.055   3.669   3.702
  985SOL    HW2 3855   5.904   3.702   3.755
  986SOL     OW 3856   4.844   4.084   1.482
  986SOL    HW1 3857   4.758   4.033   1.475
  986SOL    HW2 3858   4.913   4.042   1.424
  987SOL     OW 3859   5.556   6.047   3.492
  987SOL    HW1 3860   5.492   5.993   3.437
  987SOL    HW2 3861   5.533   6.144   3.485
  988SOL     OW 3862   3.621   3.845   1.737
  988SOL    HW1 3863   3.632   3.852   1.837
  988SOL    HW2 3864   3.524   3.850   1.714
  989SOL     OW 3865   6.886   2.569   0.589
  989SOL    HW1 3866   6.909   2.473   0.605
  989SOL    HW2 3867   6.936   2.627   0.654
  990SOL     OW 3868   3.375   0.766   3.062
  990SOL    HW1 3869   3.314   0.835   3.023
  990SOL    HW2 3870   3.352   0.676   3.025
  991SOL     OW 3871   6.594   4.141   3.955
  991SOL    HW1 3872   6.676   4.191   3.984
  991SOL    HW2 3873   6.616   4.086   3.874
  992SOL     OW 3874   0.842   2.830   1.259
  992SOL    HW1 3875   0.907   2.834   1.335
  992SOL    HW2 3876   0.833   2.920   1.217
  993SOL     OW 3877   1.235   4.237   1.279
  993SOL    HW1 3878   1.255   4.139   1.274
  993SOL    HW2 3879   1.320   4.289   1.267
  994SOL     OW 3880   3.829   6.372   1.430
  994SOL    HW1 3881   3.729   6.375   1.440
  994SOL    HW2 3882   3.872   6.402   1.515
  995SOL     OW 3883   4.881   3.590   5.813
  995SOL    HW1 3884   4.892   3.491   5.811
  995SOL    HW2 3885   4.788   3.614   5.786
  996SOL     OW 3886   4.382   6.199   5.726
  996SOL    HW1 3887   4.321   6.143   5.670
  996SOL    HW2 3888   4.456   6.142   5.762
  997SOL     OW 3889   1.556   6.574   3.333
  997SOL    HW1 3890   1.512   6.484   3.334
  997SOL    HW2 3891   1.622   6.580   3.408
  998SOL     OW 3892   6.226   0.148   6.262
  998SOL    HW1 3893   6.170   0.068   6.283
  998SOL    HW2 3894   6.217   0.215   6.336
  999SOL     OW 3895   4.738   3.368   1.228
  999SOL    HW1 3896   4.791   3.386   1.311
  999SOL    HW2 3897   4.645   3.401   1.241
 1000SOL     OW 3898   4.116   1.306   0.989
 1000SOL    HW1 3899   4.096   1.404   0.990
 1000SOL    HW2 3900   4.099   1.270   0.898
 1001SOL     OW 3901   2.611   6.557   2.028
 1001SOL    HW1 3902   2.632   6.590   1.936
 1001SOL    HW2 3903   2.595   6.459   2.025
 1002SOL     OW 3904   4.890   2.466   1.994
 1002SOL    HW1 3905   4.897   2.562   2.023
 1002SOL    HW2 3906   4.969   2.415   2.029
 1003SOL     OW 3907   1.517   5.910   2.631
 1003SOL    HW1 3908   1.574   5.909   2.549
 1003SOL    HW2 3909   1.468   5.996   2.637
 1004SOL     OW 3910   6.680   1.291   2.807
 1004SOL    HW1 3911   6.692   1.315   2.710
 1004SOL    HW2 3912   6.594   1.330   2.840
 1005SOL     OW 3913   1.752   4.360   4.162
 1005SOL    HW1 3914   1.850   4.346   4.178
 1005SOL    HW2 3915   1.728   4.329   4.071
 1006SOL     OW 3916   2.247   4.127   0.506
 1006SOL    HW1 3917   2.215   4.074   0.427
 1006SOL    HW2 3918   2.308   4.070   0.561
 1007SOL     OW 3919   4.507   1.741   6.861
 1007SOL    HW1 3920   4.475   1.652   6.830
 1007SOL    HW2 3921   4.605   1.749   6.845
 1008SOL     OW 3922   0.810   4.428   5.113
 1008SOL    HW1 3923   0.904   4.423   5.147
 1008SOL    HW2 3924   0.808   4.405   5.016
 1009SOL     OW 3925   5.915   4.960   5.226
 1009SOL    HW1 3926   5.858   5.000   5.298
 1009SOL    HW2 3927   6.004   4.936   5.264
 1010SOL     OW 3928   1.959   2.900   1.679
 1010SOL    HW1 3929   1.909   2.884   1.594
 1010SOL    HW2 3930   2.055   2.874   1.666
 1011SOL     OW 3931   1.166   5.249   2.820
 1011SOL    HW1 3932   1.134   5.225   2.729
 1011SOL    HW2 3933   1.103   5.315   2.862
 1012SOL     OW 3934   6.407   0.125   2.312
 1012SOL    HW1 3935   6.462   0.204   2.340
 1012SOL    HW2 3936   6.410   0.055   2.382
 1013SOL     OW 3937   6.773   0.900   6.267
 1013SOL    HW1 3938   6.760   0.984   6.215
 1013SOL    HW2 3939   6.744   0.914   6.362
 1014SOL     OW 3940   1.358   4.622   4.020
 1014SOL    HW1 3941   1.309   4.591   4.102
 1014SOL    HW2 3942   1.456   4.613   4.034
 1015SOL     OW 3943   2.847   0.289   6.346
 1015SOL    HW1 3944   2.939   0.296   6.308
 1015SOL    HW2 3945   2.830   0.195   6.376
 1016SOL     OW 3946   5.220   4.109   1.473
 1016SOL    HW1 3947   5.219   4.193   1.527
 1016SOL    HW2 3948   5.133   4.099   1.425
 1017SOL     OW 3949   2.420   1.450   1.957
 1017SOL    HW1 3950   2.385   1.485   1.870
 1017SOL    HW2 3951   2.432   1.525   2.021
 1018SOL     OW 3952   0.146   4.646   3.518
 1018SOL    HW1 3953   0.218   4.596   3.567
 1018SOL    HW2 3954   0.186   4.720   3.465
 1019SOL     OW 3955   6.594   5.178   0.709
 1019SOL    HW1 3956   6.663   5.247   0.730
 1019SOL    HW2 3957   6.618   5.092   0.753
 1020SOL     OW 3958   6.981   0.619   1.615
 1020SOL    HW1 3959   7.007   0.685   1.544
 1020SOL    HW2 3960   6.885   0.592   1.601
 1021SOL     OW 3961   6.385   5.883   2.154
 1021SOL    HW1 3962   6.484   5.892   2.158
 1021SOL    HW2 3963   6.348   5.877   2.247
 1022SOL     OW 3964   2.770   6.046   6.029
 1022SOL    HW1 3965   2.692   6.045   6.092
 1022SOL    HW2 3966   2.792   6.140   6.003
 1023SOL     OW 3967   6.793   0.959   2.635
 1023SOL    HW1 3968   6.865   1.029   2.640
 1023SOL    HW2 3969   6.805   0.894   2.710
 1024SOL     OW 3970   0.869   1.128   4.734
 1024SOL    HW1 3971   0.936   1.115   4.807
 1024SOL    HW2 3972   0.792   1.182   4.769
 1025SOL     OW 3973   5.326   3.316   6.729
 1025SOL    HW1 3974   5.259   3.296   6.659
 1025SOL    HW2 3975   5.282   3.365   6.805
 1026SOL     OW 3976   3.181   2.423   1.709
 1026SOL    HW1 3977   3.203   2.327   1.724
 1026SOL    HW2 3978   3.097   2.446   1.759
 1027SOL     OW 3979   1.377   6.195   1.646
 1027SOL    HW1 3980   1.430   6.134   1.588
 1027SOL    HW2 3981   1.292   6.150   1.673
 1028SOL     OW 3982   1.217   5.993   3.421
 1028SOL    HW1 3983   1.315   6.012   3.410
 1028SOL    HW2 3984   1.191   5.917   3.361
 1029SOL     OW 3985   1.236   2.022   5.729
 1029SOL    HW1 3986   1.210   2.065   5.816
 1029SOL    HW2 3987   1.153   2.005   5.675
 1030SOL     OW 3988   3.259   3.160   1.783
 1030SOL    HW1 3989   3.256   3.241   1.724
 1030SOL    HW2 3990   3.193   3.171   1.858
 1031SOL     OW 3991   3.568   3.278   1.630
 1031SOL    HW1 3992   3.553   3.205   1.697
 1031SOL    HW2 3993   3.499   3.349   1.643
 1032SOL     OW 3994   2.186   1.287   5.499
 1032SOL    HW1 3995   2.095   1.250   5.482
 1032SOL    HW2 3996   2.250   1.250   5.432
 1033SOL     OW 3997   1.441   5.817   2.261
 1033SOL    HW1 3998   1.353   5.853   2.293
 1033SOL    HW2 3999   1.465   5.859   2.174
 1034SOL     OW 4000   3.395   6.426   4.500
 1034SOL    HW1 4001   3.360   6.342   4.460
 1034SOL    HW2 4002   3.323   6.470   4.554
 1035SOL     OW 4003   0.594   2.518   5.899
 1035SOL    HW1 4004   0.652   2.494   5.821
 1035SOL    HW2 4005   0.648   2.571   5.965
 1036SOL     OW 4006   5.056   1.248   1.270
 1036SOL    HW1 4007   5.142   1.197   1.260
 1036SOL    HW2 4008   4.982   1.184   1.288
 1037SOL     OW 4009   2.019   2.366   2.737
 1037SOL    HW1 4010   2.026   2.362   2.637
 1037SOL    HW2 4011   1.988   2.457   2.764
 1038SOL     OW 4012   2.095   0.782   6.830
 1038SOL    HW1 4013   2.024   0.761   6.898
 1038SOL    HW2 4014   2.084   0.877   6.799
 1039SOL     OW 4015   3.215   3.096   3.657
 1039SOL    HW1 4016   3.196   3.048   3.743
 1039SOL    HW2 4017   3.179   3.189   3.661
 1040SOL     OW 4018   5.174   0.856   3.387
 1040SOL    HW1 4019   5.193   0.951   3.412
 1040SOL    HW2 4020   5.075   0.840   3.390
 1041SOL     OW 4021   6.681   6.688   4.478
 1041SOL    HW1 4022   6.644   6.750   4.409
 1041SOL    HW2 4023   6.767   6.650   4.445
 1042SOL     OW 4024   4.615   4.983   2.519
 1042SOL    HW1 4025   4.527   4.947   2.548
 1042SOL    HW2 4026   4.689   4.927   2.556
 1043SOL     OW 4027   3.538   1.278   3.494
 1043SOL    HW1 4028   3.472   1.323   3.434
 1043SOL    HW2 4029   3.615   1.244   3.440
 1044SOL     OW 4030   6.122   5.330   1.336
 1044SOL    HW1 4031   6.052   5.386   1.292
 1044SOL    HW2 4032   6.094   5.234   1.336
 1045SOL     OW 4033   2.484   0.181   3.518
 1045SOL    HW1 4034   2.488   0.170   3.418
 1045SOL    HW2 4035   2.555   0.125   3.560
 1046SOL     OW 4036   2.649   1.186   1.413
 1046SOL    HW1 4037   2.679   1.109   1.356
 1046SOL    HW2 4038   2.727   1.220   1.466
 1047SOL     OW 4039   3.740   6.469   3.872
 1047SOL    HW1 4040   3.795   6.550   3.853
 1047SOL    HW2 4041   3.646   6.485   3.841
 1048SOL     OW 4042   2.569   6.224   1.944
 1048SOL    HW1 4043   2.533   6.130   1.945
 1048SOL    HW2 4044   2.605   6.246   2.035
 1049SOL     OW 4045   4.409   6.961   4.425
 1049SOL    HW1 4046   4.314   6.983   4.447
 1049SOL    HW2 4047   4.467   6.980   4.504
 1050SOL     OW 4048   4.039   5.019   3.218
 1050SOL    HW1 4049   3.974   5.095   3.205
 1050SOL    HW2 4050   3.991   4.941   3.259
 1051SOL     OW 4051   6.859   6.578   0.531
 1051SOL    HW1 4052   6.809   6.496   0.502
 1051SOL    HW2 4053   6.806   6.660   0.507
 1052SOL     OW 4054   3.999   0.433   6.050
 1052SOL    HW1 4055   3.902   0.449   6.035
 1052SOL    HW2 4056   4.029   0.354   5.996
 1053SOL     OW 4057   5.454   3.752   1.985
 1053SOL    HW1 4058   5.431   3.836   1.936
 1053SOL    HW2 4059   5.416   3.756   2.078
 1054SOL     OW 4060   2.960   3.840   0.705
 1054SOL    HW1 4061   2.913   3.779   0.641
 1054SOL    HW2 4062   2.976   3.792   0.791
 1055SOL     OW 4063   5.233   5.587   6.652
 1055SOL    HW1 4064   5.219   5.499   6.698
 1055SOL    HW2 4065   5.152   5.644   6.663
 1056SOL     OW 4066   1.888   3.948   0.750
 1056SOL    HW1 4067   1.969   3.909   0.708
 1056SOL    HW2 4068   1.861   3.892   0.829
 1057SOL     OW 4069   3.424   1.479   1.973
 1057SOL    HW1 4070   3.513   1.493   1.929
 1057SOL    HW2 4071   3.426   1.394   2.025
 1058SOL     OW 4072   3.737   2.055   2.900
 1058SOL    HW1 4073   3.734   1.959   2.926
 1058SOL    HW2 4074   3.809   2.102   2.951
 1059SOL     OW 4075   2.096   6.469   1.714
 1059SOL    HW1 4076   2.174   6.465   1.651
 1059SOL    HW2 4077   2.129   6.489   1.806
 1060SOL     OW 4078   0.171   5.625   4.294
 1060SOL    HW1 4079   0.089   5.632   4.351
 1060SOL    HW2 4080   0.250   5.608   4.352
 1061SOL     OW 4081   6.469   4.328   6.852
 1061SOL    HW1 4082   6.431   4.280   6.932
 1061SOL    HW2 4083   6.422   4.298   6.769
 1062SOL     OW 4084   4.198   6.297   4.961
 1062SOL    HW1 4085   4.237   6.379   4.919
 1062SOL    HW2 4086   4.101   6.292   4.940
 1063SOL     OW 4087   0.969   6.784   5.949
 1063SOL    HW1 4088   1.048   6.827   5.994
 1063SOL    HW2 4089   0.964   6.815   5.854
 1064SOL     OW 4090   0.774   4.618   1.616
 1064SOL    HW1 4091   0.724   4.548   1.565
 1064SOL    HW2 4092   0.713   4.695   1.635
 1065SOL     OW 4093   3.843   1.121   3.861
 1065SOL    HW1 4094   3.780   1.111   3.783
 1065SOL    HW2 4095   3.800   1.084   3.943
 1066SOL     OW 4096   4.708   6.713   2.572
 1066SOL    HW1 4097   4.729   6.771   2.651
 1066SOL    HW2 4098   4.794   6.678   2.533
 1067SOL     OW 4099   2.568   1.304   0.232
 1067SOL    HW1 4100   2.513   1.382   0.261
 1067SOL    HW2 4101   2.508   1.233   0.194
 1068SOL     OW 4102   6.413   3.818   1.052
 1068SOL    HW1 4103   6.470   3.881   0.999
 1068SOL    HW2 4104   6.317   3.846   1.044
 1069SOL     OW 4105   5.817   4.676   0.724
 1069SOL    HW1 4106   5.815   4.605   0.654
 1069SOL    HW2 4107   5.833   4.634   0.813
 1070SOL     OW 4108   1.981   0.105   2.524
 1070SOL    HW1 4109   1.886   0.073   2.524
 1070SOL    HW2 4110   1.987   0.194   2.479
 1071SOL     OW 4111   0.122   2.026   4.916
 1071SOL    HW1 4112   0.109   1.942   4.863
 1071SOL    HW2 4113   0.220   2.041   4.931
 1072SOL     OW 4114   2.468   0.738   1.513
 1072SOL    HW1 4115   2.410   0.693   1.581
 1072SOL    HW2 4116   2.452   0.837   1.514
 1073SOL     OW 4117   5.374   1.747   3.148
 1073SOL    HW1 4118   5.311   1.792   3.085
 1073SOL    HW2 4119   5.454   1.806   3.162
 1074SOL     OW 4120   2.921   5.285   2.324
 1074SOL    HW1 4121   2.994   5.287   2.392
 1074SOL    HW2 4122   2.933   5.206   2.264
 1075SOL     OW 4123   5.716   1.505   4.937
 1075SOL    HW1 4124   5.624   1.544   4.945
 1075SOL    HW2 4125   5.779   1.573   4.900
 1076SOL     OW 4126   2.158   3.991   5.264
 1076SOL    HW1 4127   2.224   4.009   5.192
 1076SOL    HW2 4128   2.065   3.990   5.226
 1077SOL     OW 4129   0.237   0.644   0.232
 1077SOL    HW1 4130   0.178   0.717   0.267
 1077SOL    HW2 4131   0.323   0.684   0.199
 1078SOL     OW 4132   6.471   6.668   3.765
 1078SOL    HW1 4133   6.379   6.665   3.804
 1078SOL    HW2 4134   6.478   6.744   3.702
 1079SOL     OW 4135   1.431   5.275   2.875
 1079SOL    HW1 4136   1.460   5.338   2.803
 1079SOL    HW2 4137   1.334   5.253   2.863
 1080SOL     OW 4138   2.173   5.798   5.281
 1080SOL    HW1 4139   2.217   5.845   5.205
 1080SOL    HW2 4140   2.135   5.711   5.249
 1081SOL     OW 4141   6.976   6.064   4.577
 1081SOL    HW1 4142   6.911   5.993   4.550
 1081SOL    HW2 4143   0.027   6.065   4.513
 1082SOL     OW 4144   6.146   0.981   5.642
 1082SOL    HW1 4145   6.140   0.897   5.588
 1082SOL    HW2 4146   6.083   0.975   5.719
 1083SOL     OW 4147   5.103   4.396   0.272
 1083SOL    HW1 4148   5.060   4.308   0.252
 1083SOL    HW2 4149   5.202   4.388   0.262
 1084SOL     OW 4150   6.183   0.061   6.788
 1084SOL    HW1 4151   6.232   0.058   6.875
 1084SOL    HW2 4152   6.118   7.011   6.783
 1085SOL     OW 4153   1.816   3.395   4.465
 1085SOL    HW1 4154   1.776   3.487   4.461
 1085SOL    HW2 4155   1.913   3.402   4.488
 1086SOL     OW 4156   6.426   4.448   6.217
 1086SOL    HW1 4157   6.499   4.509   6.189
 1086SOL    HW2 4158   6.357   4.443   6.145
 1087SOL     OW 4159   1.117   1.200   5.158
 1087SOL    HW1 4160   1.087   1.278   5.212
 1087SOL    HW2 4161   1.062   1.120   5.182
 1088SOL     OW 4162   0.463   5.265   3.672
 1088SOL    HW1 4163   0.513   5.195   3.622
 1088SOL    HW2 4164   0.440   5.231   3.764
 1089SOL     OW 4165   0.157   5.227   4.887
 1089SOL    HW1 4166   0.250   5.261   4.898
 1089SOL    HW2 4167   0.117   5.264   4.803
 1090SOL     OW 4168   5.777   2.020   4.108
 1090SOL    HW1 4169   5.844   2.083   4.149
 1090SOL    HW2 4170   5.720   1.981   4.180
 1091SOL     OW 4171   2.115   3.432   3.826
 1091SOL    HW1 4172   2.146   3.405   3.917
 1091SOL    HW2 4173   2.149   3.525   3.806
 1092SOL     OW 4174   0.804   5.112   1.407
 1092SOL    HW1 4175   0.887   5.163   1.385
 1092SOL    HW2 4176   0.810   5.075   1.499
 1093SOL     OW 4177   2.468   6.884   1.363
 1093SOL    HW1 4178   2.561   6.881   1.325
 1093SOL    HW2 4179   2.411   6.942   1.306
 1094SOL     OW 4180   0.873   6.516   2.896
 1094SOL    HW1 4181   0.960   6.560   2.920
 1094SOL    HW2 4182   0.809   6.524   2.973
 1095SOL     OW 4183   0.119   2.380   6.441
 1095SOL    HW1 4184   0.140   2.357   6.346
 1095SOL    HW2 4185   0.164   2.466   6.464
 1096SOL     OW 4186   2.757   5.690   0.884
 1096SOL    HW1 4187   2.742   5.595   0.910
 1096SOL    HW2 4188   2.854   5.712   0.891
 1097SOL     OW 4189   2.261   5.502   3.711
 1097SOL    HW1 4190   2.206   5.480   3.792
 1097SOL    HW2 4191   2.223   5.453   3.632
 1098SOL     OW 4192   5.918   4.079   6.550
 1098SOL    HW1 4193   5.988   4.144   6.520
 1098SOL    HW2 4194   5.913   4.003   6.485
 1099SOL     OW 4195   4.354   1.418   5.920
 1099SOL    HW1 4196   4.384   1.323   5.916
 1099SOL    HW2 4197   4.347   1.447   6.016
 1100SOL     OW 4198   4.074   1.310   3.855
 1100SOL    HW1 4199   4.012   1.235   3.833
 1100SOL    HW2 4200   4.161   1.296   3.807
 1101SOL     OW 4201   5.637   3.644   5.104
 1101SOL    HW1 4202   5.603   3.550   5.105
 1101SOL    HW2 4203   5.645   3.678   5.198
 1102SOL     OW 4204   2.448   1.000   4.438
 1102SOL    HW1 4205   2.432   1.091   4.398
 1102SOL    HW2 4206   2.513   1.009   4.514
 1103SOL     OW 4207   2.804   1.762   6.950
 1103SOL    HW1 4208   2.724   1.702   6.960
 1103SOL    HW2 4209   2.774   1.851   6.917
 1104SOL     OW 4210   1.014   4.174   3.418
 1104SOL    HW1 4211   1.011   4.273   3.402
 1104SOL    HW2 4212   0.958   4.152   3.498
 1105SOL     OW 4213   5.590   2.170   5.323
 1105SOL    HW1 4214   5.530   2.092   5.342
 1105SOL    HW2 4215   5.534   2.252   5.310
 1106SOL     OW 4216   0.855   1.636   0.348
 1106SOL    HW1 4217   0.925   1.652   0.279
 1106SOL    HW2 4218   0.800   1.557   0.321
 1107SOL     OW 4219   1.337   0.019   6.407
 1107SOL    HW1 4220   1.376   6.976   6.347
 1107SOL    HW2 4221   1.350   0.110   6.367
 1108SOL     OW 4222   3.530   6.443   4.223
 1108SOL    HW1 4223   3.483   6.471   4.306
 1108SOL    HW2 4224   3.601   6.377   4.246
 1109SOL     OW 4225   6.003   1.445   3.814
 1109SOL    HW1 4226   6.046   1.421   3.901
 1109SOL    HW2 4227   6.012   1.369   3.750
 1110SOL     OW 4228   3.469   1.143   3.043
 1110SOL    HW1 4229   3.515   1.122   3.129
 1110SOL    HW2 4230   3.420   1.229   3.051
 1111SOL     OW 4231   4.700   4.275   6.040
 1111SOL    HW1 4232   4.608   4.314   6.027
 1111SOL    HW2 4233   4.691   4.182   6.076
 1112SOL     OW 4234   6.341   6.888   3.252
 1112SOL    HW1 4235   6.372   6.835   3.174
 1112SOL    HW2 4236   6.257   6.847   3.289
 1113SOL     OW 4237   6.561   3.783   2.460
 1113SOL    HW1 4238   6.567   3.686   2.485
 1113SOL    HW2 4239   6.468   3.804   2.430
 1114SOL     OW 4240   3.801   2.559   5.918
 1114SOL    HW1 4241   3.762   2.642   5.959
 1114SOL    HW2 4242   3.899   2.556   5.937
 1115SOL     OW 4243   3.411   4.419   5.715
 1115SOL    HW1 4244   3.495   4.391   5.669
 1115SOL    HW2 4245   3.349   4.341   5.722
 1116SOL     OW 4246   5.231   0.939   0.129
 1116SOL    HW1 4247   5.179   0.888   0.061
 1116SOL    HW2 4248   5.240   1.034   0.100
 1117SOL     OW 4249   1.335   2.311   1.251
 1117SOL    HW1 4250   1.316   2.309   1.153
 1117SOL    HW2 4251   1.276   2.246   1.298
 1118SOL     OW 4252   2.712   5.952   6.575
 1118SOL    HW1 4253   2.791   5.896   6.599
 1118SOL    HW2 4254   2.722   5.986   6.482
 1119SOL     OW 4255   4.452   4.727   2.786
 1119SOL    HW1 4256   4.542   4.762   2.814
 1119SOL    HW2 4257   4.420   4.780   2.707
 1120SOL     OW 4258   6.321   5.716   1.323
 1120SOL    HW1 4259   6.386   5.745   1.394
 1120SOL    HW2 4260   6.364   5.646   1.265
 1121SOL     OW 4261   0.676   5.566   4.437
 1121SOL    HW1 4262   0.597   5.602   4.387
 1121SOL    HW2 4263   0.714   5.488   4.387
 1122SOL     OW 4264   5.622   3.065   1.995
 1122SOL    HW1 4265   5.648   2.970   1.976
 1122SOL    HW2 4266   5.705   3.121   2.002
 1123SOL     OW 4267   4.615   2.044   3.089
 1123SOL    HW1 4268   4.593   2.076   3.182
 1123SOL    HW2 4269   4.530   2.029   3.039
 1124SOL     OW 4270   1.530   3.028   4.927
 1124SOL    HW1 4271   1.530   3.109   4.868
 1124SOL    HW2 4272   1.467   2.960   4.890
 1125SOL     OW 4273   1.614   3.551   4.998
 1125SOL    HW1 4274   1.636   3.606   5.078
 1125SOL    HW2 4275   1.585   3.610   4.923
 1126SOL     OW 4276   4.340   5.612   5.663
 1126SOL    HW1 4277   4.325   5.620   5.564
 1126SOL    HW2 4278   4.376   5.521   5.684
 1127SOL     OW 4279   5.244   6.359   3.802
 1127SOL    HW1 4280   5.293   6.324   3.882
 1127SOL    HW2 4281   5.235   6.286   3.734
 1128SOL     OW 4282   5.965   0.755   3.703
 1128SOL    HW1 4283   6.029   0.826   3.733
 1128SOL    HW2 4284   5.871   0.786   3.717
 1129SOL     OW 4285   1.743   6.862   0.787
 1129SOL    HW1 4286   1.829   6.831   0.747
 1129SOL    HW2 4287   1.693   6.783   0.823
 1130SOL     OW 4288   2.095   5.374   2.366
 1130SOL    HW1 4289   2.071   5.320   2.285
 1130SOL    HW2 4290   2.096   5.314   2.446
 1131SOL     OW 4291   1.422   6.894   3.753
 1131SOL    HW1 4292   1.471   6.824   3.807
 1131SOL    HW2 4293   1.482   6.974   3.741
 1132SOL     OW 4294   4.705   0.835   2.491
 1132SOL    HW1 4295   4.786   0.869   2.443
 1132SOL    HW2 4296   4.703   0.736   2.486
 1133SOL     OW 4297   1.682   0.365   5.245
 1133SOL    HW1 4298   1.614   0.430   5.212
 1133SOL    HW2 4299   1.645   0.314   5.322
 1134SOL     OW 4300   4.927   6.688   2.063
 1134SOL    HW1 4301   4.939   6.780   2.024
 1134SOL    HW2 4302   4.848   6.688   2.124
 1135SOL     OW 4303   2.870   6.391   4.210
 1135SOL    HW1 4304   2.778   6.401   4.172
 1135SOL    HW2 4305   2.892   6.469   4.268
 1136SOL     OW 4306   3.008   6.345   2.801
 1136SOL    HW1 4307   2.995   6.347   2.702
 1136SOL    HW2 4308   2.919   6.351   2.847
 1137SOL     OW 4309   0.697   6.358   6.864
 1137SOL    HW1 4310   0.676   6.280   6.923
 1137SOL    HW2 4311   0.642   6.352   6.780
 1138SOL     OW 4312   1.645   3.040   5.597
 1138SOL    HW1 4313   1.613   3.037   5.502
 1138SOL    HW2 4314   1.738   3.003   5.601
 1139SOL     OW 4315   2.375   4.887   4.331
 1139SOL    HW1 4316   2.393   4.931   4.244
 1139SOL    HW2 4317   2.338   4.796   4.315
 1140SOL     OW 4318   1.768   1.212   1.587
 1140SOL    HW1 4319   1.829   1.162   1.526
 1140SOL    HW2 4320   1.779   1.178   1.680
 1141SOL     OW 4321   5.988   5.046   6.065
 1141SOL    HW1 4322   5.915   5.110   6.089
 1141SOL    HW2 4323   6.019   4.998   6.148
 1142SOL     OW 4324   2.672   0.052   3.697
 1142SOL    HW1 4325   2.706   6.986   3.676
 1142SOL    HW2 4326   2.749   0.115   3.706
 1143SOL     OW 4327   1.169   3.750   1.903
 1143SOL    HW1 4328   1.132   3.742   1.996
 1143SOL    HW2 4329   1.159   3.663   1.855
 1144SOL     OW 4330   5.355   4.284   2.835
 1144SOL    HW1 4331   5.404   4.235   2.763
 1144SOL    HW2 4332   5.298   4.355   2.793
 1145SOL     OW 4333   1.382   2.657   0.822
 1145SOL    HW1 4334   1.380   2.562   0.790
 1145SOL    HW2 4335   1.320   2.668   0.899
 1146SOL     OW 4336   0.615   1.831   1.473
 1146SOL    HW1 4337   0.595   1.899   1.402
 1146SOL    HW2 4338   0.692   1.774   1.444
 1147SOL     OW 4339   2.944   5.547   1.198
 1147SOL    HW1 4340   2.977   5.456   1.226
 1147SOL    HW2 4341   2.887   5.585   1.271
 1148SOL     OW 4342   4.167   6.618   2.048
 1148SOL    HW1 4343   4.100   6.682   2.011
 1148SOL    HW2 4344   4.219   6.578   1.973
 1149SOL     OW 4345   6.390   2.915   1.853
 1149SOL    HW1 4346   6.340   2.985   1.803
 1149SOL    HW2 4347   6.327   2.842   1.881
 1150SOL     OW 4348   1.030   4.640   0.108
 1150SOL    HW1 4349   0.969   4.562   0.124
 1150SOL    HW2 4350   1.106   4.610   0.050
 1151SOL     OW 4351   6.341   5.216   3.872
 1151SOL    HW1 4352   6.257   5.181   3.915
 1151SOL    HW2 4353   6.324   5.309   3.840
 1152SOL     OW 4354   4.651   0.395   0.546
 1152SOL    HW1 4355   4.595   0.398   0.628
 1152SOL    HW2 4356   4.606   0.338   0.477
 1153SOL     OW 4357   0.237   0.151   1.174
 1153SOL    HW1 4358   0.325   0.134   1.216
 1153SOL    HW2 4359   0.217   0.249   1.177
 1154SOL     OW 4360   1.292   3.579   2.299
 1154SOL    HW1 4361   1.283   3.504   2.364
 1154SOL    HW2 4362   1.385   3.580   2.262
 1155SOL     OW 4363   2.167   6.156   4.776
 1155SOL    HW1 4364   2.131   6.082   4.720
 1155SOL    HW2 4365   2.151   6.244   4.731
 1156SOL     OW 4366   4.355   1.595   4.943
 1156SOL    HW1 4367   4.416   1.544   4.883
 1156SOL    HW2 4368   4.340   1.687   4.905
 1157SOL     OW 4369   4.429   0.369   5.497
 1157SOL    HW1 4370   4.471   0.309   5.430
 1157SOL    HW2 4371   4.402   0.455   5.454
 1158SOL     OW 4372   4.926   6.074   4.299
 1158SOL    HW1 4373   4.857   6.087   4.227
 1158SOL    HW2 4374   4.945   5.976   4.308
 1159SOL     OW 4375   6.396   6.453   2.857
 1159SOL    HW1 4376   6.442   6.416   2.776
 1159SOL    HW2 4377   6.449   6.429   2.939
 1160SOL     OW 4378   4.193   6.710   1.190
 1160SOL    HW1 4379   4.148   6.701   1.279
 1160SOL    HW2 4380   4.131   6.679   1.118
 1161SOL     OW 4381   6.832   5.115   6.075
 1161SOL    HW1 4382   6.808   5.208   6.047
 1161SOL    HW2 4383   6.905   5.081   6.016
 1162SOL     OW 4384   2.013   2.648   5.900
 1162SOL    HW1 4385   2.061   2.697   5.972
 1162SOL    HW2 4386   2.071   2.642   5.819
 1163SOL     OW 4387   5.997   4.083   1.814
 1163SOL    HW1 4388   5.943   4.027   1.751
 1163SOL    HW2 4389   5.954   4.083   1.904
 1164SOL     OW 4390   5.319   2.624   4.581
 1164SOL    HW1 4391   5.226   2.656   4.596
 1164SOL    HW2 4392   5.371   2.693   4.531
 1165SOL     OW 4393   4.382   6.081   3.398
 1165SOL    HW1 4394   4.382   6.181   3.395
 1165SOL    HW2 4395   4.295   6.046   3.363
 1166SOL     OW 4396   1.783   6.315   6.692
 1166SOL    HW1 4397   1.862   6.279   6.741
 1166SOL    HW2 4398   1.800   6.410   6.666
 1167SOL     OW 4399   4.768   3.992   1.847
 1167SOL    HW1 4400   4.743   4.080   1.887
 1167SOL    HW2 4401   4.690   3.956   1.795
 1168SOL     OW 4402   5.779   2.302   2.522
 1168SOL    HW1 4403   5.768   2.400   2.509
 1168SOL    HW2 4404   5.822   2.262   2.440
 1169SOL     OW 4405   5.986   1.547   5.917
 1169SOL    HW1 4406   5.980   1.498   5.830
 1169SOL    HW2 4407   6.079   1.541   5.952
 1170SOL     OW 4408   4.503   0.107   2.756
 1170SOL    HW1 4409   4.495   0.139   2.850
 1170SOL    HW2 4410   4.518   0.008   2.755
 1171SOL     OW 4411   2.164   0.186   0.440
 1171SOL    HW1 4412   2.150   0.269   0.495
 1171SOL    HW2 4413   2.256   0.151   0.456
 1172SOL     OW 4414   5.126   3.166   0.540
 1172SOL    HW1 4415   5.124   3.150   0.441
 1172SOL    HW2 4416   5.073   3.249   0.561
 1173SOL     OW 4417   2.348   0.741   1.011
 1173SOL    HW1 4418   2.441   0.769   1.034
 1173SOL    HW2 4419   2.283   0.800   1.059
 1174SOL     OW 4420   3.752   3.646   1.562
 1174SOL    HW1 4421   3.752   3.722   1.627
 1174SOL    HW2 4422   3.846   3.628   1.532
 1175SOL     OW 4423   4.268   3.060   5.694
 1175SOL    HW1 4424   4.181   3.086   5.735
 1175SOL    HW2 4425   4.292   2.968   5.724
 1176SOL     OW 4426   4.680   3.236   6.076
 1176SOL    HW1 4427   4.760   3.296   6.083
 1176SOL    HW2 4428   4.667   3.189   6.163
 1177SOL     OW 4429   6.399   3.247   5.514
 1177SOL    HW1 4430   6.308   3.217   5.541
 1177SOL    HW2 4431   6.434   3.187   5.442
 1178SOL     OW 4432   2.582   3.617   0.728
 1178SOL    HW1 4433   2.590   3.529   0.681
 1178SOL    HW2 4434   2.574   3.601   0.826
 1179SOL     OW 4435   1.951   6.097   0.158
 1179SOL    HW1 4436   1.943   6.066   0.253
 1179SOL    HW2 4437   2.008   6.179   0.154
 1180SOL     OW 4438   3.084   5.834   2.662
 1180SOL    HW1 4439   3.094   5.816   2.760
 1180SOL    HW2 4440   3.071   5.748   2.613
 1181SOL     OW 4441   0.325   5.486   6.616
 1181SOL    HW1 4442   0.245   5.471   6.558
 1181SOL    HW2 4443   0.303   5.464   6.711
 1182SOL     OW 4444   4.070   5.780   3.128
 1182SOL    HW1 4445   4.062   5.716   3.205
 1182SOL    HW2 4446   4.032   5.738   3.045
 1183SOL     OW 4447   2.013   4.468   0.676
 1183SOL    HW1 4448   1.964   4.555   0.687
 1183SOL    HW2 4449   1.973   4.400   0.738
 1184SOL     OW 4450   0.403   0.309   4.564
 1184SOL    HW1 4451   0.485   0.254   4.552
 1184SOL    HW2 4452   0.427   0.406   4.561
 1185SOL     OW 4453   0.660   0.855   0.006
 1185SOL    HW1 4454   0.634   0.770   0.051
 1185SOL    HW2 4455   0.690   0.834   6.939
 1186SOL     OW 4456   4.960   5.484   4.887
 1186SOL    HW1 4457   5.059   5.493   4.900
 1186SOL    HW2 4458   4.940   5.401   4.836
 1187SOL     OW 4459   6.621   6.535   0.245
 1187SOL    HW1 4460   6.614   6.630   0.215
 1187SOL    HW2 4461   6.579   6.524   0.335
 1188SOL     OW 4462   3.575   6.003   5.484
 1188SOL    HW1 4463   3.516   5.930   5.451
 1188SOL    HW2 4464   3.519   6.074   5.528
 1189SOL     OW 4465   6.788   3.104   2.914
 1189SOL    HW1 4466   6.831   3.054   2.989
 1189SOL    HW2 4467   6.767   3.040   2.840
 1190SOL     OW 4468   2.424   6.437   3.458
 1190SOL    HW1 4469   2.497   6.370   3.465
 1190SOL    HW2 4470   2.392   6.462   3.550
 1191SOL     OW 4471   4.365   4.688   3.625
 1191SOL    HW1 4472   4.408   4.774   3.653
 1191SOL    HW2 4473   4.277   4.678   3.672
 1192SOL     OW 4474   3.890   5.266   3.204
 1192SOL    HW1 4475   3.978   5.310   3.189
 1192SOL    HW2 4476   3.827   5.293   3.130
 1193SOL     OW 4477   6.194   4.131   4.262
 1193SOL    HW1 4478   6.226   4.180   4.343
 1193SOL    HW2 4479   6.171   4.196   4.189
 1194SOL     OW 4480   5.513   6.685   1.648
 1194SOL    HW1 4481   5.421   6.690   1.610
 1194SOL    HW2 4482   5.581   6.705   1.577
 1195SOL     OW 4483   6.068   4.303   1.377
 1195SOL    HW1 4484   6.061   4.396   1.341
 1195SOL    HW2 4485   6.072   4.306   1.477
 1196SOL     OW 4486   0.097   5.974   2.988
 1196SOL    HW1 4487   0.149   5.908   3.042
 1196SOL    HW2 4488   0.023   6.012   3.043
 1197SOL     OW 4489   3.702   0.604   6.381
 1197SOL    HW1 4490   3.628   0.627   6.319
 1197SOL    HW2 4491   3.742   0.688   6.418
 1198SOL     OW 4492   1.205   3.058   1.913
 1198SOL    HW1 4493   1.112   3.024   1.901
 1198SOL    HW2 4494   1.211   3.110   1.998
 1199SOL     OW 4495   4.598   4.788   1.934
 1199SOL    HW1 4496   4.542   4.851   1.988
 1199SOL    HW2 4497   4.624   4.710   1.990
 1200SOL     OW 4498   3.378   3.750   3.034
 1200SOL    HW1 4499   3.356   3.744   2.937
 1200SOL    HW2 4500   3.293   3.744   3.087
 1201SOL     OW 4501   1.179   1.215   4.192
 1201SOL    HW1 4502   1.204   1.228   4.287
 1201SOL    HW2 4503   1.080   1.228   4.181
 1202SOL     OW 4504   0.819   5.793   6.625
 1202SOL    HW1 4505   0.766   5.734   6.564
 1202SOL    HW2 4506   0.914   5.761   6.628
 1203SOL     OW 4507   5.689   6.035   6.683
 1203SOL    HW1 4508   5.655   6.125   6.656
 1203SOL    HW2 4509   5.625   5.993   6.747
 1204SOL     OW 4510   2.506   0.044   0.970
 1204SOL    HW1 4511   2.546   0.105   0.902
 1204SOL    HW2 4512   2.451   7.000   0.924
 1205SOL     OW 4513   5.649   3.880   1.402
 1205SOL    HW1 4514   5.549   3.874   1.404
 1205SOL    HW2 4515   5.677   3.951   1.338
 1206SOL     OW 4516   3.189   2.798   5.325
 1206SOL    HW1 4517   3.216   2.707   5.294
 1206SOL    HW2 4518   3.226   2.867   5.263
 1207SOL     OW 4519   1.730   0.051   0.962
 1207SOL    HW1 4520   1.757   6.992   0.918
 1207SOL    HW2 4521   1.781   0.127   0.921
 1208SOL     OW 4522   3.050   3.834   0.369
 1208SOL    HW1 4523   3.146   3.835   0.397
 1208SOL    HW2 4524   2.993   3.807   0.447
 1209SOL     OW 4525   4.113   0.689   5.256
 1209SOL    HW1 4526   4.033   0.632   5.271
 1209SOL    HW2 4527   4.195   0.641   5.285
 1210SOL     OW 4528   2.611   0.341   3.070
 1210SOL    HW1 4529   2.547   0.362   3.144
 1210SOL    HW2 4530   2.596   0.405   2.994
 1211SOL     OW 4531   1.660   3.551   1.433
 1211SOL    HW1 4532   1.614   3.498   1.361
 1211SOL    HW2 4533   1.637   3.511   1.522
 1212SOL     OW 4534   0.014   0.524   6.448
 1212SOL    HW1 4535   6.962   0.509   6.508
 1212SOL    HW2 4536   0.066   0.439   6.438
 1213SOL     OW 4537   6.338   2.457   0.446
 1213SOL    HW1 4538   6.374   2.523   0.380
 1213SOL    HW2 4539   6.247   2.428   0.416
 1214SOL     OW 4540   6.835   3.063   0.252
 1214SOL    HW1 4541   6.892   3.143   0.267
 1214SOL    HW2 4542   6.798   3.030   0.339
 1215SOL     OW 4543   1.504   3.795   4.053
 1215SOL    HW1 4544   1.510   3.886   4.095
 1215SOL    HW2 4545   1.580   3.783   3.989
 1216SOL     OW 4546   4.772   0.978   0.787
 1216SOL    HW1 4547   4.793   1.064   0.741
 1216SOL    HW2 4548   4.675   0.977   0.813
 1217SOL     OW 4549   1.327   4.958   0.992
 1217SOL    HW1 4550   1.309   4.902   1.073
 1217SOL    HW2 4551   1.415   5.004   1.003
 1218SOL     OW 4552   1.659   4.847   4.602
 1218SOL    HW1 4553   1.751   4.863   4.566
 1218SOL    HW2 4554   1.655   4.877   4.697
 1219SOL     OW 4555   5.561   5.265   2.009
 1219SOL    HW1 4556   5.642   5.209   2.025
 1219SOL    HW2 4557   5.566   5.348   2.063
 1220SOL     OW 4558   0.722   5.332   3.519
 1220SOL    HW1 4559   0.792   5.403   3.525
 1220SOL    HW2 4560   0.766   5.243   3.501
 1221SOL     OW 4561   4.969   3.309   5.666
 1221SOL    HW1 4562   4.933   3.390   5.620
 1221SOL    HW2 4563   4.926   3.227   5.627
 1222SOL     OW 4564   5.950   6.628   6.874
 1222SOL    HW1 4565   6.034   6.667   6.837
 1222SOL    HW2 4566   5.948   6.530   6.855
 1223SOL     OW 4567   3.834   0.263   0.808
 1223SOL    HW1 4568   3.866   0.260   0.903
 1223SOL    HW2 4569   3.734   0.263   0.807
 1224SOL     OW 4570   2.317   6.210   0.727
 1224SOL    HW1 4571   2.298   6.125   0.677
 1224SOL    HW2 4572   2.256   6.216   0.806
 1225SOL     OW 4573   3.720   4.170   6.018
 1225SOL    HW1 4574   3.740   4.266   6.002
 1225SOL    HW2 4575   3.621   4.158   6.029
 1226SOL     OW 4576   2.647   4.842   0.888
 1226SOL    HW1 4577   2.570   4.781   0.907
 1226SOL    HW2 4578   2.722   4.821   0.951
 1227SOL     OW 4579   7.024   3.386   6.525
 1227SOL    HW1 4580   0.056   3.419   6.600
 1227SOL    HW2 4581   0.001   3.451   6.449
 1228SOL     OW 4582   4.202   3.126   6.377
 1228SOL    HW1 4583   4.266   3.177   6.320
 1228SOL    HW2 4584   4.161   3.187   6.444
 1229SOL     OW 4585   3.781   4.818   6.130
 1229SOL    HW1 4586   3.823   4.732   6.158
 1229SOL    HW2 4587   3.844   4.893   6.148
 1230SOL     OW 4588   4.435   0.877   4.426
 1230SOL    HW1 4589   4.472   0.887   4.518
 1230SOL    HW2 4590   4.507   0.888   4.358
 1231SOL     OW 4591   0.860   3.872   5.058
 1231SOL    HW1 4592   0.775   3.879   5.111
 1231SOL    HW2 4593   0.931   3.928   5.101
 1232SOL     OW 4594   1.200   1.849   5.287
 1232SOL    HW1 4595   1.167   1.906   5.211
 1232SOL    HW2 4596   1.290   1.883   5.316
 1233SOL     OW 4597   1.823   3.190   4.925
 1233SOL    HW1 4598   1.803   3.108   4.978
 1233SOL    HW2 4599   1.854   3.263   4.987
 1234SOL     OW 4600   6.612   4.259   4.472
 1234SOL    HW1 4601   6.647   4.183   4.416
 1234SOL    HW2 4602   6.564   4.221   4.551
 1235SOL     OW 4603   0.032   6.133   2.460
 1235SOL    HW1 4604   0.090   6.063   2.502
 1235SOL    HW2 4605   0.088   6.195   2.406
 1236SOL     OW 4606   5.566   1.232   6.499
 1236SOL    HW1 4607   5.562   1.304   6.568
 1236SOL    HW2 4608   5.479   1.183   6.496
 1237SOL     OW 4609   2.341   5.246   6.812
 1237SOL    HW1 4610   2.322   5.178   6.883
 1237SOL    HW2 4611   2.416   5.305   6.841
 1238SOL     OW 4612   1.902   1.138   1.039
 1238SOL    HW1 4613   1.947   1.203   1.101
 1238SOL    HW2 4614   1.969   1.102   0.974
 1239SOL     OW 4615   6.920   6.253   6.322
 1239SOL    HW1 4616   6.853   6.255   6.248
 1239SOL    HW2 4617   6.934   6.346   6.357
 1240SOL     OW 4618   5.794   5.969   2.026
 1240SOL    HW1 4619   5.892   5.976   2.009
 1240SOL    HW2 4620   5.749   6.053   1.995
 1241SOL     OW 4621   6.469   3.243   4.269
 1241SOL    HW1 4622   6.521   3.276   4.348
 1241SOL    HW2 4623   6.513   3.274   4.185
 1242SOL     OW 4624   1.594   3.573   0.365
 1242SOL    HW1 4625   1.548   3.536   0.446
 1242SOL    HW2 4626   1.601   3.672   0.372
 1243SOL     OW 4627   1.396   5.869   5.683
 1243SOL    HW1 4628   1.373   5.842   5.776
 1243SOL    HW2 4629   1.495   5.877   5.673
 1244SOL     OW 4630   0.328   6.470   3.027
 1244SOL    HW1 4631   0.413   6.420   3.043
 1244SOL    HW2 4632   0.330   6.513   2.937
 1245SOL     OW 4633   4.031   3.840   6.063
 1245SOL    HW1 4634   4.036   3.755   6.009
 1245SOL    HW2 4635   4.107   3.842   6.128
 1246SOL     OW 4636   2.213   6.820   1.981
 1246SOL    HW1 4637   2.114   6.829   1.972
 1246SOL    HW2 4638   2.240   6.835   2.077
 1247SOL     OW 4639   2.865   0.323   6.681
 1247SOL    HW1 4640   2.882   0.320   6.583
 1247SOL    HW2 4641   2.875   0.232   6.720
 1248SOL     OW 4642   1.713   6.654   3.830
 1248SOL    HW1 4643   1.618   6.657   3.860
 1248SOL    HW2 4644   1.772   6.633   3.908
 1249SOL     OW 4645   5.709   3.132   2.413
 1249SOL    HW1 4646   5.648   3.203   2.378
 1249SOL    HW2 4647   5.655   3.054   2.443
 1250SOL     OW 4648   0.987   4.559   4.370
 1250SOL    HW1 4649   1.015   4.655   4.368
 1250SOL    HW2 4650   0.888   4.553   4.383
 1251SOL     OW 4651   4.374   0.189   4.854
 1251SOL    HW1 4652   4.338   0.196   4.947
 1251SOL    HW2 4653   4.409   0.097   4.838
 1252SOL     OW 4654   3.542   3.846   5.927
 1252SOL    HW1 4655   3.553   3.795   5.841
 1252SOL    HW2 4656   3.606   3.811   5.995
 1253SOL     OW 4657   3.839   5.687   1.835
 1253SOL    HW1 4658   3.847   5.780   1.871
 1253SOL    HW2 4659   3.756   5.644   1.870
 1254SOL     OW 4660   6.293   2.645   2.551
 1254SOL    HW1 4661   6.293   2.549   2.523
 1254SOL    HW2 4662   6.209   2.666   2.600
 1255SOL     OW 4663   6.477   0.979   5.100
 1255SOL    HW1 4664   6.472   0.892   5.051
 1255SOL    HW2 4665   6.556   1.031   5.068
 1256SOL     OW 4666   6.866   7.001   3.022
 1256SOL    HW1 4667   6.804   0.054   3.021
 1256SOL    HW2 4668   6.957   0.005   3.050
 1257SOL     OW 4669   0.363   0.151   3.312
 1257SOL    HW1 4670   0.403   0.237   3.342
 1257SOL    HW2 4671   0.306   0.113   3.385
 1258SOL     OW 4672   0.741   5.705   3.272
 1258SOL    HW1 4673   0.788   5.663   3.350
 1258SOL    HW2 4674   0.642   5.689   3.280
 1259SOL     OW 4675   3.724   1.804   4.989
 1259SOL    HW1 4676   3.816   1.829   4.957
 1259SOL    HW2 4677   3.667   1.886   4.993
 1260SOL     OW 4678   0.901   1.719   6.977
 1260SOL    HW1 4679   0.811   1.680   6.998
 1260SOL    HW2 4680   0.968   1.684   0.017
 1261SOL     OW 4681   6.978   5.443   0.140
 1261SOL    HW1 4682   6.963   5.382   0.062
 1261SOL    HW2 4683   6.964   5.538   0.111
 1262SOL     OW 4684   5.512   5.575   2.140
 1262SOL    HW1 4685   5.437   5.636   2.119
 1262SOL    HW2 4686   5.599   5.618   2.114
 1263SOL     OW 4687   0.615   1.538   2.287
 1263SOL    HW1 4688   0.625   1.638   2.296
 1263SOL    HW2 4689   0.520   1.517   2.264
 1264SOL     OW 4690   0.916   3.882   5.465
 1264SOL    HW1 4691   0.829   3.879   5.514
 1264SOL    HW2 4692   0.992   3.882   5.530
 1265SOL     OW 4693   6.492   5.553   4.450
 1265SOL    HW1 4694   6.494   5.454   4.462
 1265SOL    HW2 4695   6.545   5.578   4.369
 1266SOL     OW 4696   0.798   0.921   4.536
 1266SOL    HW1 4697   0.822   0.982   4.611
 1266SOL    HW2 4698   0.802   0.826   4.568
 1267SOL     OW 4699   4.999   0.368   1.845
 1267SOL    HW1 4700   5.072   0.428   1.877
 1267SOL    HW2 4701   4.930   0.358   1.916
 1268SOL     OW 4702   4.314   2.430   5.576
 1268SOL    HW1 4703   4.223   2.433   5.617
 1268SOL    HW2 4704   4.381   2.462   5.642
 1269SOL     OW 4705   5.078   2.429   4.233
 1269SOL    HW1 4706   5.014   2.412   4.158
 1269SOL    HW2 4707   5.114   2.522   4.225
 1270SOL     OW 4708   2.164   4.866   2.849
 1270SOL    HW1 4709   2.257   4.867   2.887
 1270SOL    HW2 4710   2.166   4.825   2.757
 1271SOL     OW 4711   1.791   0.910   1.089
 1271SOL    HW1 4712   1.822   1.004   1.075
 1271SOL    HW2 4713   1.805   0.884   1.185
 1272SOL     OW 4714   6.462   3.671   6.730
 1272SOL    HW1 4715   6.477   3.768   6.712
 1272SOL    HW2 4716   6.549   3.627   6.750
 1273SOL     OW 4717   1.371   4.542   4.710
 1273SOL    HW1 4718   1.387   4.476   4.637
 1273SOL    HW2 4719   1.450   4.544   4.771
 1274SOL     OW 4720   0.471   4.571   1.782
 1274SOL    HW1 4721   0.422   4.555   1.867
 1274SOL    HW2 4722   0.434   4.513   1.709
 1275SOL     OW 4723   3.019   0.829   3.999
 1275SOL    HW1 4724   3.005   0.737   3.963
 1275SOL    HW2 4725   3.035   0.893   3.924
 1276SOL     OW 4726   5.687   4.628   3.758
 1276SOL    HW1 4727   5.681   4.559   3.829
 1276SOL    HW2 4728   5.719   4.714   3.797
 1277SOL     OW 4729   0.500   5.765   0.202
 1277SOL    HW1 4730   0.592   5.802   0.199
 1277SOL    HW2 4731   0.499   5.674   0.159
 1278SOL     OW 4732   1.624   6.832   3.224
 1278SOL    HW1 4733   1.585   6.742   3.242
 1278SOL    HW2 4734   1.640   6.878   3.311
 1279SOL     OW 4735   3.079   3.714   6.156
 1279SOL    HW1 4736   3.024   3.660   6.092
 1279SOL    HW2 4737   3.068   3.811   6.135
 1280SOL     OW 4738   3.751   1.014   4.110
 1280SOL    HW1 4739   3.739   0.928   4.159
 1280SOL    HW2 4740   3.789   1.083   4.171
 1281SOL     OW 4741   3.433   6.134   3.628
 1281SOL    HW1 4742   3.368   6.062   3.654
 1281SOL    HW2 4743   3.508   6.093   3.576
 1282SOL     OW 4744   6.611   3.065   0.948
 1282SOL    HW1 4745   6.587   3.106   0.860
 1282SOL    HW2 4746   6.688   3.113   0.989
 1283SOL     OW 4747   6.228   4.160   5.039
 1283SOL    HW1 4748   6.292   4.231   5.067
 1283SOL    HW2 4749   6.135   4.186   5.066
 1284SOL     OW 4750   3.855   1.215   1.051
 1284SOL    HW1 4751   3.951   1.242   1.046
 1284SOL    HW2 4752   3.849   1.119   1.078
 1285SOL     OW 4753   3.428   1.436   4.924
 1285SOL    HW1 4754   3.396   1.524   4.890
 1285SOL    HW2 4755   3.361   1.398   4.988
 1286SOL     OW 4756   5.105   3.085   1.571
 1286SOL    HW1 4757   5.069   3.014   1.511
 1286SOL    HW2 4758   5.035   3.111   1.638
 1287SOL     OW 4759   5.712   4.903   4.757
 1287SOL    HW1 4760   5.659   4.839   4.701
 1287SOL    HW2 4761   5.739   4.857   4.842
 1288SOL     OW 4762   4.675   4.506   6.542
 1288SOL    HW1 4763   4.691   4.566   6.620
 1288SOL    HW2 4764   4.647   4.560   6.463
 1289SOL     OW 4765   6.720   0.543   1.572
 1289SOL    HW1 4766   6.629   0.502   1.574
 1289SOL    HW2 4767   6.725   0.609   1.497
 1290SOL     OW 4768   1.522   0.701   0.406
 1290SOL    HW1 4769   1.585   0.752   0.463
 1290SOL    HW2 4770   1.534   0.603   0.422
 1291SOL     OW 4771   6.548   5.050   3.918
 1291SOL    HW1 4772   6.628   5.097   3.957
 1291SOL    HW2 4773   6.470   5.113   3.916
 1292SOL     OW 4774   0.233   5.486   2.872
 1292SOL    HW1 4775   0.191   5.470   2.783
 1292SOL    HW2 4776   0.162   5.500   2.941
 1293SOL     OW 4777   2.126   1.671   0.005
 1293SOL    HW1 4778   2.086   1.727   0.078
 1293SOL    HW2 4779   2.225   1.686   0.002
 1294SOL     OW 4780   1.933   4.711   6.318
 1294SOL    HW1 4781   1.992   4.704   6.398
 1294SOL    HW2 4782   1.988   4.711   6.234
 1295SOL     OW 4783   0.387   3.388   0.868
 1295SOL    HW1 4784   0.396   3.483   0.836
 1295SOL    HW2 4785   0.477   3.350   0.885
 1296SOL     OW 4786   5.162   0.186   5.649
 1296SOL    HW1 4787   5.148   0.153   5.556
 1296SOL    HW2 4788   5.202   0.113   5.705
 1297SOL     OW 4789   0.862   6.813   2.645
 1297SOL    HW1 4790   0.892   6.725   2.611
 1297SOL    HW2 4791   0.898   6.828   2.737
 1298SOL     OW 4792   5.285   6.096   3.031
 1298SOL    HW1 4793   5.374   6.081   3.074
 1298SOL    HW2 4794   5.298   6.109   2.932
 1299SOL     OW 4795   2.110   3.123   4.416
 1299SOL    HW1 4796   2.167   3.077   4.348
 1299SOL    HW2 4797   2.112   3.072   4.502
 1300SOL     OW 4798   2.010   3.543   0.859
 1300SOL    HW1 4799   1.962   3.494   0.786
 1300SOL    HW2 4800   2.095   3.495   0.881
 1301SOL     OW 4801   0.739   0.650   1.557
 1301SOL    HW1 4802   0.753   0.556   1.526
 1301SOL    HW2 4803   0.824   0.684   1.596
 1302SOL     OW 4804   5.639   0.711   5.478
 1302SOL    HW1 4805   5.589   0.704   5.564
 1302SOL    HW2 4806   5.737   0.701   5.496
 1303SOL     OW 4807   3.742   6.754   1.976
 1303SOL    HW1 4808   3.711   6.836   2.023
 1303SOL    HW2 4809   3.735   6.767   1.877
 1304SOL     OW 4810   1.002   1.432   0.994
 1304SOL    HW1 4811   0.959   1.357   1.044
 1304SOL    HW2 4812   1.072   1.394   0.932
 1305SOL     OW 4813   4.936   4.379   6.133
 1305SOL    HW1 4814   4.926   4.389   6.232
 1305SOL    HW2 4815   4.846   4.372   6.091
 1306SOL     OW 4816   1.020   6.098   4.909
 1306SOL    HW1 4817   0.971   6.181   4.938
 1306SOL    HW2 4818   1.032   6.100   4.809
 1307SOL     OW 4819   1.941   3.132   4.052
 1307SOL    HW1 4820   2.014   3.198   4.034
 1307SOL    HW2 4821   1.901   3.149   4.142
 1308SOL     OW 4822   6.357   6.019   6.485
 1308SOL    HW1 4823   6.264   6.054   6.475
 1308SOL    HW2 4824   6.364   5.969   6.571
 1309SOL     OW 4825   5.153   5.070   6.033
 1309SOL    HW1 4826   5.072   5.027   5.994
 1309SOL    HW2 4827   5.235   5.034   5.988
 1310SOL     OW 4828   0.765   3.816   3.998
 1310SOL    HW1 4829   0.807   3.841   3.911
 1310SOL    HW2 4830   0.757   3.717   4.004
 1311SOL     OW 4831   6.276   5.802   0.010
 1311SOL    HW1 4832   6.255   5.799   0.108
 1311SOL    HW2 4833   6.257   5.713   6.995
 1312SOL     OW 4834   1.114   1.052   5.615
 1312SOL    HW1 4835   1.032   1.097   5.651
 1312SOL    HW2 4836   1.098   0.953   5.613
 1313SOL     OW 4837   6.032   5.361   3.239
 1313SOL    HW1 4838   6.017   5.293   3.168
 1313SOL    HW2 4839   5.961   5.352   3.309
 1314SOL     OW 4840   2.955   1.761   4.494
 1314SOL    HW1 4841   2.903   1.779   4.577
 1314SOL    HW2 4842   3.051   1.743   4.518
 1315SOL     OW 4843   6.795   0.651   3.698
 1315SOL    HW1 4844   6.811   0.750   3.691
 1315SOL    HW2 4845   6.770   0.629   3.793
 1316SOL     OW 4846   3.989   0.105   5.596
 1316SOL    HW1 4847   4.042   0.190   5.594
 1316SOL    HW2 4848   3.907   0.118   5.652
 1317SOL     OW 4849   2.078   4.345   5.641
 1317SOL    HW1 4850   2.140   4.326   5.566
 1317SOL    HW2 4851   1.987   4.366   5.604
 1318SOL     OW 4852   2.125   2.956   6.912
 1318SOL    HW1 4853   2.104   2.972   7.008
 1318SOL    HW2 4854   2.040   2.953   6.859
 1319SOL     OW 4855   0.146   6.014   0.294
 1319SOL    HW1 4856   0.063   6.055   0.331
 1319SOL    HW2 4857   0.125   5.967   0.208
 1320SOL     OW 4858   3.022   2.796   6.632
 1320SOL    HW1 4859   2.957   2.771   6.703
 1320SOL    HW2 4860   3.078   2.717   6.608
 1321SOL     OW 4861   5.003   2.042   6.954
 1321SOL    HW1 4862   5.046   2.079   6.871
 1321SOL    HW2 4863   4.933   2.106   6.987
 1322SOL     OW 4864   3.260   1.266   5.632
 1322SOL    HW1 4865   3.340   1.249   5.575
 1322SOL    HW2 4866   3.215   1.350   5.603
 1323SOL     OW 4867   3.379   7.012   0.542
 1323SOL    HW1 4868   3.394   6.948   0.466
 1323SOL    HW2 4869   3.390   6.963   0.629
 1324SOL     OW 4870   1.135   3.911   0.341
 1324SOL    HW1 4871   1.061   3.869   0.393
 1324SOL    HW2 4872   1.174   3.844   0.277
 1325SOL     OW 4873   2.921   5.883   5.574
 1325SOL    HW1 4874   2.972   5.969   5.581
 1325SOL    HW2 4875   2.908   5.860   5.478
 1326SOL     OW 4876   4.842   4.405   5.006
 1326SOL    HW1 4877   4.909   4.402   5.080
 1326SOL    HW2 4878   4.850   4.323   4.950
 1327SOL     OW 4879   0.480   0.050   1.254
 1327SOL    HW1 4880   0.577   0.052   1.229
 1327SOL    HW2 4881   0.471   0.031   1.352
 1328SOL     OW 4882   1.250   3.337   5.996
 1328SOL    HW1 4883   1.200   3.362   6.079
 1328SOL    HW2 4884   1.199   3.267   5.946
 1329SOL     OW 4885   0.598   1.520   2.700
 1329SOL    HW1 4886   0.597   1.602   2.643
 1329SOL    HW2 4887   0.538   1.533   2.779
 1330SOL     OW 4888   0.106   1.997   1.168
 1330SOL    HW1 4889   0.097   1.961   1.075
 1330SOL    HW2 4890   0.151   1.929   1.226
 1331SOL     OW 4891   4.745   1.978   2.537
 1331SOL    HW1 4892   4.731   1.894   2.591
 1331SOL    HW2 4893   4.741   2.057   2.598
 1332SOL     OW 4894   1.793   0.481   0.511
 1332SOL    HW1 4895   1.833   0.393   0.539
 1332SOL    HW2 4896   1.783   0.540   0.591
 1333SOL     OW 4897   3.451   4.168   3.239
 1333SOL    HW1 4898   3.366   4.147   3.190
 1333SOL    HW2 4899   3.522   4.192   3.173
 1334SOL     OW 4900   6.991   1.928   3.220
 1334SOL    HW1 4901   0.016   1.842   3.231
 1334SOL    HW2 4902   0.007   1.983   3.149
 1335SOL     OW 4903   1.635   3.140   1.480
 1335SOL    HW1 4904   1.714   3.189   1.516
 1335SOL    HW2 4905   1.641   3.044   1.508
 1336SOL     OW 4906   3.810   1.150   5.528
 1336SOL    HW1 4907   3.751   1.193   5.596
 1336SOL    HW2 4908   3.756   1.125   5.448
 1337SOL     OW 4909   6.704   1.091   3.001
 1337SOL    HW1 4910   6.700   1.161   2.930
 1337SOL    HW2 4911   6.772   1.023   2.977
 1338SOL     OW 4912   6.151   3.839   3.940
 1338SOL    HW1 4913   6.159   3.775   3.864
 1338SOL    HW2 4914   6.191   3.927   3.914
 1339SOL     OW 4915   0.394   0.400   6.956
 1339SOL    HW1 4916   0.352   0.374   0.016
 1339SOL    HW2 4917   0.324   0.409   6.885
 1340SOL     OW 4918   4.728   1.701   2.132
 1340SOL    HW1 4919   4.801   1.767   2.149
 1340SOL    HW2 4920   4.660   1.740   2.070
 1341SOL     OW 4921   4.541   6.577   0.520
 1341SOL    HW1 4922   4.507   6.665   0.486
 1341SOL    HW2 4923   4.510   6.504   0.460
 1342SOL     OW 4924   3.169   5.617   0.814
 1342SOL    HW1 4925   3.144   5.621   0.911
 1342SOL    HW2 4926   3.246   5.555   0.802
 1343SOL     OW 4927   5.754   5.233   2.890
 1343SOL    HW1 4928   5.814   5.226   2.810
 1343SOL    HW2 4929   5.810   5.249   2.971
 1344SOL     OW 4930   0.449   6.434   4.338
 1344SOL    HW1 4931   0.378   6.370   4.371
 1344SOL    HW2 4932   0.422   6.470   4.249
 1345SOL     OW 4933   0.645   4.821   2.123
 1345SOL    HW1 4934   0.629   4.738   2.069
 1345SOL    HW2 4935   0.691   4.889   2.067
 1346SOL     OW 4936   2.032   5.284   5.803
 1346SOL    HW1 4937   2.035   5.357   5.872
 1346SOL    HW2 4938   2.110   5.222   5.818
 1347SOL     OW 4939   1.548   0.376   5.774
 1347SOL    HW1 4940   1.614   0.451   5.774
 1347SOL    HW2 4941   1.470   0.401   5.717
 1348SOL     OW 4942   0.512   5.815   5.459
 1348SOL    HW1 4943   0.610   5.834   5.467
 1348SOL    HW2 4944   0.475   5.792   5.549
 1349SOL     OW 4945   5.350   3.178   4.012
 1349SOL    HW1 4946   5.391   3.088   3.996
 1349SOL    HW2 4947   5.346   3.228   3.925
 1350SOL     OW 4948   3.631   4.205   0.317
 1350SOL    HW1 4949   3.721   4.233   0.284
 1350SOL    HW2 4950   3.566   4.209   0.241
 1351SOL     OW 4951   5.928   1.995   3.870
 1351SOL    HW1 4952   5.952   1.935   3.795
 1351SOL    HW2 4953   5.829   1.994   3.884
 1352SOL     OW 4954   0.139   0.183   2.094
 1352SOL    HW1 4955   0.098   0.260   2.143
 1352SOL    HW2 4956   0.104   0.180   2.001
 1353SOL     OW 4957   0.567   2.066   1.035
 1353SOL    HW1 4958   0.487   2.110   1.075
 1353SOL    HW2 4959   0.568   1.969   1.059
 1354SOL     OW 4960   6.845   4.162   2.033
 1354SOL    HW1 4961   6.789   4.242   2.012
 1354SOL    HW2 4962   6.871   4.165   2.130
 1355SOL     OW 4963   5.795   3.598   4.095
 1355SOL    HW1 4964   5.783   3.502   4.070
 1355SOL    HW2 4965   5.792   3.654   4.013
 1356SOL     OW 4966   3.690   3.125   2.390
 1356SOL    HW1 4967   3.611   3.167   2.347
 1356SOL    HW2 4968   3.758   3.196   2.413
 1357SOL     OW 4969   6.799   3.471   6.170
 1357SOL    HW1 4970   6.716   3.500   6.121
 1357SOL    HW2 4971   6.793   3.501   6.266
 1358SOL     OW 4972   6.583   0.202   0.096
 1358SOL    HW1 4973   6.509   0.268   0.102
 1358SOL    HW2 4974   6.547   0.115   0.063
 1359SOL     OW 4975   6.099   4.597   1.327
 1359SOL    HW1 4976   6.123   4.593   1.424
 1359SOL    HW2 4977   6.074   4.691   1.303
 1360SOL     OW 4978   3.659   3.388   0.224
 1360SOL    HW1 4979   3.641   3.447   0.303
 1360SOL    HW2 4980   3.584   3.323   0.213
 1361SOL     OW 4981   0.261   4.797   5.001
 1361SOL    HW1 4982   0.204   4.840   4.931
 1361SOL    HW2 4983   0.240   4.700   5.008
 1362SOL     OW 4984   4.114   3.384   2.685
 1362SOL    HW1 4985   4.120   3.482   2.669
 1362SOL    HW2 4986   4.062   3.340   2.611
 1363SOL     OW 4987   0.158   5.506   5.249
 1363SOL    HW1 4988   0.119   5.527   5.339
 1363SOL    HW2 4989   0.134   5.412   5.223
 1364SOL     OW 4990   4.222   4.671   6.678
 1364SOL    HW1 4991   4.128   4.699   6.697
 1364SOL    HW2 4992   4.284   4.745   6.701
 1365SOL     OW 4993   1.070   4.297   6.082
 1365SOL    HW1 4994   1.090   4.202   6.057
 1365SOL    HW2 4995   1.020   4.298   6.169
 1366SOL     OW 4996   1.912   0.314   5.027
 1366SOL    HW1 4997   1.920   0.214   5.034
 1366SOL    HW2 4998   1.835   0.344   5.084
 1367SOL     OW 4999   1.538   1.700   2.723
 1367SOL    HW1 5000   1.484   1.784   2.734
 1367SOL    HW2 5001   1.503   1.648   2.645
 1368SOL     OW 5002   5.501   6.866   4.237
 1368SOL    HW1 5003   5.527   6.800   4.167
 1368SOL    HW2 5004   5.410   6.843   4.273
 1369SOL     OW 5005   0.834   6.355   3.213
 1369SOL    HW1 5006   0.880   6.302   3.142
 1369SOL    HW2 5007   0.889   6.436   3.234
 1370SOL     OW 5008   3.195   0.423   1.504
 1370SOL    HW1 5009   3.188   0.468   1.593
 1370SOL    HW2 5010   3.104   0.421   1.461
 1371SOL     OW 5011   4.328   0.657   5.869
 1371SOL    HW1 5012   4.285   0.692   5.953
 1371SOL    HW2 5013   4.365   0.566   5.887
 1372SOL     OW 5014   2.198   2.227   1.187
 1372SOL    HW1 5015   2.218   2.286   1.264
 1372SOL    HW2 5016   2.272   2.233   1.120
 1373SOL     OW 5017   0.246   5.093   1.088
 1373SOL    HW1 5018   0.249   5.141   1.001
 1373SOL    HW2 5019   0.152   5.069   1.111
 1374SOL     OW 5020   3.890   2.082   1.283
 1374SOL    HW1 5021   3.855   2.098   1.375
 1374SOL    HW2 5022   3.958   2.152   1.260
 1375SOL     OW 5023   0.082   4.999   6.135
 1375SOL    HW1 5024   0.110   5.048   6.052
 1375SOL    HW2 5025   0.018   5.055   6.186
 1376SOL     OW 5026   4.879   3.053   3.564
 1376SOL    HW1 5027   4.925   3.118   3.624
 1376SOL    HW2 5028   4.819   2.994   3.618
 1377SOL     OW 5029   0.370   4.880   5.375
 1377SOL    HW1 5030   0.400   4.798   5.424
 1377SOL    HW2 5031   0.392   4.870   5.278
 1378SOL     OW 5032   1.161   2.552   6.875
 1378SOL    HW1 5033   1.253   2.524   6.848
 1378SOL    HW2 5034   1.117   2.600   6.798
 1379SOL     OW 5035   3.413   6.183   2.999
 1379SOL    HW1 5036   3.334   6.179   2.937
 1379SOL    HW2 5037   3.455   6.273   2.994
 1380SOL     OW 5038   6.373   6.963   2.779
 1380SOL    HW1 5039   6.353   0.020   2.831
 1380SOL    HW2 5040   6.383   6.886   2.842
 1381SOL     OW 5041   6.122   2.802   0.244
 1381SOL    HW1 5042   6.063   2.816   0.164
 1381SOL    HW2 5043   6.196   2.870   0.243
 1382SOL     OW 5044   5.524   5.038   6.044
 1382SOL    HW1 5045   5.490   5.078   5.960
 1382SOL    HW2 5046   5.611   5.081   6.069
 1383SOL     OW 5047   1.153   0.497   0.313
 1383SOL    HW1 5048   1.209   0.434   0.367
 1383SOL    HW2 5049   1.179   0.591   0.336
 1384SOL     OW 5050   4.204   1.423   3.054
 1384SOL    HW1 5051   4.248   1.457   2.971
 1384SOL    HW2 5052   4.249   1.460   3.134
 1385SOL     OW 5053   6.438   2.818   2.935
 1385SOL    HW1 5054   6.451   2.831   2.836
 1385SOL    HW2 5055   6.341   2.814   2.955
 1386SOL     OW 5056   2.140   2.959   4.637
 1386SOL    HW1 5057   2.221   2.909   4.607
 1386SOL    HW2 5058   2.116   2.931   4.730
 1387SOL     OW 5059   3.443   0.560   5.075
 1387SOL    HW1 5060   3.505   0.548   5.152
 1387SOL    HW2 5061   3.475   0.635   5.018
 1388SOL     OW 5062   6.488   0.894   3.976
 1388SOL    HW1 5063   6.509   0.882   3.879
 1388SOL    HW2 5064   6.559   0.850   4.031
 1389SOL     OW 5065   5.840   6.921   4.903
 1389SOL    HW1 5066   5.844   6.872   4.816
 1389SOL    HW2 5067   5.933   6.946   4.932
 1390SOL     OW 5068   4.134   1.489   1.682
 1390SOL    HW1 5069   4.048   1.454   1.719
 1390SOL    HW2 5070   4.205   1.486   1.752
 1391SOL     OW 5071   5.884   0.646   4.391
 1391SOL    HW1 5072   5.954   0.715   4.408
 1391SOL    HW2 5073   5.795   0.679   4.424
 1392SOL     OW 5074   5.022   5.796   6.675
 1392SOL    HW1 5075   5.015   5.801   6.775
 1392SOL    HW2 5076   4.932   5.775   6.637
 1393SOL     OW 5077   6.754   1.197   6.211
 1393SOL    HW1 5078   6.784   1.200   6.116
 1393SOL    HW2 5079   6.782   1.282   6.258
 1394SOL     OW 5080   4.367   6.984   3.383
 1394SOL    HW1 5081   4.358   6.886   3.368
 1394SOL    HW2 5082   4.336   7.007   3.475
 1395SOL     OW 5083   1.675   4.816   2.877
 1395SOL    HW1 5084   1.761   4.798   2.830
 1395SOL    HW2 5085   1.690   4.877   2.954
 1396SOL     OW 5086   2.667   1.085   4.598
 1396SOL    HW1 5087   2.630   1.174   4.571
 1396SOL    HW2 5088   2.687   1.085   4.696
 1397SOL     OW 5089   0.431   5.293   4.166
 1397SOL    HW1 5090   0.500   5.300   4.238
 1397SOL    HW2 5091   0.430   5.199   4.131
 1398SOL     OW 5092   0.685   1.655   1.081
 1398SOL    HW1 5093   0.740   1.670   0.999
 1398SOL    HW2 5094   0.739   1.678   1.162
 1399SOL     OW 5095   3.872   0.429   0.553
 1399SOL    HW1 5096   3.847   0.380   0.636
 1399SOL    HW2 5097   3.817   0.395   0.477
 1400SOL     OW 5098   6.248   0.253   3.993
 1400SOL    HW1 5099   6.160   0.297   4.011
 1400SOL    HW2 5100   6.250   0.163   4.035
 1401SOL     OW 5101   5.644   0.326   2.811
 1401SOL    HW1 5102   5.643   0.331   2.711
 1401SOL    HW2 5103   5.727   0.370   2.846
 1402SOL     OW 5104   5.819   3.650   1.718
 1402SOL    HW1 5105   5.881   3.590   1.667
 1402SOL    HW2 5106   5.869   3.731   1.749
 1403SOL     OW 5107   3.474   2.941   0.139
 1403SOL    HW1 5108   3.495   2.847   0.112
 1403SOL    HW2 5109   3.415   2.984   0.070
 1404SOL     OW 5110   4.330   6.947   1.124
 1404SOL    HW1 5111   4.264   6.874   1.106
 1404SOL    HW2 5112   4.339   6.959   1.223
 1405SOL     OW 5113   2.252   2.962   1.277
 1405SOL    HW1 5114   2.304   2.878   1.288
 1405SOL    HW2 5115   2.205   2.960   1.188
 1406SOL     OW 5116   2.893   3.441   1.129
 1406SOL    HW1 5117   2.887   3.341   1.120
 1406SOL    HW2 5118   2.919   3.465   1.222
 1407SOL     OW 5119   0.428   3.052   0.883
 1407SOL    HW1 5120   0.375   2.978   0.926
 1407SOL    HW2 5121   0.365   3.115   0.837
 1408SOL     OW 5122   5.937   5.980   6.564
 1408SOL    HW1 5123   5.854   6.007   6.613
 1408SOL    HW2 5124   5.915   5.905   6.501
 1409SOL     OW 5125   6.773   1.457   5.908
 1409SOL    HW1 5126   6.822   1.408   5.980
 1409SOL    HW2 5127   6.755   1.551   5.938
 1410SOL     OW 5128   3.690   2.186   6.261
 1410SOL    HW1 5129   3.733   2.213   6.175
 1410SOL    HW2 5130   3.663   2.089   6.256
 1411SOL     OW 5131   4.140   5.758   0.583
 1411SOL    HW1 5132   4.040   5.755   0.587
 1411SOL    HW2 5133   4.176   5.665   0.582
 1412SOL     OW 5134   1.688   2.693   0.666
 1412SOL    HW1 5135   1.636   2.610   0.686
 1412SOL    HW2 5136   1.786   2.673   0.667
 1413SOL     OW 5137   1.810   1.827   4.765
 1413SOL    HW1 5138   1.859   1.763   4.706
 1413SOL    HW2 5139   1.834   1.810   4.861
 1414SOL     OW 5140   1.066   3.700   2.201
 1414SOL    HW1 5141   1.135   3.642   2.244
 1414SOL    HW2 5142   1.054   3.783   2.255
 1415SOL     OW 5143   1.836   2.067   4.062
 1415SOL    HW1 5144   1.830   2.084   3.964
 1415SOL    HW2 5145   1.907   2.124   4.102
 1416SOL     OW 5146   4.206   0.000   5.379
 1416SOL    HW1 5147   4.138   7.021   5.452
 1416SOL    HW2 5148   4.160   0.002   5.290
 1417SOL     OW 5149   3.995   3.107   5.696
 1417SOL    HW1 5150   3.896   3.101   5.704
 1417SOL    HW2 5151   4.019   3.182   5.633
 1418SOL     OW 5152   3.616   4.334   6.378
 1418SOL    HW1 5153   3.676   4.335   6.299
 1418SOL    HW2 5154   3.581   4.426   6.395
 1419SOL     OW 5155   2.074   4.727   3.534
 1419SOL    HW1 5156   2.023   4.645   3.562
 1419SOL    HW2 5157   2.073   4.735   3.435
 1420SOL     OW 5158   3.405   5.914   3.036
 1420SOL    HW1 5159   3.354   5.880   3.115
 1420SOL    HW2 5160   3.396   6.013   3.030
 1421SOL     OW 5161   1.536   5.551   5.597
 1421SOL    HW1 5162   1.583   5.526   5.681
 1421SOL    HW2 5163   1.453   5.496   5.587
 1422SOL     OW 5164   2.479   3.518   5.777
 1422SOL    HW1 5165   2.436   3.472   5.700
 1422SOL    HW2 5166   2.574   3.541   5.754
 1423SOL     OW 5167   4.537   1.245   4.901
 1423SOL    HW1 5168   4.442   1.220   4.888
 1423SOL    HW2 5169   4.589   1.165   4.930
 1424SOL     OW 5170   5.732   2.661   6.723
 1424SOL    HW1 5171   5.785   2.583   6.758
 1424SOL    HW2 5172   5.644   2.628   6.689
 1425SOL     OW 5173   4.362   6.340   3.421
 1425SOL    HW1 5174   4.265   6.325   3.440
 1425SOL    HW2 5175   4.405   6.384   3.500
 1426SOL     OW 5176   2.916   2.498   6.917
 1426SOL    HW1 5177   2.832   2.457   6.882
 1426SOL    HW2 5178   2.941   2.576   6.861
 1427SOL     OW 5179   1.666   1.227   3.275
 1427SOL    HW1 5180   1.650   1.150   3.214
 1427SOL    HW2 5181   1.631   1.311   3.233
 1428SOL     OW 5182   0.082   3.838   3.665
 1428SOL    HW1 5183   0.027   3.896   3.724
 1428SOL    HW2 5184   0.059   3.742   3.680
 1429SOL     OW 5185   5.741   0.740   0.612
 1429SOL    HW1 5186   5.767   0.808   0.544
 1429SOL    HW2 5187   5.791   0.655   0.594
 1430SOL     OW 5188   2.136   3.765   3.289
 1430SOL    HW1 5189   2.164   3.777   3.384
 1430SOL    HW2 5190   2.181   3.834   3.232
 1431SOL     OW 5191   1.912   1.559   5.797
 1431SOL    HW1 5192   1.873   1.570   5.889
 1431SOL    HW2 5193   2.005   1.597   5.796
 1432SOL     OW 5194   2.929   1.817   2.215
 1432SOL    HW1 5195   2.972   1.822   2.125
 1432SOL    HW2 5196   2.996   1.841   2.286
 1433SOL     OW 5197   3.058   0.010   4.386
 1433SOL    HW1 5198   3.037   6.985   4.470
 1433SOL    HW2 5199   3.069   6.972   4.310
 1434SOL     OW 5200   0.205   3.315   0.174
 1434SOL    HW1 5201   0.236   3.248   0.107
 1434SOL    HW2 5202   0.234   3.406   0.145
 1435SOL     OW 5203   0.898   0.188   4.763
 1435SOL    HW1 5204   0.821   0.130   4.736
 1435SOL    HW2 5205   0.955   0.138   4.829
 1436SOL     OW 5206   5.755   1.743   0.853
 1436SOL    HW1 5207   5.818   1.678   0.810
 1436SOL    HW2 5208   5.707   1.697   0.927
 1437SOL     OW 5209   4.605   0.501   5.878
 1437SOL    HW1 5210   4.690   0.514   5.828
 1437SOL    HW2 5211   4.620   0.440   5.956
 1438SOL     OW 5212   2.513   0.531   1.785
 1438SOL    HW1 5213   2.522   0.612   1.842
 1438SOL    HW2 5214   2.488   0.453   1.842
 1439SOL     OW 5215   0.037   4.933   0.095
 1439SOL    HW1 5216   0.035   4.836   0.118
 1439SOL    HW2 5217   7.006   4.984   0.159
 1440SOL     OW 5218   2.936   3.325   3.539
 1440SOL    HW1 5219   2.863   3.390   3.517
 1440SOL    HW2 5220   2.948   3.321   3.638
 1441SOL     OW 5221   6.636   2.705   3.540
 1441SOL    HW1 5222   6.660   2.799   3.565
 1441SOL    HW2 5223   6.538   2.691   3.555
 1442SOL     OW 5224   4.996   4.542   0.476
 1442SOL    HW1 5225   5.029   4.498   0.392
 1442SOL    HW2 5226   4.896   4.551   0.472
 1443SOL     OW 5227   0.801   2.327   3.449
 1443SOL    HW1 5228   0.879   2.374   3.493
 1443SOL    HW2 5229   0.718   2.344   3.502
 1444SOL     OW 5230   4.442   0.919   3.516
 1444SOL    HW1 5231   4.401   0.968   3.440
 1444SOL    HW2 5232   4.473   0.984   3.586
 1445SOL     OW 5233   6.602   2.732   1.833
 1445SOL    HW1 5234   6.542   2.810   1.852
 1445SOL    HW2 5235   6.574   2.688   1.748
 1446SOL     OW 5236   3.746   1.648   1.217
 1446SOL    HW1 5237   3.840   1.614   1.222
 1446SOL    HW2 5238   3.722   1.691   1.304
 1447SOL     OW 5239   6.451   1.057   4.584
 1447SOL    HW1 5240   6.426   1.112   4.504
 1447SOL    HW2 5241   6.368   1.018   4.624
 1448SOL     OW 5242   5.312   0.954   6.603
 1448SOL    HW1 5243   5.297   1.016   6.526
 1448SOL    HW2 5244   5.265   0.867   6.584
 1449SOL     OW 5245   4.912   5.877   1.165
 1449SOL    HW1 5246   4.819   5.893   1.131
 1449SOL    HW2 5247   4.918   5.906   1.261
 1450SOL     OW 5248   5.755   2.713   2.859
 1450SOL    HW1 5249   5.792   2.764   2.936
 1450SOL    HW2 5250   5.655   2.718   2.862
 1451SOL     OW 5251   1.554   6.227   2.542
 1451SOL    HW1 5252   1.540   6.326   2.545
 1451SOL    HW2 5253   1.467   6.180   2.557
 1452SOL     OW 5254   4.957   0.942   5.544
 1452SOL    HW1 5255   4.938   1.040   5.548
 1452SOL    HW2 5256   4.887   0.892   5.595
 1453SOL     OW 5257   5.515   4.769   5.026
 1453SOL    HW1 5258   5.450   4.718   5.083
 1453SOL    HW2 5259   5.559   4.840   5.082
 1454SOL     OW 5260   4.777   3.565   1.554
 1454SOL    HW1 5261   4.811   3.480   1.595
 1454SOL    HW2 5262   4.855   3.621   1.525
 1455SOL     OW 5263   1.375   2.203   1.889
 1455SOL    HW1 5264   1.433   2.248   1.957
 1455SOL    HW2 5265   1.356   2.267   1.815
 1456SOL     OW 5266   5.998   6.587   4.204
 1456SOL    HW1 5267   6.027   6.570   4.110
 1456SOL    HW2 5268   6.064   6.647   4.249
 1457SOL     OW 5269   1.917   0.471   3.395
 1457SOL    HW1 5270   2.015   0.487   3.383
 1457SOL    HW2 5271   1.879   0.435   3.310
 1458SOL     OW 5272   5.731   5.831   6.266
 1458SOL    HW1 5273   5.804   5.814   6.332
 1458SOL    HW2 5274   5.742   5.770   6.187
 1459SOL     OW 5275   2.294   6.302   6.926
 1459SOL    HW1 5276   2.252   6.390   6.902
 1459SOL    HW2 5277   2.222   6.236   6.950
 1460SOL     OW 5278   1.381   0.250   6.763
 1460SOL    HW1 5279   1.343   0.271   6.853
 1460SOL    HW2 5280   1.380   0.151   6.749
 1461SOL     OW 5281   5.427   4.586   2.219
 1461SOL    HW1 5282   5.445   4.490   2.198
 1461SOL    HW2 5283   5.367   4.624   2.149
 1462SOL     OW 5284   5.651   1.247   6.952
 1462SOL    HW1 5285   5.617   1.192   0.002
 1462SOL    HW2 5286   5.659   1.342   6.981
 1463SOL     OW 5287   0.799   1.069   5.120
 1463SOL    HW1 5288   0.800   1.169   5.118
 1463SOL    HW2 5289   0.872   1.033   5.061
 1464SOL     OW 5290   0.008   6.529   0.955
 1464SOL    HW1 5291   0.072   6.601   0.981
 1464SOL    HW2 5292   0.039   6.441   0.992
 1465SOL     OW 5293   0.188   6.968   4.910
 1465SOL    HW1 5294   0.203   7.017   4.996
 1465SOL    HW2 5295   0.251   7.003   4.840
 1466SOL     OW 5296   5.611   4.959   2.996
 1466SOL    HW1 5297   5.642   4.962   3.091
 1466SOL    HW2 5298   5.633   5.046   2.952
 1467SOL     OW 5299   0.707   1.878   3.251
 1467SOL    HW1 5300   0.707   1.954   3.186
 1467SOL    HW2 5301   0.650   1.901   3.330
 1468SOL     OW 5302   5.308   5.988   3.343
 1468SOL    HW1 5303   5.215   5.971   3.374
 1468SOL    HW2 5304   5.310   6.071   3.286
 1469SOL     OW 5305   0.769   1.369   2.109
 1469SOL    HW1 5306   0.727   1.280   2.096
 1469SOL    HW2 5307   0.716   1.422   2.176
 1470SOL     OW 5308   0.746   1.125   2.847
 1470SOL    HW1 5309   0.801   1.130   2.930
 1470SOL    HW2 5310   0.794   1.171   2.772
 1471SOL     OW 5311   0.685   0.235   6.982
 1471SOL    HW1 5312   0.617   0.230   0.029
 1471SOL    HW2 5313   0.668   0.317   6.927
 1472SOL     OW 5314   4.901   0.459   5.899
 1472SOL    HW1 5315   4.867   0.541   5.946
 1472SOL    HW2 5316   4.991   0.478   5.860
 1473SOL     OW 5317   6.322   3.969   3.009
 1473SOL    HW1 5318   6.329   3.870   3.015
 1473SOL    HW2 5319   6.412   4.010   3.023
 1474SOL     OW 5320   4.798   5.416   4.301
 1474SOL    HW1 5321   4.761   5.327   4.274
 1474SOL    HW2 5322   4.774   5.484   4.232
 1475SOL     OW 5323   6.936   0.968   3.059
 1475SOL    HW1 5324   6.880   0.990   3.139
 1475SOL    HW2 5325   7.000   1.043   3.042
 1476SOL     OW 5326   0.022   1.999   2.039
 1476SOL    HW1 5327   0.096   2.048   2.085
 1476SOL    HW2 5328   7.004   2.059   1.972
 1477SOL     OW 5329   2.825   5.924   4.790
 1477SOL    HW1 5330   2.911   5.876   4.773
 1477SOL    HW2 5331   2.782   5.949   4.703
 1478SOL     OW 5332   6.427   4.300   0.456
 1478SOL    HW1 5333   6.329   4.317   0.453
 1478SOL    HW2 5334   6.473   4.361   0.392
 1479SOL     OW 5335   1.724   4.780   0.268
 1479SOL    HW1 5336   1.677   4.867   0.254
 1479SOL    HW2 5337   1.776   4.783   0.353
 1480SOL     OW 5338   2.691   1.124   0.447
 1480SOL    HW1 5339   2.640   1.196   0.399
 1480SOL    HW2 5340   2.788   1.133   0.428
 1481SOL     OW 5341   5.736   2.190   6.295
 1481SOL    HW1 5342   5.752   2.266   6.232
 1481SOL    HW2 5343   5.694   2.224   6.379
 1482SOL     OW 5344   6.016   0.346   6.497
 1482SOL    HW1 5345   5.919   0.368   6.508
 1482SOL    HW2 5346   6.061   0.345   6.586
 1483SOL     OW 5347   5.847   1.890   0.497
 1483SOL    HW1 5348   5.766   1.888   0.554
 1483SOL    HW2 5349   5.824   1.859   0.405
 1484SOL     OW 5350   6.599   5.418   3.158
 1484SOL    HW1 5351   6.519   5.472   3.131
 1484SOL    HW2 5352   6.570   5.326   3.186
 1485SOL     OW 5353   5.192   2.389   3.855
 1485SOL    HW1 5354   5.231   2.448   3.926
 1485SOL    HW2 5355   5.252   2.389   3.775
 1486SOL     OW 5356   4.410   2.135   2.499
 1486SOL    HW1 5357   4.441   2.097   2.411
 1486SOL    HW2 5358   4.482   2.122   2.567
 1487SOL     OW 5359   6.547   1.229   5.513
 1487SOL    HW1 5360   6.598   1.158   5.466
 1487SOL    HW2 5361   6.484   1.274   5.449
 1488SOL     OW 5362   4.680   1.773   2.760
 1488SOL    HW1 5363   4.751   1.704   2.745
 1488SOL    HW2 5364   4.669   1.788   2.858
 1489SOL     OW 5365   3.380   5.710   4.999
 1489SOL    HW1 5366   3.308   5.689   5.065
 1489SOL    HW2 5367   3.440   5.631   4.988
 1490SOL     OW 5368   1.387   2.758   0.410
 1490SOL    HW1 5369   1.313   2.824   0.395
 1490SOL    HW2 5370   1.475   2.801   0.390
 1491SOL     OW 5371   6.691   2.707   3.897
 1491SOL    HW1 5372   6.623   2.754   3.841
 1491SOL    HW2 5373   6.769   2.768   3.913
 1492SOL     OW 5374   5.159   2.103   1.438
 1492SOL    HW1 5375   5.169   2.186   1.494
 1492SOL    HW2 5376   5.124   2.029   1.495
 1493SOL     OW 5377   5.078   0.159   5.296
 1493SOL    HW1 5378   5.104   0.255   5.287
 1493SOL    HW2 5379   4.983   0.153   5.329
 1494SOL     OW 5380   4.257   2.423   5.874
 1494SOL    HW1 5381   4.322   2.495   5.899
 1494SOL    HW2 5382   4.305   2.336   5.867
 1495SOL     OW 5383   1.422   3.210   2.700
 1495SOL    HW1 5384   1.464   3.294   2.664
 1495SOL    HW2 5385   1.484   3.167   2.766
 1496SOL     OW 5386   0.596   6.876   2.616
 1496SOL    HW1 5387   0.693   6.854   2.624
 1496SOL    HW2 5388   0.584   6.975   2.626
 1497SOL     OW 5389   6.318   5.359   4.552
 1497SOL    HW1 5390   6.346   5.267   4.580
 1497SOL    HW2 5391   6.301   5.360   4.454
 1498SOL     OW 5392   2.169   5.862   0.130
 1498SOL    HW1 5393   2.169   5.843   0.228
 1498SOL    HW2 5394   2.106   5.937   0.111
 1499SOL     OW 5395   1.176   3.485   5.350
 1499SOL    HW1 5396   1.220   3.444   5.270
 1499SOL    HW2 5397   1.244   3.502   5.420
 1500SOL     OW 5398   4.974   6.490   6.850
 1500SOL    HW1 5399   5.027   6.416   6.809
 1500SOL    HW2 5400   4.876   6.470   6.842
 1501SOL     OW 5401   4.001   6.873   5.979
 1501SOL    HW1 5402   3.968   6.871   6.073
 1501SOL    HW2 5403   4.075   6.940   5.971
 1502SOL     OW 5404   6.500   6.465   0.525
 1502SOL    HW1 5405   6.419   6.411   0.501
 1502SOL    HW2 5406   6.472   6.557   0.551
 1503SOL     OW 5407   3.458   2.866   6.432
 1503SOL    HW1 5408   3.529   2.811   6.477
 1503SOL    HW2 5409   3.499   2.951   6.400
 1504SOL     OW 5410   3.494   6.261   4.793
 1504SOL    HW1 5411   3.553   6.307   4.728
 1504SOL    HW2 5412   3.423   6.211   4.744
 1505SOL     OW 5413   5.920   5.728   6.444
 1505SOL    HW1 5414   6.008   5.682   6.458
 1505SOL    HW2 5415   5.846   5.664   6.462
 1506SOL     OW 5416   0.820   6.248   4.461
 1506SOL    HW1 5417   0.727   6.255   4.499
 1506SOL    HW2 5418   0.820   6.183   4.386
 1507SOL     OW 5419   1.980   1.272   5.059
 1507SOL    HW1 5420   2.026   1.355   5.029
 1507SOL    HW2 5421   2.038   1.193   5.039
 1508SOL     OW 5422   4.936   6.766   0.829
 1508SOL    HW1 5423   4.890   6.855   0.825
 1508SOL    HW2 5424   5.035   6.780   0.828
 1509SOL     OW 5425   4.421   3.148   0.326
 1509SOL    HW1 5426   4.407   3.147   0.425
 1509SOL    HW2 5427   4.409   3.241   0.291
 1510SOL     OW 5428   6.644   1.798   3.812
 1510SOL    HW1 5429   6.697   1.839   3.738
 1510SOL    HW2 5430   6.636   1.863   3.887
 1511SOL     OW 5431   2.697   2.946   0.536
 1511SOL    HW1 5432   2.768   2.876   0.535
 1511SOL    HW2 5433   2.740   3.036   0.534
 1512SOL     OW 5434   0.126   1.076   1.628
 1512SOL    HW1 5435   0.060   1.009   1.593
 1512SOL    HW2 5436   0.211   1.030   1.650
 1513SOL     OW 5437   3.489   0.677   3.506
 1513SOL    HW1 5438   3.563   0.722   3.456
 1513SOL    HW2 5439   3.403   0.724   3.487
 1514SOL     OW 5440   6.015   1.551   4.667
 1514SOL    HW1 5441   6.022   1.579   4.571
 1514SOL    HW2 5442   6.016   1.451   4.672
 1515SOL     OW 5443   0.020   4.738   4.763
 1515SOL    HW1 5444   0.093   4.792   4.721
 1515SOL    HW2 5445   0.021   4.646   4.725
 1516SOL     OW 5446   0.398   1.803   0.866
 1516SOL    HW1 5447   0.440   1.717   0.836
 1516SOL    HW2 5448   0.404   1.809   0.965
 1517SOL     OW 5449   4.575   5.628   3.531
 1517SOL    HW1 5450   4.645   5.623   3.461
 1517SOL    HW2 5451   4.531   5.718   3.529
 1518SOL     OW 5452   7.000   4.191   0.890
 1518SOL    HW1 5453   6.958   4.118   0.944
 1518SOL    HW2 5454   0.041   4.240   0.946
 1519SOL     OW 5455   5.918   4.130   0.021
 1519SOL    HW1 5456   6.009   4.171   0.029
 1519SOL    HW2 5457   5.905   4.095   6.955
 1520SOL     OW 5458   1.771   3.721   3.040
 1520SOL    HW1 5459   1.859   3.694   3.000
 1520SOL    HW2 5460   1.752   3.817   3.018
 1521SOL     OW 5461   2.650   3.878   6.582
 1521SOL    HW1 5462   2.707   3.859   6.663
 1521SOL    HW2 5463   2.619   3.973   6.585
 1522SOL     OW 5464   5.779   1.635   6.777
 1522SOL    HW1 5465   5.765   1.611   6.873
 1522SOL    HW2 5466   5.865   1.596   6.745
 1523SOL     OW 5467   6.583   2.591   1.590
 1523SOL    HW1 5468   6.578   2.588   1.490
 1523SOL    HW2 5469   6.634   2.512   1.624
 1524SOL     OW 5470   6.908   0.943   2.004
 1524SOL    HW1 5471   6.872   0.981   1.919
 1524SOL    HW2 5472   7.006   0.961   2.010
 1525SOL     OW 5473   4.889   2.243   6.341
 1525SOL    HW1 5474   4.872   2.338   6.365
 1525SOL    HW2 5475   4.832   2.184   6.398
 1526SOL     OW 5476   6.868   2.711   1.878
 1526SOL    HW1 5477   6.846   2.778   1.948
 1526SOL    HW2 5478   6.784   2.677   1.836
 1527SOL     OW 5479   3.381   1.926   5.680
 1527SOL    HW1 5480   3.382   1.941   5.581
 1527SOL    HW2 5481   3.291   1.946   5.717
 1528SOL     OW 5482   4.655   6.073   3.761
 1528SOL    HW1 5483   4.683   5.985   3.799
 1528SOL    HW2 5484   4.555   6.076   3.753
 1529SOL     OW 5485   3.354   0.345   6.046
 1529SOL    HW1 5486   3.349   0.405   5.966
 1529SOL    HW2 5487   3.415   0.385   6.114
 1530SOL     OW 5488   3.650   6.564   2.235
 1530SOL    HW1 5489   3.721   6.529   2.174
 1530SOL    HW2 5490   3.584   6.491   2.255
 1531SOL     OW 5491   6.115   6.961   4.988
 1531SOL    HW1 5492   6.153   6.870   5.005
 1531SOL    HW2 5493   6.165   0.002   5.042
 1532SOL     OW 5494   3.254   2.231   5.410
 1532SOL    HW1 5495   3.252   2.299   5.484
 1532SOL    HW2 5496   3.236   2.278   5.323
 1533SOL     OW 5497   6.372   3.024   6.592
 1533SOL    HW1 5498   6.360   3.082   6.672
 1533SOL    HW2 5499   6.413   3.077   6.518
 1534SOL     OW 5500   0.381   6.290   1.468
 1534SOL    HW1 5501   0.354   6.384   1.447
 1534SOL    HW2 5502   0.321   6.252   1.538
 1535SOL     OW 5503   4.345   4.601   4.284
 1535SOL    HW1 5504   4.317   4.677   4.226
 1535SOL    HW2 5505   4.349   4.631   4.380
 1536SOL     OW 5506   2.839   5.581   5.084
 1536SOL    HW1 5507   2.869   5.569   5.178
 1536SOL    HW2 5508   2.897   5.528   5.023
 1537SOL     OW 5509   1.721   5.465   4.686
 1537SOL    HW1 5510   1.623   5.484   4.689
 1537SOL    HW2 5511   1.745   5.424   4.598
 1538SOL     OW 5512   2.246   5.453   6.955
 1538SOL    HW1 5513   2.223   5.377   6.894
 1538SOL    HW2 5514   2.162   5.502   6.979
 1539SOL     OW 5515   3.521   4.486   1.678
 1539SOL    HW1 5516   3.612   4.452   1.654
 1539SOL    HW2 5517   3.529   4.565   1.738
 1540SOL     OW 5518   0.947   0.569   5.003
 1540SOL    HW1 5519   1.028   0.587   5.059
 1540SOL    HW2 5520   0.883   0.512   5.054
 1541SOL     OW 5521   5.013   2.376   1.065
 1541SOL    HW1 5522   5.033   2.474   1.056
 1541SOL    HW2 5523   4.990   2.356   1.161
 1542SOL     OW 5524   0.913   6.833   1.608
 1542SOL    HW1 5525   0.990   6.859   1.549
 1542SOL    HW2 5526   0.938   6.848   1.704
 1543SOL     OW 5527   3.533   3.892   3.923
 1543SOL    HW1 5528   3.447   3.842   3.934
 1543SOL    HW2 5529   3.534   3.972   3.983
 1544SOL     OW 5530   3.057   3.948   2.890
 1544SOL    HW1 5531   3.114   4.019   2.849
 1544SOL    HW2 5532   3.076   3.943   2.989
 1545SOL     OW 5533   5.640   0.238   4.714
 1545SOL    HW1 5534   5.586   0.322   4.708
 1545SOL    HW2 5535   5.737   0.261   4.726
 1546SOL     OW 5536   6.434   6.183   5.912
 1546SOL    HW1 5537   6.395   6.111   5.968
 1546SOL    HW2 5538   6.371   6.261   5.909
 1547SOL     OW 5539   3.062   5.748   1.811
 1547SOL    HW1 5540   3.035   5.844   1.813
 1547SOL    HW2 5541   3.146   5.737   1.863
 1548SOL     OW 5542   4.925   4.054   4.908
 1548SOL    HW1 5543   4.918   3.959   4.878
 1548SOL    HW2 5544   4.920   4.114   4.828
 1549SOL     OW 5545   6.829   2.305   1.223
 1549SOL    HW1 5546   6.744   2.326   1.271
 1549SOL    HW2 5547   6.900   2.284   1.290
 1550SOL     OW 5548   1.940   5.517   4.208
 1550SOL    HW1 5549   1.964   5.610   4.236
 1550SOL    HW2 5550   1.863   5.485   4.263
 1551SOL     OW 5551   2.040   2.643   0.728
 1551SOL    HW1 5552   2.005   2.549   0.720
 1551SOL    HW2 5553   2.127   2.650   0.678
 1552SOL     OW 5554   1.186   0.937   1.054
 1552SOL    HW1 5555   1.165   0.895   0.966
 1552SOL    HW2 5556   1.218   0.866   1.117
 1553SOL     OW 5557   6.034   1.705   6.407
 1553SOL    HW1 5558   6.055   1.768   6.482
 1553SOL    HW2 5559   6.048   1.611   6.438
 1554SOL     OW 5560   3.965   1.783   1.805
 1554SOL    HW1 5561   3.884   1.832   1.834
 1554SOL    HW2 5562   4.002   1.826   1.722
 1555SOL     OW 5563   3.570   1.592   5.782
 1555SOL    HW1 5564   3.480   1.591   5.740
 1555SOL    HW2 5565   3.634   1.640   5.722
 1556SOL     OW 5566   3.981   0.745   0.821
 1556SOL    HW1 5567   3.896   0.766   0.774
 1556SOL    HW2 5568   3.985   0.647   0.841
 1557SOL     OW 5569   1.825   1.918   1.214
 1557SOL    HW1 5570   1.916   1.882   1.236
 1557SOL    HW2 5571   1.755   1.853   1.243
 1558SOL     OW 5572   6.423   3.445   5.851
 1558SOL    HW1 5573   6.323   3.439   5.855
 1558SOL    HW2 5574   6.458   3.474   5.941
 1559SOL     OW 5575   1.717   4.794   3.368
 1559SOL    HW1 5576   1.663   4.759   3.291
 1559SOL    HW2 5577   1.811   4.760   3.360
 1560SOL     OW 5578   3.669   1.137   1.495
 1560SOL    HW1 5579   3.681   1.135   1.594
 1560SOL    HW2 5580   3.638   1.228   1.467
 1561SOL     OW 5581   6.019   5.754   1.729
 1561SOL    HW1 5582   6.051   5.825   1.792
 1561SOL    HW2 5583   6.046   5.779   1.636
 1562SOL     OW 5584   3.454   6.663   2.032
 1562SOL    HW1 5585   3.434   6.573   1.995
 1562SOL    HW2 5586   3.553   6.671   2.050
 1563SOL     OW 5587   3.976   2.134   4.261
 1563SOL    HW1 5588   4.027   2.079   4.195
 1563SOL    HW2 5589   4.040   2.184   4.319
 1564SOL     OW 5590   1.580   2.250   2.118
 1564SOL    HW1 5591   1.591   2.156   2.150
 1564SOL    HW2 5592   1.642   2.267   2.041
 1565SOL     OW 5593   3.658   0.795   4.207
 1565SOL    HW1 5594   3.715   0.721   4.171
 1565SOL    HW2 5595   3.564   0.763   4.218
 1566SOL     OW 5596   4.680   4.361   3.017
 1566SOL    HW1 5597   4.677   4.309   2.932
 1566SOL    HW2 5598   4.661   4.301   3.095
 1567SOL     OW 5599   4.978   6.290   5.385
 1567SOL    HW1 5600   4.893   6.280   5.437
 1567SOL    HW2 5601   4.964   6.355   5.310
 1568SOL     OW 5602   2.362   6.227   2.966
 1568SOL    HW1 5603   2.349   6.326   2.978
 1568SOL    HW2 5604   2.274   6.183   2.956
 1569SOL     OW 5605   2.449   0.017   3.865
 1569SOL    HW1 5606   2.423   0.099   3.915
 1569SOL    HW2 5607   2.522   0.039   3.801
 1570SOL     OW 5608   3.471   6.786   0.081
 1570SOL    HW1 5609   3.528   6.707   0.104
 1570SOL    HW2 5610   3.415   6.765   0.001
 1571SOL     OW 5611   0.984   2.432   4.003
 1571SOL    HW1 5612   1.017   2.376   3.927
 1571SOL    HW2 5613   1.057   2.494   4.032
 1572SOL     OW 5614   1.882   4.586   2.000
 1572SOL    HW1 5615   1.899   4.663   2.061
 1572SOL    HW2 5616   1.799   4.603   1.947
 1573SOL     OW 5617   4.927   4.936   0.826
 1573SOL    HW1 5618   4.880   5.018   0.792
 1573SOL    HW2 5619   4.861   4.874   0.867
 1574SOL     OW 5620   0.012   3.658   2.621
 1574SOL    HW1 5621   0.110   3.673   2.628
 1574SOL    HW2 5622   7.019   3.593   2.547
 1575SOL     OW 5623   0.541   0.946   0.652
 1575SOL    HW1 5624   0.496   0.866   0.612
 1575SOL    HW2 5625   0.625   0.965   0.601
 1576SOL     OW 5626   0.379   6.448   2.260
 1576SOL    HW1 5627   0.412   6.457   2.354
 1576SOL    HW2 5628   0.387   6.535   2.212
 1577SOL     OW 5629   4.218   7.018   5.937
 1577SOL    HW1 5630   4.279   0.021   6.011
 1577SOL    HW2 5631   4.167   0.070   5.903
 1578SOL     OW 5632   5.325   0.767   0.319
 1578SOL    HW1 5633   5.258   0.703   0.358
 1578SOL    HW2 5634   5.282   0.820   0.246
 1579SOL     OW 5635   1.773   2.871   1.479
 1579SOL    HW1 5636   1.750   2.797   1.543
 1579SOL    HW2 5637   1.758   2.839   1.385
 1580SOL     OW 5638   3.820   3.992   3.248
 1580SOL    HW1 5639   3.824   4.043   3.162
 1580SOL    HW2 5640   3.742   3.929   3.245
 1581SOL     OW 5641   0.044   4.376   6.081
 1581SOL    HW1 5642   0.105   4.440   6.036
 1581SOL    HW2 5643   0.051   4.286   6.038
 1582SOL     OW 5644   4.879   6.362   5.974
 1582SOL    HW1 5645   4.827   6.328   6.052
 1582SOL    HW2 5646   4.965   6.312   5.967
 1583SOL     OW 5647   1.216   5.942   5.495
 1583SOL    HW1 5648   1.227   5.891   5.410
 1583SOL    HW2 5649   1.290   5.918   5.558
 1584SOL     OW 5650   0.648   5.073   6.712
 1584SOL    HW1 5651   0.553   5.042   6.710
 1584SOL    HW2 5652   0.679   5.092   6.619
 1585SOL     OW 5653   4.078   0.032   3.144
 1585SOL    HW1 5654   4.020   0.036   3.225
 1585SOL    HW2 5655   4.051   6.978   3.089
 1586SOL     OW 5656   3.091   5.840   4.289
 1586SOL    HW1 5657   3.011   5.781   4.298
 1586SOL    HW2 5658   3.086   5.913   4.358
 1587SOL     OW 5659   2.366   6.177   6.002
 1587SOL    HW1 5660   2.427   6.147   6.075
 1587SOL    HW2 5661   2.367   6.111   5.927
 1588SOL     OW 5662   5.916   0.108   2.702
 1588SOL    HW1 5663   5.838   0.047   2.687
 1588SOL    HW2 5664   5.977   0.104   2.624
 1589SOL     OW 5665   6.644   4.321   3.243
 1589SOL    HW1 5666   6.742   4.341   3.238
 1589SOL    HW2 5667   6.620   4.293   3.336
 1590SOL     OW 5668   6.773   1.351   3.103
 1590SOL    HW1 5669   6.724   1.265   3.120
 1590SOL    HW2 5670   6.771   1.372   3.005
 1591SOL     OW 5671   0.701   6.252   1.916
 1591SOL    HW1 5672   0.613   6.204   1.908
 1591SOL    HW2 5673   0.727   6.258   2.012
 1592SOL     OW 5674   1.101   3.978   0.052
 1592SOL    HW1 5675   1.049   4.060   0.031
 1592SOL    HW2 5676   1.107   3.967   0.152
 1593SOL     OW 5677   1.238   0.440   6.648
 1593SOL    HW1 5678   1.289   0.358   6.675
 1593SOL    HW2 5679   1.298   0.519   6.649
 1594SOL     OW 5680   6.591   0.164   1.638
 1594SOL    HW1 5681   6.539   0.085   1.605
 1594SOL    HW2 5682   6.562   0.187   1.731
 1595SOL     OW 5683   0.964   4.216   6.988
 1595SOL    HW1 5684   0.947   4.254   6.897
 1595SOL    HW2 5685   1.037   4.268   0.007
 1596SOL     OW 5686   5.941   4.405   1.971
 1596SOL    HW1 5687   5.965   4.326   2.027
 1596SOL    HW2 5688   5.846   4.430   1.986
 1597SOL     OW 5689   3.315   6.602   0.466
 1597SOL    HW1 5690   3.300   6.606   0.564
 1597SOL    HW2 5691   3.248   6.540   0.424
 1598SOL     OW 5692   1.537   5.381   6.739
 1598SOL    HW1 5693   1.618   5.324   6.722
 1598SOL    HW2 5694   1.501   5.361   6.830
 1599SOL     OW 5695   4.154   4.943   3.956
 1599SOL    HW1 5696   4.125   4.991   3.873
 1599SOL    HW2 5697   4.253   4.951   3.966
 1600SOL     OW 5698   3.307   6.977   2.756
 1600SOL    HW1 5699   3.281   7.004   2.663
 1600SOL    HW2 5700   3.331   6.880   2.758
 1601SOL     OW 5701   5.592   6.430   4.266
 1601SOL    HW1 5702   5.503   6.443   4.308
 1601SOL    HW2 5703   5.664   6.451   4.333
 1602SOL     OW 5704   4.096   5.079   3.738
 1602SOL    HW1 5705   4.173   5.092   3.676
 1602SOL    HW2 5706   4.053   5.167   3.758
 1603SOL     OW 5707   2.957   5.927   3.850
 1603SOL    HW1 5708   3.029   5.861   3.874
 1603SOL    HW2 5709   2.889   5.882   3.792
 1604SOL     OW 5710   3.877   4.852   2.033
 1604SOL    HW1 5711   3.785   4.813   2.028
 1604SOL    HW2 5712   3.888   4.903   2.118
 1605SOL     OW 5713   4.473   4.913   1.430
 1605SOL    HW1 5714   4.398   4.860   1.470
 1605SOL    HW2 5715   4.512   4.863   1.352
 1606SOL     OW 5716   4.139   6.057   5.082
 1606SOL    HW1 5717   4.156   6.141   5.029
 1606SOL    HW2 5718   4.042   6.054   5.109
 1607SOL     OW 5719   4.991   5.719   2.962
 1607SOL    HW1 5720   5.011   5.816   2.949
 1607SOL    HW2 5721   4.997   5.697   3.060
 1608SOL     OW 5722   6.289   0.359   2.882
 1608SOL    HW1 5723   6.228   0.386   2.956
 1608SOL    HW2 5724   6.356   0.432   2.866
 1609SOL     OW 5725   3.091   6.413   1.057
 1609SOL    HW1 5726   3.071   6.397   0.960
 1609SOL    HW2 5727   3.093   6.511   1.075
 1610SOL     OW 5728   4.656   0.272   0.081
 1610SOL    HW1 5729   4.592   0.313   0.146
 1610SOL    HW2 5730   4.740   0.326   0.079
 1611SOL     OW 5731   1.011   3.768   1.013
 1611SOL    HW1 5732   0.964   3.833   0.952
 1611SOL    HW2 5733   0.947   3.697   1.042
 1612SOL     OW 5734   3.554   6.474   1.395
 1612SOL    HW1 5735   3.506   6.395   1.432
 1612SOL    HW2 5736   3.556   6.468   1.295
 1613SOL     OW 5737   0.086   5.678   2.574
 1613SOL    HW1 5738   0.044   5.644   2.658
 1613SOL    HW2 5739   0.014   5.710   2.512
 1614SOL     OW 5740   6.053   2.735   6.402
 1614SOL    HW1 5741   5.999   2.807   6.446
 1614SOL    HW2 5742   6.144   2.731   6.444
 1615SOL     OW 5743   0.793   5.093   6.495
 1615SOL    HW1 5744   0.781   5.192   6.492
 1615SOL    HW2 5745   0.771   5.055   6.405
 1616SOL     OW 5746   2.490   1.359   4.793
 1616SOL    HW1 5747   2.498   1.437   4.856
 1616SOL    HW2 5748   2.573   1.304   4.797
 1617SOL     OW 5749   4.853   6.440   3.470
 1617SOL    HW1 5750   4.820   6.455   3.563
 1617SOL    HW2 5751   4.836   6.345   3.443
 1618SOL     OW 5752   2.698   6.159   3.159
 1618SOL    HW1 5753   2.652   6.076   3.127
 1618SOL    HW2 5754   2.794   6.139   3.178
 1619SOL     OW 5755   1.160   5.116   0.117
 1619SOL    HW1 5756   1.119   5.182   0.179
 1619SOL    HW2 5757   1.145   5.023   0.152
 1620SOL     OW 5758   3.778   4.971   0.685
 1620SOL    HW1 5759   3.738   4.894   0.637
 1620SOL    HW2 5760   3.771   4.956   0.784
 1621SOL     OW 5761   5.752   6.708   0.875
 1621SOL    HW1 5762   5.732   6.806   0.882
 1621SOL    HW2 5763   5.771   6.671   0.966
 1622SOL     OW 5764   0.786   3.801   4.769
 1622SOL    HW1 5765   0.804   3.759   4.857
 1622SOL    HW2 5766   0.716   3.872   4.780
 1623SOL     OW 5767   0.410   2.166   4.631
 1623SOL    HW1 5768   0.347   2.151   4.554
 1623SOL    HW2 5769   0.498   2.125   4.609
 1624SOL     OW 5770   4.351   0.756   1.038
 1624SOL    HW1 5771   4.367   0.714   0.949
 1624SOL    HW2 5772   4.434   0.801   1.070
 1625SOL     OW 5773   2.045   4.881   1.020
 1625SOL    HW1 5774   2.140   4.912   1.023
 1625SOL    HW2 5775   1.984   4.960   1.008
 1626SOL     OW 5776   3.205   2.058   1.459
 1626SOL    HW1 5777   3.208   2.023   1.365
 1626SOL    HW2 5778   3.114   2.092   1.479
 1627SOL     OW 5779   4.403   2.357   3.912
 1627SOL    HW1 5780   4.480   2.421   3.912
 1627SOL    HW2 5781   4.345   2.374   3.832
 1628SOL     OW 5782   5.548   6.315   6.265
 1628SOL    HW1 5783   5.519   6.304   6.360
 1628SOL    HW2 5784   5.621   6.250   6.244
 1629SOL     OW 5785   2.832   1.678   2.703
 1629SOL    HW1 5786   2.893   1.600   2.697
 1629SOL    HW2 5787   2.879   1.759   2.666
 1630SOL     OW 5788   0.734   4.171   0.123
 1630SOL    HW1 5789   0.816   4.222   0.097
 1630SOL    HW2 5790   0.737   4.080   0.082
 1631SOL     OW 5791   0.496   3.474   0.504
 1631SOL    HW1 5792   0.509   3.444   0.409
 1631SOL    HW2 5793   0.586   3.485   0.548
 1632SOL     OW 5794   6.634   4.392   2.677
 1632SOL    HW1 5795   6.621   4.491   2.673
 1632SOL    HW2 5796   6.687   4.361   2.598
 1633SOL     OW 5797   4.930   3.564   3.787
 1633SOL    HW1 5798   4.921   3.647   3.731
 1633SOL    HW2 5799   4.934   3.590   3.884
 1634SOL     OW 5800   4.782   0.572   4.802
 1634SOL    HW1 5801   4.805   0.500   4.868
 1634SOL    HW2 5802   4.813   0.544   4.711
 1635SOL     OW 5803   3.476   5.225   4.808
 1635SOL    HW1 5804   3.464   5.204   4.710
 1635SOL    HW2 5805   3.414   5.168   4.862
 1636SOL     OW 5806   5.277   5.780   1.438
 1636SOL    HW1 5807   5.286   5.711   1.510
 1636SOL    HW2 5808   5.238   5.738   1.356
 1637SOL     OW 5809   0.252   0.087   2.344
 1637SOL    HW1 5810   0.197   0.089   2.260
 1637SOL    HW2 5811   0.315   0.165   2.344
 1638SOL     OW 5812   6.856   3.223   1.784
 1638SOL    HW1 5813   6.838   3.265   1.695
 1638SOL    HW2 5814   6.854   3.293   1.855
 1639SOL     OW 5815   5.588   3.731   2.282
 1639SOL    HW1 5816   5.492   3.758   2.287
 1639SOL    HW2 5817   5.594   3.637   2.247
 1640SOL     OW 5818   6.379   0.719   0.569
 1640SOL    HW1 5819   6.383   0.801   0.512
 1640SOL    HW2 5820   6.290   0.714   0.614
 1641SOL     OW 5821   6.953   2.161   2.661
 1641SOL    HW1 5822   6.994   2.250   2.679
 1641SOL    HW2 5823   6.873   2.173   2.603
 1642SOL     OW 5824   5.122   2.362   5.651
 1642SOL    HW1 5825   5.140   2.369   5.749
 1642SOL    HW2 5826   5.111   2.453   5.613
 1643SOL     OW 5827   3.557   5.329   4.278
 1643SOL    HW1 5828   3.493   5.256   4.303
 1643SOL    HW2 5829   3.575   5.386   4.358
 1644SOL     OW 5830   6.201   3.136   0.433
 1644SOL    HW1 5831   6.282   3.081   0.410
 1644SOL    HW2 5832   6.127   3.076   0.462
 1645SOL     OW 5833   2.734   1.064   5.866
 1645SOL    HW1 5834   2.724   1.153   5.821
 1645SOL    HW2 5835   2.671   1.058   5.943
 1646SOL     OW 5836   0.830   5.665   0.680
 1646SOL    HW1 5837   0.833   5.754   0.635
 1646SOL    HW2 5838   0.916   5.650   0.729
 1647SOL     OW 5839   6.213   2.714   4.397
 1647SOL    HW1 5840   6.181   2.794   4.448
 1647SOL    HW2 5841   6.136   2.673   4.348
 1648SOL     OW 5842   5.512   6.407   0.619
 1648SOL    HW1 5843   5.434   6.418   0.558
 1648SOL    HW2 5844   5.481   6.401   0.714
 1649SOL     OW 5845   2.932   0.454   3.684
 1649SOL    HW1 5846   2.857   0.390   3.703
 1649SOL    HW2 5847   2.928   0.482   3.589
 1650SOL     OW 5848   2.927   5.629   6.911
 1650SOL    HW1 5849   2.830   5.653   6.903
 1650SOL    HW2 5850   2.977   5.665   6.832
 1651SOL     OW 5851   0.986   3.023   4.005
 1651SOL    HW1 5852   1.078   3.045   4.035
 1651SOL    HW2 5853   0.922   3.091   4.040
 1652SOL     OW 5854   0.797   3.043   1.587
 1652SOL    HW1 5855   0.845   3.113   1.535
 1652SOL    HW2 5856   0.789   3.072   1.683
 1653SOL     OW 5857   0.306   5.150   2.977
 1653SOL    HW1 5858   0.327   5.151   3.075
 1653SOL    HW2 5859   0.361   5.219   2.930
 1654SOL     OW 5860   0.344   3.231   2.241
 1654SOL    HW1 5861   0.391   3.206   2.326
 1654SOL    HW2 5862   0.407   3.220   2.164
 1655SOL     OW 5863   6.724   0.558   4.673
 1655SOL    HW1 5864   6.678   0.646   4.677
 1655SOL    HW2 5865   6.720   0.514   4.762
 1656SOL     OW 5866   2.271   5.593   4.404
 1656SOL    HW1 5867   2.199   5.523   4.405
 1656SOL    HW2 5868   2.355   5.554   4.442
 1657SOL     OW 5869   0.155   0.050   5.720
 1657SOL    HW1 5870   0.060   0.022   5.733
 1657SOL    HW2 5871   0.211   6.996   5.700
 1658SOL     OW 5872   6.983   0.098   0.279
 1658SOL    HW1 5873   6.913   0.075   0.347
 1658SOL    HW2 5874   7.024   0.186   0.302
 1659SOL     OW 5875   4.249   6.600   6.643
 1659SOL    HW1 5876   4.203   6.532   6.585
 1659SOL    HW2 5877   4.288   6.672   6.585
 1660SOL     OW 5878   1.649   6.718   2.016
 1660SOL    HW1 5879   1.667   6.789   1.948
 1660SOL    HW2 5880   1.654   6.628   1.972
 1661SOL     OW 5881   4.036   5.165   2.879
 1661SOL    HW1 5882   4.085   5.121   2.954
 1661SOL    HW2 5883   3.994   5.094   2.821
 1662SOL     OW 5884   6.882   1.311   5.391
 1662SOL    HW1 5885   6.975   1.278   5.374
 1662SOL    HW2 5886   6.843   1.345   5.306
 1663SOL     OW 5887   4.534   4.383   0.909
 1663SOL    HW1 5888   4.569   4.449   0.843
 1663SOL    HW2 5889   4.448   4.417   0.948
 1664SOL     OW 5890   0.553   0.062   4.923
 1664SOL    HW1 5891   0.463   0.104   4.917
 1664SOL    HW2 5892   0.560   0.008   5.007
 1665SOL     OW 5893   1.827   3.744   1.248
 1665SOL    HW1 5894   1.793   3.733   1.341
 1665SOL    HW2 5895   1.869   3.659   1.217
 1666SOL     OW 5896   5.579   0.681   6.088
 1666SOL    HW1 5897   5.491   0.671   6.133
 1666SOL    HW2 5898   5.650   0.636   6.142
 1667SOL     OW 5899   0.711   6.352   1.009
 1667SOL    HW1 5900   0.777   6.355   1.085
 1667SOL    HW2 5901   0.682   6.445   0.988
 1668SOL     OW 5902   5.110   4.183   3.621
 1668SOL    HW1 5903   5.164   4.099   3.631
 1668SOL    HW2 5904   5.085   4.217   3.711
 1669SOL     OW 5905   0.096   3.588   5.303
 1669SOL    HW1 5906   0.104   3.494   5.269
 1669SOL    HW2 5907   0.015   3.631   5.266
 1670SOL     OW 5908   2.178   4.510   6.046
 1670SOL    HW1 5909   2.107   4.483   5.981
 1670SOL    HW2 5910   2.166   4.606   6.071
 1671SOL     OW 5911   4.748   1.481   1.783
 1671SOL    HW1 5912   4.845   1.493   1.807
 1671SOL    HW2 5913   4.693   1.479   1.867
 1672SOL     OW 5914   0.612   3.213   0.096
 1672SOL    HW1 5915   0.623   3.199   7.023
 1672SOL    HW2 5916   0.581   3.128   0.138
 1673SOL     OW 5917   2.099   1.478   4.309
 1673SOL    HW1 5918   2.104   1.567   4.354
 1673SOL    HW2 5919   2.176   1.469   4.246
 1674SOL     OW 5920   4.717   2.602   2.774
 1674SOL    HW1 5921   4.661   2.608   2.691
 1674SOL    HW2 5922   4.797   2.662   2.765
 1675SOL     OW 5923   5.470   0.441   1.075
 1675SOL    HW1 5924   5.385   0.415   1.121
 1675SOL    HW2 5925   5.510   0.519   1.123
 1676SOL     OW 5926   2.137   1.996   2.794
 1676SOL    HW1 5927   2.138   1.905   2.837
 1676SOL    HW2 5928   2.106   2.064   2.860
 1677SOL     OW 5929   4.156   3.476   3.669
 1677SOL    HW1 5930   4.089   3.405   3.688
 1677SOL    HW2 5931   4.146   3.506   3.574
 1678SOL     OW 5932   0.379   6.798   0.806
 1678SOL    HW1 5933   0.325   6.755   0.877
 1678SOL    HW2 5934   0.415   6.885   0.839
 1679SOL     OW 5935   1.865   1.806   5.031
 1679SOL    HW1 5936   1.787   1.769   5.081
 1679SOL    HW2 5937   1.924   1.856   5.094
 1680SOL     OW 5938   4.680   2.723   4.505
 1680SOL    HW1 5939   4.697   2.785   4.582
 1680SOL    HW2 5940   4.621   2.648   4.535
 1681SOL     OW 5941   2.298   5.958   3.715
 1681SOL    HW1 5942   2.241   5.903   3.654
 1681SOL    HW2 5943   2.276   6.055   3.704
 1682SOL     OW 5944   2.664   6.681   5.642
 1682SOL    HW1 5945   2.651   6.769   5.596
 1682SOL    HW2 5946   2.578   6.632   5.646
 1683SOL     OW 5947   5.949   4.911   2.436
 1683SOL    HW1 5948   6.019   4.957   2.382
 1683SOL    HW2 5949   5.992   4.839   2.491
 1684SOL     OW 5950   1.823   4.941   1.990
 1684SOL    HW1 5951   1.872   4.955   1.904
 1684SOL    HW2 5952   1.876   4.882   2.050
 1685SOL     OW 5953   0.784   1.557   5.587
 1685SOL    HW1 5954   0.786   1.536   5.490
 1685SOL    HW2 5955   0.711   1.623   5.605
 1686SOL     OW 5956   5.134   5.109   3.514
 1686SOL    HW1 5957   5.142   5.026   3.568
 1686SOL    HW2 5958   5.038   5.126   3.491
 1687SOL     OW 5959   6.616   3.525   2.542
 1687SOL    HW1 5960   6.666   3.515   2.629
 1687SOL    HW2 5961   6.654   3.461   2.475
 1688SOL     OW 5962   2.276   2.087   3.637
 1688SOL    HW1 5963   2.233   2.090   3.727
 1688SOL    HW2 5964   2.211   2.117   3.567
 1689SOL     OW 5965   6.024   1.000   2.350
 1689SOL    HW1 5966   6.098   0.942   2.317
 1689SOL    HW2 5967   5.936   0.960   2.324
 1690SOL     OW 5968   0.718   4.205   4.228
 1690SOL    HW1 5969   0.718   4.298   4.264
 1690SOL    HW2 5970   0.657   4.147   4.283
 1691SOL     OW 5971   5.419   2.960   5.162
 1691SOL    HW1 5972   5.452   2.915   5.079
 1691SOL    HW2 5973   5.457   2.914   5.242
 1692SOL     OW 5974   5.975   5.188   1.832
 1692SOL    HW1 5975   5.942   5.235   1.750
 1692SOL    HW2 5976   6.023   5.104   1.806
 1693SOL     OW 5977   6.593   0.879   5.627
 1693SOL    HW1 5978   6.535   0.944   5.675
 1693SOL    HW2 5979   6.573   0.882   5.529
 1694SOL     OW 5980   5.410   0.723   4.688
 1694SOL    HW1 5981   5.426   0.819   4.709
 1694SOL    HW2 5982   5.347   0.684   4.756
 1695SOL     OW 5983   3.966   0.173   6.648
 1695SOL    HW1 5984   4.046   0.114   6.657
 1695SOL    HW2 5985   3.996   0.267   6.635
 1696SOL     OW 5986   4.704   5.465   0.108
 1696SOL    HW1 5987   4.756   5.500   0.029
 1696SOL    HW2 5988   4.676   5.371   0.090
 1697SOL     OW 5989   5.967   2.035   1.054
 1697SOL    HW1 5990   5.870   2.043   1.077
 1697SOL    HW2 5991   6.022   2.076   1.127
 1698SOL     OW 5992   2.907   0.579   2.097
 1698SOL    HW1 5993   2.935   0.653   2.036
 1698SOL    HW2 5994   2.833   0.611   2.156
 1699SOL     OW 5995   2.541   0.945   6.983
 1699SOL    HW1 5996   2.503   1.002   6.911
 1699SOL    HW2 5997   2.638   0.966   6.996
 1700SOL     OW 5998   6.290   3.374   3.258
 1700SOL    HW1 5999   6.359   3.361   3.186
 1700SOL    HW2 6000   6.237   3.290   3.268
 1701SOL     OW 6001   6.863   4.786   4.960
 1701SOL    HW1 6002   6.925   4.707   4.961
 1701SOL    HW2 6003   6.910   4.866   4.996
 1702SOL     OW 6004   1.761   2.389   5.763
 1702SOL    HW1 6005   1.672   2.417   5.729
 1702SOL    HW2 6006   1.830   2.455   5.734
 1703SOL     OW 6007   3.099   1.639   6.700
 1703SOL    HW1 6008   3.197   1.648   6.681
 1703SOL    HW2 6009   3.078   1.543   6.720
 1704SOL     OW 6010   3.029   1.640   0.785
 1704SOL    HW1 6011   2.940   1.660   0.743
 1704SOL    HW2 6012   3.096   1.620   0.714
 1705SOL     OW 6013   3.682   1.392   1.813
 1705SOL    HW1 6014   3.657   1.318   1.876
 1705SOL    HW2 6015   3.714   1.471   1.864
 1706SOL     OW 6016   4.229   2.004   0.867
 1706SOL    HW1 6017   4.143   1.964   0.835
 1706SOL    HW2 6018   4.213   2.055   0.951
 1707SOL     OW 6019   4.557   1.199   2.472
 1707SOL    HW1 6020   4.482   1.205   2.407
 1707SOL    HW2 6021   4.597   1.290   2.485
 1708SOL     OW 6022   3.338   5.133   2.102
 1708SOL    HW1 6023   3.323   5.225   2.066
 1708SOL    HW2 6024   3.436   5.117   2.112
 1709SOL     OW 6025   5.124   5.782   0.625
 1709SOL    HW1 6026   5.134   5.800   0.723
 1709SOL    HW2 6027   5.099   5.686   0.611
 1710SOL     OW 6028   4.590   5.168   2.696
 1710SOL    HW1 6029   4.587   5.103   2.620
 1710SOL    HW2 6030   4.553   5.124   2.778
 1711SOL     OW 6031   3.219   5.594   6.271
 1711SOL    HW1 6032   3.241   5.667   6.336
 1711SOL    HW2 6033   3.304   5.551   6.240
 1712SOL     OW 6034   0.290   2.093   4.092
 1712SOL    HW1 6035   0.202   2.105   4.136
 1712SOL    HW2 6036   0.350   2.171   4.115
 1713SOL     OW 6037   4.066   0.592   3.020
 1713SOL    HW1 6038   4.130   0.667   3.002
 1713SOL    HW2 6039   3.979   0.611   2.974
 1714SOL     OW 6040   3.626   2.981   6.665
 1714SOL    HW1 6041   3.680   2.899   6.648
 1714SOL    HW2 6042   3.535   2.955   6.698
 1715SOL     OW 6043   1.496   6.280   2.218
 1715SOL    HW1 6044   1.429   6.280   2.143
 1715SOL    HW2 6045   1.488   6.364   2.271
 1716SOL     OW 6046   4.419   0.569   4.141
 1716SOL    HW1 6047   4.368   0.581   4.225
 1716SOL    HW2 6048   4.369   0.508   4.080
 1717SOL     OW 6049   3.848   5.996   5.655
 1717SOL    HW1 6050   3.785   6.074   5.656
 1717SOL    HW2 6051   3.848   5.953   5.745
 1718SOL     OW 6052   1.940   2.673   1.860
 1718SOL    HW1 6053   1.940   2.716   1.951
 1718SOL    HW2 6054   1.915   2.742   1.791
 1719SOL     OW 6055   0.807   5.029   2.031
 1719SOL    HW1 6056   0.777   5.094   1.960
 1719SOL    HW2 6057   0.852   4.951   1.987
 1720SOL     OW 6058   6.900   2.797   5.595
 1720SOL    HW1 6059   6.845   2.758   5.670
 1720SOL    HW2 6060   6.842   2.856   5.539
 1721SOL     OW 6061   1.220   1.562   1.788
 1721SOL    HW1 6062   1.153   1.621   1.744
 1721SOL    HW2 6063   1.193   1.466   1.776
 1722SOL     OW 6064   2.968   2.192   3.132
 1722SOL    HW1 6065   2.934   2.155   3.219
 1722SOL    HW2 6066   2.988   2.116   3.069
 1723SOL     OW 6067   4.930   2.578   6.991
 1723SOL    HW1 6068   4.851   2.518   7.005
 1723SOL    HW2 6069   4.971   2.601   0.053
 1724SOL     OW 6070   6.476   2.277   1.053
 1724SOL    HW1 6071   6.390   2.327   1.046
 1724SOL    HW2 6072   6.537   2.324   1.117
 1725SOL     OW 6073   2.471   5.730   6.677
 1725SOL    HW1 6074   2.465   5.807   6.741
 1725SOL    HW2 6075   2.397   5.736   6.610
 1726SOL     OW 6076   5.579   3.945   3.809
 1726SOL    HW1 6077   5.577   4.009   3.886
 1726SOL    HW2 6078   5.530   3.985   3.732
 1727SOL     OW 6079   3.259   3.789   3.491
 1727SOL    HW1 6080   3.341   3.845   3.500
 1727SOL    HW2 6081   3.276   3.713   3.428
 1728SOL     OW 6082   4.789   2.752   5.201
 1728SOL    HW1 6083   4.850   2.819   5.243
 1728SOL    HW2 6084   4.718   2.725   5.267
 1729SOL     OW 6085   1.997   3.857   1.938
 1729SOL    HW1 6086   1.955   3.936   1.894
 1729SOL    HW2 6087   2.029   3.883   2.030
 1730SOL     OW 6088   2.689   4.926   5.963
 1730SOL    HW1 6089   2.665   4.923   6.060
 1730SOL    HW2 6090   2.662   4.841   5.920
 1731SOL     OW 6091   5.810   4.130   3.960
 1731SOL    HW1 6092   5.864   4.084   4.031
 1731SOL    HW2 6093   5.713   4.128   3.987
 1732SOL     OW 6094   1.758   4.890   6.434
 1732SOL    HW1 6095   1.810   4.827   6.376
 1732SOL    HW2 6096   1.776   4.984   6.404
 1733SOL     OW 6097   2.832   3.615   0.215
 1733SOL    HW1 6098   2.886   3.699   0.206
 1733SOL    HW2 6099   2.808   3.582   0.124
 1734SOL     OW 6100   6.929   2.815   1.425
 1734SOL    HW1 6101   6.894   2.732   1.381
 1734SOL    HW2 6102   6.878   2.833   1.509
 1735SOL     OW 6103   3.790   5.512   6.475
 1735SOL    HW1 6104   3.838   5.529   6.389
 1735SOL    HW2 6105   3.723   5.585   6.489
 1736SOL     OW 6106   4.968   3.599   0.724
 1736SOL    HW1 6107   4.955   3.502   0.702
 1736SOL    HW2 6108   4.974   3.651   0.639
 1737SOL     OW 6109   4.543   1.531   4.746
 1737SOL    HW1 6110   4.553   1.557   4.650
 1737SOL    HW2 6111   4.510   1.436   4.751
 1738SOL     OW 6112   1.131   3.635   4.252
 1738SOL    HW1 6113   1.053   3.627   4.314
 1738SOL    HW2 6114   1.156   3.731   4.242
 1739SOL     OW 6115   5.225   0.165   4.245
 1739SOL    HW1 6116   5.300   0.128   4.190
 1739SOL    HW2 6117   5.180   0.238   4.195
 1740SOL     OW 6118   6.819   2.146   4.373
 1740SOL    HW1 6119   6.774   2.230   4.402
 1740SOL    HW2 6120   6.880   2.166   4.296
 1741SOL     OW 6121   0.946   2.057   4.711
 1741SOL    HW1 6122   1.045   2.063   4.716
 1741SOL    HW2 6123   0.906   2.148   4.709
 1742SOL     OW 6124   6.175   5.806   6.241
 1742SOL    HW1 6125   6.247   5.771   6.301
 1742SOL    HW2 6126   6.141   5.893   6.278
 1743SOL     OW 6127   1.649   1.160   2.799
 1743SOL    HW1 6128   1.586   1.092   2.837
 1743SOL    HW2 6129   1.608   1.251   2.806
 1744SOL     OW 6130   4.768   2.330   3.698
 1744SOL    HW1 6131   4.685   2.284   3.731
 1744SOL    HW2 6132   4.748   2.427   3.684
 1745SOL     OW 6133   6.537   6.529   1.432
 1745SOL    HW1 6134   6.538   6.629   1.437
 1745SOL    HW2 6135   6.624   6.496   1.396
 1746SOL     OW 6136   1.711   4.189   3.274
 1746SOL    HW1 6137   1.775   4.265   3.277
 1746SOL    HW2 6138   1.647   4.201   3.198
 1747SOL     OW 6139   3.424   1.110   2.544
 1747SOL    HW1 6140   3.416   1.196   2.594
 1747SOL    HW2 6141   3.440   1.128   2.447
 1748SOL     OW 6142   6.883   1.681   4.301
 1748SOL    HW1 6143   6.978   1.650   4.299
 1748SOL    HW2 6144   6.864   1.736   4.220
 1749SOL     OW 6145   2.323   5.076   1.335
 1749SOL    HW1 6146   2.285   5.002   1.390
 1749SOL    HW2 6147   2.263   5.156   1.341
 1750SOL     OW 6148   4.805   0.533   5.648
 1750SOL    HW1 6149   4.875   0.552   5.718
 1750SOL    HW2 6150   4.788   0.434   5.645
 1751SOL     OW 6151   5.958   2.614   5.133
 1751SOL    HW1 6152   5.975   2.583   5.227
 1751SOL    HW2 6153   5.881   2.563   5.095
 1752SOL     OW 6154   6.756   0.705   1.311
 1752SOL    HW1 6155   6.803   0.686   1.224
 1752SOL    HW2 6156   6.665   0.739   1.293
 1753SOL     OW 6157   6.200   1.065   1.774
 1753SOL    HW1 6158   6.202   0.966   1.767
 1753SOL    HW2 6159   6.167   1.105   1.689
 1754SOL     OW 6160   2.754   5.626   5.870
 1754SOL    HW1 6161   2.664   5.619   5.913
 1754SOL    HW2 6162   2.749   5.596   5.775
 1755SOL     OW 6163   6.101   0.307   5.079
 1755SOL    HW1 6164   6.046   0.262   5.150
 1755SOL    HW2 6165   6.188   0.259   5.068
 1756SOL     OW 6166   5.693   0.541   5.885
 1756SOL    HW1 6167   5.661   0.586   5.968
 1756SOL    HW2 6168   5.656   0.448   5.881
 1757SOL     OW 6169   2.268   5.070   5.158
 1757SOL    HW1 6170   2.326   5.071   5.077
 1757SOL    HW2 6171   2.208   5.150   5.157
 1758SOL     OW 6172   2.213   6.290   4.500
 1758SOL    HW1 6173   2.207   6.270   4.402
 1758SOL    HW2 6174   2.124   6.322   4.532
 1759SOL     OW 6175   1.505   6.481   0.257
 1759SOL    HW1 6176   1.486   6.575   0.227
 1759SOL    HW2 6177   1.424   6.443   0.301
 1760SOL     OW 6178   6.161   0.959   5.129
 1760SOL    HW1 6179   6.138   0.868   5.095
 1760SOL    HW2 6180   6.249   0.987   5.092
 1761SOL     OW 6181   6.646   2.043   1.683
 1761SOL    HW1 6182   6.580   2.070   1.612
 1761SOL    HW2 6183   6.720   1.990   1.641
 1762SOL     OW 6184   0.322   1.548   5.178
 1762SOL    HW1 6185   0.339   1.469   5.120
 1762SOL    HW2 6186   0.316   1.630   5.122
 1763SOL     OW 6187   0.533   3.853   4.183
 1763SOL    HW1 6188   0.565   3.898   4.267
 1763SOL    HW2 6189   0.598   3.869   4.109
 1764SOL     OW 6190   1.467   5.106   2.321
 1764SOL    HW1 6191   1.511   5.048   2.254
 1764SOL    HW2 6192   1.435   5.190   2.277
 1765SOL     OW 6193   5.699   3.219   1.663
 1765SOL    HW1 6194   5.782   3.274   1.654
 1765SOL    HW2 6195   5.670   3.217   1.758
 1766SOL     OW 6196   3.923   5.015   4.311
 1766SOL    HW1 6197   3.996   4.948   4.300
 1766SOL    HW2 6198   3.880   5.003   4.400
 1767SOL     OW 6199   0.530   4.985   2.778
 1767SOL    HW1 6200   0.461   5.056   2.793
 1767SOL    HW2 6201   0.564   4.952   2.866
 1768SOL     OW 6202   4.948   6.619   2.464
 1768SOL    HW1 6203   4.926   6.525   2.439
 1768SOL    HW2 6204   5.028   6.620   2.524
 1769SOL     OW 6205   5.454   0.053   6.560
 1769SOL    HW1 6206   5.414   0.105   6.485
 1769SOL    HW2 6207   5.519   0.110   6.610
 1770SOL     OW 6208   2.235   5.154   6.211
 1770SOL    HW1 6209   2.222   5.083   6.280
 1770SOL    HW2 6210   2.164   5.224   6.222
 1771SOL     OW 6211   0.747   3.977   6.004
 1771SOL    HW1 6212   0.685   3.910   6.045
 1771SOL    HW2 6213   0.701   4.023   5.929
 1772SOL     OW 6214   2.297   4.625   4.232
 1772SOL    HW1 6215   2.293   4.586   4.140
 1772SOL    HW2 6216   2.270   4.555   4.299
 1773SOL     OW 6217   0.574   6.909   5.144
 1773SOL    HW1 6218   0.612   6.822   5.114
 1773SOL    HW2 6219   0.489   6.894   5.195
 1774SOL     OW 6220   5.964   5.595   1.298
 1774SOL    HW1 6221   5.985   5.572   1.203
 1774SOL    HW2 6222   5.869   5.572   1.318
 1775SOL     OW 6223   2.297   5.448   6.149
 1775SOL    HW1 6224   2.198   5.460   6.149
 1775SOL    HW2 6225   2.335   5.486   6.064
 1776SOL     OW 6226   4.183   1.018   6.150
 1776SOL    HW1 6227   4.092   0.982   6.169
 1776SOL    HW2 6228   4.243   1.001   6.228
 1777SOL     OW 6229   4.642   6.621   6.564
 1777SOL    HW1 6230   4.670   6.615   6.660
 1777SOL    HW2 6231   4.589   6.704   6.549
 1778SOL     OW 6232   6.090   6.908   4.034
 1778SOL    HW1 6233   6.005   6.858   4.053
 1778SOL    HW2 6234   6.069   6.997   3.994
 1779SOL     OW 6235   5.443   5.979   3.999
 1779SOL    HW1 6236   5.364   6.013   3.948
 1779SOL    HW2 6237   5.482   6.054   4.053
 1780SOL     OW 6238   1.749   5.340   5.108
 1780SOL    HW1 6239   1.776   5.418   5.052
 1780SOL    HW2 6240   1.775   5.356   5.203
 1781SOL     OW 6241   4.281   0.396   3.977
 1781SOL    HW1 6242   4.301   0.321   3.913
 1781SOL    HW2 6243   4.182   0.403   3.990
 1782SOL     OW 6244   1.808   1.840   2.794
 1782SOL    HW1 6245   1.727   1.796   2.755
 1782SOL    HW2 6246   1.865   1.876   2.720
 1783SOL     OW 6247   1.711   4.301   6.443
 1783SOL    HW1 6248   1.723   4.295   6.542
 1783SOL    HW2 6249   1.708   4.209   6.405
 1784SOL     OW 6250   2.633   0.596   0.716
 1784SOL    HW1 6251   2.584   0.626   0.634
 1784SOL    HW2 6252   2.568   0.568   0.786
 1785SOL     OW 6253   1.438   6.646   3.945
 1785SOL    HW1 6254   1.422   6.552   3.974
 1785SOL    HW2 6255   1.362   6.704   3.975
 1786SOL     OW 6256   0.988   5.710   0.904
 1786SOL    HW1 6257   0.982   5.658   0.989
 1786SOL    HW2 6258   0.966   5.805   0.921
 1787SOL     OW 6259   1.786   3.757   5.621
 1787SOL    HW1 6260   1.784   3.690   5.696
 1787SOL    HW2 6261   1.864   3.737   5.561
 1788SOL     OW 6262   4.575   3.863   0.795
 1788SOL    HW1 6263   4.666   3.900   0.815
 1788SOL    HW2 6264   4.506   3.912   0.848
 1789SOL     OW 6265   6.802   3.900   1.970
 1789SOL    HW1 6266   6.827   3.996   1.983
 1789SOL    HW2 6267   6.703   3.893   1.958
 1790SOL     OW 6268   2.713   2.381   4.413
 1790SOL    HW1 6269   2.669   2.408   4.327
 1790SOL    HW2 6270   2.648   2.394   4.489
 1791SOL     OW 6271   5.332   6.924   3.539
 1791SOL    HW1 6272   5.425   6.941   3.506
 1791SOL    HW2 6273   5.279   7.009   3.534
 1792SOL     OW 6274   7.010   1.584   5.000
 1792SOL    HW1 6275   0.059   1.614   4.942
 1792SOL    HW2 6276   7.017   1.627   5.090
 1793SOL     OW 6277   0.205   1.254   5.894
 1793SOL    HW1 6278   0.208   1.208   5.983
 1793SOL    HW2 6279   0.170   1.347   5.906
 1794SOL     OW 6280   0.643   6.955   6.150
 1794SOL    HW1 6281   0.553   6.935   6.190
 1794SOL    HW2 6282   0.710   6.964   6.224
 1795SOL     OW 6283   6.023   5.070   6.875
 1795SOL    HW1 6284   6.115   5.034   6.861
 1795SOL    HW2 6285   5.992   5.047   6.968
 1796SOL     OW 6286   0.610   6.445   6.139
 1796SOL    HW1 6287   0.549   6.454   6.060
 1796SOL    HW2 6288   0.692   6.499   6.123
 1797SOL     OW 6289   2.673   5.754   4.925
 1797SOL    HW1 6290   2.721   5.831   4.883
 1797SOL    HW2 6291   2.738   5.696   4.974
 1798SOL     OW 6292   2.929   3.625   4.596
 1798SOL    HW1 6293   2.858   3.667   4.652
 1798SOL    HW2 6294   2.925   3.525   4.607
 1799SOL     OW 6295   3.228   1.159   0.297
 1799SOL    HW1 6296   3.304   1.222   0.283
 1799SOL    HW2 6297   3.184   1.139   0.210
 1800SOL     OW 6298   5.190   3.228   4.917
 1800SOL    HW1 6299   5.250   3.177   4.854
 1800SOL    HW2 6300   5.128   3.285   4.864
 1801SOL     OW 6301   0.930   1.817   2.234
 1801SOL    HW1 6302   0.974   1.769   2.158
 1801SOL    HW2 6303   0.978   1.795   2.319
 1802SOL     OW 6304   0.153   4.915   3.748
 1802SOL    HW1 6305   0.099   4.837   3.780
 1802SOL    HW2 6306   0.249   4.889   3.744
 1803SOL     OW 6307   1.262   6.705   3.303
 1803SOL    HW1 6308   1.242   6.762   3.382
 1803SOL    HW2 6309   1.343   6.650   3.322
 1804SOL     OW 6310   2.441   3.410   5.515
 1804SOL    HW1 6311   2.462   3.457   5.429
 1804SOL    HW2 6312   2.363   3.348   5.500
 1805SOL     OW 6313   0.367   6.135   6.490
 1805SOL    HW1 6314   0.458   6.096   6.477
 1805SOL    HW2 6315   0.316   6.131   6.404
 1806SOL     OW 6316   6.701   1.849   2.335
 1806SOL    HW1 6317   6.605   1.845   2.363
 1806SOL    HW2 6318   6.709   1.906   2.253
 1807SOL     OW 6319   6.645   3.455   1.893
 1807SOL    HW1 6320   6.644   3.464   1.992
 1807SOL    HW2 6321   6.562   3.410   1.862
 1808SOL     OW 6322   5.114   1.938   5.851
 1808SOL    HW1 6323   5.175   1.862   5.831
 1808SOL    HW2 6324   5.104   1.995   5.769
 1809SOL     OW 6325   3.926   1.513   6.176
 1809SOL    HW1 6326   3.839   1.546   6.138
 1809SOL    HW2 6327   4.001   1.565   6.136
 1810SOL     OW 6328   0.273   0.213   3.842
 1810SOL    HW1 6329   0.293   0.297   3.891
 1810SOL    HW2 6330   0.176   0.191   3.850
 1811SOL     OW 6331   4.666   5.851   2.353
 1811SOL    HW1 6332   4.625   5.819   2.439
 1811SOL    HW2 6333   4.594   5.876   2.289
 1812SOL     OW 6334   4.684   0.126   4.965
 1812SOL    HW1 6335   4.752   0.098   4.898
 1812SOL    HW2 6336   4.592   0.108   4.930
 1813SOL     OW 6337   4.434   4.548   2.420
 1813SOL    HW1 6338   4.438   4.536   2.321
 1813SOL    HW2 6339   4.462   4.464   2.465
 1814SOL     OW 6340   0.009   6.379   0.601
 1814SOL    HW1 6341   6.976   6.460   0.591
 1814SOL    HW2 6342   0.103   6.409   0.618
 1815SOL     OW 6343   6.030   6.208   1.629
 1815SOL    HW1 6344   5.973   6.279   1.588
 1815SOL    HW2 6345   6.037   6.130   1.567
 1816SOL     OW 6346   4.367   5.395   6.385
 1816SOL    HW1 6347   4.394   5.483   6.347
 1816SOL    HW2 6348   4.384   5.323   6.317
 1817SOL     OW 6349   1.218   1.941   3.728
 1817SOL    HW1 6350   1.211   1.858   3.673
 1817SOL    HW2 6351   1.211   1.917   3.825
 1818SOL     OW 6352   2.018   6.772   0.796
 1818SOL    HW1 6353   2.080   6.792   0.721
 1818SOL    HW2 6354   2.051   6.693   0.847
 1819SOL     OW 6355   2.388   4.803   3.496
 1819SOL    HW1 6356   2.407   4.850   3.410
 1819SOL    HW2 6357   2.290   4.799   3.511
 1820SOL     OW 6358   3.837   0.540   4.424
 1820SOL    HW1 6359   3.865   0.468   4.360
 1820SOL    HW2 6360   3.910   0.556   4.490
 1821SOL     OW 6361   3.904   2.139   2.212
 1821SOL    HW1 6362   3.870   2.203   2.143
 1821SOL    HW2 6363   3.837   2.133   2.287
 1822SOL     OW 6364   0.111   2.761   2.173
 1822SOL    HW1 6365   0.090   2.831   2.104
 1822SOL    HW2 6366   0.028   2.738   2.224
 1823SOL     OW 6367   3.837   6.831   2.506
 1823SOL    HW1 6368   3.752   6.873   2.476
 1823SOL    HW2 6369   3.892   6.897   2.556
 1824SOL     OW 6370   3.599   2.833   0.909
 1824SOL    HW1 6371   3.670   2.795   0.968
 1824SOL    HW2 6372   3.618   2.810   0.814
 1825SOL     OW 6373   2.009   1.583   4.952
 1825SOL    HW1 6374   1.952   1.653   4.994
 1825SOL    HW2 6375   1.990   1.578   4.854
 1826SOL     OW 6376   3.615   2.106   1.752
 1826SOL    HW1 6377   3.641   2.199   1.778
 1826SOL    HW2 6378   3.516   2.095   1.762
 1827SOL     OW 6379   5.341   4.399   0.842
 1827SOL    HW1 6380   5.250   4.416   0.807
 1827SOL    HW2 6381   5.370   4.307   0.818
 1828SOL     OW 6382   1.352   3.365   5.128
 1828SOL    HW1 6383   1.446   3.377   5.158
 1828SOL    HW2 6384   1.335   3.421   5.046
 1829SOL     OW 6385   3.747   0.799   3.547
 1829SOL    HW1 6386   3.750   0.898   3.531
 1829SOL    HW2 6387   3.840   0.766   3.561
 1830SOL     OW 6388   5.244   6.421   5.356
 1830SOL    HW1 6389   5.165   6.360   5.362
 1830SOL    HW2 6390   5.324   6.375   5.393
 1831SOL     OW 6391   4.732   5.563   1.685
 1831SOL    HW1 6392   4.810   5.590   1.742
 1831SOL    HW2 6393   4.763   5.500   1.614
 1832SOL     OW 6394   3.018   3.076   0.575
 1832SOL    HW1 6395   2.942   3.141   0.584
 1832SOL    HW2 6396   2.997   3.011   0.502
 1833SOL     OW 6397   5.252   0.281   0.795
 1833SOL    HW1 6398   5.301   0.367   0.807
 1833SOL    HW2 6399   5.251   0.231   0.882
 1834SOL     OW 6400   2.076   2.448   6.531
 1834SOL    HW1 6401   2.157   2.503   6.552
 1834SOL    HW2 6402   1.995   2.506   6.538
 1835SOL     OW 6403   7.000   5.758   0.847
 1835SOL    HW1 6404   0.011   5.845   0.814
 1835SOL    HW2 6405   6.941   5.776   0.926
 1836SOL     OW 6406   5.494   2.334   1.526
 1836SOL    HW1 6407   5.409   2.318   1.575
 1836SOL    HW2 6408   5.555   2.390   1.582
 1837SOL     OW 6409   2.886   1.747   6.522
 1837SOL    HW1 6410   2.836   1.834   6.514
 1837SOL    HW2 6411   2.971   1.763   6.571
 1838SOL     OW 6412   6.704   0.845   0.547
 1838SOL    HW1 6413   6.637   0.810   0.612
 1838SOL    HW2 6414   6.685   0.807   0.456
 1839SOL     OW 6415   6.593   1.064   6.960
 1839SOL    HW1 6416   6.543   1.140   6.917
 1839SOL    HW2 6417   6.589   0.984   6.900
 1840SOL     OW 6418   4.928   6.723   3.588
 1840SOL    HW1 6419   4.906   6.753   3.681
 1840SOL    HW2 6420   5.002   6.656   3.590
 1841SOL     OW 6421   2.152   1.147   2.247
 1841SOL    HW1 6422   2.234   1.180   2.201
 1841SOL    HW2 6423   2.116   1.218   2.307
 1842SOL     OW 6424   1.569   5.398   0.201
 1842SOL    HW1 6425   1.541   5.342   0.123
 1842SOL    HW2 6426   1.488   5.433   0.248
 1843SOL     OW 6427   3.749   1.103   4.838
 1843SOL    HW1 6428   3.836   1.097   4.789
 1843SOL    HW2 6429   3.687   1.165   4.790
 1844SOL     OW 6430   5.526   1.748   0.041
 1844SOL    HW1 6431   5.547   1.835   7.023
 1844SOL    HW2 6432   5.457   1.762   0.113
 1845SOL     OW 6433   1.337   1.092   2.767
 1845SOL    HW1 6434   1.243   1.064   2.748
 1845SOL    HW2 6435   1.344   1.191   2.764
 1846SOL     OW 6436   4.288   1.191   2.047
 1846SOL    HW1 6437   4.290   1.192   1.947
 1846SOL    HW2 6438   4.356   1.254   2.083
 1847SOL     OW 6439   2.268   0.128   5.536
 1847SOL    HW1 6440   2.285   0.030   5.524
 1847SOL    HW2 6441   2.261   0.149   5.633
 1848SOL     OW 6442   2.579   5.813   4.481
 1848SOL    HW1 6443   2.512   5.854   4.542
 1848SOL    HW2 6444   2.657   5.875   4.471
 1849SOL     OW 6445   4.847   2.843   1.874
 1849SOL    HW1 6446   4.773   2.897   1.915
 1849SOL    HW2 6447   4.928   2.848   1.932
 1850SOL     OW 6448   4.940   1.503   1.269
 1850SOL    HW1 6449   4.845   1.530   1.277
 1850SOL    HW2 6450   4.947   1.403   1.269
 1851SOL     OW 6451   6.940   3.990   5.201
 1851SOL    HW1 6452   6.841   4.000   5.208
 1851SOL    HW2 6453   6.968   4.005   5.106
 1852SOL     OW 6454   1.542   5.629   2.446
 1852SOL    HW1 6455   1.499   5.715   2.418
 1852SOL    HW2 6456   1.575   5.580   2.366
 1853SOL     OW 6457   0.029   2.393   4.380
 1853SOL    HW1 6458   0.018   2.297   4.405
 1853SOL    HW2 6459   0.080   2.440   4.453
 1854SOL     OW 6460   0.182   6.708   3.910
 1854SOL    HW1 6461   0.095   6.663   3.886
 1854SOL    HW2 6462   0.237   6.720   3.827
 1855SOL     OW 6463   5.070   3.536   5.031
 1855SOL    HW1 6464   5.064   3.454   4.973
 1855SOL    HW2 6465   4.988   3.592   5.017
 1856SOL     OW 6466   3.707   2.706   6.722
 1856SOL    HW1 6467   3.674   2.719   6.815
 1856SOL    HW2 6468   3.728   2.609   6.708
 1857SOL     OW 6469   4.710   1.208   1.062
 1857SOL    HW1 6470   4.635   1.154   1.024
 1857SOL    HW2 6471   4.748   1.267   0.991
 1858SOL     OW 6472   4.159   2.305   4.373
 1858SOL    HW1 6473   4.193   2.259   4.455
 1858SOL    HW2 6474   4.235   2.319   4.309
 1859SOL     OW 6475   5.694   2.343   4.024
 1859SOL    HW1 6476   5.630   2.332   4.100
 1859SOL    HW2 6477   5.787   2.334   4.058
 1860SOL     OW 6478   1.053   1.338   4.581
 1860SOL    HW1 6479   1.079   1.248   4.617
 1860SOL    HW2 6480   0.992   1.326   4.503
 1861SOL     OW 6481   6.532   0.205   3.397
 1861SOL    HW1 6482   6.618   0.253   3.414
 1861SOL    HW2 6483   6.547   0.107   3.402
 1862SOL     OW 6484   2.347   6.112   6.587
 1862SOL    HW1 6485   2.385   6.133   6.677
 1862SOL    HW2 6486   2.278   6.181   6.563
 1863SOL     OW 6487   0.818   3.127   1.217
 1863SOL    HW1 6488   0.736   3.174   1.185
 1863SOL    HW2 6489   0.851   3.170   1.301
 1864SOL     OW 6490   3.656   5.782   2.714
 1864SOL    HW1 6491   3.586   5.851   2.730
 1864SOL    HW2 6492   3.722   5.816   2.646
 1865SOL     OW 6493   5.504   0.975   6.188
 1865SOL    HW1 6494   5.503   1.035   6.108
 1865SOL    HW2 6495   5.522   0.881   6.160
 1866SOL     OW 6496   0.280   4.871   3.428
 1866SOL    HW1 6497   0.203   4.931   3.412
 1866SOL    HW2 6498   0.358   4.900   3.372
 1867SOL     OW 6499   2.463   2.105   1.095
 1867SOL    HW1 6500   2.400   2.027   1.090
 1867SOL    HW2 6501   2.551   2.075   1.130
 1868SOL     OW 6502   5.920   4.240   5.639
 1868SOL    HW1 6503   5.847   4.192   5.592
 1868SOL    HW2 6504   5.886   4.279   5.724
 1869SOL     OW 6505   5.115   1.596   4.219
 1869SOL    HW1 6506   5.051   1.551   4.157
 1869SOL    HW2 6507   5.209   1.576   4.190
 1870SOL     OW 6508   0.213   4.928   4.317
 1870SOL    HW1 6509   0.156   4.852   4.288
 1870SOL    HW2 6510   0.181   4.964   4.405
 1871SOL     OW 6511   0.850   6.488   0.728
 1871SOL    HW1 6512   0.866   6.407   0.672
 1871SOL    HW2 6513   0.752   6.507   0.733
 1872SOL     OW 6514   2.760   2.659   1.061
 1872SOL    HW1 6515   2.818   2.686   1.139
 1872SOL    HW2 6516   2.814   2.664   0.977
 1873SOL     OW 6517   6.698   1.459   0.225
 1873SOL    HW1 6518   6.756   1.409   0.160
 1873SOL    HW2 6519   6.735   1.550   0.240
 1874SOL     OW 6520   0.524   6.232   0.082
 1874SOL    HW1 6521   0.466   6.258   0.005
 1874SOL    HW2 6522   0.469   6.220   0.164
 1875SOL     OW 6523   6.621   4.674   0.469
 1875SOL    HW1 6524   6.639   4.758   0.418
 1875SOL    HW2 6525   6.531   4.679   0.512
 1876SOL     OW 6526   0.024   6.236   6.868
 1876SOL    HW1 6527   6.979   6.244   6.797
 1876SOL    HW2 6528   7.022   6.287   6.949
 1877SOL     OW 6529   0.160   0.714   2.246
 1877SOL    HW1 6530   0.185   0.634   2.191
 1877SOL    HW2 6531   0.105   0.686   2.324
 1878SOL     OW 6532   6.615   4.711   3.609
 1878SOL    HW1 6533   6.685   4.753   3.666
 1878SOL    HW2 6534   6.641   4.616   3.588
 1879SOL     OW 6535   4.452   5.498   4.601
 1879SOL    HW1 6536   4.491   5.544   4.522
 1879SOL    HW2 6537   4.508   5.518   4.682
 1880SOL     OW 6538   0.873   1.239   3.897
 1880SOL    HW1 6539   0.813   1.218   3.974
 1880SOL    HW2 6540   0.850   1.330   3.862
 1881SOL     OW 6541   1.341   1.466   4.197
 1881SOL    HW1 6542   1.380   1.483   4.288
 1881SOL    HW2 6543   1.292   1.379   4.197
 1882SOL     OW 6544   1.459   5.771   0.052
 1882SOL    HW1 6545   1.414   5.814   7.000
 1882SOL    HW2 6546   1.552   5.744   0.027
 1883SOL     OW 6547   1.573   3.101   2.916
 1883SOL    HW1 6548   1.624   3.177   2.957
 1883SOL    HW2 6549   1.500   3.073   2.977
 1884SOL     OW 6550   3.169   0.721   0.113
 1884SOL    HW1 6551   3.079   0.684   0.134
 1884SOL    HW2 6552   3.189   0.798   0.172
 1885SOL     OW 6553   0.022   2.110   1.391
 1885SOL    HW1 6554   6.958   2.066   1.383
 1885SOL    HW2 6555   0.080   2.079   1.316
 1886SOL     OW 6556   3.107   3.040   6.571
 1886SOL    HW1 6557   3.139   3.026   6.477
 1886SOL    HW2 6558   3.069   2.955   6.605
 1887SOL     OW 6559   0.798   6.649   5.524
 1887SOL    HW1 6560   0.726   6.659   5.455
 1887SOL    HW2 6561   0.825   6.553   5.529
 1888SOL     OW 6562   2.067   2.327   5.594
 1888SOL    HW1 6563   2.057   2.386   5.514
 1888SOL    HW2 6564   2.149   2.353   5.644
 1889SOL     OW 6565   4.283   2.706   0.323
 1889SOL    HW1 6566   4.264   2.804   0.323
 1889SOL    HW2 6567   4.379   2.692   0.347
 1890SOL     OW 6568   6.734   5.377   6.676
 1890SOL    HW1 6569   6.684   5.462   6.691
 1890SOL    HW2 6570   6.736   5.324   6.760
 1891SOL     OW 6571   6.275   3.847   5.649
 1891SOL    HW1 6572   6.250   3.890   5.562
 1891SOL    HW2 6573   6.294   3.750   5.634
 1892SOL     OW 6574   4.259   5.898   1.738
 1892SOL    HW1 6575   4.270   5.857   1.829
 1892SOL    HW2 6576   4.305   5.840   1.670
 1893SOL     OW 6577   4.093   1.819   3.972
 1893SOL    HW1 6578   4.090   1.816   4.072
 1893SOL    HW2 6579   4.000   1.826   3.936
 1894SOL     OW 6580   4.072   3.675   0.875
 1894SOL    HW1 6581   4.094   3.749   0.938
 1894SOL    HW2 6582   3.987   3.631   0.903
 1895SOL     OW 6583   5.621   0.235   3.298
 1895SOL    HW1 6584   5.713   0.200   3.315
 1895SOL    HW2 6585   5.599   0.306   3.364
 1896SOL     OW 6586   6.929   1.670   5.299
 1896SOL    HW1 6587   7.010   1.627   5.339
 1896SOL    HW2 6588   6.848   1.642   5.350
 1897SOL     OW 6589   5.911   4.840   3.123
 1897SOL    HW1 6590   5.814   4.822   3.112
 1897SOL    HW2 6591   5.927   4.889   3.208
 1898SOL     OW 6592   6.162   4.375   0.434
 1898SOL    HW1 6593   6.164   4.443   0.360
 1898SOL    HW2 6594   6.162   4.422   0.522
 1899SOL     OW 6595   1.103   3.200   2.652
 1899SOL    HW1 6596   1.060   3.227   2.738
 1899SOL    HW2 6597   1.166   3.271   2.621
 1900SOL     OW 6598   2.063   5.576   6.226
 1900SOL    HW1 6599   2.153   5.614   6.249
 1900SOL    HW2 6600   1.992   5.628   6.274
 1901SOL     OW 6601   1.385   1.228   6.619
 1901SOL    HW1 6602   1.367   1.161   6.547
 1901SOL    HW2 6603   1.322   1.305   6.609
 1902SOL     OW 6604   0.625   3.049   4.645
 1902SOL    HW1 6605   0.578   2.965   4.673
 1902SOL    HW2 6606   0.719   3.047   4.679
 1903SOL     OW 6607   6.513   3.026   3.800
 1903SOL    HW1 6608   6.469   3.083   3.730
 1903SOL    HW2 6609   6.517   3.077   3.886
 1904SOL     OW 6610   6.284   6.619   3.552
 1904SOL    HW1 6611   6.300   6.690   3.621
 1904SOL    HW2 6612   6.311   6.530   3.588
 1905SOL     OW 6613   6.658   2.489   3.747
 1905SOL    HW1 6614   6.727   2.479   3.676
 1905SOL    HW2 6615   6.671   2.577   3.794
 1906SOL     OW 6616   2.528   0.431   6.746
 1906SOL    HW1 6617   2.569   0.340   6.744
 1906SOL    HW2 6618   2.470   0.440   6.826
 1907SOL     OW 6619   3.949   6.127   3.806
 1907SOL    HW1 6620   3.944   6.188   3.885
 1907SOL    HW2 6621   3.911   6.173   3.725
 1908SOL     OW 6622   4.560   1.141   6.531
 1908SOL    HW1 6623   4.484   1.120   6.593
 1908SOL    HW2 6624   4.575   1.239   6.528
 1909SOL     OW 6625   2.470   5.309   4.400
 1909SOL    HW1 6626   2.499   5.323   4.305
 1909SOL    HW2 6627   2.494   5.390   4.454
 1910SOL     OW 6628   5.329   1.414   6.004
 1910SOL    HW1 6629   5.339   1.503   5.959
 1910SOL    HW2 6630   5.294   1.426   6.096
 1911SOL     OW 6631   6.303   2.853   4.995
 1911SOL    HW1 6632   6.251   2.939   4.997
 1911SOL    HW2 6633   6.354   2.847   4.909
 1912SOL     OW 6634   3.616   0.068   3.081
 1912SOL    HW1 6635   3.544   0.014   3.125
 1912SOL    HW2 6636   3.594   0.165   3.088
 1913SOL     OW 6637   1.599   5.153   5.706
 1913SOL    HW1 6638   1.520   5.179   5.651
 1913SOL    HW2 6639   1.675   5.126   5.646
 1914SOL     OW 6640   3.544   2.404   6.032
 1914SOL    HW1 6641   3.632   2.358   6.048
 1914SOL    HW2 6642   3.546   2.447   5.941
 1915SOL     OW 6643   3.556   0.073   5.551
 1915SOL    HW1 6644   3.539   0.091   5.648
 1915SOL    HW2 6645   3.608   0.149   5.512
 1916SOL     OW 6646   3.458   6.237   1.516
 1916SOL    HW1 6647   3.418   6.220   1.606
 1916SOL    HW2 6648   3.510   6.156   1.487
 1917SOL     OW 6649   3.067   3.214   4.093
 1917SOL    HW1 6650   3.009   3.296   4.103
 1917SOL    HW2 6651   3.154   3.230   4.139
 1918SOL     OW 6652   5.227   6.071   4.267
 1918SOL    HW1 6653   5.127   6.073   4.261
 1918SOL    HW2 6654   5.254   6.028   4.353
 1919SOL     OW 6655   6.841   6.596   1.627
 1919SOL    HW1 6656   6.783   6.519   1.654
 1919SOL    HW2 6657   6.853   6.657   1.705
 1920SOL     OW 6658   6.767   6.026   4.282
 1920SOL    HW1 6659   6.703   5.986   4.217
 1920SOL    HW2 6660   6.740   6.000   4.375
 1921SOL     OW 6661   0.993   6.719   6.847
 1921SOL    HW1 6662   1.088   6.732   6.873
 1921SOL    HW2 6663   0.983   6.630   6.802
 1922SOL     OW 6664   3.746   4.097   1.049
 1922SOL    HW1 6665   3.809   4.132   0.979
 1922SOL    HW2 6666   3.799   4.058   1.125
 1923SOL     OW 6667   1.851   1.610   0.722
 1923SOL    HW1 6668   1.797   1.535   0.684
 1923SOL    HW2 6669   1.797   1.657   0.792
 1924SOL     OW 6670   0.673   4.601   1.962
 1924SOL    HW1 6671   0.689   4.512   2.006
 1924SOL    HW2 6672   0.596   4.594   1.899
 1925SOL     OW 6673   2.953   4.192   1.429
 1925SOL    HW1 6674   2.865   4.239   1.434
 1925SOL    HW2 6675   3.022   4.245   1.479
 1926SOL     OW 6676   1.461   6.553   3.650
 1926SOL    HW1 6677   1.452   6.479   3.716
 1926SOL    HW2 6678   1.557   6.560   3.621
 1927SOL     OW 6679   3.508   3.911   6.865
 1927SOL    HW1 6680   3.555   3.851   6.800
 1927SOL    HW2 6681   3.439   3.965   6.817
 1928SOL     OW 6682   6.465   4.382   5.792
 1928SOL    HW1 6683   6.462   4.482   5.799
 1928SOL    HW2 6684   6.380   4.349   5.751
 1929SOL     OW 6685   0.963   6.536   1.590
 1929SOL    HW1 6686   1.025   6.546   1.668
 1929SOL    HW2 6687   0.908   6.620   1.581
 1930SOL     OW 6688   5.644   4.122   6.009
 1930SOL    HW1 6689   5.565   4.078   5.965
 1930SOL    HW2 6690   5.613   4.172   6.089
 1931SOL     OW 6691   0.521   2.785   4.073
 1931SOL    HW1 6692   0.526   2.852   4.148
 1931SOL    HW2 6693   0.587   2.712   4.090
 1932SOL     OW 6694   5.528   4.041   1.199
 1932SOL    HW1 6695   5.503   3.950   1.166
 1932SOL    HW2 6696   5.609   4.074   1.150
 1933SOL     OW 6697   3.126   4.230   0.887
 1933SOL    HW1 6698   3.065   4.216   0.809
 1933SOL    HW2 6699   3.162   4.323   0.885
 1934SOL     OW 6700   0.994   6.213   6.151
 1934SOL    HW1 6701   0.896   6.210   6.171
 1934SOL    HW2 6702   1.011   6.283   6.082
 1935SOL     OW 6703   2.715   0.325   3.843
 1935SOL    HW1 6704   2.655   0.330   3.922
 1935SOL    HW2 6705   2.664   0.352   3.761
 1936SOL     OW 6706   6.148   5.811   4.989
 1936SOL    HW1 6707   6.171   5.893   4.937
 1936SOL    HW2 6708   6.224   5.745   4.984
 1937SOL     OW 6709   4.077   6.192   2.037
 1937SOL    HW1 6710   4.165   6.213   1.993
 1937SOL    HW2 6711   4.005   6.194   1.968
 1938SOL     OW 6712   4.444   0.991   3.839
 1938SOL    HW1 6713   4.445   0.906   3.890
 1938SOL    HW2 6714   4.438   1.068   3.902
 1939SOL     OW 6715   1.638   1.033   3.864
 1939SOL    HW1 6716   1.628   1.128   3.892
 1939SOL    HW2 6717   1.556   1.003   3.815
 1940SOL     OW 6718   6.658   5.476   0.285
 1940SOL    HW1 6719   6.616   5.548   0.341
 1940SOL    HW2 6720   6.723   5.425   0.340
 1941SOL     OW 6721   5.430   4.121   1.923
 1941SOL    HW1 6722   5.420   4.079   1.833
 1941SOL    HW2 6723   5.339   4.145   1.958
 1942SOL     OW 6724   6.548   5.001   2.464
 1942SOL    HW1 6725   6.456   5.007   2.503
 1942SOL    HW2 6726   6.614   4.982   2.537
 1943SOL     OW 6727   2.637   4.697   3.460
 1943SOL    HW1 6728   2.671   4.709   3.553
 1943SOL    HW2 6729   2.559   4.759   3.445
 1944SOL     OW 6730   6.611   0.991   0.187
 1944SOL    HW1 6731   6.578   1.027   0.100
 1944SOL    HW2 6732   6.611   1.064   0.255
 1945SOL     OW 6733   3.706   5.321   3.814
 1945SOL    HW1 6734   3.714   5.291   3.909
 1945SOL    HW2 6735   3.641   5.398   3.809
 1946SOL     OW 6736   1.279   0.338   0.019
 1946SOL    HW1 6737   1.314   0.428   7.020
 1946SOL    HW2 6738   1.211   0.347   0.092
 1947SOL     OW 6739   5.332   5.730   3.217
 1947SOL    HW1 6740   5.236   5.720   3.191
 1947SOL    HW2 6741   5.346   5.822   3.255
 1948SOL     OW 6742   6.678   5.961   4.542
 1948SOL    HW1 6743   6.598   5.906   4.568
 1948SOL    HW2 6744   6.677   6.046   4.594
 1949SOL     OW 6745   4.093   4.043   6.493
 1949SOL    HW1 6746   4.095   4.013   6.588
 1949SOL    HW2 6747   4.010   4.095   6.475
 1950SOL     OW 6748   3.306   3.994   6.296
 1950SOL    HW1 6749   3.225   3.970   6.350
 1950SOL    HW2 6750   3.383   3.938   6.324
 1951SOL     OW 6751   6.076   1.180   6.481
 1951SOL    HW1 6752   6.154   1.135   6.524
 1951SOL    HW2 6753   5.992   1.132   6.507
 1952SOL     OW 6754   3.768   2.001   0.264
 1952SOL    HW1 6755   3.865   2.011   0.244
 1952SOL    HW2 6756   3.734   2.086   0.306
 1953SOL     OW 6757   6.846   2.420   6.411
 1953SOL    HW1 6758   6.945   2.421   6.398
 1953SOL    HW2 6759   6.814   2.326   6.422
 1954SOL     OW 6760   3.652   2.123   3.927
 1954SOL    HW1 6761   3.706   2.160   4.002
 1954SOL    HW2 6762   3.588   2.054   3.961
 1955SOL     OW 6763   0.122   6.332   2.209
 1955SOL    HW1 6764   0.091   6.308   2.117
 1955SOL    HW2 6765   0.221   6.339   2.210
 1956SOL     OW 6766   5.791   5.869   2.866
 1956SOL    HW1 6767   5.701   5.829   2.851
 1956SOL    HW2 6768   5.808   5.879   2.964
 1957SOL     OW 6769   0.628   6.437   4.947
 1957SOL    HW1 6770   0.593   6.368   5.010
 1957SOL    HW2 6771   0.558   6.459   4.880
 1958SOL     OW 6772   5.482   3.382   5.658
 1958SOL    HW1 6773   5.557   3.427   5.609
 1958SOL    HW2 6774   5.395   3.412   5.620
 1959SOL     OW 6775   1.370   2.254   6.406
 1959SOL    HW1 6776   1.411   2.237   6.317
 1959SOL    HW2 6777   1.392   2.179   6.468
 1960SOL     OW 6778   5.878   5.327   0.722
 1960SOL    HW1 6779   5.960   5.289   0.766
 1960SOL    HW2 6780   5.798   5.275   0.752
 1961SOL     OW 6781   5.912   4.143   3.667
 1961SOL    HW1 6782   5.864   4.097   3.741
 1961SOL    HW2 6783   6.007   4.115   3.665
 1962SOL     OW 6784   1.454   5.991   3.247
 1962SOL    HW1 6785   1.510   6.062   3.292
 1962SOL    HW2 6786   1.416   6.028   3.163
 1963SOL     OW 6787   0.956   0.208   2.575
 1963SOL    HW1 6788   0.947   0.141   2.650
 1963SOL    HW2 6789   1.052   0.237   2.568
 1964SOL     OW 6790   4.517   2.567   2.591
 1964SOL    HW1 6791   4.470   2.507   2.526
 1964SOL    HW2 6792   4.485   2.547   2.684
 1965SOL     OW 6793   1.158   3.476   3.308
 1965SOL    HW1 6794   1.074   3.457   3.258
 1965SOL    HW2 6795   1.166   3.574   3.326
 1966SOL     OW 6796   0.063   5.322   5.723
 1966SOL    HW1 6797   0.011   5.408   5.727
 1966SOL    HW2 6798   0.013   5.255   5.668
 1967SOL     OW 6799   4.397   2.819   5.494
 1967SOL    HW1 6800   4.314   2.786   5.449
 1967SOL    HW2 6801   4.400   2.919   5.488
 1968SOL     OW 6802   2.685   6.410   0.070
 1968SOL    HW1 6803   2.721   6.318   0.057
 1968SOL    HW2 6804   2.642   6.416   0.160
 1969SOL     OW 6805   6.570   2.332   1.388
 1969SOL    HW1 6806   6.578   2.240   1.427
 1969SOL    HW2 6807   6.480   2.369   1.411
 1970SOL     OW 6808   1.951   0.090   4.341
 1970SOL    HW1 6809   2.015   0.021   4.309
 1970SOL    HW2 6810   1.984   0.128   4.428
 1971SOL     OW 6811   0.368   6.654   6.947
 1971SOL    HW1 6812   0.308   6.594   7.000
 1971SOL    HW2 6813   0.462   6.622   6.956
 1972SOL     OW 6814   0.624   4.338   3.734
 1972SOL    HW1 6815   0.608   4.308   3.828
 1972SOL    HW2 6816   0.592   4.432   3.723
 1973SOL     OW 6817   3.400   2.654   1.438
 1973SOL    HW1 6818   3.372   2.709   1.516
 1973SOL    HW2 6819   3.472   2.591   1.466
 1974SOL     OW 6820   5.362   0.403   3.930
 1974SOL    HW1 6821   5.405   0.316   3.954
 1974SOL    HW2 6822   5.345   0.456   4.013
 1975SOL     OW 6823   3.354   0.576   4.039
 1975SOL    HW1 6824   3.405   0.653   4.000
 1975SOL    HW2 6825   3.415   0.499   4.052
 1976SOL     OW 6826   0.561   6.275   0.638
 1976SOL    HW1 6827   0.486   6.225   0.681
 1976SOL    HW2 6828   0.591   6.228   0.556
 1977SOL     OW 6829   0.938   2.385   4.700
 1977SOL    HW1 6830   0.951   2.455   4.630
 1977SOL    HW2 6831   0.995   2.406   4.779
 1978SOL     OW 6832   0.090   1.451   4.609
 1978SOL    HW1 6833   0.003   1.481   4.570
 1978SOL    HW2 6834   0.151   1.529   4.620
 1979SOL     OW 6835   6.880   4.475   4.207
 1979SOL    HW1 6836   6.968   4.435   4.231
 1979SOL    HW2 6837   6.821   4.478   4.287
 1980SOL     OW 6838   3.853   0.215   1.406
 1980SOL    HW1 6839   3.873   0.278   1.481
 1980SOL    HW2 6840   3.884   0.256   1.319
 1981SOL     OW 6841   5.048   3.030   2.032
 1981SOL    HW1 6842   5.089   3.014   1.943
 1981SOL    HW2 6843   4.951   3.052   2.021
 1982SOL     OW 6844   5.931   5.061   4.675
 1982SOL    HW1 6845   5.961   5.115   4.753
 1982SOL    HW2 6846   5.874   4.985   4.707
 1983SOL     OW 6847   1.208   2.891   3.413
 1983SOL    HW1 6848   1.157   2.976   3.426
 1983SOL    HW2 6849   1.227   2.878   3.316
 1984SOL     OW 6850   4.504   1.925   6.044
 1984SOL    HW1 6851   4.507   1.992   6.119
 1984SOL    HW2 6852   4.409   1.902   6.023
 1985SOL     OW 6853   1.349   0.835   1.613
 1985SOL    HW1 6854   1.249   0.831   1.615
 1985SOL    HW2 6855   1.380   0.903   1.680
 1986SOL     OW 6856   1.300   2.260   7.015
 1986SOL    HW1 6857   1.306   2.314   6.931
 1986SOL    HW2 6858   1.209   2.269   0.028
 1987SOL     OW 6859   2.489   3.322   1.382
 1987SOL    HW1 6860   2.481   3.385   1.460
 1987SOL    HW2 6861   2.398   3.291   1.356
 1988SOL     OW 6862   5.006   3.463   6.876
 1988SOL    HW1 6863   4.945   3.387   6.899
 1988SOL    HW2 6864   5.069   3.479   6.951
 1989SOL     OW 6865   2.101   0.183   4.587
 1989SOL    HW1 6866   2.095   0.270   4.635
 1989SOL    HW2 6867   2.170   0.188   4.516
 1990SOL     OW 6868   2.981   0.772   1.171
 1990SOL    HW1 6869   2.944   0.685   1.204
 1990SOL    HW2 6870   2.907   0.838   1.161
 1991SOL     OW 6871   3.425   5.734   4.701
 1991SOL    HW1 6872   3.381   5.788   4.629
 1991SOL    HW2 6873   3.373   5.742   4.786
 1992SOL     OW 6874   2.294   6.906   5.231
 1992SOL    HW1 6875   2.234   6.976   5.268
 1992SOL    HW2 6876   2.380   6.948   5.200
 1993SOL     OW 6877   3.383   3.748   5.459
 1993SOL    HW1 6878   3.430   3.688   5.393
 1993SOL    HW2 6879   3.406   3.844   5.438
 1994SOL     OW 6880   6.583   1.992   1.949
 1994SOL    HW1 6881   6.618   1.981   1.856
 1994SOL    HW2 6882   6.660   1.997   2.014
 1995SOL     OW 6883   6.188   1.810   1.570
 1995SOL    HW1 6884   6.128   1.779   1.496
 1995SOL    HW2 6885   6.160   1.769   1.656
 1996SOL     OW 6886   3.393   4.317   0.158
 1996SOL    HW1 6887   3.307   4.265   0.156
 1996SOL    HW2 6888   3.399   4.368   0.243
 1997SOL     OW 6889   5.315   0.397   4.921
 1997SOL    HW1 6890   5.346   0.365   5.010
 1997SOL    HW2 6891   5.379   0.368   4.850
 1998SOL     OW 6892   2.867   4.068   6.538
 1998SOL    HW1 6893   2.855   3.969   6.549
 1998SOL    HW2 6894   2.791   4.116   6.583
 1999SOL     OW 6895   2.426   6.928   1.852
 1999SOL    HW1 6896   2.425   6.878   1.766
 1999SOL    HW2 6897   2.349   6.899   1.909
 2000SOL     OW 6898   4.261   0.872   5.057
 2000SOL    HW1 6899   4.248   0.914   4.967
 2000SOL    HW2 6900   4.172   0.852   5.097
 2001SOL     OW 6901   3.045   1.530   1.232
 2001SOL    HW1 6902   3.080   1.441   1.263
 2001SOL    HW2 6903   3.006   1.579   1.310
 2002SOL     OW 6904   2.022   5.937   5.669
 2002SOL    HW1 6905   2.010   5.921   5.767
 2002SOL    HW2 6906   2.119   5.954   5.650
 2003SOL     OW 6907   5.635   6.415   3.355
 2003SOL    HW1 6908   5.591   6.379   3.438
 2003SOL    HW2 6909   5.568   6.468   3.302
 2004SOL     OW 6910   3.217   0.945   5.613
 2004SOL    HW1 6911   3.147   0.875   5.632
 2004SOL    HW2 6912   3.172   1.032   5.595
 2005SOL     OW 6913   2.147   6.320   6.110
 2005SOL    HW1 6914   2.240   6.295   6.081
 2005SOL    HW2 6915   2.082   6.293   6.039
 2006SOL     OW 6916   4.393   5.021   4.276
 2006SOL    HW1 6917   4.465   4.971   4.323
 2006SOL    HW2 6918   4.352   5.087   4.339
 2007SOL     OW 6919   5.293   5.160   0.168
 2007SOL    HW1 6920   5.315   5.078   0.221
 2007SOL    HW2 6921   5.373   5.188   0.116
 2008SOL     OW 6922   6.651   6.404   3.266
 2008SOL    HW1 6923   6.560   6.440   3.285
 2008SOL    HW2 6924   6.686   6.356   3.347
 2009SOL     OW 6925   0.238   0.447   1.848
 2009SOL    HW1 6926   0.206   0.402   1.765
 2009SOL    HW2 6927   0.297   0.524   1.824
 2010SOL     OW 6928   0.781   0.757   1.093
 2010SOL    HW1 6929   0.790   0.774   1.191
 2010SOL    HW2 6930   0.765   0.843   1.045
 2011SOL     OW 6931   6.320   2.260   5.222
 2011SOL    HW1 6932   6.270   2.227   5.142
 2011SOL    HW2 6933   6.287   2.351   5.247
 2012SOL     OW 6934   1.302   4.293   1.697
 2012SOL    HW1 6935   1.335   4.385   1.675
 2012SOL    HW2 6936   1.373   4.226   1.674
 2013SOL     OW 6937   6.019   1.770   2.703
 2013SOL    HW1 6938   5.933   1.778   2.754
 2013SOL    HW2 6939   6.091   1.818   2.752
 2014SOL     OW 6940   1.724   6.057   3.775
 2014SOL    HW1 6941   1.785   6.118   3.825
 2014SOL    HW2 6942   1.665   6.008   3.839
 2015SOL     OW 6943   3.650   0.355   0.397
 2015SOL    HW1 6944   3.569   0.296   0.386
 2015SOL    HW2 6945   3.625   0.449   0.377
 2016SOL     OW 6946   0.580   5.543   4.046
 2016SOL    HW1 6947   0.679   5.546   4.029
 2016SOL    HW2 6948   0.547   5.449   4.036
 2017SOL     OW 6949   2.135   5.955   3.246
 2017SOL    HW1 6950   2.178   6.044   3.256
 2017SOL    HW2 6951   2.044   5.967   3.206
 2018SOL     OW 6952   0.364   5.705   6.111
 2018SOL    HW1 6953   0.396   5.762   6.035
 2018SOL    HW2 6954   0.381   5.609   6.090
 2019SOL     OW 6955   5.975   2.186   0.801
 2019SOL    HW1 6956   5.963   2.157   0.896
 2019SOL    HW2 6957   5.958   2.285   0.794
 2020SOL     OW 6958   2.202   5.197   3.960
 2020SOL    HW1 6959   2.195   5.100   3.937
 2020SOL    HW2 6960   2.297   5.226   3.956
 2021SOL     OW 6961   1.640   0.824   2.612
 2021SOL    HW1 6962   1.579   0.823   2.532
 2021SOL    HW2 6963   1.647   0.917   2.647
 2022SOL     OW 6964   2.578   3.694   1.585
 2022SOL    HW1 6965   2.503   3.755   1.613
 2022SOL    HW2 6966   2.557   3.601   1.614
 2023SOL     OW 6967   0.042   1.189   6.612
 2023SOL    HW1 6968   7.014   1.250   6.670
 2023SOL    HW2 6969   0.059   1.103   6.661
 2024SOL     OW 6970   6.358   0.666   3.672
 2024SOL    HW1 6971   6.401   0.634   3.756
 2024SOL    HW2 6972   6.421   0.725   3.622
 2025SOL     OW 6973   0.437   2.278   1.406
 2025SOL    HW1 6974   0.419   2.355   1.346
 2025SOL    HW2 6975   0.380   2.284   1.488
 2026SOL     OW 6976   2.444   2.079   5.584
 2026SOL    HW1 6977   2.384   2.093   5.663
 2026SOL    HW2 6978   2.400   2.114   5.502
 2027SOL     OW 6979   1.099   1.153   2.342
 2027SOL    HW1 6980   0.999   1.146   2.343
 2027SOL    HW2 6981   1.129   1.211   2.418
 2028SOL     OW 6982   3.743   1.761   0.420
 2028SOL    HW1 6983   3.724   1.834   0.354
 2028SOL    HW2 6984   3.678   1.766   0.496
 2029SOL     OW 6985   1.208   1.429   6.622
 2029SOL    HW1 6986   1.223   1.459   6.528
 2029SOL    HW2 6987   1.110   1.426   6.640
 2030SOL     OW 6988   1.628   2.515   3.830
 2030SOL    HW1 6989   1.570   2.433   3.835
 2030SOL    HW2 6990   1.635   2.544   3.735
 2031SOL     OW 6991   5.538   6.007   2.254
 2031SOL    HW1 6992   5.606   5.983   2.184
 2031SOL    HW2 6993   5.578   5.997   2.345
 2032SOL     OW 6994   5.017   5.958   0.187
 2032SOL    HW1 6995   4.918   5.958   0.173
 2032SOL    HW2 6996   5.037   5.977   0.283
 2033SOL     OW 6997   5.045   4.683   6.399
 2033SOL    HW1 6998   5.101   4.702   6.318
 2033SOL    HW2 6999   4.959   4.734   6.393
 2034SOL     OW 7000   2.592   6.709   3.295
 2034SOL    HW1 7001   2.682   6.738   3.262
 2034SOL    HW2 7002   2.577   6.613   3.272
 2035SOL     OW 7003   0.252   1.691   2.979
 2035SOL    HW1 7004   0.166   1.673   2.931
 2035SOL    HW2 7005   0.304   1.759   2.928
 2036SOL     OW 7006   0.251   5.284   0.903
 2036SOL    HW1 7007   0.275   5.367   0.953
 2036SOL    HW2 7008   0.298   5.284   0.814
 2037SOL     OW 7009   6.926   2.234   5.437
 2037SOL    HW1 7010   6.889   2.253   5.346
 2037SOL    HW2 7011   6.934   2.135   5.449
 2038SOL     OW 7012   0.392   1.659   4.860
 2038SOL    HW1 7013   0.368   1.571   4.901
 2038SOL    HW2 7014   0.365   1.733   4.922
 2039SOL     OW 7015   6.176   5.723   3.726
 2039SOL    HW1 7016   6.097   5.689   3.676
 2039SOL    HW2 7017   6.147   5.793   3.792
 2040SOL     OW 7018   4.088   3.277   4.770
 2040SOL    HW1 7019   4.019   3.208   4.750
 2040SOL    HW2 7020   4.166   3.234   4.816
 2041SOL     OW 7021   5.859   4.630   5.978
 2041SOL    HW1 7022   5.841   4.587   5.889
 2041SOL    HW2 7023   5.856   4.729   5.968
 2042SOL     OW 7024   5.221   4.927   0.781
 2042SOL    HW1 7025   5.131   4.921   0.823
 2042SOL    HW2 7026   5.291   4.897   0.846
 2043SOL     OW 7027   6.140   5.296   2.543
 2043SOL    HW1 7028   6.063   5.347   2.505
 2043SOL    HW2 7029   6.194   5.357   2.602
 2044SOL     OW 7030   5.863   0.305   1.996
 2044SOL    HW1 7031   5.764   0.315   1.982
 2044SOL    HW2 7032   5.903   0.259   1.917
 2045SOL     OW 7033   2.377   4.616   6.364
 2045SOL    HW1 7034   2.349   4.548   6.432
 2045SOL    HW2 7035   2.310   4.618   6.290
 2046SOL     OW 7036   6.620   0.447   4.358
 2046SOL    HW1 7037   6.626   0.465   4.457
 2046SOL    HW2 7038   6.556   0.373   4.342
 2047SOL     OW 7039   4.903   2.412   1.364
 2047SOL    HW1 7040   4.834   2.442   1.298
 2047SOL    HW2 7041   4.939   2.491   1.413
 2048SOL     OW 7042   3.787   0.221   0.131
 2048SOL    HW1 7043   3.752   0.259   0.217
 2048SOL    HW2 7044   3.732   0.142   0.105
 2049SOL     OW 7045   4.608   1.400   6.623
 2049SOL    HW1 7046   4.551   1.445   6.692
 2049SOL    HW2 7047   4.660   1.469   6.573
 2050SOL     OW 7048   5.804   2.649   3.944
 2050SOL    HW1 7049   5.893   2.617   3.911
 2050SOL    HW2 7050   5.792   2.622   4.039
 2051SOL     OW 7051   0.984   5.639   0.101
 2051SOL    HW1 7052   0.947   5.548   0.116
 2051SOL    HW2 7053   1.084   5.636   0.111
 2052SOL     OW 7054   0.884   2.920   6.904
 2052SOL    HW1 7055   0.857   2.967   6.989
 2052SOL    HW2 7056   0.982   2.900   6.907
 2053SOL     OW 7057   6.392   0.938   0.416
 2053SOL    HW1 7058   6.339   0.950   0.332
 2053SOL    HW2 7059   6.468   1.003   0.417
 2054SOL     OW 7060   6.044   3.064   0.708
 2054SOL    HW1 7061   6.107   2.997   0.747
 2054SOL    HW2 7062   6.006   3.028   0.623
 2055SOL     OW 7063   5.500   2.578   3.453
 2055SOL    HW1 7064   5.500   2.671   3.490
 2055SOL    HW2 7065   5.433   2.523   3.502
 2056SOL     OW 7066   2.270   1.309   3.114
 2056SOL    HW1 7067   2.201   1.350   3.173
 2056SOL    HW2 7068   2.354   1.363   3.118
 2057SOL     OW 7069   5.954   2.333   4.100
 2057SOL    HW1 7070   6.013   2.411   4.120
 2057SOL    HW2 7071   5.983   2.290   4.014
 2058SOL     OW 7072   0.197   2.083   3.407
 2058SOL    HW1 7073   0.178   2.180   3.423
 2058SOL    HW2 7074   0.289   2.062   3.438
 2059SOL     OW 7075   1.818   0.973   6.480
 2059SOL    HW1 7076   1.892   1.039   6.470
 2059SOL    HW2 7077   1.831   0.898   6.415
 2060SOL     OW 7078   0.129   4.607   1.827
 2060SOL    HW1 7079   0.198   4.534   1.829
 2060SOL    HW2 7080   0.067   4.592   1.750
 2061SOL     OW 7081   0.175   1.072   2.439
 2061SOL    HW1 7082   0.119   1.012   2.382
 2061SOL    HW2 7083   0.269   1.036   2.443
 2062SOL     OW 7084   4.748   0.062   2.400
 2062SOL    HW1 7085   4.695   0.145   2.419
 2062SOL    HW2 7086   4.830   0.061   2.457
 2063SOL     OW 7087   1.842   2.629   6.256
 2063SOL    HW1 7088   1.761   2.602   6.308
 2063SOL    HW2 7089   1.850   2.569   6.176
 2064SOL     OW 7090   0.952   2.167   5.430
 2064SOL    HW1 7091   0.892   2.180   5.509
 2064SOL    HW2 7092   0.918   2.223   5.354
 2065SOL     OW 7093   6.094   3.448   2.204
 2065SOL    HW1 7094   6.133   3.357   2.223
 2065SOL    HW2 7095   6.079   3.456   2.106
 2066SOL     OW 7096   0.565   6.213   4.534
 2066SOL    HW1 7097   0.477   6.262   4.528
 2066SOL    HW2 7098   0.568   6.161   4.619
 2067SOL     OW 7099   6.645   6.733   0.833
 2067SOL    HW1 7100   6.610   6.819   0.868
 2067SOL    HW2 7101   6.743   6.741   0.815
 2068SOL     OW 7102   2.461   1.489   5.495
 2068SOL    HW1 7103   2.473   1.533   5.584
 2068SOL    HW2 7104   2.373   1.441   5.493
 2069SOL     OW 7105   0.654   2.840   2.586
 2069SOL    HW1 7106   0.723   2.858   2.516
 2069SOL    HW2 7107   0.661   2.746   2.618
 2070SOL     OW 7108   1.264   0.569   2.421
 2070SOL    HW1 7109   1.240   0.664   2.403
 2070SOL    HW2 7110   1.182   0.512   2.423
 2071SOL     OW 7111   0.652   6.665   3.396
 2071SOL    HW1 7112   0.590   6.720   3.340
 2071SOL    HW2 7113   0.734   6.718   3.417
 2072SOL     OW 7114   4.895   5.988   2.114
 2072SOL    HW1 7115   4.879   5.927   2.192
 2072SOL    HW2 7116   4.807   6.024   2.081
 2073SOL     OW 7117   3.922   6.968   4.760
 2073SOL    HW1 7118   3.869   6.884   4.768
 2073SOL    HW2 7119   3.871   0.008   4.705
 2074SOL     OW 7120   6.846   2.111   0.474
 2074SOL    HW1 7121   6.820   2.065   0.390
 2074SOL    HW2 7122   6.803   2.066   0.552
 2075SOL     OW 7123   4.310   3.009   0.956
 2075SOL    HW1 7124   4.240   2.938   0.962
 2075SOL    HW2 7125   4.272   3.090   0.911
 2076SOL     OW 7126   5.518   5.903   6.875
 2076SOL    HW1 7127   5.426   5.866   6.892
 2076SOL    HW2 7128   5.577   5.881   6.952
 2077SOL     OW 7129   5.320   1.808   2.225
 2077SOL    HW1 7130   5.263   1.733   2.261
 2077SOL    HW2 7131   5.385   1.836   2.295
 2078SOL     OW 7132   2.817   5.775   6.381
 2078SOL    HW1 7133   2.899   5.788   6.435
 2078SOL    HW2 7134   2.842   5.750   6.287
 2079SOL     OW 7135   5.677   0.814   3.665
 2079SOL    HW1 7136   5.670   0.715   3.657
 2079SOL    HW2 7137   5.588   0.855   3.646
 2080SOL     OW 7138   2.740   2.122   4.891
 2080SOL    HW1 7139   2.688   2.043   4.857
 2080SOL    HW2 7140   2.676   2.189   4.929
 2081SOL     OW 7141   0.956   6.775   5.157
 2081SOL    HW1 7142   0.875   6.730   5.120
 2081SOL    HW2 7143   0.939   6.873   5.167
 2082SOL     OW 7144   5.695   0.450   1.373
 2082SOL    HW1 7145   5.657   0.533   1.333
 2082SOL    HW2 7146   5.641   0.371   1.345
 2083SOL     OW 7147   3.733   5.599   0.098
 2083SOL    HW1 7148   3.718   5.692   0.131
 2083SOL    HW2 7149   3.654   5.569   0.045
 2084SOL     OW 7150   6.931   2.375   3.147
 2084SOL    HW1 7151   6.894   2.399   3.237
 2084SOL    HW2 7152   6.866   2.403   3.076
 2085SOL     OW 7153   4.792   1.118   6.661
 2085SOL    HW1 7154   4.712   1.105   6.601
 2085SOL    HW2 7155   4.875   1.102   6.608
 2086SOL     OW 7156   3.391   4.497   6.596
 2086SOL    HW1 7157   3.429   4.492   6.688
 2086SOL    HW2 7158   3.296   4.529   6.600
 2087SOL     OW 7159   5.114   6.529   3.021
 2087SOL    HW1 7160   5.081   6.523   3.115
 2087SOL    HW2 7161   5.035   6.528   2.958
 2088SOL     OW 7162   3.248   6.729   0.954
 2088SOL    HW1 7163   3.319   6.786   0.996
 2088SOL    HW2 7164   3.161   6.746   1.000
 2089SOL     OW 7165   4.624   1.687   0.096
 2089SOL    HW1 7166   4.602   1.718   0.004
 2089SOL    HW2 7167   4.660   1.594   0.092
 2090SOL     OW 7168   3.758   4.038   4.667
 2090SOL    HW1 7169   3.760   4.085   4.578
 2090SOL    HW2 7170   3.669   4.054   4.710
 2091SOL     OW 7171   0.520   5.891   0.598
 2091SOL    HW1 7172   0.428   5.891   0.559
 2091SOL    HW2 7173   0.515   5.902   0.697
 2092SOL     OW 7174   5.534   6.047   0.578
 2092SOL    HW1 7175   5.442   6.087   0.582
 2092SOL    HW2 7176   5.600   6.117   0.551
 2093SOL     OW 7177   1.251   2.388   2.568
 2093SOL    HW1 7178   1.205   2.475   2.586
 2093SOL    HW2 7179   1.350   2.404   2.564
 2094SOL     OW 7180   5.877   0.618   1.973
 2094SOL    HW1 7181   5.903   0.545   2.036
 2094SOL    HW2 7182   5.779   0.611   1.953
 2095SOL     OW 7183   5.192   6.131   3.627
 2095SOL    HW1 7184   5.211   6.137   3.529
 2095SOL    HW2 7185   5.094   6.141   3.642
 2096SOL     OW 7186   5.072   3.792   2.443
 2096SOL    HW1 7187   5.113   3.709   2.482
 2096SOL    HW2 7188   5.004   3.766   2.374
 2097SOL     OW 7189   0.682   2.769   6.808
 2097SOL    HW1 7190   0.606   2.830   6.786
 2097SOL    HW2 7191   0.765   2.823   6.823
 2098SOL     OW 7192   4.241   6.170   4.004
 2098SOL    HW1 7193   4.291   6.093   4.045
 2098SOL    HW2 7194   4.164   6.195   4.062
 2099SOL     OW 7195   2.978   1.051   5.026
 2099SOL    HW1 7196   2.879   1.043   5.037
 2099SOL    HW2 7197   3.007   1.144   5.047
 2100SOL     OW 7198   3.838   3.883   6.658
 2100SOL    HW1 7199   3.824   3.907   6.562
 2100SOL    HW2 7200   3.801   3.956   6.716
 2101SOL     OW 7201   0.889   0.121   2.815
 2101SOL    HW1 7202   0.865   0.197   2.876
 2101SOL    HW2 7203   0.856   0.035   2.854
 2102SOL     OW 7204   0.548   5.729   2.751
 2102SOL    HW1 7205   0.499   5.708   2.666
 2102SOL    HW2 7206   0.629   5.671   2.758
 2103SOL     OW 7207   3.134   3.710   6.921
 2103SOL    HW1 7208   3.056   3.656   6.888
 2103SOL    HW2 7209   3.164   3.673   7.009
 2104SOL     OW 7210   1.771   3.367   6.200
 2104SOL    HW1 7211   1.840   3.392   6.132
 2104SOL    HW2 7212   1.744   3.271   6.187
 2105SOL     OW 7213   5.541   5.684   2.845
 2105SOL    HW1 7214   5.448   5.720   2.834
 2105SOL    HW2 7215   5.537   5.595   2.890
 2106SOL     OW 7216   4.162   4.981   6.711
 2106SOL    HW1 7217   4.257   4.996   6.740
 2106SOL    HW2 7218   4.110   5.066   6.722
 2107SOL     OW 7219   3.842   3.765   5.805
 2107SOL    HW1 7220   3.840   3.693   5.874
 2107SOL    HW2 7221   3.879   3.729   5.719
 2108SOL     OW 7222   6.114   5.492   5.468
 2108SOL    HW1 7223   6.073   5.520   5.381
 2108SOL    HW2 7224   6.209   5.525   5.471
 2109SOL     OW 7225   5.300   6.336   3.384
 2109SOL    HW1 7226   5.212   6.308   3.346
 2109SOL    HW2 7227   5.320   6.430   3.354
 2110SOL     OW 7228   2.491   4.845   6.880
 2110SOL    HW1 7229   2.476   4.848   6.781
 2110SOL    HW2 7230   2.557   4.772   6.901
 2111SOL     OW 7231   0.844   2.467   6.098
 2111SOL    HW1 7232   0.921   2.487   6.159
 2111SOL    HW2 7233   0.782   2.403   6.143
 2112SOL     OW 7234   4.068   2.641   1.676
 2112SOL    HW1 7235   3.974   2.668   1.700
 2112SOL    HW2 7236   4.130   2.718   1.694
 2113SOL     OW 7237   1.698   6.962   2.829
 2113SOL    HW1 7238   1.675   7.003   2.917
 2113SOL    HW2 7239   1.797   6.965   2.816
 2114SOL     OW 7240   1.286   4.120   0.799
 2114SOL    HW1 7241   1.308   4.056   0.872
 2114SOL    HW2 7242   1.312   4.213   0.827
 2115SOL     OW 7243   2.313   4.475   3.577
 2115SOL    HW1 7244   2.385   4.482   3.508
 2115SOL    HW2 7245   2.240   4.539   3.555
 2116SOL     OW 7246   6.560   4.064   3.074
 2116SOL    HW1 7247   6.586   4.144   3.129
 2116SOL    HW2 7248   6.637   4.037   3.017
 2117SOL     OW 7249   0.020   4.651   1.578
 2117SOL    HW1 7250   0.043   4.609   1.490
 2117SOL    HW2 7251   6.956   4.695   1.571
 2118SOL     OW 7252   0.049   3.599   1.820
 2118SOL    HW1 7253   7.007   3.551   1.765
 2118SOL    HW2 7254   0.108   3.653   1.760
 2119SOL     OW 7255   1.935   5.586   0.904
 2119SOL    HW1 7256   2.007   5.618   0.843
 2119SOL    HW2 7257   1.964   5.500   0.947
 2120SOL     OW 7258   6.219   4.236   2.654
 2120SOL    HW1 7259   6.154   4.271   2.721
 2120SOL    HW2 7260   6.308   4.222   2.697
 2121SOL     OW 7261   0.608   5.444   5.208
 2121SOL    HW1 7262   0.537   5.516   5.208
 2121SOL    HW2 7263   0.661   5.450   5.124
 2122SOL     OW 7264   5.729   4.389   5.365
 2122SOL    HW1 7265   5.828   4.376   5.364
 2122SOL    HW2 7266   5.707   4.481   5.333
 2123SOL     OW 7267   6.944   4.171   2.649
 2123SOL    HW1 7268   6.880   4.195   2.721
 2123SOL    HW2 7269   0.012   4.176   2.684
 2124SOL     OW 7270   1.467   1.630   1.518
 2124SOL    HW1 7271   1.475   1.701   1.588
 2124SOL    HW2 7272   1.373   1.596   1.517
 2125SOL     OW 7273   1.898   1.284   6.804
 2125SOL    HW1 7274   1.861   1.305   6.894
 2125SOL    HW2 7275   1.943   1.366   6.766
 2126SOL     OW 7276   2.476   1.161   6.791
 2126SOL    HW1 7277   2.380   1.182   6.810
 2126SOL    HW2 7278   2.534   1.234   6.826
 2127SOL     OW 7279   5.907   2.434   4.474
 2127SOL    HW1 7280   5.940   2.476   4.389
 2127SOL    HW2 7281   5.940   2.487   4.552
 2128SOL     OW 7282   0.681   4.591   4.605
 2128SOL    HW1 7283   0.589   4.607   4.570
 2128SOL    HW2 7284   0.677   4.529   4.683
 2129SOL     OW 7285   4.843   2.910   5.745
 2129SOL    HW1 7286   4.898   2.915   5.828
 2129SOL    HW2 7287   4.822   2.814   5.725
 2130SOL     OW 7288   5.192   6.529   2.711
 2130SOL    HW1 7289   5.110   6.582   2.733
 2130SOL    HW2 7290   5.268   6.558   2.769
 2131SOL     OW 7291   0.278   1.484   0.276
 2131SOL    HW1 7292   0.190   1.517   0.309
 2131SOL    HW2 7293   0.347   1.498   0.347
 2132SOL     OW 7294   3.206   2.968   1.086
 2132SOL    HW1 7295   3.276   3.040   1.083
 2132SOL    HW2 7296   3.249   2.879   1.091
 2133SOL     OW 7297   2.583   2.227   5.980
 2133SOL    HW1 7298   2.611   2.290   5.907
 2133SOL    HW2 7299   2.489   2.249   6.007
 2134SOL     OW 7300   6.450   2.064   1.234
 2134SOL    HW1 7301   6.398   2.007   1.170
 2134SOL    HW2 7302   6.481   2.147   1.188
 2135SOL     OW 7303   1.069   4.159   4.170
 2135SOL    HW1 7304   1.010   4.078   4.174
 2135SOL    HW2 7305   1.067   4.206   4.259
 2136SOL     OW 7306   2.832   5.605   1.629
 2136SOL    HW1 7307   2.786   5.519   1.654
 2136SOL    HW2 7308   2.917   5.584   1.581
 2137SOL     OW 7309   3.107   5.318   4.751
 2137SOL    HW1 7310   3.039   5.265   4.700
 2137SOL    HW2 7311   3.184   5.339   4.690
 2138SOL     OW 7312   6.208   1.037   3.227
 2138SOL    HW1 7313   6.157   0.973   3.284
 2138SOL    HW2 7314   6.168   1.041   3.136
 2139SOL     OW 7315   3.167   0.939   5.305
 2139SOL    HW1 7316   3.118   1.021   5.333
 2139SOL    HW2 7317   3.167   0.932   5.206
 2140SOL     OW 7318   2.983   0.734   5.264
 2140SOL    HW1 7319   3.035   0.803   5.315
 2140SOL    HW2 7320   3.046   0.667   5.225
 2141SOL     OW 7321   6.271   4.034   2.218
 2141SOL    HW1 7322   6.326   4.006   2.296
 2141SOL    HW2 7323   6.332   4.060   2.142
 2142SOL     OW 7324   1.639   2.785   4.218
 2142SOL    HW1 7325   1.707   2.847   4.257
 2142SOL    HW2 7326   1.643   2.790   4.118
 2143SOL     OW 7327   2.492   5.571   1.283
 2143SOL    HW1 7328   2.400   5.588   1.248
 2143SOL    HW2 7329   2.539   5.506   1.224
 2144SOL     OW 7330   0.063   5.328   4.669
 2144SOL    HW1 7331   0.015   5.413   4.690
 2144SOL    HW2 7332   0.028   5.290   4.583
 2145SOL     OW 7333   3.988   6.469   4.352
 2145SOL    HW1 7334   3.893   6.449   4.326
 2145SOL    HW2 7335   4.037   6.384   4.368
 2146SOL     OW 7336   2.345   2.368   0.931
 2146SOL    HW1 7337   2.361   2.452   0.878
 2146SOL    HW2 7338   2.429   2.344   0.980
 2147SOL     OW 7339   6.735   1.745   5.613
 2147SOL    HW1 7340   6.698   1.694   5.692
 2147SOL    HW2 7341   6.661   1.760   5.547
 2148SOL     OW 7342   0.060   2.720   6.580
 2148SOL    HW1 7343   0.026   2.708   6.486
 2148SOL    HW2 7344   7.009   2.737   6.641
 2149SOL     OW 7345   1.107   0.812   0.797
 2149SOL    HW1 7346   1.028   0.867   0.768
 2149SOL    HW2 7347   1.075   0.729   0.842
 2150SOL     OW 7348   2.621   2.701   1.752
 2150SOL    HW1 7349   2.621   2.604   1.774
 2150SOL    HW2 7350   2.528   2.737   1.757
 2151SOL     OW 7351   1.231   6.543   0.177
 2151SOL    HW1 7352   1.165   6.509   0.110
 2151SOL    HW2 7353   1.245   6.641   0.163
 2152SOL     OW 7354   4.232   5.636   2.173
 2152SOL    HW1 7355   4.177   5.718   2.160
 2152SOL    HW2 7356   4.189   5.559   2.126
 2153SOL     OW 7357   4.559   0.982   2.663
 2153SOL    HW1 7358   4.620   0.918   2.618
 2153SOL    HW2 7359   4.545   1.063   2.605
 2154SOL     OW 7360   2.969   6.813   3.491
 2154SOL    HW1 7361   3.015   6.766   3.416
 2154SOL    HW2 7362   2.886   6.764   3.516
 2155SOL     OW 7363   4.338   7.008   1.400
 2155SOL    HW1 7364   4.418   6.997   1.459
 2155SOL    HW2 7365   4.255   6.986   1.452
 2156SOL     OW 7366   6.726   1.397   3.470
 2156SOL    HW1 7367   6.646   1.371   3.416
 2156SOL    HW2 7368   6.794   1.441   3.411
 2157SOL     OW 7369   4.238   5.865   3.924
 2157SOL    HW1 7370   4.149   5.845   3.884
 2157SOL    HW2 7371   4.297   5.908   3.856
 2158SOL     OW 7372   4.220   0.194   0.546
 2158SOL    HW1 7373   4.302   0.137   0.556
 2158SOL    HW2 7374   4.144   0.151   0.596
 2159SOL     OW 7375   1.295   0.762   5.413
 2159SOL    HW1 7376   1.379   0.761   5.467
 2159SOL    HW2 7377   1.314   0.803   5.324
 2160SOL     OW 7378   4.982   5.459   6.964
 2160SOL    HW1 7379   5.031   5.374   6.977
 2160SOL    HW2 7380   5.008   5.524   0.009
 2161SOL     OW 7381   1.029   3.933   2.308
 2161SOL    HW1 7382   0.934   3.959   2.290
 2161SOL    HW2 7383   1.055   3.963   2.400
 2162SOL     OW 7384   2.879   0.036   3.484
 2162SOL    HW1 7385   2.909   6.967   3.482
 2162SOL    HW2 7386   2.780   0.040   3.478
 2163SOL     OW 7387   1.760   3.254   0.342
 2163SOL    HW1 7388   1.751   3.248   0.242
 2163SOL    HW2 7389   1.805   3.339   0.366
 2164SOL     OW 7390   2.452   2.414   0.564
 2164SOL    HW1 7391   2.376   2.436   0.626
 2164SOL    HW2 7392   2.448   2.474   0.484
 2165SOL     OW 7393   0.619   1.488   4.068
 2165SOL    HW1 7394   0.583   1.412   4.122
 2165SOL    HW2 7395   0.543   1.544   4.034
 2166SOL     OW 7396   0.591   4.251   4.001
 2166SOL    HW1 7397   0.535   4.180   3.957
 2166SOL    HW2 7398   0.639   4.212   4.079
 2167SOL     OW 7399   1.352   2.913   3.962
 2167SOL    HW1 7400   1.423   2.843   3.967
 2167SOL    HW2 7401   1.312   2.927   4.053
 2168SOL     OW 7402   1.125   2.031   3.105
 2168SOL    HW1 7403   1.185   2.024   3.185
 2168SOL    HW2 7404   1.179   2.028   3.022
 2169SOL     OW 7405   0.566   0.982   1.315
 2169SOL    HW1 7406   0.649   0.931   1.338
 2169SOL    HW2 7407   0.517   0.936   1.241
 2170SOL     OW 7408   0.651   4.438   4.841
 2170SOL    HW1 7409   0.721   4.502   4.872
 2170SOL    HW2 7410   0.675   4.346   4.871
 2171SOL     OW 7411   0.094   5.550   1.451
 2171SOL    HW1 7412   0.083   5.589   1.360
 2171SOL    HW2 7413   0.192   5.544   1.472
 2172SOL     OW 7414   0.417   2.059   5.005
 2172SOL    HW1 7415   0.507   2.086   4.971
 2172SOL    HW2 7416   0.424   2.027   5.099
 2173SOL     OW 7417   5.536   0.297   5.517
 2173SOL    HW1 7418   5.620   0.340   5.486
 2173SOL    HW2 7419   5.505   0.230   5.449
 2174SOL     OW 7420   0.460   5.992   5.216
 2174SOL    HW1 7421   0.426   5.951   5.301
 2174SOL    HW2 7422   0.557   5.970   5.205
 2175SOL     OW 7423   2.379   2.785   5.553
 2175SOL    HW1 7424   2.475   2.781   5.583
 2175SOL    HW2 7425   2.366   2.864   5.493
 2176SOL     OW 7426   5.045   2.655   1.467
 2176SOL    HW1 7427   5.093   2.630   1.551
 2176SOL    HW2 7428   5.112   2.687   1.399
 2177SOL     OW 7429   6.941   0.681   3.164
 2177SOL    HW1 7430   6.894   0.704   3.249
 2177SOL    HW2 7431   6.935   0.759   3.101
 2178SOL     OW 7432   1.136   1.290   1.733
 2178SOL    HW1 7433   1.091   1.342   1.660
 2178SOL    HW2 7434   1.066   1.246   1.790
 2179SOL     OW 7435   1.995   4.366   6.508
 2179SOL    HW1 7436   1.897   4.346   6.515
 2179SOL    HW2 7437   2.019   4.386   6.414
 2180SOL     OW 7438   1.543   4.151   2.388
 2180SOL    HW1 7439   1.444   4.157   2.373
 2180SOL    HW2 7440   1.591   4.163   2.300
 2181SOL     OW 7441   4.819   4.565   4.801
 2181SOL    HW1 7442   4.816   4.506   4.882
 2181SOL    HW2 7443   4.847   4.511   4.721
 2182SOL     OW 7444   0.755   4.425   3.396
 2182SOL    HW1 7445   0.819   4.470   3.458
 2182SOL    HW2 7446   0.785   4.440   3.301
 2183SOL     OW 7447   3.046   3.377   0.047
 2183SOL    HW1 7448   3.030   3.437   6.995
 2183SOL    HW2 7449   3.110   3.420   0.110
 2184SOL     OW 7450   6.062   0.663   0.212
 2184SOL    HW1 7451   5.977   0.708   0.238
 2184SOL    HW2 7452   6.043   0.597   0.138
 2185SOL     OW 7453   0.694   1.297   6.713
 2185SOL    HW1 7454   0.685   1.254   6.804
 2185SOL    HW2 7455   0.684   1.227   6.643
 2186SOL     OW 7456   6.427   5.034   5.399
 2186SOL    HW1 7457   6.357   5.105   5.400
 2186SOL    HW2 7458   6.438   4.999   5.306
 2187SOL     OW 7459   0.545   5.260   2.855
 2187SOL    HW1 7460   0.529   5.302   2.766
 2187SOL    HW2 7461   0.556   5.331   2.925
 2188SOL     OW 7462   2.371   5.700   7.020
 2188SOL    HW1 7463   2.281   5.740   0.011
 2188SOL    HW2 7464   2.361   5.601   7.005
 2189SOL     OW 7465   2.727   1.409   2.151
 2189SOL    HW1 7466   2.720   1.398   2.052
 2189SOL    HW2 7467   2.719   1.320   2.196
 2190SOL     OW 7468   6.672   3.529   2.182
 2190SOL    HW1 7469   6.718   3.459   2.238
 2190SOL    HW2 7470   6.713   3.618   2.200
 2191SOL     OW 7471   2.229   1.446   5.041
 2191SOL    HW1 7472   2.172   1.511   4.991
 2191SOL    HW2 7473   2.260   1.374   4.979
 2192SOL     OW 7474   5.548   0.298   2.027
 2192SOL    HW1 7475   5.528   0.386   1.985
 2192SOL    HW2 7476   5.465   0.241   2.026
 2193SOL     OW 7477   6.203   6.689   6.655
 2193SOL    HW1 7478   6.297   6.724   6.654
 2193SOL    HW2 7479   6.204   6.591   6.635
 2194SOL     OW 7480   0.438   4.131   5.199
 2194SOL    HW1 7481   0.507   4.126   5.271
 2194SOL    HW2 7482   0.364   4.067   5.219
 2195SOL     OW 7483   0.183   5.670   6.328
 2195SOL    HW1 7484   0.255   5.672   6.258
 2195SOL    HW2 7485   0.120   5.745   6.313
 2196SOL     OW 7486   2.877   6.336   5.278
 2196SOL    HW1 7487   2.834   6.301   5.194
 2196SOL    HW2 7488   2.909   6.429   5.262
 2197SOL     OW 7489   2.761   3.127   6.039
 2197SOL    HW1 7490   2.853   3.149   6.006
 2197SOL    HW2 7491   2.738   3.033   6.013
 2198SOL     OW 7492   6.856   0.176   0.051
 2198SOL    HW1 7493   6.758   0.171   0.069
 2198SOL    HW2 7494   6.906   0.155   0.135
 2199SOL     OW 7495   4.968   0.068   4.912
 2199SOL    HW1 7496   5.067   0.055   4.922
 2199SOL    HW2 7497   4.950   0.162   4.884
 2200SOL     OW 7498   3.516   1.187   4.058
 2200SOL    HW1 7499   3.584   1.121   4.087
 2200SOL    HW2 7500   3.480   1.161   3.968
 2201SOL     OW 7501   6.207   2.897   3.198
 2201SOL    HW1 7502   6.192   2.828   3.127
 2201SOL    HW2 7503   6.251   2.854   3.277
 2202SOL     OW 7504   3.146   5.248   2.458
 2202SOL    HW1 7505   3.218   5.190   2.419
 2202SOL    HW2 7506   3.167   5.266   2.554
 2203SOL     OW 7507   2.469   4.086   1.206
 2203SOL    HW1 7508   2.464   4.171   1.258
 2203SOL    HW2 7509   2.561   4.075   1.168
 2204SOL     OW 7510   4.134   2.768   1.089
 2204SOL    HW1 7511   4.207   2.725   1.142
 2204SOL    HW2 7512   4.047   2.756   1.137
 2205SOL     OW 7513   1.613   6.610   0.577
 2205SOL    HW1 7514   1.705   6.627   0.542
 2205SOL    HW2 7515   1.549   6.672   0.533
 2206SOL     OW 7516   2.292   4.389   6.491
 2206SOL    HW1 7517   2.193   4.400   6.503
 2206SOL    HW2 7518   2.313   4.372   6.395
 2207SOL     OW 7519   3.511   5.820   0.760
 2207SOL    HW1 7520   3.483   5.730   0.726
 2207SOL    HW2 7521   3.464   5.839   0.846
 2208SOL     OW 7522   0.911   5.911   3.321
 2208SOL    HW1 7523   0.829   5.857   3.300
 2208SOL    HW2 7524   0.992   5.860   3.293
 2209SOL     OW 7525   2.376   5.886   4.685
 2209SOL    HW1 7526   2.298   5.838   4.725
 2209SOL    HW2 7527   2.413   5.951   4.752
 2210SOL     OW 7528   6.285   5.884   2.426
 2210SOL    HW1 7529   6.303   5.921   2.517
 2210SOL    HW2 7530   6.231   5.800   2.435
 2211SOL     OW 7531   6.146   1.111   0.674
 2211SOL    HW1 7532   6.126   1.014   0.656
 2211SOL    HW2 7533   6.206   1.119   0.753
 2212SOL     OW 7534   2.081   5.693   6.619
 2212SOL    HW1 7535   1.992   5.704   6.664
 2212SOL    HW2 7536   2.124   5.608   6.651
 2213SOL     OW 7537   4.702   2.863   4.751
 2213SOL    HW1 7538   4.798   2.891   4.760
 2213SOL    HW2 7539   4.650   2.899   4.828
 2214SOL     OW 7540   3.580   2.947   5.561
 2214SOL    HW1 7541   3.485   2.968   5.539
 2214SOL    HW2 7542   3.640   3.007   5.507
 2215SOL     OW 7543   5.626   1.720   6.172
 2215SOL    HW1 7544   5.721   1.727   6.141
 2215SOL    HW2 7545   5.615   1.635   6.225
 2216SOL     OW 7546   0.510   6.740   5.691
 2216SOL    HW1 7547   0.506   6.816   5.756
 2216SOL    HW2 7548   0.589   6.683   5.712
 2217SOL     OW 7549   4.512   0.734   3.960
 2217SOL    HW1 7550   4.482   0.680   4.038
 2217SOL    HW2 7551   4.503   0.680   3.876
 2218SOL     OW 7552   0.042   4.851   6.853
 2218SOL    HW1 7553   0.034   4.913   6.931
 2218SOL    HW2 7554   0.056   4.905   6.770
 2219SOL     OW 7555   6.408   1.797   0.711
 2219SOL    HW1 7556   6.326   1.792   0.654
 2219SOL    HW2 7557   6.475   1.729   0.679
 2220SOL     OW 7558   2.273   6.293   5.496
 2220SOL    HW1 7559   2.231   6.204   5.513
 2220SOL    HW2 7560   2.358   6.281   5.445
 2221SOL     OW 7561   6.862   1.538   4.528
 2221SOL    HW1 7562   6.775   1.488   4.531
 2221SOL    HW2 7563   6.863   1.597   4.447
 2222SOL     OW 7564   6.112   6.748   0.802
 2222SOL    HW1 7565   6.044   6.677   0.786
 2222SOL    HW2 7566   6.188   6.710   0.854
 2223SOL     OW 7567   6.836   1.190   5.954
 2223SOL    HW1 7568   6.819   1.215   5.859
 2223SOL    HW2 7569   6.850   1.091   5.960
 2224SOL     OW 7570   5.910   3.715   2.108
 2224SOL    HW1 7571   5.812   3.714   2.087
 2224SOL    HW2 7572   5.929   3.790   2.172
 2225SOL     OW 7573   0.054   6.572   3.146
 2225SOL    HW1 7574   0.080   6.659   3.188
 2225SOL    HW2 7575   0.122   6.547   3.078
 2226SOL     OW 7576   3.837   5.615   0.836
 2226SOL    HW1 7577   3.922   5.645   0.879
 2226SOL    HW2 7578   3.825   5.663   0.749
 2227SOL     OW 7579   4.453   2.745   1.452
 2227SOL    HW1 7580   4.472   2.649   1.470
 2227SOL    HW2 7581   4.458   2.796   1.538
 2228SOL     OW 7582   4.769   5.232   0.366
 2228SOL    HW1 7583   4.746   5.294   0.441
 2228SOL    HW2 7584   4.695   5.234   0.298
 2229SOL     OW 7585   3.569   3.646   5.026
 2229SOL    HW1 7586   3.514   3.687   4.953
 2229SOL    HW2 7587   3.644   3.708   5.049
 2230SOL     OW 7588   5.437   5.965   1.603
 2230SOL    HW1 7589   5.532   5.935   1.602
 2230SOL    HW2 7590   5.379   5.894   1.562
 2231SOL     OW 7591   0.943   0.719   6.423
 2231SOL    HW1 7592   0.924   0.624   6.400
 2231SOL    HW2 7593   1.042   0.733   6.430
 2232SOL     OW 7594   0.328   0.984   5.065
 2232SOL    HW1 7595   0.405   0.938   5.020
 2232SOL    HW2 7596   0.354   1.011   5.157
 2233SOL     OW 7597   2.988   3.380   0.820
 2233SOL    HW1 7598   3.040   3.317   0.878
 2233SOL    HW2 7599   2.997   3.473   0.856
 2234SOL     OW 7600   3.981   1.730   0.579
 2234SOL    HW1 7601   3.982   1.783   0.663
 2234SOL    HW2 7602   3.889   1.731   0.540
 2235SOL     OW 7603   2.448   0.501   2.515
 2235SOL    HW1 7604   2.411   0.409   2.501
 2235SOL    HW2 7605   2.383   0.556   2.568
 2236SOL     OW 7606   2.097   3.695   5.631
 2236SOL    HW1 7607   2.058   3.693   5.723
 2236SOL    HW2 7608   2.182   3.747   5.632
 2237SOL     OW 7609   6.347   4.749   4.399
 2237SOL    HW1 7610   6.388   4.699   4.476
 2237SOL    HW2 7611   6.251   4.767   4.418
 2238SOL     OW 7612   4.897   4.918   2.257
 2238SOL    HW1 7613   4.846   4.970   2.326
 2238SOL    HW2 7614   4.834   4.856   2.209
 2239SOL     OW 7615   4.332   5.295   3.886
 2239SOL    HW1 7616   4.349   5.389   3.856
 2239SOL    HW2 7617   4.301   5.241   3.808
 2240SOL     OW 7618   3.739   5.621   2.099
 2240SOL    HW1 7619   3.823   5.591   2.054
 2240SOL    HW2 7620   3.744   5.596   2.196
 2241SOL     OW 7621   6.817   6.860   1.799
 2241SOL    HW1 7622   6.808   6.938   1.861
 2241SOL    HW2 7623   6.767   6.782   1.836
 2242SOL     OW 7624   5.122   3.504   2.472
 2242SOL    HW1 7625   5.188   3.441   2.432
 2242SOL    HW2 7626   5.165   3.554   2.547
 2243SOL     OW 7627   1.793   6.601   6.940
 2243SOL    HW1 7628   1.823   6.541   7.013
 2243SOL    HW2 7629   1.826   6.567   6.852
 2244SOL     OW 7630   2.922   0.232   1.212
 2244SOL    HW1 7631   2.836   0.212   1.165
 2244SOL    HW2 7632   2.903   0.271   1.302
 2245SOL     OW 7633   6.939   1.715   0.565
 2245SOL    HW1 7634   6.976   1.803   0.535
 2245SOL    HW2 7635   7.002   1.673   0.630
 2246SOL     OW 7636   1.956   0.780   3.950
 2246SOL    HW1 7637   1.872   0.743   3.991
 2246SOL    HW2 7638   2.036   0.743   3.998
 2247SOL     OW 7639   3.137   3.584   2.588
 2247SOL    HW1 7640   3.212   3.628   2.538
 2247SOL    HW2 7641   3.065   3.651   2.607
 2248SOL     OW 7642   6.675   4.527   4.378
 2248SOL    HW1 7643   6.631   4.573   4.300
 2248SOL    HW2 7644   6.632   4.438   4.393
 2249SOL     OW 7645   4.218   6.627   4.062
 2249SOL    HW1 7646   4.274   6.625   3.980
 2249SOL    HW2 7647   4.252   6.698   4.124
 2250SOL     OW 7648   3.177   3.857   5.656
 2250SOL    HW1 7649   3.198   3.760   5.642
 2250SOL    HW2 7650   3.129   3.893   5.576
 2251SOL     OW 7651   5.580   0.069   6.148
 2251SOL    HW1 7652   5.557   6.998   6.141
 2251SOL    HW2 7653   5.514   0.115   6.208
 2252SOL     OW 7654   5.255   1.733   2.867
 2252SOL    HW1 7655   5.160   1.734   2.897
 2252SOL    HW2 7656   5.306   1.666   2.920
 2253SOL     OW 7657   0.157   3.395   6.775
 2253SOL    HW1 7658   0.089   3.453   6.820
 2253SOL    HW2 7659   0.248   3.435   6.788
 2254SOL     OW 7660   3.669   3.561   3.344
 2254SOL    HW1 7661   3.706   3.577   3.436
 2254SOL    HW2 7662   3.617   3.476   3.343
 2255SOL     OW 7663   2.880   3.430   5.543
 2255SOL    HW1 7664   2.958   3.367   5.539
 2255SOL    HW2 7665   2.912   3.523   5.527
 2256SOL     OW 7666   4.580   6.778   2.135
 2256SOL    HW1 7667   4.532   6.849   2.084
 2256SOL    HW2 7668   4.572   6.795   2.233
 2257SOL     OW 7669   0.882   1.323   4.379
 2257SOL    HW1 7670   0.879   1.240   4.323
 2257SOL    HW2 7671   0.791   1.342   4.416
 2258SOL     OW 7672   2.126   5.677   3.974
 2258SOL    HW1 7673   2.072   5.655   4.055
 2258SOL    HW2 7674   2.075   5.740   3.916
 2259SOL     OW 7675   5.094   2.694   5.115
 2259SOL    HW1 7676   5.021   2.759   5.136
 2259SOL    HW2 7677   5.062   2.601   5.134
 2260SOL     OW 7678   0.614   3.560   1.162
 2260SOL    HW1 7679   0.551   3.533   1.235
 2260SOL    HW2 7680   0.621   3.486   1.095
 2261SOL     OW 7681   6.656   4.503   0.674
 2261SOL    HW1 7682   6.748   4.467   0.690
 2261SOL    HW2 7683   6.659   4.571   0.601
 2262SOL     OW 7684   6.222   0.097   2.950
 2262SOL    HW1 7685   6.256   0.188   2.925
 2262SOL    HW2 7686   6.123   0.101   2.963
 2263SOL     OW 7687   2.174   5.810   0.390
 2263SOL    HW1 7688   2.104   5.879   0.406
 2263SOL    HW2 7689   2.142   5.721   0.423
 2264SOL     OW 7690   2.603   0.173   6.717
 2264SOL    HW1 7691   2.611   0.208   6.624
 2264SOL    HW2 7692   2.548   0.089   6.716
 2265SOL     OW 7693   2.202   0.745   4.109
 2265SOL    HW1 7694   2.284   0.795   4.081
 2265SOL    HW2 7695   2.164   0.787   4.192
 2266SOL     OW 7696   4.804   1.603   6.488
 2266SOL    HW1 7697   4.866   1.601   6.409
 2266SOL    HW2 7698   4.756   1.691   6.490
 2267SOL     OW 7699   4.768   2.598   4.982
 2267SOL    HW1 7700   4.757   2.642   5.071
 2267SOL    HW2 7701   4.831   2.653   4.926
 2268SOL     OW 7702   6.220   3.659   6.382
 2268SOL    HW1 7703   6.285   3.736   6.386
 2268SOL    HW2 7704   6.128   3.694   6.369
 2269SOL     OW 7705   0.923   3.617   4.965
 2269SOL    HW1 7706   0.923   3.707   5.009
 2269SOL    HW2 7707   1.017   3.585   4.956
 2270SOL     OW 7708   3.842   3.280   6.433
 2270SOL    HW1 7709   3.923   3.268   6.491
 2270SOL    HW2 7710   3.851   3.225   6.350
 2271SOL     OW 7711   5.663   4.568   6.947
 2271SOL    HW1 7712   5.685   4.475   6.975
 2271SOL    HW2 7713   5.735   4.630   6.978
 2272SOL     OW 7714   6.858   1.339   6.720
 2272SOL    HW1 7715   6.832   1.360   6.814
 2272SOL    HW2 7716   6.923   1.407   6.687
 2273SOL     OW 7717   1.736   2.382   2.407
 2273SOL    HW1 7718   1.756   2.448   2.335
 2273SOL    HW2 7719   1.660   2.416   2.463
 2274SOL     OW 7720   0.400   1.632   6.392
 2274SOL    HW1 7721   0.350   1.692   6.455
 2274SOL    HW2 7722   0.463   1.686   6.337
 2275SOL     OW 7723   5.754   6.144   2.961
 2275SOL    HW1 7724   5.746   6.226   2.904
 2275SOL    HW2 7725   5.796   6.071   2.908
 2276SOL     OW 7726   1.596   5.925   1.430
 2276SOL    HW1 7727   1.539   5.930   1.512
 2276SOL    HW2 7728   1.538   5.916   1.349
 2277SOL     OW 7729   3.131   3.467   4.748
 2277SOL    HW1 7730   3.053   3.492   4.691
 2277SOL    HW2 7731   3.197   3.415   4.695
 2278SOL     OW 7732   6.038   2.519   3.837
 2278SOL    HW1 7733   6.125   2.481   3.870
 2278SOL    HW2 7734   5.998   2.455   3.772
 2279SOL     OW 7735   6.397   6.692   5.355
 2279SOL    HW1 7736   6.456   6.614   5.373
 2279SOL    HW2 7737   6.450   6.777   5.359
 2280SOL     OW 7738   6.233   0.743   4.545
 2280SOL    HW1 7739   6.216   0.644   4.545
 2280SOL    HW2 7740   6.314   0.762   4.490
 2281SOL     OW 7741   3.135   0.541   1.747
 2281SOL    HW1 7742   3.099   0.632   1.769
 2281SOL    HW2 7743   3.218   0.525   1.799
 2282SOL     OW 7744   5.317   6.010   5.584
 2282SOL    HW1 7745   5.218   6.017   5.567
 2282SOL    HW2 7746   5.358   6.100   5.573
 2283SOL     OW 7747   1.513   0.627   1.965
 2283SOL    HW1 7748   1.452   0.595   2.036
 2283SOL    HW2 7749   1.540   0.722   1.984
 2284SOL     OW 7750   1.009   3.511   6.032
 2284SOL    HW1 7751   1.030   3.463   6.117
 2284SOL    HW2 7752   0.929   3.469   5.989
 2285SOL     OW 7753   1.271   3.233   0.289
 2285SOL    HW1 7754   1.371   3.243   0.297
 2285SOL    HW2 7755   1.233   3.311   0.240
 2286SOL     OW 7756   5.533   0.179   3.610
 2286SOL    HW1 7757   5.615   0.165   3.666
 2286SOL    HW2 7758   5.534   0.115   3.533
 2287SOL     OW 7759   2.635   0.710   3.870
 2287SOL    HW1 7760   2.664   0.787   3.927
 2287SOL    HW2 7761   2.692   0.630   3.889
 2288SOL     OW 7762   0.042   5.370   3.942
 2288SOL    HW1 7763   0.087   5.372   4.031
 2288SOL    HW2 7764   0.062   5.283   3.897
 2289SOL     OW 7765   6.987   5.130   0.937
 2289SOL    HW1 7766   0.014   5.207   0.901
 2289SOL    HW2 7767   6.926   5.162   1.009
 2290SOL     OW 7768   0.371   4.164   1.107
 2290SOL    HW1 7769   0.452   4.189   1.160
 2290SOL    HW2 7770   0.384   4.073   1.067
 2291SOL     OW 7771   2.332   2.368   5.693
 2291SOL    HW1 7772   2.314   2.284   5.743
 2291SOL    HW2 7773   2.377   2.347   5.606
 2292SOL     OW 7774   1.653   1.554   4.538
 2292SOL    HW1 7775   1.582   1.619   4.512
 2292SOL    HW2 7776   1.705   1.527   4.457
 2293SOL     OW 7777   5.341   5.936   1.875
 2293SOL    HW1 7778   5.385   5.950   1.787
 2293SOL    HW2 7779   5.256   5.988   1.879
 2294SOL     OW 7780   3.236   0.134   7.010
 2294SOL    HW1 7781   3.253   0.232   7.008
 2294SOL    HW2 7782   3.272   0.096   0.070
 2295SOL     OW 7783   0.301   1.505   2.267
 2295SOL    HW1 7784   0.240   1.573   2.227
 2295SOL    HW2 7785   0.251   1.449   2.332
 2296SOL     OW 7786   3.022   6.767   0.755
 2296SOL    HW1 7787   3.023   6.863   0.726
 2296SOL    HW2 7788   3.116   6.733   0.760
 2297SOL     OW 7789   3.573   4.181   5.217
 2297SOL    HW1 7790   3.601   4.116   5.287
 2297SOL    HW2 7791   3.636   4.175   5.139
 2298SOL     OW 7792   3.557   2.631   1.804
 2298SOL    HW1 7793   3.484   2.624   1.736
 2298SOL    HW2 7794   3.592   2.539   1.825
 2299SOL     OW 7795   6.007   0.631   6.545
 2299SOL    HW1 7796   5.946   0.706   6.520
 2299SOL    HW2 7797   6.066   0.608   6.467
 2300SOL     OW 7798   2.209   5.337   1.788
 2300SOL    HW1 7799   2.193   5.364   1.884
 2300SOL    HW2 7800   2.215   5.420   1.732
 2301SOL     OW 7801   2.897   3.449   2.910
 2301SOL    HW1 7802   2.887   3.418   2.816
 2301SOL    HW2 7803   2.833   3.524   2.928
 2302SOL     OW 7804   3.848   0.114   2.386
 2302SOL    HW1 7805   3.766   0.082   2.338
 2302SOL    HW2 7806   3.926   0.113   2.324
 2303SOL     OW 7807   1.505   3.281   5.640
 2303SOL    HW1 7808   1.429   3.264   5.576
 2303SOL    HW2 7809   1.581   3.221   5.618
 2304SOL     OW 7810   2.427   0.462   3.261
 2304SOL    HW1 7811   2.497   0.509   3.315
 2304SOL    HW2 7812   2.342   0.460   3.312
 2305SOL     OW 7813   3.598   5.782   3.183
 2305SOL    HW1 7814   3.519   5.827   3.141
 2305SOL    HW2 7815   3.665   5.758   3.112
 2306SOL     OW 7816   2.265   5.801   1.433
 2306SOL    HW1 7817   2.262   5.844   1.523
 2306SOL    HW2 7818   2.173   5.770   1.408
 2307SOL     OW 7819   2.455   4.659   2.757
 2307SOL    HW1 7820   2.547   4.663   2.717
 2307SOL    HW2 7821   2.389   4.641   2.684
 2308SOL     OW 7822   1.112   0.049   6.764
 2308SOL    HW1 7823   1.095   0.092   6.675
 2308SOL    HW2 7824   1.034   0.065   6.824
 2309SOL     OW 7825   2.651   6.697   0.211
 2309SOL    HW1 7826   2.674   6.794   0.201
 2309SOL    HW2 7827   2.718   6.653   0.271
 2310SOL     OW 7828   6.094   6.258   1.275
 2310SOL    HW1 7829   6.079   6.179   1.335
 2310SOL    HW2 7830   6.144   6.328   1.325
 2311SOL     OW 7831   2.813   6.607   2.219
 2311SOL    HW1 7832   2.820   6.706   2.209
 2311SOL    HW2 7833   2.757   6.570   2.144
 2312SOL     OW 7834   3.416   6.971   3.273
 2312SOL    HW1 7835   3.474   6.962   3.354
 2312SOL    HW2 7836   3.358   0.026   3.282
 2313SOL     OW 7837   4.714   5.153   2.121
 2313SOL    HW1 7838   4.795   5.177   2.067
 2313SOL    HW2 7839   4.730   5.176   2.217
 2314SOL     OW 7840   6.059   0.838   3.400
 2314SOL    HW1 7841   6.093   0.780   3.474
 2314SOL    HW2 7842   5.967   0.870   3.422
 2315SOL     OW 7843   5.289   3.372   5.128
 2315SOL    HW1 7844   5.240   3.458   5.116
 2315SOL    HW2 7845   5.260   3.307   5.058
 2316SOL     OW 7846   2.542   1.595   5.252
 2316SOL    HW1 7847   2.505   1.580   5.343
 2316SOL    HW2 7848   2.549   1.694   5.234
 2317SOL     OW 7849   6.330   6.366   3.653
 2317SOL    HW1 7850   6.356   6.292   3.591
 2317SOL    HW2 7851   6.369   6.350   3.743
 2318SOL     OW 7852   2.109   3.416   4.509
 2318SOL    HW1 7853   2.118   3.319   4.488
 2318SOL    HW2 7854   2.135   3.432   4.605
 2319SOL     OW 7855   3.239   5.375   5.357
 2319SOL    HW1 7856   3.240   5.362   5.456
 2319SOL    HW2 7857   3.185   5.302   5.314
 2320SOL     OW 7858   0.677   2.207   4.896
 2320SOL    HW1 7859   0.653   2.177   4.804
 2320SOL    HW2 7860   0.758   2.158   4.927
 2321SOL     OW 7861   2.321   5.953   6.824
 2321SOL    HW1 7862   2.228   5.969   6.791
 2321SOL    HW2 7863   2.319   5.930   6.921
 2322SOL     OW 7864   2.101   4.458   2.314
 2322SOL    HW1 7865   2.032   4.424   2.250
 2322SOL    HW2 7866   2.192   4.427   2.285
 2323SOL     OW 7867   3.357   4.849   1.784
 2323SOL    HW1 7868   3.433   4.788   1.806
 2323SOL    HW2 7869   3.279   4.827   1.842
 2324SOL     OW 7870   6.764   6.197   1.145
 2324SOL    HW1 7871   6.706   6.117   1.133
 2324SOL    HW2 7872   6.766   6.250   1.059
 2325SOL     OW 7873   0.396   4.591   1.162
 2325SOL    HW1 7874   0.470   4.609   1.226
 2325SOL    HW2 7875   0.422   4.516   1.100
 2326SOL     OW 7876   1.366   6.343   6.425
 2326SOL    HW1 7877   1.415   6.404   6.364
 2326SOL    HW2 7878   1.406   6.347   6.516
 2327SOL     OW 7879   0.497   1.038   2.950
 2327SOL    HW1 7880   0.548   1.091   2.882
 2327SOL    HW2 7881   0.522   1.070   3.042
 2328SOL     OW 7882   1.605   2.036   2.977
 2328SOL    HW1 7883   1.697   2.006   3.002
 2328SOL    HW2 7884   1.605   2.070   2.883
 2329SOL     OW 7885   0.865   4.611   4.847
 2329SOL    HW1 7886   0.949   4.569   4.811
 2329SOL    HW2 7887   0.857   4.704   4.811
 2330SOL     OW 7888   6.973   2.696   0.811
 2330SOL    HW1 7889   6.972   2.600   0.839
 2330SOL    HW2 7890   6.961   2.755   0.891
 2331SOL     OW 7891   3.591   5.227   0.341
 2331SOL    HW1 7892   3.552   5.316   0.316
 2331SOL    HW2 7893   3.690   5.235   0.348
 2332SOL     OW 7894   6.949   6.874   5.769
 2332SOL    HW1 7895   6.913   6.849   5.679
 2332SOL    HW2 7896   6.916   6.809   5.837
 2333SOL     OW 7897   6.783   4.625   2.922
 2333SOL    HW1 7898   6.719   4.550   2.939
 2333SOL    HW2 7899   6.876   4.589   2.918
 2334SOL     OW 7900   1.634   0.973   6.660
 2334SOL    HW1 7901   1.714   0.986   6.601
 2334SOL    HW2 7902   1.616   0.875   6.671
 2335SOL     OW 7903   5.773   0.155   3.739
 2335SOL    HW1 7904   5.816   0.077   3.694
 2335SOL    HW2 7905   5.811   0.240   3.701
 2336SOL     OW 7906   3.872   0.984   5.044
 2336SOL    HW1 7907   3.842   0.890   5.061
 2336SOL    HW2 7908   3.822   1.021   4.966
 2337SOL     OW 7909   4.171   0.349   1.462
 2337SOL    HW1 7910   4.235   0.304   1.524
 2337SOL    HW2 7911   4.182   0.312   1.370
 2338SOL     OW 7912   0.349   3.012   4.300
 2338SOL    HW1 7913   0.447   3.001   4.282
 2338SOL    HW2 7914   0.334   3.021   4.399
 2339SOL     OW 7915   3.768   4.011   3.576
 2339SOL    HW1 7916   3.781   3.912   3.569
 2339SOL    HW2 7917   3.818   4.056   3.502
 2340SOL     OW 7918   6.755   4.332   6.555
 2340SOL    HW1 7919   6.830   4.375   6.604
 2340SOL    HW2 7920   6.790   4.267   6.488
 2341SOL     OW 7921   3.002   4.796   2.315
 2341SOL    HW1 7922   3.040   4.840   2.233
 2341SOL    HW2 7923   3.068   4.731   2.351
 2342SOL     OW 7924   1.422   0.035   4.959
 2342SOL    HW1 7925   1.473   7.002   4.897
 2342SOL    HW2 7926   1.469   0.123   4.968
 2343SOL     OW 7927   1.690   5.462   2.264
 2343SOL    HW1 7928   1.725   5.379   2.308
 2343SOL    HW2 7929   1.693   5.450   2.165
 2344SOL     OW 7930   0.381   5.915   0.019
 2344SOL    HW1 7931   0.434   5.857   0.081
 2344SOL    HW2 7932   0.441   5.955   6.976
 2345SOL     OW 7933   2.417   5.405   4.976
 2345SOL    HW1 7934   2.331   5.366   4.942
 2345SOL    HW2 7935   2.404   5.436   5.070
 2346SOL     OW 7936   3.399   3.084   5.837
 2346SOL    HW1 7937   3.446   3.165   5.803
 2346SOL    HW2 7938   3.336   3.050   5.766
 2347SOL     OW 7939   2.658   2.400   1.342
 2347SOL    HW1 7940   2.559   2.406   1.349
 2347SOL    HW2 7941   2.698   2.489   1.365
 2348SOL     OW 7942   1.859   5.970   3.529
 2348SOL    HW1 7943   1.852   5.998   3.625
 2348SOL    HW2 7944   1.869   6.051   3.471
 2349SOL     OW 7945   0.851   4.743   5.721
 2349SOL    HW1 7946   0.921   4.814   5.733
 2349SOL    HW2 7947   0.889   4.669   5.666
 2350SOL     OW 7948   6.352   5.558   5.935
 2350SOL    HW1 7949   6.256   5.548   5.962
 2350SOL    HW2 7950   6.406   5.487   5.980
 2351SOL     OW 7951   2.896   5.067   4.313
 2351SOL    HW1 7952   2.905   4.974   4.349
 2351SOL    HW2 7953   2.931   5.132   4.381
 2352SOL     OW 7954   0.268   3.724   2.654
 2352SOL    HW1 7955   0.325   3.655   2.700
 2352SOL    HW2 7956   0.315   3.812   2.656
 2353SOL     OW 7957   3.301   5.383   4.551
 2353SOL    HW1 7958   3.387   5.430   4.532
 2353SOL    HW2 7959   3.319   5.287   4.572
 2354SOL     OW 7960   2.558   1.925   4.746
 2354SOL    HW1 7961   2.474   1.880   4.776
 2354SOL    HW2 7962   2.539   1.984   4.668
 2355SOL     OW 7963   2.126   0.012   5.934
 2355SOL    HW1 7964   2.141   6.946   5.898
 2355SOL    HW2 7965   2.029   0.037   5.923
 2356SOL     OW 7966   1.139   3.373   6.245
 2356SOL    HW1 7967   1.142   3.274   6.247
 2356SOL    HW2 7968   1.190   3.409   6.324
 2357SOL     OW 7969   4.218   0.309   2.732
 2357SOL    HW1 7970   4.146   0.376   2.717
 2357SOL    HW2 7971   4.181   0.230   2.781
 2358SOL     OW 7972   3.175   5.309   5.600
 2358SOL    HW1 7973   3.156   5.374   5.674
 2358SOL    HW2 7974   3.151   5.217   5.631
 2359SOL     OW 7975   6.816   0.952   5.751
 2359SOL    HW1 7976   6.820   1.047   5.720
 2359SOL    HW2 7977   6.732   0.909   5.719
 2360SOL     OW 7978   5.679   2.918   6.599
 2360SOL    HW1 7979   5.710   2.840   6.653
 2360SOL    HW2 7980   5.647   2.886   6.510
 2361SOL     OW 7981   2.127   0.869   6.062
 2361SOL    HW1 7982   2.101   0.852   6.157
 2361SOL    HW2 7983   2.192   0.800   6.031
 2362SOL     OW 7984   2.462   5.733   3.834
 2362SOL    HW1 7985   2.400   5.811   3.824
 2362SOL    HW2 7986   2.436   5.661   3.770
 2363SOL     OW 7987   4.771   1.864   4.970
 2363SOL    HW1 7988   4.781   1.791   4.903
 2363SOL    HW2 7989   4.686   1.852   5.021
 2364SOL     OW 7990   1.179   2.653   2.550
 2364SOL    HW1 7991   1.173   2.745   2.590
 2364SOL    HW2 7992   1.203   2.660   2.453
 2365SOL     OW 7993   6.863   2.377   6.802
 2365SOL    HW1 7994   6.813   2.353   6.885
 2365SOL    HW2 7995   6.808   2.353   6.722
 2366SOL     OW 7996   2.587   5.669   6.419
 2366SOL    HW1 7997   2.546   5.697   6.506
 2366SOL    HW2 7998   2.672   5.719   6.404
 2367SOL     OW 7999   2.451   3.780   1.074
 2367SOL    HW1 8000   2.486   3.811   1.162
 2367SOL    HW2 8001   2.440   3.859   1.013
 2368SOL     OW 8002   4.607   6.907   4.587
 2368SOL    HW1 8003   4.685   6.971   4.586
 2368SOL    HW2 8004   4.640   6.815   4.606
 2369SOL     OW 8005   2.460   0.948   4.935
 2369SOL    HW1 8006   2.462   0.857   4.977
 2369SOL    HW2 8007   2.414   0.943   4.847
 2370SOL     OW 8008   4.827   2.909   0.214
 2370SOL    HW1 8009   4.731   2.937   0.215
 2370SOL    HW2 8010   4.862   2.914   0.121
 2371SOL     OW 8011   1.117   6.963   1.440
 2371SOL    HW1 8012   1.185   6.890   1.441
 2371SOL    HW2 8013   1.115   7.006   1.349
 2372SOL     OW 8014   0.097   2.796   1.774
 2372SOL    HW1 8015   0.018   2.762   1.824
 2372SOL    HW2 8016   0.103   2.896   1.783
 2373SOL     OW 8017   1.044   2.540   6.300
 2373SOL    HW1 8018   1.091   2.452   6.299
 2373SOL    HW2 8019   1.110   2.613   6.283
 2374SOL     OW 8020   6.174   1.640   3.747
 2374SOL    HW1 8021   6.265   1.602   3.729
 2374SOL    HW2 8022   6.119   1.574   3.798
 2375SOL     OW 8023   3.170   6.345   4.714
 2375SOL    HW1 8024   3.203   6.251   4.721
 2375SOL    HW2 8025   3.197   6.396   4.796
 2376SOL     OW 8026   6.695   2.357   4.498
 2376SOL    HW1 8027   6.628   2.404   4.441
 2376SOL    HW2 8028   6.721   2.417   4.575
 2377SOL     OW 8029   4.112   3.566   3.997
 2377SOL    HW1 8030   4.092   3.652   4.043
 2377SOL    HW2 8031   4.211   3.557   3.982
 2378SOL     OW 8032   4.943   1.721   0.897
 2378SOL    HW1 8033   4.853   1.706   0.938
 2378SOL    HW2 8034   4.999   1.639   0.907
 2379SOL     OW 8035   6.739   1.731   0.335
 2379SOL    HW1 8036   6.725   1.826   0.305
 2379SOL    HW2 8037   6.782   1.731   0.425
 2380SOL     OW 8038   0.350   1.756   6.748
 2380SOL    HW1 8039   0.335   1.812   6.829
 2380SOL    HW2 8040   0.446   1.728   6.744
 2381SOL     OW 8041   1.902   5.029   4.683
 2381SOL    HW1 8042   1.850   5.062   4.761
 2381SOL    HW2 8043   1.999   5.025   4.706
 2382SOL     OW 8044   2.051   3.892   4.636
 2382SOL    HW1 8045   2.103   3.963   4.588
 2382SOL    HW2 8046   2.059   3.906   4.735
 2383SOL     OW 8047   4.815   6.292   0.737
 2383SOL    HW1 8048   4.726   6.324   0.768
 2383SOL    HW2 8049   4.872   6.371   0.714
 2384SOL     OW 8050   6.058   1.108   2.966
 2384SOL    HW1 8051   6.053   1.202   2.934
 2384SOL    HW2 8052   5.966   1.074   2.984
 2385SOL     OW 8053   0.966   6.778   0.670
 2385SOL    HW1 8054   0.949   6.804   0.575
 2385SOL    HW2 8055   0.914   6.695   0.692
 2386SOL     OW 8056   6.302   5.822   4.226
 2386SOL    HW1 8057   6.264   5.792   4.314
 2386SOL    HW2 8058   6.282   5.753   4.156
 2387SOL     OW 8059   1.515   2.114   4.356
 2387SOL    HW1 8060   1.589   2.100   4.290
 2387SOL    HW2 8061   1.431   2.074   4.319
 2388SOL     OW 8062   0.907   1.861   4.379
 2388SOL    HW1 8063   0.965   1.942   4.388
 2388SOL    HW2 8064   0.888   1.844   4.283
 2389SOL     OW 8065   4.884   4.054   2.793
 2389SOL    HW1 8066   4.909   4.039   2.889
 2389SOL    HW2 8067   4.920   3.980   2.737
 2390SOL     OW 8068   3.819   2.992   3.392
 2390SOL    HW1 8069   3.813   2.909   3.336
 2390SOL    HW2 8070   3.794   2.971   3.487
 2391SOL     OW 8071   5.072   3.960   5.741
 2391SOL    HW1 8072   5.040   3.915   5.824
 2391SOL    HW2 8073   5.078   4.058   5.757
 2392SOL     OW 8074   4.018   6.129   5.391
 2392SOL    HW1 8075   4.082   6.206   5.400
 2392SOL    HW2 8076   3.930   6.163   5.358
 2393SOL     OW 8077   4.935   3.861   6.247
 2393SOL    HW1 8078   4.954   3.958   6.239
 2393SOL    HW2 8079   4.922   3.822   6.155
 2394SOL     OW 8080   1.111   4.004   4.499
 2394SOL    HW1 8081   1.073   4.097   4.506
 2394SOL    HW2 8082   1.167   3.997   4.417
 2395SOL     OW 8083   5.291   1.745   5.789
 2395SOL    HW1 8084   5.309   1.782   5.698
 2395SOL    HW2 8085   5.371   1.693   5.820
 2396SOL     OW 8086   3.541   5.438   1.209
 2396SOL    HW1 8087   3.536   5.465   1.305
 2396SOL    HW2 8088   3.615   5.489   1.164
 2397SOL     OW 8089   6.819   3.630   5.605
 2397SOL    HW1 8090   6.815   3.535   5.572
 2397SOL    HW2 8091   6.915   3.657   5.616
 2398SOL     OW 8092   3.733   4.094   6.806
 2398SOL    HW1 8093   3.672   4.042   6.866
 2398SOL    HW2 8094   3.792   4.153   6.862
 2399SOL     OW 8095   4.652   0.975   1.505
 2399SOL    HW1 8096   4.616   0.953   1.596
 2399SOL    HW2 8097   4.605   0.920   1.436
 2400SOL     OW 8098   2.772   4.074   0.784
 2400SOL    HW1 8099   2.796   4.161   0.826
 2400SOL    HW2 8100   2.766   4.003   0.855
 2401SOL     OW 8101   5.094   6.261   6.780
 2401SOL    HW1 8102   5.093   6.295   6.686
 2401SOL    HW2 8103   5.189   6.242   6.807
 2402SOL     OW 8104   0.627   0.638   3.277
 2402SOL    HW1 8105   0.593   0.579   3.204
 2402SOL    HW2 8106   0.552   0.695   3.311
 2403SOL     OW 8107   1.943   2.321   6.755
 2403SOL    HW1 8108   2.014   2.283   6.815
 2403SOL    HW2 8109   1.985   2.358   6.673
 2404SOL     OW 8110   3.073   1.031   1.215
 2404SOL    HW1 8111   2.974   1.040   1.217
 2404SOL    HW2 8112   3.101   0.983   1.132
 2405SOL     OW 8113   3.519   3.489   2.418
 2405SOL    HW1 8114   3.491   3.406   2.467
 2405SOL    HW2 8115   3.612   3.514   2.446
 2406SOL     OW 8116   2.391   0.321   2.205
 2406SOL    HW1 8117   2.328   0.398   2.205
 2406SOL    HW2 8118   2.346   0.240   2.243
 2407SOL     OW 8119   5.583   1.592   2.785
 2407SOL    HW1 8120   5.552   1.498   2.770
 2407SOL    HW2 8121   5.626   1.627   2.702
 2408SOL     OW 8122   4.659   4.620   3.251
 2408SOL    HW1 8123   4.608   4.615   3.165
 2408SOL    HW2 8124   4.656   4.531   3.296
 2409SOL     OW 8125   2.117   4.575   1.868
 2409SOL    HW1 8126   2.028   4.575   1.913
 2409SOL    HW2 8127   2.181   4.632   1.920
 2410SOL     OW 8128   4.168   3.358   5.324
 2410SOL    HW1 8129   4.189   3.433   5.261
 2410SOL    HW2 8130   4.247   3.297   5.331
 2411SOL     OW 8131   5.043   5.783   4.816
 2411SOL    HW1 8132   5.033   5.694   4.772
 2411SOL    HW2 8133   5.010   5.855   4.755
 2412SOL     OW 8134   5.445   4.563   1.202
 2412SOL    HW1 8135   5.463   4.466   1.219
 2412SOL    HW2 8136   5.473   4.617   1.281
 2413SOL     OW 8137   6.202   1.258   0.426
 2413SOL    HW1 8138   6.175   1.201   0.504
 2413SOL    HW2 8139   6.299   1.243   0.407
 2414SOL     OW 8140   4.694   4.245   2.747
 2414SOL    HW1 8141   4.669   4.245   2.650
 2414SOL    HW2 8142   4.750   4.165   2.767
 2415SOL     OW 8143   6.529   0.987   3.178
 2415SOL    HW1 8144   6.432   1.008   3.189
 2415SOL    HW2 8145   6.567   1.042   3.104
 2416SOL     OW 8146   4.877   2.330   4.977
 2416SOL    HW1 8147   4.814   2.406   4.960
 2416SOL    HW2 8148   4.931   2.350   5.059
 2417SOL     OW 8149   3.787   3.790   4.778
 2417SOL    HW1 8150   3.840   3.825   4.855
 2417SOL    HW2 8151   3.757   3.867   4.721
 2418SOL     OW 8152   3.701   2.909   4.891
 2418SOL    HW1 8153   3.760   2.831   4.870
 2418SOL    HW2 8154   3.643   2.930   4.812
 2419SOL     OW 8155   0.014   6.886   4.381
 2419SOL    HW1 8156   0.067   6.892   4.296
 2419SOL    HW2 8157   6.956   6.939   4.371
 2420SOL     OW 8158   3.056   0.678   2.715
 2420SOL    HW1 8159   2.998   0.701   2.637
 2420SOL    HW2 8160   3.007   0.700   2.800
 2421SOL     OW 8161   2.059   2.462   5.362
 2421SOL    HW1 8162   2.112   2.535   5.318
 2421SOL    HW2 8163   2.058   2.381   5.304
 2422SOL     OW 8164   5.702   1.092   1.069
 2422SOL    HW1 8165   5.750   1.171   1.031
 2422SOL    HW2 8166   5.626   1.124   1.126
 2423SOL     OW 8167   1.933   5.872   2.728
 2423SOL    HW1 8168   2.013   5.857   2.786
 2423SOL    HW2 8169   1.962   5.908   2.639
 2424SOL     OW 8170   6.313   6.831   6.363
 2424SOL    HW1 8171   6.303   6.768   6.440
 2424SOL    HW2 8172   6.224   6.865   6.335
 2425SOL     OW 8173   5.730   0.454   4.039
 2425SOL    HW1 8174   5.690   0.544   4.022
 2425SOL    HW2 8175   5.699   0.419   4.127
 2426SOL     OW 8176   1.250   5.842   5.221
 2426SOL    HW1 8177   1.267   5.744   5.218
 2426SOL    HW2 8178   1.329   5.891   5.183
 2427SOL     OW 8179   5.383   5.773   5.426
 2427SOL    HW1 8180   5.357   5.696   5.484
 2427SOL    HW2 8181   5.352   5.859   5.467
 2428SOL     OW 8182   0.258   0.486   2.118
 2428SOL    HW1 8183   0.285   0.400   2.162
 2428SOL    HW2 8184   0.216   0.467   2.030
 2429SOL     OW 8185   5.758   5.473   2.690
 2429SOL    HW1 8186   5.716   5.391   2.652
 2429SOL    HW2 8187   5.693   5.522   2.747
 2430SOL     OW 8188   6.234   0.788   1.748
 2430SOL    HW1 8189   6.322   0.745   1.767
 2430SOL    HW2 8190   6.212   0.775   1.651
 2431SOL     OW 8191   3.576   0.627   2.034
 2431SOL    HW1 8192   3.638   0.691   1.990
 2431SOL    HW2 8193   3.575   0.642   2.133
 2432SOL     OW 8194   3.763   6.129   2.702
 2432SOL    HW1 8195   3.758   6.228   2.717
 2432SOL    HW2 8196   3.725   6.082   2.781
 2433SOL     OW 8197   4.024   1.456   0.151
 2433SOL    HW1 8198   3.962   1.472   0.228
 2433SOL    HW2 8199   4.084   1.536   0.139
 2434SOL     OW 8200   4.127   1.325   5.781
 2434SOL    HW1 8201   4.144   1.271   5.699
 2434SOL    HW2 8202   4.214   1.357   5.818
 2435SOL     OW 8203   4.613   5.033   5.724
 2435SOL    HW1 8204   4.592   5.056   5.818
 2435SOL    HW2 8205   4.564   5.094   5.662
 2436SOL     OW 8206   1.663   4.988   6.815
 2436SOL    HW1 8207   1.715   4.960   6.895
 2436SOL    HW2 8208   1.661   4.914   6.748
 2437SOL     OW 8209   5.799   6.707   6.655
 2437SOL    HW1 8210   5.708   6.669   6.635
 2437SOL    HW2 8211   5.832   6.671   6.742
 2438SOL     OW 8212   3.231   1.746   0.053
 2438SOL    HW1 8213   3.275   1.800   0.125
 2438SOL    HW2 8214   3.174   1.806   7.022
 2439SOL     OW 8215   0.920   4.364   6.317
 2439SOL    HW1 8216   0.913   4.280   6.371
 2439SOL    HW2 8217   0.854   4.431   6.351
 2440SOL     OW 8218   4.627   5.805   6.136
 2440SOL    HW1 8219   4.658   5.897   6.113
 2440SOL    HW2 8220   4.677   5.772   6.217
 2441SOL     OW 8221   6.643   2.609   6.485
 2441SOL    HW1 8222   6.564   2.595   6.425
 2441SOL    HW2 8223   6.705   2.531   6.477
 2442SOL     OW 8224   1.118   4.116   5.708
 2442SOL    HW1 8225   1.033   4.124   5.656
 2442SOL    HW2 8226   1.187   4.070   5.652
 2443SOL     OW 8227   3.325   4.895   6.498
 2443SOL    HW1 8228   3.349   4.909   6.594
 2443SOL    HW2 8229   3.389   4.829   6.458
 2444SOL     OW 8230   2.759   5.162   6.530
 2444SOL    HW1 8231   2.707   5.242   6.501
 2444SOL    HW2 8232   2.840   5.152   6.472
 2445SOL     OW 8233   0.123   1.358   1.524
 2445SOL    HW1 8234   0.143   1.288   1.592
 2445SOL    HW2 8235   0.195   1.426   1.524
 2446SOL     OW 8236   5.981   3.972   4.131
 2446SOL    HW1 8237   6.063   3.985   4.187
 2446SOL    HW2 8238   6.003   3.912   4.054
 2447SOL     OW 8239   2.360   2.809   6.918
 2447SOL    HW1 8240   2.421   2.880   6.954
 2447SOL    HW2 8241   2.267   2.845   6.913
 2448SOL     OW 8242   0.403   0.573   4.490
 2448SOL    HW1 8243   0.377   0.547   4.397
 2448SOL    HW2 8244   0.334   0.634   4.528
 2449SOL     OW 8245   6.955   3.711   0.286
 2449SOL    HW1 8246   6.984   3.680   0.196
 2449SOL    HW2 8247   0.005   3.756   0.332
 2450SOL     OW 8248   2.501   4.476   3.385
 2450SOL    HW1 8249   2.507   4.479   3.285
 2450SOL    HW2 8250   2.578   4.526   3.425
 2451SOL     OW 8251   2.077   6.387   3.967
 2451SOL    HW1 8252   2.037   6.478   3.964
 2451SOL    HW2 8253   2.093   6.360   4.062
 2452SOL     OW 8254   1.547   3.539   3.081
 2452SOL    HW1 8255   1.623   3.600   3.058
 2452SOL    HW2 8256   1.569   3.446   3.054
 2453SOL     OW 8257   6.461   4.660   1.429
 2453SOL    HW1 8258   6.361   4.658   1.434
 2453SOL    HW2 8259   6.494   4.578   1.384
 2454SOL     OW 8260   3.289   0.562   2.551
 2454SOL    HW1 8261   3.216   0.494   2.543
 2454SOL    HW2 8262   3.268   0.624   2.626
 2455SOL     OW 8263   5.540   5.331   0.466
 2455SOL    HW1 8264   5.552   5.430   0.465
 2455SOL    HW2 8265   5.449   5.308   0.430
 2456SOL     OW 8266   5.216   6.285   1.794
 2456SOL    HW1 8267   5.162   6.330   1.723
 2456SOL    HW2 8268   5.313   6.290   1.770
 2457SOL     OW 8269   6.027   0.174   0.503
 2457SOL    HW1 8270   5.981   0.224   0.576
 2457SOL    HW2 8271   6.035   0.077   0.527
 2458SOL     OW 8272   2.328   6.151   3.275
 2458SOL    HW1 8273   2.276   6.228   3.238
 2458SOL    HW2 8274   2.424   6.176   3.283
 2459SOL     OW 8275   1.918   0.144   0.329
 2459SOL    HW1 8276   2.002   0.121   0.378
 2459SOL    HW2 8277   1.861   0.202   0.387
 2460SOL     OW 8278   2.597   5.931   2.384
 2460SOL    HW1 8279   2.498   5.921   2.392
 2460SOL    HW2 8280   2.638   5.922   2.475
 2461SOL     OW 8281   5.626   7.022   2.007
 2461SOL    HW1 8282   5.639   6.979   1.918
 2461SOL    HW2 8283   5.629   0.096   1.996
 2462SOL     OW 8284   2.154   5.114   0.009
 2462SOL    HW1 8285   2.181   5.020   0.030
 2462SOL    HW2 8286   2.083   5.114   6.964
 2463SOL     OW 8287   6.689   1.957   3.237
 2463SOL    HW1 8288   6.785   1.936   3.254
 2463SOL    HW2 8289   6.661   1.917   3.149
 2464SOL     OW 8290   0.886   3.607   1.194
 2464SOL    HW1 8291   0.953   3.540   1.227
 2464SOL    HW2 8292   0.799   3.561   1.177
 2465SOL     OW 8293   0.394   5.643   2.555
 2465SOL    HW1 8294   0.450   5.648   2.473
 2465SOL    HW2 8295   0.302   5.675   2.534
 2466SOL     OW 8296   4.365   1.743   2.890
 2466SOL    HW1 8297   4.305   1.690   2.949
 2466SOL    HW2 8298   4.409   1.682   2.823
 2467SOL     OW 8299   0.141   0.731   6.056
 2467SOL    HW1 8300   0.042   0.715   6.059
 2467SOL    HW2 8301   0.159   0.823   6.022
 2468SOL     OW 8302   0.112   6.408   1.784
 2468SOL    HW1 8303   0.079   6.501   1.799
 2468SOL    HW2 8304   0.206   6.400   1.816
 2469SOL     OW 8305   2.868   3.886   5.093
 2469SOL    HW1 8306   2.925   3.947   5.149
 2469SOL    HW2 8307   2.889   3.791   5.116
 2470SOL     OW 8308   3.572   3.764   6.666
 2470SOL    HW1 8309   3.577   3.777   6.567
 2470SOL    HW2 8310   3.652   3.713   6.696
 2471SOL     OW 8311   0.294   6.465   2.718
 2471SOL    HW1 8312   0.217   6.529   2.722
 2471SOL    HW2 8313   0.259   6.372   2.706
 2472SOL     OW 8314   5.409   2.846   4.389
 2472SOL    HW1 8315   5.500   2.854   4.348
 2472SOL    HW2 8316   5.393   2.924   4.449
 2473SOL     OW 8317   0.481   5.711   4.291
 2473SOL    HW1 8318   0.457   5.807   4.308
 2473SOL    HW2 8319   0.476   5.693   4.192
 2474SOL     OW 8320   0.375   5.146   5.304
 2474SOL    HW1 8321   0.289   5.198   5.303
 2474SOL    HW2 8322   0.358   5.054   5.338
 2475SOL     OW 8323   4.227   2.470   0.458
 2475SOL    HW1 8324   4.150   2.406   0.452
 2475SOL    HW2 8325   4.229   2.527   0.377
 2476SOL     OW 8326   1.158   1.709   3.611
 2476SOL    HW1 8327   1.073   1.741   3.569
 2476SOL    HW2 8328   1.180   1.618   3.574
 2477SOL     OW 8329   5.480   5.473   1.393
 2477SOL    HW1 8330   5.468   5.527   1.310
 2477SOL    HW2 8331   5.416   5.504   1.463
 2478SOL     OW 8332   6.294   6.627   2.503
 2478SOL    HW1 8333   6.256   6.699   2.562
 2478SOL    HW2 8334   6.238   6.619   2.420
 2479SOL     OW 8335   0.296   2.384   0.584
 2479SOL    HW1 8336   0.372   2.320   0.569
 2479SOL    HW2 8337   0.210   2.340   0.559
 2480SOL     OW 8338   6.725   4.048   1.212
 2480SOL    HW1 8339   6.684   4.044   1.121
 2480SOL    HW2 8340   6.663   4.005   1.278
 2481SOL     OW 8341   4.097   5.392   2.107
 2481SOL    HW1 8342   4.130   5.299   2.124
 2481SOL    HW2 8343   4.002   5.399   2.138
 2482SOL     OW 8344   5.366   3.171   5.329
 2482SOL    HW1 8345   5.388   3.084   5.284
 2482SOL    HW2 8346   5.308   3.226   5.268
 2483SOL     OW 8347   1.039   1.355   6.919
 2483SOL    HW1 8348   1.081   1.264   6.931
 2483SOL    HW2 8349   1.101   1.425   6.955
 2484SOL     OW 8350   3.407   1.253   0.555
 2484SOL    HW1 8351   3.496   1.269   0.598
 2484SOL    HW2 8352   3.415   1.176   0.491
 2485SOL     OW 8353   0.457   5.382   2.627
 2485SOL    HW1 8354   0.516   5.364   2.548
 2485SOL    HW2 8355   0.421   5.475   2.621
 2486SOL     OW 8356   1.830   5.446   2.804
 2486SOL    HW1 8357   1.801   5.498   2.724
 2486SOL    HW2 8358   1.912   5.487   2.843
 2487SOL     OW 8359   4.271   0.217   1.241
 2487SOL    HW1 8360   4.308   0.226   1.148
 2487SOL    HW2 8361   4.289   0.124   1.274
 2488SOL     OW 8362   2.444   5.195   1.781
 2488SOL    HW1 8363   2.490   5.160   1.863
 2488SOL    HW2 8364   2.376   5.264   1.807
 2489SOL     OW 8365   1.518   5.926   4.989
 2489SOL    HW1 8366   1.467   5.841   5.001
 2489SOL    HW2 8367   1.461   5.993   4.942
 2490SOL     OW 8368   6.214   3.868   0.611
 2490SOL    HW1 8369   6.309   3.856   0.638
 2490SOL    HW2 8370   6.208   3.876   0.511
 2491SOL     OW 8371   2.932   5.083   3.158
 2491SOL    HW1 8372   2.993   5.012   3.192
 2491SOL    HW2 8373   2.982   5.168   3.147
 2492SOL     OW 8374   4.698   2.845   6.468
 2492SOL    HW1 8375   4.657   2.802   6.548
 2492SOL    HW2 8376   4.714   2.777   6.397
 2493SOL     OW 8377   5.885   1.766   3.122
 2493SOL    HW1 8378   5.828   1.715   3.186
 2493SOL    HW2 8379   5.840   1.767   3.032
 2494SOL     OW 8380   4.697   2.707   2.445
 2494SOL    HW1 8381   4.615   2.678   2.493
 2494SOL    HW2 8382   4.672   2.761   2.365
 2495SOL     OW 8383   5.266   0.887   5.062
 2495SOL    HW1 8384   5.361   0.917   5.065
 2495SOL    HW2 8385   5.261   0.797   5.019
 2496SOL     OW 8386   0.960   6.040   0.045
 2496SOL    HW1 8387   1.045   6.059   0.094
 2496SOL    HW2 8388   0.886   6.096   0.083
 2497SOL     OW 8389   6.416   1.563   6.869
 2497SOL    HW1 8390   6.490   1.630   6.861
 2497SOL    HW2 8391   6.411   1.509   6.785
 2498SOL     OW 8392   1.842   2.800   4.656
 2498SOL    HW1 8393   1.762   2.764   4.704
 2498SOL    HW2 8394   1.921   2.796   4.717
 2499SOL     OW 8395   5.339   0.670   4.385
 2499SOL    HW1 8396   5.340   0.770   4.391
 2499SOL    HW2 8397   5.350   0.630   4.476
 2500SOL     OW 8398   4.724   3.064   6.322
 2500SOL    HW1 8399   4.699   2.989   6.383
 2500SOL    HW2 8400   4.762   3.139   6.375
 2501SOL     OW 8401   6.405   4.465   0.059
 2501SOL    HW1 8402   6.469   4.435   7.015
 2501SOL    HW2 8403   6.331   4.517   0.016
 2502SOL     OW 8404   2.437   6.963   2.813
 2502SOL    HW1 8405   2.467   6.941   2.720
 2502SOL    HW2 8406   2.487   6.906   2.878
 2503SOL     OW 8407   4.027   5.077   5.594
 2503SOL    HW1 8408   3.952   5.039   5.648
 2503SOL    HW2 8409   3.991   5.118   5.510
 2504SOL     OW 8410   1.728   4.707   4.190
 2504SOL    HW1 8411   1.713   4.687   4.093
 2504SOL    HW2 8412   1.696   4.629   4.245
 2505SOL     OW 8413   4.322   5.235   4.498
 2505SOL    HW1 8414   4.234   5.233   4.450
 2505SOL    HW2 8415   4.348   5.330   4.515
 2506SOL     OW 8416   6.683   2.404   6.173
 2506SOL    HW1 8417   6.680   2.483   6.112
 2506SOL    HW2 8418   6.728   2.430   6.259
 2507SOL     OW 8419   6.401   5.886   0.674
 2507SOL    HW1 8420   6.356   5.887   0.763
 2507SOL    HW2 8421   6.498   5.905   0.685
 2508SOL     OW 8422   2.481   2.240   2.234
 2508SOL    HW1 8423   2.453   2.146   2.217
 2508SOL    HW2 8424   2.580   2.243   2.249
 2509SOL     OW 8425   5.375   2.860   3.736
 2509SOL    HW1 8426   5.303   2.791   3.743
 2509SOL    HW2 8427   5.340   2.940   3.688
 2510SOL     OW 8428   3.746   5.255   0.915
 2510SOL    HW1 8429   3.800   5.264   0.832
 2510SOL    HW2 8430   3.807   5.232   0.992
 2511SOL     OW 8431   0.539   0.706   5.176
 2511SOL    HW1 8432   0.565   0.741   5.086
 2511SOL    HW2 8433   0.547   0.607   5.177
 2512SOL     OW 8434   5.150   3.718   4.741
 2512SOL    HW1 8435   5.201   3.708   4.826
 2512SOL    HW2 8436   5.196   3.667   4.668
 2513SOL     OW 8437   0.712   2.771   0.157
 2513SOL    HW1 8438   0.702   2.854   0.213
 2513SOL    HW2 8439   0.798   2.725   0.181
 2514SOL     OW 8440   1.373   1.112   4.032
 2514SOL    HW1 8441   1.302   1.163   4.080
 2514SOL    HW2 8442   1.436   1.177   3.988
 2515SOL     OW 8443   0.621   5.700   0.856
 2515SOL    HW1 8444   0.641   5.792   0.891
 2515SOL    HW2 8445   0.691   5.674   0.790
 2516SOL     OW 8446   5.477   6.387   3.583
 2516SOL    HW1 8447   5.451   6.477   3.617
 2516SOL    HW2 8448   5.421   6.363   3.504
 2517SOL     OW 8449   2.133   4.282   0.129
 2517SOL    HW1 8450   2.079   4.270   0.046
 2517SOL    HW2 8451   2.134   4.196   0.181
 2518SOL     OW 8452   2.239   2.683   6.590
 2518SOL    HW1 8453   2.171   2.732   6.535
 2518SOL    HW2 8454   2.230   2.709   6.686
 2519SOL     OW 8455   4.626   4.868   4.896
 2519SOL    HW1 8456   4.672   4.825   4.973
 2519SOL    HW2 8457   4.694   4.893   4.826
 2520SOL     OW 8458   2.471   4.200   1.769
 2520SOL    HW1 8459   2.561   4.164   1.743
 2520SOL    HW2 8460   2.404   4.173   1.700
 2521SOL     OW 8461   5.935   0.172   5.277
 2521SOL    HW1 8462   5.936   0.072   5.269
 2521SOL    HW2 8463   5.877   0.198   5.354
 2522SOL     OW 8464   0.634   3.296   4.485
 2522SOL    HW1 8465   0.606   3.215   4.537
 2522SOL    HW2 8466   0.733   3.293   4.469
 2523SOL     OW 8467   0.577   3.510   0.022
 2523SOL    HW1 8468   0.520   3.450   0.077
 2523SOL    HW2 8469   0.596   3.594   0.073
 2524SOL     OW 8470   1.698   6.330   3.982
 2524SOL    HW1 8471   1.765   6.257   3.990
 2524SOL    HW2 8472   1.736   6.415   4.018
 2525SOL     OW 8473   1.169   3.576   3.988
 2525SOL    HW1 8474   1.188   3.594   4.084
 2525SOL    HW2 8475   1.236   3.510   3.953
 2526SOL     OW 8476   0.159   1.325   3.997
 2526SOL    HW1 8477   0.091   1.358   3.931
 2526SOL    HW2 8478   0.121   1.331   4.089
 2527SOL     OW 8479   5.566   6.650   4.076
 2527SOL    HW1 8480   5.604   6.578   4.134
 2527SOL    HW2 8481   5.472   6.627   4.052
 2528SOL     OW 8482   6.189   5.817   0.269
 2528SOL    HW1 8483   6.203   5.883   0.342
 2528SOL    HW2 8484   6.223   5.727   0.299
 2529SOL     OW 8485   5.230   4.454   4.165
 2529SOL    HW1 8486   5.178   4.539   4.175
 2529SOL    HW2 8487   5.326   4.471   4.188
 2530SOL     OW 8488   1.255   0.768   3.580
 2530SOL    HW1 8489   1.184   0.799   3.516
 2530SOL    HW2 8490   1.321   0.711   3.530
 2531SOL     OW 8491   4.008   1.267   6.472
 2531SOL    HW1 8492   3.947   1.270   6.393
 2531SOL    HW2 8493   4.033   1.360   6.498
 2532SOL     OW 8494   1.320   4.824   6.856
 2532SOL    HW1 8495   1.304   4.756   6.928
 2532SOL    HW2 8496   1.334   4.777   6.769
 2533SOL     OW 8497   5.967   6.446   6.128
 2533SOL    HW1 8498   5.901   6.408   6.063
 2533SOL    HW2 8499   6.010   6.527   6.088
 2534SOL     OW 8500   1.224   1.096   3.087
 2534SOL    HW1 8501   1.227   1.000   3.115
 2534SOL    HW2 8502   1.284   1.109   3.008
 2535SOL     OW 8503   2.310   1.224   3.825
 2535SOL    HW1 8504   2.327   1.322   3.818
 2535SOL    HW2 8505   2.396   1.174   3.820
 2536SOL     OW 8506   6.073   0.999   3.798
 2536SOL    HW1 8507   6.067   1.064   3.723
 2536SOL    HW2 8508   5.990   1.005   3.854
 2537SOL     OW 8509   5.110   5.473   1.463
 2537SOL    HW1 8510   5.162   5.503   1.543
 2537SOL    HW2 8511   5.131   5.532   1.386
 2538SOL     OW 8512   2.040   4.705   4.454
 2538SOL    HW1 8513   2.112   4.759   4.500
 2538SOL    HW2 8514   2.030   4.737   4.360
 2539SOL     OW 8515   3.710   6.748   5.844
 2539SOL    HW1 8516   3.802   6.711   5.850
 2539SOL    HW2 8517   3.685   6.762   5.748
 2540SOL     OW 8518   5.561   1.466   1.898
 2540SOL    HW1 8519   5.534   1.547   1.949
 2540SOL    HW2 8520   5.497   1.451   1.822
 2541SOL     OW 8521   1.101   6.445   6.331
 2541SOL    HW1 8522   1.094   6.399   6.420
 2541SOL    HW2 8523   1.051   6.393   6.262
 2542SOL     OW 8524   3.346   1.706   4.854
 2542SOL    HW1 8525   3.318   1.768   4.927
 2542SOL    HW2 8526   3.419   1.748   4.800
 2543SOL     OW 8527   1.091   1.532   3.182
 2543SOL    HW1 8528   1.170   1.593   3.184
 2543SOL    HW2 8529   1.015   1.578   3.136
 2544SOL     OW 8530   6.594   5.377   1.453
 2544SOL    HW1 8531   6.508   5.337   1.484
 2544SOL    HW2 8532   6.669   5.345   1.512
 2545SOL     OW 8533   0.483   2.028   1.309
 2545SOL    HW1 8534   0.476   2.126   1.324
 2545SOL    HW2 8535   0.416   2.000   1.239
 2546SOL     OW 8536   6.970   4.033   1.576
 2546SOL    HW1 8537   6.927   4.111   1.623
 2546SOL    HW2 8538   0.041   4.031   1.598
 2547SOL     OW 8539   5.387   3.622   0.246
 2547SOL    HW1 8540   5.305   3.641   0.194
 2547SOL    HW2 8541   5.389   3.680   0.328
 2548SOL     OW 8542   6.789   6.995   5.295
 2548SOL    HW1 8543   6.827   6.924   5.236
 2548SOL    HW2 8544   6.863   0.016   5.342
 2549SOL     OW 8545   2.637   2.314   0.722
 2549SOL    HW1 8546   2.606   2.355   0.808
 2549SOL    HW2 8547   2.577   2.343   0.647
 2550SOL     OW 8548   4.375   6.780   6.479
 2550SOL    HW1 8549   4.331   6.852   6.425
 2550SOL    HW2 8550   4.434   6.821   6.548
 2551SOL     OW 8551   3.035   5.918   0.101
 2551SOL    HW1 8552   3.054   6.015   0.113
 2551SOL    HW2 8553   2.938   5.900   0.118
 2552SOL     OW 8554   2.083   5.943   0.882
 2552SOL    HW1 8555   2.100   5.917   0.787
 2552SOL    HW2 8556   2.105   6.040   0.895
 2553SOL     OW 8557   4.435   1.451   6.817
 2553SOL    HW1 8558   4.346   1.452   6.772
 2553SOL    HW2 8559   4.439   1.374   6.882
 2554SOL     OW 8560   1.775   5.755   1.472
 2554SOL    HW1 8561   1.696   5.815   1.460
 2554SOL    HW2 8562   1.751   5.680   1.534
 2555SOL     OW 8563   5.883   6.150   5.257
 2555SOL    HW1 8564   5.903   6.090   5.180
 2555SOL    HW2 8565   5.922   6.240   5.240
 2556SOL     OW 8566   4.094   6.673   1.732
 2556SOL    HW1 8567   4.117   6.628   1.646
 2556SOL    HW2 8568   4.001   6.708   1.728
 2557SOL     OW 8569   4.195   6.909   0.064
 2557SOL    HW1 8570   4.150   6.908   7.001
 2557SOL    HW2 8571   4.180   6.821   0.110
 2558SOL     OW 8572   5.889   4.011   6.246
 2558SOL    HW1 8573   5.958   4.083   6.243
 2558SOL    HW2 8574   5.806   4.045   6.289
 2559SOL     OW 8575   1.197   4.320   3.725
 2559SOL    HW1 8576   1.145   4.247   3.770
 2559SOL    HW2 8577   1.294   4.307   3.744
 2560SOL     OW 8578   4.762   2.014   3.509
 2560SOL    HW1 8579   4.801   1.985   3.422
 2560SOL    HW2 8580   4.751   2.114   3.509
 2561SOL     OW 8581   3.437   0.469   4.648
 2561SOL    HW1 8582   3.400   0.449   4.557
 2561SOL    HW2 8583   3.530   0.503   4.639
 2562SOL     OW 8584   3.181   0.491   3.439
 2562SOL    HW1 8585   3.145   0.398   3.446
 2562SOL    HW2 8586   3.197   0.513   3.342
 2563SOL     OW 8587   3.659   1.044   0.419
 2563SOL    HW1 8588   3.736   1.070   0.478
 2563SOL    HW2 8589   3.678   0.955   0.377
 2564SOL     OW 8590   1.572   1.550   0.269
 2564SOL    HW1 8591   1.635   1.524   0.342
 2564SOL    HW2 8592   1.621   1.557   0.183
 2565SOL     OW 8593   1.339   2.518   6.528
 2565SOL    HW1 8594   1.309   2.424   6.512
 2565SOL    HW2 8595   1.283   2.580   6.473
 2566SOL     OW 8596   2.767   0.840   0.781
 2566SOL    HW1 8597   2.862   0.870   0.780
 2566SOL    HW2 8598   2.757   0.757   0.726
 2567SOL     OW 8599   1.241   0.050   0.210
 2567SOL    HW1 8600   1.148   0.084   0.198
 2567SOL    HW2 8601   1.303   0.128   0.221
 2568SOL     OW 8602   2.824   6.361   1.167
 2568SOL    HW1 8603   2.860   6.314   1.248
 2568SOL    HW2 8604   2.900   6.382   1.105
 2569SOL     OW 8605   0.639   1.098   1.550
 2569SOL    HW1 8606   0.592   1.065   1.468
 2569SOL    HW2 8607   0.735   1.071   1.547
 2570SOL     OW 8608   5.412   6.267   6.644
 2570SOL    HW1 8609   5.367   6.213   6.573
 2570SOL    HW2 8610   5.399   6.221   6.733
 2571SOL     OW 8611   3.568   3.328   4.726
 2571SOL    HW1 8612   3.593   3.413   4.680
 2571SOL    HW2 8613   3.593   3.333   4.822
 2572SOL     OW 8614   1.988   6.360   1.371
 2572SOL    HW1 8615   2.026   6.452   1.382
 2572SOL    HW2 8616   1.946   6.330   1.456
 2573SOL     OW 8617   6.663   2.240   3.895
 2573SOL    HW1 8618   6.702   2.315   3.842
 2573SOL    HW2 8619   6.563   2.243   3.889
 2574SOL     OW 8620   0.189   3.873   1.374
 2574SOL    HW1 8621   0.111   3.923   1.338
 2574SOL    HW2 8622   0.234   3.823   1.301
 2575SOL     OW 8623   5.567   4.046   0.468
 2575SOL    HW1 8624   5.629   4.110   0.424
 2575SOL    HW2 8625   5.618   3.966   0.500
 2576SOL     OW 8626   2.397   6.917   3.249
 2576SOL    HW1 8627   2.321   6.897   3.188
 2576SOL    HW2 8628   2.456   6.837   3.257
 2577SOL     OW 8629   2.608   6.888   2.558
 2577SOL    HW1 8630   2.587   6.939   2.475
 2577SOL    HW2 8631   2.707   6.874   2.564
 2578SOL     OW 8632   5.502   2.798   4.894
 2578SOL    HW1 8633   5.427   2.737   4.870
 2578SOL    HW2 8634   5.583   2.774   4.840
 2579SOL     OW 8635   0.297   2.582   7.024
 2579SOL    HW1 8636   0.361   2.533   6.965
 2579SOL    HW2 8637   0.205   2.575   6.987
 2580SOL     OW 8638   1.541   2.802   6.573
 2580SOL    HW1 8639   1.454   2.776   6.615
 2580SOL    HW2 8640   1.523   2.864   6.496
 2581SOL     OW 8641   6.049   6.086   2.624
 2581SOL    HW1 8642   6.138   6.042   2.624
 2581SOL    HW2 8643   5.977   6.017   2.610
 2582SOL     OW 8644   0.898   5.404   2.432
 2582SOL    HW1 8645   0.963   5.333   2.461
 2582SOL    HW2 8646   0.908   5.419   2.333
 2583SOL     OW 8647   1.138   0.071   0.550
 2583SOL    HW1 8648   1.157   7.005   0.516
 2583SOL    HW2 8649   1.201   0.136   0.507
 2584SOL     OW 8650   3.598   6.028   1.386
 2584SOL    HW1 8651   3.683   6.018   1.334
 2584SOL    HW2 8652   3.521   6.034   1.322
 2585SOL     OW 8653   3.606   0.182   1.276
 2585SOL    HW1 8654   3.577   0.278   1.269
 2585SOL    HW2 8655   3.660   0.169   1.360
 2586SOL     OW 8656   6.062   2.220   3.865
 2586SOL    HW1 8657   6.031   2.134   3.904
 2586SOL    HW2 8658   6.031   2.227   3.770
 2587SOL     OW 8659   5.996   6.318   3.970
 2587SOL    HW1 8660   5.975   6.258   3.893
 2587SOL    HW2 8661   5.972   6.273   4.056
 2588SOL     OW 8662   5.333   0.124   1.979
 2588SOL    HW1 8663   5.264   0.090   2.043
 2588SOL    HW2 8664   5.316   0.085   1.888
 2589SOL     OW 8665   6.545   6.353   5.520
 2589SOL    HW1 8666   6.556   6.380   5.616
 2589SOL    HW2 8667   6.449   6.360   5.494
 2590SOL     OW 8668   4.654   6.611   3.389
 2590SOL    HW1 8669   4.598   6.557   3.327
 2590SOL    HW2 8670   4.740   6.563   3.407
 2591SOL     OW 8671   5.110   6.049   1.925
 2591SOL    HW1 8672   5.107   6.149   1.915
 2591SOL    HW2 8673   5.028   6.018   1.973
 2592SOL     OW 8674   3.323   5.725   1.891
 2592SOL    HW1 8675   3.389   5.719   1.966
 2592SOL    HW2 8676   3.356   5.671   1.814
 2593SOL     OW 8677   3.459   6.429   2.683
 2593SOL    HW1 8678   3.461   6.494   2.607
 2593SOL    HW2 8679   3.401   6.351   2.660
 2594SOL     OW 8680   0.230   0.016   6.667
 2594SOL    HW1 8681   0.163   7.026   6.740
 2594SOL    HW2 8682   0.300   6.971   6.670
 2595SOL     OW 8683   6.381   3.239   4.764
 2595SOL    HW1 8684   6.291   3.197   4.751
 2595SOL    HW2 8685   6.452   3.172   4.745
 2596SOL     OW 8686   3.997   2.161   1.883
 2596SOL    HW1 8687   4.070   2.205   1.934
 2596SOL    HW2 8688   3.908   2.193   1.917
 2597SOL     OW 8689   2.366   3.775   0.718
 2597SOL    HW1 8690   2.449   3.723   0.703
 2597SOL    HW2 8691   2.381   3.843   0.790
 2598SOL     OW 8692   6.753   2.927   3.617
 2598SOL    HW1 8693   6.828   2.913   3.553
 2598SOL    HW2 8694   6.789   2.942   3.709
 2599SOL     OW 8695   3.919   5.480   0.412
 2599SOL    HW1 8696   3.985   5.464   0.485
 2599SOL    HW2 8697   3.862   5.399   0.399
 2600SOL     OW 8698   6.043   3.554   3.215
 2600SOL    HW1 8699   6.121   3.494   3.231
 2600SOL    HW2 8700   6.072   3.650   3.222
 2601SOL     OW 8701   3.748   3.802   6.099
 2601SOL    HW1 8702   3.836   3.780   6.058
 2601SOL    HW2 8703   3.763   3.856   6.183
 2602SOL     OW 8704   6.817   4.967   4.006
 2602SOL    HW1 8705   6.885   5.016   4.061
 2602SOL    HW2 8706   6.763   4.908   4.065
 2603SOL     OW 8707   3.027   2.162   1.212
 2603SOL    HW1 8708   2.970   2.223   1.268
 2603SOL    HW2 8709   3.117   2.202   1.200
 2604SOL     OW 8710   5.428   0.797   1.614
 2604SOL    HW1 8711   5.401   0.781   1.709
 2604SOL    HW2 8712   5.441   0.709   1.568
 2605SOL     OW 8713   4.321   4.794   4.556
 2605SOL    HW1 8714   4.317   4.839   4.645
 2605SOL    HW2 8715   4.408   4.744   4.548
 2606SOL     OW 8716   6.537   4.160   0.659
 2606SOL    HW1 8717   6.491   4.211   0.586
 2606SOL    HW2 8718   6.585   4.082   0.620
 2607SOL     OW 8719   1.200   0.428   3.141
 2607SOL    HW1 8720   1.121   0.454   3.197
 2607SOL    HW2 8721   1.171   0.415   3.046
 2608SOL     OW 8722   5.369   0.712   1.854
 2608SOL    HW1 8723   5.288   0.654   1.858
 2608SOL    HW2 8724   5.357   0.790   1.917
 2609SOL     OW 8725   0.610   2.193   2.727
 2609SOL    HW1 8726   0.700   2.226   2.698
 2609SOL    HW2 8727   0.622   2.120   2.795
 2610SOL     OW 8728   6.422   5.670   4.936
 2610SOL    HW1 8729   6.464   5.646   5.023
 2610SOL    HW2 8730   6.359   5.597   4.908
 2611SOL     OW 8731   5.179   6.497   1.247
 2611SOL    HW1 8732   5.153   6.563   1.176
 2611SOL    HW2 8733   5.126   6.514   1.329
 2612SOL     OW 8734   5.158   6.616   3.703
 2612SOL    HW1 8735   5.254   6.644   3.697
 2612SOL    HW2 8736   5.153   6.519   3.728
 2613SOL     OW 8737   3.626   0.527   2.470
 2613SOL    HW1 8738   3.589   0.560   2.556
 2613SOL    HW2 8739   3.668   0.437   2.484
 2614SOL     OW 8740   6.304   6.681   5.947
 2614SOL    HW1 8741   6.352   6.680   6.035
 2614SOL    HW2 8742   6.350   6.745   5.885
 2615SOL     OW 8743   5.015   4.654   2.703
 2615SOL    HW1 8744   5.059   4.584   2.759
 2615SOL    HW2 8745   4.916   4.640   2.704
 2616SOL     OW 8746   3.969   3.134   2.906
 2616SOL    HW1 8747   3.994   3.117   3.001
 2616SOL    HW2 8748   4.042   3.100   2.846
 2617SOL     OW 8749   3.437   5.966   0.971
 2617SOL    HW1 8750   3.355   5.953   1.027
 2617SOL    HW2 8751   3.468   6.061   0.979
 2618SOL     OW 8752   0.291   0.445   1.038
 2618SOL    HW1 8753   0.304   0.492   0.951
 2618SOL    HW2 8754   0.376   0.448   1.091
 2619SOL     OW 8755   4.237   1.885   2.159
 2619SOL    HW1 8756   4.313   1.853   2.215
 2619SOL    HW2 8757   4.269   1.904   2.066
 2620SOL     OW 8758   1.275   4.795   3.661
 2620SOL    HW1 8759   1.356   4.792   3.603
 2620SOL    HW2 8760   1.257   4.704   3.699
 2621SOL     OW 8761   0.751   6.104   3.855
 2621SOL    HW1 8762   0.717   6.196   3.836
 2621SOL    HW2 8763   0.829   6.084   3.796
 2622SOL     OW 8764   2.329   3.167   6.535
 2622SOL    HW1 8765   2.414   3.192   6.490
 2622SOL    HW2 8766   2.255   3.162   6.467
 2623SOL     OW 8767   3.498   1.260   5.517
 2623SOL    HW1 8768   3.559   1.276   5.595
 2623SOL    HW2 8769   3.534   1.308   5.437
 2624SOL     OW 8770   5.945   2.568   3.233
 2624SOL    HW1 8771   5.878   2.641   3.223
 2624SOL    HW2 8772   5.927   2.518   3.317
 2625SOL     OW 8773   2.653   2.646   5.601
 2625SOL    HW1 8774   2.748   2.659   5.629
 2625SOL    HW2 8775   2.649   2.634   5.502
 2626SOL     OW 8776   2.043   6.627   3.294
 2626SOL    HW1 8777   2.121   6.625   3.231
 2626SOL    HW2 8778   1.981   6.702   3.268
 2627SOL     OW 8779   0.148   0.397   4.566
 2627SOL    HW1 8780   0.233   0.344   4.564
 2627SOL    HW2 8781   0.153   0.471   4.498
 2628SOL     OW 8782   3.665   6.585   0.079
 2628SOL    HW1 8783   3.727   6.605   0.156
 2628SOL    HW2 8784   3.718   6.573   7.022
 2629SOL     OW 8785   3.789   4.001   1.551
 2629SOL    HW1 8786   3.728   4.018   1.474
 2629SOL    HW2 8787   3.745   3.938   1.615
 2630SOL     OW 8788   3.610   1.741   2.168
 2630SOL    HW1 8789   3.694   1.774   2.211
 2630SOL    HW2 8790   3.532   1.792   2.203
 2631SOL     OW 8791   4.674   6.475   4.366
 2631SOL    HW1 8792   4.760   6.425   4.377
 2631SOL    HW2 8793   4.647   6.513   4.455
 2632SOL     OW 8794   3.451   1.625   6.973
 2632SOL    HW1 8795   3.527   1.671   7.018
 2632SOL    HW2 8796   3.365   1.650   7.018
 2633SOL     OW 8797   6.182   2.465   6.483
 2633SOL    HW1 8798   6.098   2.519   6.493
 2633SOL    HW2 8799   6.198   2.446   6.386
 2634SOL     OW 8800   1.603   4.105   1.392
 2634SOL    HW1 8801   1.552   4.092   1.477
 2634SOL    HW2 8802   1.660   4.187   1.400
 2635SOL     OW 8803   5.535   5.170   4.194
 2635SOL    HW1 8804   5.568   5.257   4.159
 2635SOL    HW2 8805   5.569   5.096   4.137
 2636SOL     OW 8806   5.280   0.357   6.136
 2636SOL    HW1 8807   5.279   0.363   6.036
 2636SOL    HW2 8808   5.192   0.320   6.167
 2637SOL     OW 8809   5.406   6.668   3.580
 2637SOL    HW1 8810   5.377   6.763   3.580
 2637SOL    HW2 8811   5.410   6.635   3.485
 2638SOL     OW 8812   5.482   6.274   0.856
 2638SOL    HW1 8813   5.410   6.249   0.920
 2638SOL    HW2 8814   5.489   6.203   0.785
 2639SOL     OW 8815   5.822   6.594   1.099
 2639SOL    HW1 8816   5.792   6.499   1.103
 2639SOL    HW2 8817   5.862   6.620   1.187
 2640SOL     OW 8818   6.999   6.245   5.231
 2640SOL    HW1 8819   0.014   6.171   5.179
 2640SOL    HW2 8820   6.987   6.216   5.326
 2641SOL     OW 8821   5.098   3.911   6.558
 2641SOL    HW1 8822   5.100   3.958   6.470
 2641SOL    HW2 8823   5.110   3.978   6.632
 2642SOL     OW 8824   4.829   0.316   4.053
 2642SOL    HW1 8825   4.763   0.244   4.076
 2642SOL    HW2 8826   4.796   0.404   4.089
 2643SOL     OW 8827   0.360   6.539   3.421
 2643SOL    HW1 8828   0.390   6.446   3.397
 2643SOL    HW2 8829   0.261   6.541   3.428
 2644SOL     OW 8830   0.921   5.216   5.726
 2644SOL    HW1 8831   0.991   5.144   5.731
 2644SOL    HW2 8832   0.831   5.177   5.744
 2645SOL     OW 8833   5.362   6.434   5.772
 2645SOL    HW1 8834   5.338   6.459   5.867
 2645SOL    HW2 8835   5.325   6.504   5.710
 2646SOL     OW 8836   0.063   0.141   6.511
 2646SOL    HW1 8837   0.122   0.086   6.570
 2646SOL    HW2 8838   0.118   0.211   6.465
 2647SOL     OW 8839   4.449   1.818   0.967
 2647SOL    HW1 8840   4.389   1.739   0.962
 2647SOL    HW2 8841   4.395   1.902   0.959
 2648SOL     OW 8842   6.032   6.994   2.467
 2648SOL    HW1 8843   6.086   6.924   2.420
 2648SOL    HW2 8844   5.957   7.023   2.407
 2649SOL     OW 8845   3.289   1.434   6.203
 2649SOL    HW1 8846   3.260   1.461   6.295
 2649SOL    HW2 8847   3.218   1.461   6.137
 2650SOL     OW 8848   0.103   5.316   3.375
 2650SOL    HW1 8849   0.014   5.273   3.391
 2650SOL    HW2 8850   0.133   5.362   3.459
 2651SOL     OW 8851   6.978   1.228   1.786
 2651SOL    HW1 8852   0.031   1.193   1.736
 2651SOL    HW2 8853   6.908   1.157   1.791
 2652SOL     OW 8854   3.028   3.227   2.977
 2652SOL    HW1 8855   3.027   3.178   2.890
 2652SOL    HW2 8856   2.986   3.317   2.964
 2653SOL     OW 8857   5.687   6.778   6.155
 2653SOL    HW1 8858   5.658   6.747   6.064
 2653SOL    HW2 8859   5.769   6.835   6.145
 2654SOL     OW 8860   5.136   1.782   6.212
 2654SOL    HW1 8861   5.194   1.758   6.290
 2654SOL    HW2 8862   5.171   1.865   6.168
 2655SOL     OW 8863   4.082   5.903   4.833
 2655SOL    HW1 8864   4.176   5.921   4.806
 2655SOL    HW2 8865   4.060   5.957   4.915
 2656SOL     OW 8866   5.384   3.803   3.434
 2656SOL    HW1 8867   5.357   3.812   3.338
 2656SOL    HW2 8868   5.483   3.796   3.441
 2657SOL     OW 8869   1.763   4.234   6.711
 2657SOL    HW1 8870   1.724   4.269   6.796
 2657SOL    HW2 8871   1.806   4.145   6.727
 2658SOL     OW 8872   6.022   4.239   5.960
 2658SOL    HW1 8873   5.926   4.265   5.950
 2658SOL    HW2 8874   6.043   4.164   5.897
 2659SOL     OW 8875   6.742   2.417   4.808
 2659SOL    HW1 8876   6.825   2.368   4.780
 2659SOL    HW2 8877   6.665   2.353   4.811
 2660SOL     OW 8878   6.266   2.382   2.342
 2660SOL    HW1 8879   6.345   2.321   2.351
 2660SOL    HW2 8880   6.189   2.333   2.302
 2661SOL     OW 8881   3.366   5.714   1.200
 2661SOL    HW1 8882   3.449   5.753   1.241
 2661SOL    HW2 8883   3.330   5.642   1.259
 2662SOL     OW 8884   4.457   6.342   5.063
 2662SOL    HW1 8885   4.486   6.295   5.147
 2662SOL    HW2 8886   4.357   6.342   5.058
 2663SOL     OW 8887   2.173   4.952   2.482
 2663SOL    HW1 8888   2.186   4.861   2.441
 2663SOL    HW2 8889   2.254   5.007   2.468
 2664SOL     OW 8890   3.931   3.866   2.795
 2664SOL    HW1 8891   3.993   3.816   2.855
 2664SOL    HW2 8892   3.837   3.858   2.829
 2665SOL     OW 8893   3.604   1.492   5.334
 2665SOL    HW1 8894   3.613   1.463   5.239
 2665SOL    HW2 8895   3.648   1.581   5.347
 2666SOL     OW 8896   4.912   4.213   1.070
 2666SOL    HW1 8897   4.944   4.125   1.033
 2666SOL    HW2 8898   4.957   4.287   1.021
 2667SOL     OW 8899   1.984   5.897   5.090
 2667SOL    HW1 8900   1.976   5.877   5.188
 2667SOL    HW2 8901   2.024   5.818   5.043
 2668SOL     OW 8902   6.638   3.400   5.001
 2668SOL    HW1 8903   6.564   3.356   4.950
 2668SOL    HW2 8904   6.718   3.340   5.003
 2669SOL     OW 8905   4.504   5.179   5.499
 2669SOL    HW1 8906   4.487   5.154   5.404
 2669SOL    HW2 8907   4.571   5.253   5.503
 2670SOL     OW 8908   0.816   1.012   0.201
 2670SOL    HW1 8909   0.749   0.981   0.133
 2670SOL    HW2 8910   0.839   1.108   0.185
 2671SOL     OW 8911   2.592   4.139   6.597
 2671SOL    HW1 8912   2.599   4.202   6.675
 2671SOL    HW2 8913   2.517   4.167   6.538
 2672SOL     OW 8914   1.937   5.053   0.476
 2672SOL    HW1 8915   1.915   5.065   0.379
 2672SOL    HW2 8916   2.035   5.061   0.489
 2673SOL     OW 8917   3.999   2.158   3.097
 2673SOL    HW1 8918   4.051   2.079   3.067
 2673SOL    HW2 8919   3.946   2.135   3.179
 2674SOL     OW 8920   0.422   5.104   4.376
 2674SOL    HW1 8921   0.343   5.057   4.337
 2674SOL    HW2 8922   0.391   5.185   4.426
 2675SOL     OW 8923   0.271   4.286   5.438
 2675SOL    HW1 8924   0.326   4.259   5.359
 2675SOL    HW2 8925   0.177   4.255   5.425
 2676SOL     OW 8926   4.471   1.383   2.243
 2676SOL    HW1 8927   4.561   1.409   2.207
 2676SOL    HW2 8928   4.443   1.447   2.315
 2677SOL     OW 8929   1.559   4.748   1.582
 2677SOL    HW1 8930   1.653   4.783   1.578
 2677SOL    HW2 8931   1.537   4.702   1.496
 2678SOL     OW 8932   1.356   5.050   6.281
 2678SOL    HW1 8933   1.335   4.955   6.257
 2678SOL    HW2 8934   1.398   5.052   6.372
 2679SOL     OW 8935   3.415   5.162   0.903
 2679SOL    HW1 8936   3.506   5.124   0.891
 2679SOL    HW2 8937   3.404   5.197   0.996
 2680SOL     OW 8938   2.122   1.531   0.693
 2680SOL    HW1 8939   2.057   1.504   0.764
 2680SOL    HW2 8940   2.072   1.576   0.618
 2681SOL     OW 8941   0.951   3.255   4.461
 2681SOL    HW1 8942   0.984   3.312   4.386
 2681SOL    HW2 8943   0.952   3.308   4.546
 2682SOL     OW 8944   5.261   3.051   2.262
 2682SOL    HW1 8945   5.205   3.056   2.178
 2682SOL    HW2 8946   5.226   2.978   2.320
 2683SOL     OW 8947   0.583   5.207   1.278
 2683SOL    HW1 8948   0.552   5.128   1.225
 2683SOL    HW2 8949   0.668   5.184   1.326
 2684SOL     OW 8950   3.638   6.631   3.227
 2684SOL    HW1 8951   3.680   6.631   3.136
 2684SOL    HW2 8952   3.683   6.698   3.285
 2685SOL     OW 8953   5.304   6.167   4.836
 2685SOL    HW1 8954   5.308   6.074   4.872
 2685SOL    HW2 8955   5.262   6.166   4.745
 2686SOL     OW 8956   2.378   2.721   4.214
 2686SOL    HW1 8957   2.473   2.695   4.199
 2686SOL    HW2 8958   2.319   2.666   4.155
 2687SOL     OW 8959   3.851   4.925   2.303
 2687SOL    HW1 8960   3.880   4.910   2.397
 2687SOL    HW2 8961   3.753   4.949   2.302
 2688SOL     OW 8962   4.840   4.935   6.599
 2688SOL    HW1 8963   4.796   5.016   6.635
 2688SOL    HW2 8964   4.859   4.948   6.501
 2689SOL     OW 8965   1.168   2.496   3.451
 2689SOL    HW1 8966   1.210   2.415   3.411
 2689SOL    HW2 8967   1.106   2.538   3.385
 2690SOL     OW 8968   3.677   2.913   3.637
 2690SOL    HW1 8969   3.661   2.913   3.735
 2690SOL    HW2 8970   3.593   2.937   3.589
 2691SOL     OW 8971   1.972   5.246   2.152
 2691SOL    HW1 8972   1.921   5.255   2.067
 2691SOL    HW2 8973   1.909   5.236   2.229
 2692SOL     OW 8974   6.994   5.654   3.892
 2692SOL    HW1 8975   6.969   5.661   3.796
 2692SOL    HW2 8976   7.000   5.557   3.918
 2693SOL     OW 8977   1.913   3.698   3.760
 2693SOL    HW1 8978   1.828   3.740   3.793
 2693SOL    HW2 8979   1.901   3.599   3.755
 2694SOL     OW 8980   3.258   0.184   3.306
 2694SOL    HW1 8981   3.179   0.207   3.363
 2694SOL    HW2 8982   3.290   0.266   3.258
 2695SOL     OW 8983   4.977   1.981   2.695
 2695SOL    HW1 8984   5.051   2.048   2.703
 2695SOL    HW2 8985   4.954   1.968   2.598
 2696SOL     OW 8986   3.591   3.738   5.675
 2696SOL    HW1 8987   3.688   3.760   5.680
 2696SOL    HW2 8988   3.561   3.743   5.579
 2697SOL     OW 8989   4.145   2.279   3.426
 2697SOL    HW1 8990   4.060   2.244   3.388
 2697SOL    HW2 8991   4.209   2.298   3.351
 2698SOL     OW 8992   0.809   4.132   0.641
 2698SOL    HW1 8993   0.757   4.141   0.557
 2698SOL    HW2 8994   0.825   4.222   0.681
 2699SOL     OW 8995   3.702   5.874   1.058
 2699SOL    HW1 8996   3.691   5.775   1.048
 2699SOL    HW2 8997   3.624   5.921   1.018
 2700SOL     OW 8998   1.927   3.786   2.556
 2700SOL    HW1 8999   1.926   3.885   2.568
 2700SOL    HW2 9000   1.972   3.743   2.634
 2701SOL     OW 9001   3.138   0.029   6.315
 2701SOL    HW1 9002   3.236   0.015   6.327
 2701SOL    HW2 9003   3.096   0.047   6.404
 2702SOL     OW 9004   0.014   1.566   2.890
 2702SOL    HW1 9005   0.032   1.467   2.883
 2702SOL    HW2 9006   6.960   1.581   2.948
 2703SOL     OW 9007   2.726   1.933   2.444
 2703SOL    HW1 9008   2.785   2.012   2.424
 2703SOL    HW2 9009   2.736   1.865   2.371
 2704SOL     OW 9010   2.875   5.071   1.925
 2704SOL    HW1 9011   2.917   5.020   2.000
 2704SOL    HW2 9012   2.868   5.167   1.949
 2705SOL     OW 9013   6.314   6.040   3.841
 2705SOL    HW1 9014   6.384   6.008   3.777
 2705SOL    HW2 9015   6.341   6.015   3.934
 2706SOL     OW 9016   6.680   1.300   1.956
 2706SOL    HW1 9017   6.708   1.207   1.980
 2706SOL    HW2 9018   6.609   1.330   2.019
 2707SOL     OW 9019   1.978   1.809   6.860
 2707SOL    HW1 9020   2.022   1.886   6.813
 2707SOL    HW2 9021   2.046   1.757   6.910
 2708SOL     OW 9022   2.155   2.490   1.754
 2708SOL    HW1 9023   2.090   2.550   1.800
 2708SOL    HW2 9024   2.220   2.454   1.820
 2709SOL     OW 9025   5.165   6.003   1.097
 2709SOL    HW1 9026   5.219   5.997   1.181
 2709SOL    HW2 9027   5.078   5.956   1.110
 2710SOL     OW 9028   7.012   3.502   2.398
 2710SOL    HW1 9029   0.042   3.429   2.437
 2710SOL    HW2 9030   0.031   3.538   2.316
 2711SOL     OW 9031   1.323   0.364   1.714
 2711SOL    HW1 9032   1.393   0.433   1.695
 2711SOL    HW2 9033   1.355   0.275   1.682
 2712SOL     OW 9034   2.439   4.397   0.827
 2712SOL    HW1 9035   2.345   4.373   0.851
 2712SOL    HW2 9036   2.465   4.346   0.745
 2713SOL     OW 9037   2.137   3.154   5.082
 2713SOL    HW1 9038   2.217   3.107   5.046
 2713SOL    HW2 9039   2.086   3.093   5.143
 2714SOL     OW 9040   5.094   1.114   5.736
 2714SOL    HW1 9041   5.026   1.110   5.809
 2714SOL    HW2 9042   5.072   1.047   5.666
 2715SOL     OW 9043   5.311   1.816   0.208
 2715SOL    HW1 9044   5.363   1.852   0.286
 2715SOL    HW2 9045   5.246   1.885   0.177
 2716SOL     OW 9046   6.439   5.187   2.248
 2716SOL    HW1 9047   6.473   5.124   2.317
 2716SOL    HW2 9048   6.496   5.270   2.248
 2717SOL     OW 9049   0.826   6.399   2.657
 2717SOL    HW1 9050   0.834   6.441   2.748
 2717SOL    HW2 9051   0.796   6.304   2.667
 2718SOL     OW 9052   1.715   3.637   4.425
 2718SOL    HW1 9053   1.643   3.606   4.362
 2718SOL    HW2 9054   1.689   3.726   4.463
 2719SOL     OW 9055   4.218   5.149   2.512
 2719SOL    HW1 9056   4.262   5.228   2.556
 2719SOL    HW2 9057   4.259   5.134   2.422
 2720SOL     OW 9058   1.917   6.122   3.945
 2720SOL    HW1 9059   1.944   6.114   4.041
 2720SOL    HW2 9060   1.989   6.169   3.894
 2721SOL     OW 9061   2.759   0.263   4.520
 2721SOL    HW1 9062   2.823   0.268   4.443
 2721SOL    HW2 9063   2.779   0.180   4.573
 2722SOL     OW 9064   0.750   5.192   3.194
 2722SOL    HW1 9065   0.691   5.270   3.216
 2722SOL    HW2 9066   0.801   5.166   3.276
 2723SOL     OW 9067   1.822   1.283   5.735
 2723SOL    HW1 9068   1.854   1.378   5.737
 2723SOL    HW2 9069   1.815   1.253   5.640
 2724SOL     OW 9070   3.483   5.662   6.928
 2724SOL    HW1 9071   3.431   5.586   6.891
 2724SOL    HW2 9072   3.426   5.714   6.992
 2725SOL     OW 9073   4.738   4.553   2.713
 2725SOL    HW1 9074   4.691   4.480   2.761
 2725SOL    HW2 9075   4.682   4.636   2.716
 2726SOL     OW 9076   4.679   4.594   1.558
 2726SOL    HW1 9077   4.691   4.690   1.587
 2726SOL    HW2 9078   4.679   4.535   1.638
 2727SOL     OW 9079   0.750   4.786   2.757
 2727SOL    HW1 9080   0.723   4.691   2.771
 2727SOL    HW2 9081   0.675   4.837   2.717
 2728SOL     OW 9082   2.786   6.887   5.397
 2728SOL    HW1 9083   2.713   6.921   5.456
 2728SOL    HW2 9084   2.750   6.813   5.340
 2729SOL     OW 9085   6.496   5.170   3.196
 2729SOL    HW1 9086   6.541   5.090   3.235
 2729SOL    HW2 9087   6.401   5.149   3.175
 2730SOL     OW 9088   2.696   6.965   0.253
 2730SOL    HW1 9089   2.598   6.951   0.271
 2730SOL    HW2 9090   2.737   7.013   0.331
 2731SOL     OW 9091   2.955   3.793   1.822
 2731SOL    HW1 9092   3.035   3.852   1.833
 2731SOL    HW2 9093   2.979   3.699   1.848
 2732SOL     OW 9094   5.843   2.800   2.286
 2732SOL    HW1 9095   5.787   2.879   2.262
 2732SOL    HW2 9096   5.849   2.738   2.207
 2733SOL     OW 9097   0.907   7.008   5.488
 2733SOL    HW1 9098   1.003   7.014   5.460
 2733SOL    HW2 9099   0.848   7.017   5.407
 2734SOL     OW 9100   1.967   6.426   3.533
 2734SOL    HW1 9101   2.041   6.368   3.567
 2734SOL    HW2 9102   2.000   6.520   3.525
 2735SOL     OW 9103   1.423   4.665   2.446
 2735SOL    HW1 9104   1.367   4.641   2.367
 2735SOL    HW2 9105   1.393   4.752   2.484
 2736SOL     OW 9106   4.007   0.225   5.250
 2736SOL    HW1 9107   4.094   0.217   5.298
 2736SOL    HW2 9108   4.010   0.303   5.187
 2737SOL     OW 9109   4.019   3.597   5.967
 2737SOL    HW1 9110   4.084   3.574   5.893
 2737SOL    HW2 9111   4.012   3.519   6.030
 2738SOL     OW 9112   5.063   5.408   4.102
 2738SOL    HW1 9113   4.978   5.432   4.150
 2738SOL    HW2 9114   5.053   5.319   4.059
 2739SOL     OW 9115   5.335   3.982   0.941
 2739SOL    HW1 9116   5.399   4.034   0.885
 2739SOL    HW2 9117   5.386   3.926   1.006
 2740SOL     OW 9118   6.050   2.156   2.605
 2740SOL    HW1 9119   6.064   2.073   2.660
 2740SOL    HW2 9120   6.035   2.130   2.510
 2741SOL     OW 9121   0.043   2.141   5.793
 2741SOL    HW1 9122   0.049   2.050   5.754
 2741SOL    HW2 9123   6.986   2.186   5.762
 2742SOL     OW 9124   1.446   5.769   6.576
 2742SOL    HW1 9125   1.454   5.868   6.566
 2742SOL    HW2 9126   1.427   5.728   6.487
 2743SOL     OW 9127   5.321   5.005   1.466
 2743SOL    HW1 9128   5.270   4.952   1.534
 2743SOL    HW2 9129   5.397   5.052   1.510
 2744SOL     OW 9130   4.118   2.359   6.330
 2744SOL    HW1 9131   4.018   2.364   6.328
 2744SOL    HW2 9132   4.155   2.418   6.259
 2745SOL     OW 9133   2.106   6.204   0.943
 2745SOL    HW1 9134   2.182   6.202   1.006
 2745SOL    HW2 9135   2.064   6.294   0.944
 2746SOL     OW 9136   1.716   2.168   5.241
 2746SOL    HW1 9137   1.652   2.230   5.286
 2746SOL    HW2 9138   1.788   2.141   5.305
 2747SOL     OW 9139   5.582   6.002   4.460
 2747SOL    HW1 9140   5.651   5.931   4.448
 2747SOL    HW2 9141   5.583   6.062   4.380
 2748SOL     OW 9142   4.710   1.321   3.555
 2748SOL    HW1 9143   4.794   1.272   3.579
 2748SOL    HW2 9144   4.683   1.379   3.632
 2749SOL     OW 9145   4.675   4.326   4.464
 2749SOL    HW1 9146   4.626   4.292   4.544
 2749SOL    HW2 9147   4.616   4.390   4.413
 2750SOL     OW 9148   0.751   5.731   2.381
 2750SOL    HW1 9149   0.815   5.724   2.306
 2750SOL    HW2 9150   0.788   5.685   2.462
 2751SOL     OW 9151   2.151   6.818   6.678
 2751SOL    HW1 9152   2.221   6.887   6.700
 2751SOL    HW2 9153   2.067   6.840   6.727
 2752SOL     OW 9154   5.998   6.424   5.290
 2752SOL    HW1 9155   6.083   6.444   5.242
 2752SOL    HW2 9156   5.985   6.492   5.362
 2753SOL     OW 9157   4.028   5.977   6.514
 2753SOL    HW1 9158   4.008   6.020   6.602
 2753SOL    HW2 9159   4.126   5.960   6.507
 2754SOL     OW 9160   0.882   0.062   4.322
 2754SOL    HW1 9161   0.790   0.087   4.354
 2754SOL    HW2 9162   0.875   7.012   4.257
 2755SOL     OW 9163   3.216   6.419   2.432
 2755SOL    HW1 9164   3.270   6.341   2.462
 2755SOL    HW2 9165   3.183   6.403   2.339
 2756SOL     OW 9166   6.138   3.541   5.569
 2756SOL    HW1 9167   6.236   3.556   5.583
 2756SOL    HW2 9168   6.092   3.542   5.658
 2757SOL     OW 9169   4.536   2.343   0.252
 2757SOL    HW1 9170   4.562   2.429   0.209
 2757SOL    HW2 9171   4.598   2.270   0.222
 2758SOL     OW 9172   5.335   4.630   2.690
 2758SOL    HW1 9173   5.324   4.723   2.726
 2758SOL    HW2 9174   5.424   4.594   2.719
 2759SOL     OW 9175   3.301   4.661   6.287
 2759SOL    HW1 9176   3.223   4.687   6.344
 2759SOL    HW2 9177   3.282   4.573   6.242
 2760SOL     OW 9178   5.414   5.573   3.564
 2760SOL    HW1 9179   5.381   5.489   3.521
 2760SOL    HW2 9180   5.393   5.651   3.504
 2761SOL     OW 9181   2.093   3.742   2.773
 2761SOL    HW1 9182   2.095   3.686   2.856
 2761SOL    HW2 9183   2.136   3.830   2.791
 2762SOL     OW 9184   1.950   2.287   0.226
 2762SOL    HW1 9185   1.943   2.258   0.130
 2762SOL    HW2 9186   2.023   2.235   0.271
 2763SOL     OW 9187   4.643   1.108   5.895
 2763SOL    HW1 9188   4.544   1.104   5.899
 2763SOL    HW2 9189   4.672   1.165   5.818
 2764SOL     OW 9190   0.672   3.999   1.978
 2764SOL    HW1 9191   0.770   3.981   1.969
 2764SOL    HW2 9192   0.623   3.911   1.979
 2765SOL     OW 9193   6.369   6.842   0.126
 2765SOL    HW1 9194   6.350   6.751   0.088
 2765SOL    HW2 9195   6.404   6.832   0.219
 2766SOL     OW 9196   5.708   0.896   6.929
 2766SOL    HW1 9197   5.651   0.923   6.852
 2766SOL    HW2 9198   5.782   0.837   6.896
 2767SOL     OW 9199   6.773   4.885   6.195
 2767SOL    HW1 9200   6.803   4.903   6.289
 2767SOL    HW2 9201   6.771   4.971   6.144
 2768SOL     OW 9202   5.061   0.401   1.173
 2768SOL    HW1 9203   5.026   0.318   1.130
 2768SOL    HW2 9204   4.995   0.434   1.241
 2769SOL     OW 9205   1.614   4.534   5.456
 2769SOL    HW1 9206   1.596   4.448   5.408
 2769SOL    HW2 9207   1.527   4.572   5.489
 2770SOL     OW 9208   2.394   6.998   6.906
 2770SOL    HW1 9209   2.479   0.009   6.944
 2770SOL    HW2 9210   2.408   6.971   6.811
 2771SOL     OW 9211   4.566   0.359   4.771
 2771SOL    HW1 9212   4.510   0.276   4.771
 2771SOL    HW2 9213   4.522   0.429   4.828
 2772SOL     OW 9214   4.310   0.964   2.798
 2772SOL    HW1 9215   4.251   0.965   2.718
 2772SOL    HW2 9216   4.404   0.985   2.771
 2773SOL     OW 9217   6.221   3.220   4.029
 2773SOL    HW1 9218   6.126   3.219   4.060
 2773SOL    HW2 9219   6.281   3.194   4.104
 2774SOL     OW 9220   5.144   1.837   3.637
 2774SOL    HW1 9221   5.080   1.876   3.703
 2774SOL    HW2 9222   5.145   1.892   3.554
 2775SOL     OW 9223   0.376   4.465   4.820
 2775SOL    HW1 9224   0.474   4.457   4.839
 2775SOL    HW2 9225   0.328   4.491   4.903
 2776SOL     OW 9226   5.062   4.773   6.125
 2776SOL    HW1 9227   5.062   4.856   6.070
 2776SOL    HW2 9228   5.093   4.696   6.069
 2777SOL     OW 9229   3.133   2.479   6.013
 2777SOL    HW1 9230   3.186   2.396   6.001
 2777SOL    HW2 9231   3.166   2.550   5.950
 2778SOL     OW 9232   2.533   6.295   6.721
 2778SOL    HW1 9233   2.495   6.374   6.769
 2778SOL    HW2 9234   2.625   6.277   6.753
 2779SOL     OW 9235   6.063   6.372   2.177
 2779SOL    HW1 9236   6.090   6.282   2.212
 2779SOL    HW2 9237   6.094   6.382   2.083
 2780SOL     OW 9238   0.282   1.643   6.117
 2780SOL    HW1 9239   0.331   1.720   6.075
 2780SOL    HW2 9240   0.313   1.632   6.211
 2781SOL     OW 9241   6.413   0.575   2.734
 2781SOL    HW1 9242   6.366   0.573   2.646
 2781SOL    HW2 9243   6.511   0.560   2.720
 2782SOL     OW 9244   4.327   1.039   6.736
 2782SOL    HW1 9245   4.409   1.007   6.784
 2782SOL    HW2 9246   4.246   1.014   6.788
 2783SOL     OW 9247   5.418   3.516   1.658
 2783SOL    HW1 9248   5.352   3.452   1.695
 2783SOL    HW2 9249   5.456   3.480   1.573
 2784SOL     OW 9250   1.513   1.767   0.417
 2784SOL    HW1 9251   1.518   1.690   0.353
 2784SOL    HW2 9252   1.510   1.853   0.366
 2785SOL     OW 9253   5.261   3.212   1.401
 2785SOL    HW1 9254   5.197   3.152   1.448
 2785SOL    HW2 9255   5.349   3.212   1.450
 2786SOL     OW 9256   6.913   6.131   0.321
 2786SOL    HW1 9257   6.844   6.066   0.291
 2786SOL    HW2 9258   6.872   6.197   0.383
 2787SOL     OW 9259   6.389   5.055   5.960
 2787SOL    HW1 9260   6.459   5.103   5.908
 2787SOL    HW2 9261   6.381   4.961   5.928
 2788SOL     OW 9262   3.357   5.935   5.729
 2788SOL    HW1 9263   3.342   5.852   5.676
 2788SOL    HW2 9264   3.425   5.917   5.800
 2789SOL     OW 9265   0.682   2.571   4.850
 2789SOL    HW1 9266   0.681   2.473   4.832
 2789SOL    HW2 9267   0.732   2.618   4.777
 2790SOL     OW 9268   2.123   5.632   0.709
 2790SOL    HW1 9269   2.126   5.607   0.612
 2790SOL    HW2 9270   2.216   5.639   0.744
 2791SOL     OW 9271   6.897   3.917   3.456
 2791SOL    HW1 9272   6.824   3.856   3.487
 2791SOL    HW2 9273   6.984   3.867   3.457
 2792SOL     OW 9274   3.394   1.704   5.452
 2792SOL    HW1 9275   3.492   1.715   5.470
 2792SOL    HW2 9276   3.358   1.790   5.416
 2793SOL     OW 9277   3.582   4.322   1.383
 2793SOL    HW1 9278   3.616   4.296   1.473
 2793SOL    HW2 9279   3.608   4.417   1.364
 2794SOL     OW 9280   0.445   2.059   6.232
 2794SOL    HW1 9281   0.477   2.111   6.153
 2794SOL    HW2 9282   0.346   2.043   6.224
 2795SOL     OW 9283   1.042   4.629   1.683
 2795SOL    HW1 9284   1.067   4.533   1.671
 2795SOL    HW2 9285   0.951   4.644   1.646
 2796SOL     OW 9286   1.085   6.124   5.329
 2796SOL    HW1 9287   1.122   6.060   5.396
 2796SOL    HW2 9288   1.014   6.078   5.275
 2797SOL     OW 9289   5.263   6.845   4.408
 2797SOL    HW1 9290   5.212   6.922   4.444
 2797SOL    HW2 9291   5.201   6.781   4.362
 2798SOL     OW 9292   5.959   6.754   1.636
 2798SOL    HW1 9293   6.046   6.712   1.609
 2798SOL    HW2 9294   5.958   6.766   1.736
 2799SOL     OW 9295   3.755   6.042   4.984
 2799SOL    HW1 9296   3.774   5.961   5.040
 2799SOL    HW2 9297   3.679   6.022   4.922
 2800SOL     OW 9298   6.557   0.797   6.790
 2800SOL    HW1 9299   6.632   0.743   6.830
 2800SOL    HW2 9300   6.470   0.755   6.813
 2801SOL     OW 9301   0.644   4.838   5.573
 2801SOL    HW1 9302   0.719   4.826   5.638
 2801SOL    HW2 9303   0.650   4.928   5.531
 2802SOL     OW 9304   6.754   5.671   5.322
 2802SOL    HW1 9305   6.837   5.710   5.281
 2802SOL    HW2 9306   6.687   5.742   5.337
 2803SOL     OW 9307   3.992   3.661   6.430
 2803SOL    HW1 9308   4.079   3.662   6.382
 2803SOL    HW2 9309   4.009   3.648   6.528
 2804SOL     OW 9310   0.471   2.861   3.733
 2804SOL    HW1 9311   0.405   2.829   3.801
 2804SOL    HW2 9312   0.557   2.883   3.778
 2805SOL     OW 9313   3.986   3.309   1.382
 2805SOL    HW1 9314   4.053   3.379   1.408
 2805SOL    HW2 9315   4.005   3.225   1.433
 2806SOL     OW 9316   0.774   4.865   6.271
 2806SOL    HW1 9317   0.866   4.905   6.275
 2806SOL    HW2 9318   0.751   4.842   6.177
 2807SOL     OW 9319   3.215   0.405   3.767
 2807SOL    HW1 9320   3.136   0.444   3.719
 2807SOL    HW2 9321   3.250   0.470   3.834
 2808SOL     OW 9322   6.279   5.190   0.072
 2808SOL    HW1 9323   6.277   5.176   6.999
 2808SOL    HW2 9324   6.348   5.259   0.094
 2809SOL     OW 9325   6.721   4.783   2.316
 2809SOL    HW1 9326   6.791   4.815   2.253
 2809SOL    HW2 9327   6.656   4.857   2.334
 2810SOL     OW 9328   2.481   5.543   3.540
 2810SOL    HW1 9329   2.392   5.552   3.583
 2810SOL    HW2 9330   2.482   5.461   3.482
 2811SOL     OW 9331   1.083   0.833   2.149
 2811SOL    HW1 9332   1.108   0.926   2.122
 2811SOL    HW2 9333   1.027   0.792   2.077
 2812SOL     OW 9334   0.237   3.181   0.721
 2812SOL    HW1 9335   0.278   3.265   0.758
 2812SOL    HW2 9336   0.207   3.197   0.627
 2813SOL     OW 9337   0.678   2.481   1.670
 2813SOL    HW1 9338   0.589   2.455   1.632
 2813SOL    HW2 9339   0.748   2.474   1.599
 2814SOL     OW 9340   1.925   4.134   0.361
 2814SOL    HW1 9341   1.860   4.116   0.435
 2814SOL    HW2 9342   1.974   4.050   0.339
 2815SOL     OW 9343   0.441   5.783   5.777
 2815SOL    HW1 9344   0.382   5.716   5.733
 2815SOL    HW2 9345   0.396   5.872   5.778
 2816SOL     OW 9346   0.468   6.216   5.862
 2816SOL    HW1 9347   0.384   6.267   5.844
 2816SOL    HW2 9348   0.486   6.153   5.787
 2817SOL     OW 9349   4.132   0.404   2.079
 2817SOL    HW1 9350   4.188   0.487   2.074
 2817SOL    HW2 9351   4.044   0.426   2.123
 2818SOL     OW 9352   1.118   0.629   1.246
 2818SOL    HW1 9353   1.161   0.604   1.159
 2818SOL    HW2 9354   1.049   0.561   1.270
 2819SOL     OW 9355   0.827   0.333   0.804
 2819SOL    HW1 9356   0.870   0.422   0.824
 2819SOL    HW2 9357   0.896   0.261   0.810
 2820SOL     OW 9358   1.411   2.792   1.297
 2820SOL    HW1 9359   1.499   2.745   1.309
 2820SOL    HW2 9360   1.427   2.887   1.273
 2821SOL     OW 9361   3.277   4.320   6.398
 2821SOL    HW1 9362   3.297   4.397   6.459
 2821SOL    HW2 9363   3.340   4.245   6.418
 2822SOL     OW 9364   4.416   2.483   0.724
 2822SOL    HW1 9365   4.369   2.529   0.649
 2822SOL    HW2 9366   4.349   2.456   0.793
 2823SOL     OW 9367   5.242   2.240   0.968
 2823SOL    HW1 9368   5.175   2.293   1.019
 2823SOL    HW2 9369   5.198   2.157   0.933
 2824SOL     OW 9370   1.074   3.325   5.625
 2824SOL    HW1 9371   1.051   3.324   5.527
 2824SOL    HW2 9372   1.005   3.378   5.674
 2825SOL     OW 9373   5.506   1.644   6.516
 2825SOL    HW1 9374   5.519   1.723   6.575
 2825SOL    HW2 9375   5.589   1.588   6.515
 2826SOL     OW 9376   2.000   3.897   6.261
 2826SOL    HW1 9377   2.056   3.885   6.178
 2826SOL    HW2 9378   2.042   3.848   6.337
 2827SOL     OW 9379   0.010   0.851   6.490
 2827SOL    HW1 9380   7.017   0.911   6.413
 2827SOL    HW2 9381   0.091   0.796   6.471
 2828SOL     OW 9382   1.761   4.171   1.041
 2828SOL    HW1 9383   1.699   4.120   0.981
 2828SOL    HW2 9384   1.803   4.108   1.106
 2829SOL     OW 9385   3.958   3.824   3.432
 2829SOL    HW1 9386   3.934   3.901   3.373
 2829SOL    HW2 9387   3.995   3.859   3.518
 2830SOL     OW 9388   3.613   5.350   5.682
 2830SOL    HW1 9389   3.582   5.255   5.693
 2830SOL    HW2 9390   3.549   5.411   5.729
 2831SOL     OW 9391   6.339   2.046   2.024
 2831SOL    HW1 9392   6.432   2.019   1.998
 2831SOL    HW2 9393   6.279   1.967   2.020
 2832SOL     OW 9394   0.526   3.193   1.152
 2832SOL    HW1 9395   0.462   3.133   1.103
 2832SOL    HW2 9396   0.520   3.174   1.250
 2833SOL     OW 9397   1.563   1.982   1.461
 2833SOL    HW1 9398   1.560   2.081   1.446
 2833SOL    HW2 9399   1.571   1.963   1.559
 2834SOL     OW 9400   4.046   5.873   5.329
 2834SOL    HW1 9401   4.057   5.972   5.335
 2834SOL    HW2 9402   4.137   5.830   5.325
 2835SOL     OW 9403   0.595   6.618   0.970
 2835SOL    HW1 9404   0.644   6.700   0.939
 2835SOL    HW2 9405   0.582   6.623   1.069
 2836SOL     OW 9406   3.510   6.226   3.266
 2836SOL    HW1 9407   3.496   6.194   3.172
 2836SOL    HW2 9408   3.441   6.294   3.289
 2837SOL     OW 9409   5.182   4.174   2.043
 2837SOL    HW1 9410   5.139   4.110   2.108
 2837SOL    HW2 9411   5.122   4.253   2.031
 2838SOL     OW 9412   5.378   4.243   6.062
 2838SOL    HW1 9413   5.441   4.248   6.139
 2838SOL    HW2 9414   5.285   4.261   6.095
 2839SOL     OW 9415   5.928   2.911   5.117
 2839SOL    HW1 9416   5.916   2.961   5.203
 2839SOL    HW2 9417   5.935   2.813   5.136
 2840SOL     OW 9418   0.236   6.203   3.021
 2840SOL    HW1 9419   0.223   6.301   3.004
 2840SOL    HW2 9420   0.176   6.151   2.961
 2841SOL     OW 9421   5.691   2.810   1.890
 2841SOL    HW1 9422   5.699   2.812   1.790
 2841SOL    HW2 9423   5.779   2.834   1.931
 2842SOL     OW 9424   1.748   6.460   2.946
 2842SOL    HW1 9425   1.845   6.437   2.946
 2842SOL    HW2 9426   1.737   6.559   2.956
 2843SOL     OW 9427   2.173   3.051   3.272
 2843SOL    HW1 9428   2.186   3.039   3.371
 2843SOL    HW2 9429   2.180   3.148   3.249
 2844SOL     OW 9430   4.559   4.678   1.317
 2844SOL    HW1 9431   4.592   4.624   1.239
 2844SOL    HW2 9432   4.596   4.639   1.401
 2845SOL     OW 9433   3.667   2.134   2.658
 2845SOL    HW1 9434   3.724   2.216   2.648
 2845SOL    HW2 9435   3.674   2.101   2.752
 2846SOL     OW 9436   5.012   0.677   0.504
 2846SOL    HW1 9437   5.048   0.640   0.589
 2846SOL    HW2 9438   5.016   0.777   0.507
 2847SOL     OW 9439   4.977   4.419   2.470
 2847SOL    HW1 9440   5.031   4.431   2.387
 2847SOL    HW2 9441   4.999   4.492   2.535
 2848SOL     OW 9442   0.762   4.199   4.938
 2848SOL    HW1 9443   0.862   4.205   4.932
 2848SOL    HW2 9444   0.729   4.134   4.869
 2849SOL     OW 9445   4.534   0.481   2.865
 2849SOL    HW1 9446   4.529   0.419   2.787
 2849SOL    HW2 9447   4.451   0.473   2.920
 2850SOL     OW 9448   2.776   0.118   3.067
 2850SOL    HW1 9449   2.855   0.111   3.128
 2850SOL    HW2 9450   2.731   0.206   3.080
 2851SOL     OW 9451   3.785   3.091   0.897
 2851SOL    HW1 9452   3.834   3.049   0.974
 2851SOL    HW2 9453   3.715   3.153   0.931
 2852SOL     OW 9454   6.224   4.228   5.628
 2852SOL    HW1 9455   6.228   4.173   5.544
 2852SOL    HW2 9456   6.159   4.185   5.691
 2853SOL     OW 9457   0.615   3.947   7.017
 2853SOL    HW1 9458   0.563   4.025   6.984
 2853SOL    HW2 9459   0.633   3.884   6.941
 2854SOL     OW 9460   3.456   1.690   6.111
 2854SOL    HW1 9461   3.479   1.762   6.046
 2854SOL    HW2 9462   3.372   1.645   6.083
 2855SOL     OW 9463   1.827   1.441   4.349
 2855SOL    HW1 9464   1.796   1.348   4.368
 2855SOL    HW2 9465   1.927   1.442   4.344
 2856SOL     OW 9466   0.879   4.488   3.092
 2856SOL    HW1 9467   0.821   4.433   3.031
 2856SOL    HW2 9468   0.946   4.428   3.136
 2857SOL     OW 9469   6.739   3.495   0.587
 2857SOL    HW1 9470   6.728   3.577   0.529
 2857SOL    HW2 9471   6.812   3.438   0.549
 2858SOL     OW 9472   4.885   4.541   3.019
 2858SOL    HW1 9473   4.805   4.481   3.012
 2858SOL    HW2 9474   4.854   4.636   3.032
 2859SOL     OW 9475   5.562   4.815   1.777
 2859SOL    HW1 9476   5.606   4.734   1.738
 2859SOL    HW2 9477   5.514   4.790   1.861
 2860SOL     OW 9478   1.209   6.071   1.427
 2860SOL    HW1 9479   1.179   6.163   1.452
 2860SOL    HW2 9480   1.148   6.003   1.468
 2861SOL     OW 9481   4.566   4.830   0.131
 2861SOL    HW1 9482   4.522   4.757   0.184
 2861SOL    HW2 9483   4.640   4.870   0.184
 2862SOL     OW 9484   4.198   3.051   0.577
 2862SOL    HW1 9485   4.185   2.993   0.657
 2862SOL    HW2 9486   4.281   3.105   0.589
 2863SOL     OW 9487   5.804   0.451   5.457
 2863SOL    HW1 9488   5.839   0.535   5.497
 2863SOL    HW2 9489   5.827   0.374   5.516
 2864SOL     OW 9490   4.197   3.950   0.369
 2864SOL    HW1 9491   4.143   3.866   0.361
 2864SOL    HW2 9492   4.156   4.010   0.438
 2865SOL     OW 9493   5.092   5.621   4.536
 2865SOL    HW1 9494   5.026   5.545   4.541
 2865SOL    HW2 9495   5.184   5.583   4.535
 2866SOL     OW 9496   4.057   4.462   0.173
 2866SOL    HW1 9497   4.101   4.526   0.236
 2866SOL    HW2 9498   4.111   4.454   0.090
 2867SOL     OW 9499   5.642   6.188   1.941
 2867SOL    HW1 9500   5.724   6.238   1.914
 2867SOL    HW2 9501   5.580   6.181   1.863
 2868SOL     OW 9502   1.445   1.630   6.040
 2868SOL    HW1 9503   1.457   1.673   5.950
 2868SOL    HW2 9504   1.498   1.546   6.043
 2869SOL     OW 9505   4.951   5.190   3.875
 2869SOL    HW1 9506   4.880   5.150   3.932
 2869SOL    HW2 9507   5.014   5.119   3.845
 2870SOL     OW 9508   6.797   1.839   1.554
 2870SOL    HW1 9509   6.748   1.858   1.469
 2870SOL    HW2 9510   6.888   1.881   1.550
 2871SOL     OW 9511   5.522   1.708   1.304
 2871SOL    HW1 9512   5.450   1.743   1.363
 2871SOL    HW2 9513   5.611   1.723   1.347
 2872SOL     OW 9514   2.438   1.969   2.146
 2872SOL    HW1 9515   2.406   1.936   2.235
 2872SOL    HW2 9516   2.405   1.909   2.074
 2873SOL     OW 9517   0.881   6.503   1.242
 2873SOL    HW1 9518   0.946   6.427   1.245
 2873SOL    HW2 9519   0.930   6.590   1.242
 2874SOL     OW 9520   2.014   0.919   2.932
 2874SOL    HW1 9521   1.969   0.922   3.022
 2874SOL    HW2 9522   1.966   0.853   2.874
 2875SOL     OW 9523   2.846   6.805   3.179
 2875SOL    HW1 9524   2.895   6.891   3.196
 2875SOL    HW2 9525   2.911   6.734   3.153
 2876SOL     OW 9526   1.450   5.946   2.016
 2876SOL    HW1 9527   1.454   6.040   2.050
 2876SOL    HW2 9528   1.532   5.927   1.962
 2877SOL     OW 9529   1.373   0.879   5.942
 2877SOL    HW1 9530   1.391   0.965   5.989
 2877SOL    HW2 9531   1.453   0.852   5.889
 2878SOL     OW 9532   4.065   3.506   4.552
 2878SOL    HW1 9533   4.089   3.424   4.605
 2878SOL    HW2 9534   4.112   3.505   4.464
 2879SOL     OW 9535   4.472   4.766   6.765
 2879SOL    HW1 9536   4.549   4.709   6.794
 2879SOL    HW2 9537   4.474   4.776   6.666
 2880SOL     OW 9538   1.192   1.130   4.881
 2880SOL    HW1 9539   1.283   1.138   4.840
 2880SOL    HW2 9540   1.179   1.203   4.948
 2881SOL     OW 9541   3.954   6.110   6.743
 2881SOL    HW1 9542   3.932   6.058   6.826
 2881SOL    HW2 9543   3.901   6.194   6.742
 2882SOL     OW 9544   4.299   6.360   0.595
 2882SOL    HW1 9545   4.312   6.414   0.678
 2882SOL    HW2 9546   4.362   6.391   0.525
 2883SOL     OW 9547   6.485   6.149   3.537
 2883SOL    HW1 9548   6.575   6.192   3.532
 2883SOL    HW2 9549   6.475   6.083   3.462
 2884SOL     OW 9550   6.826   5.341   3.038
 2884SOL    HW1 9551   6.749   5.359   3.098
 2884SOL    HW2 9552   6.793   5.306   2.950
 2885SOL     OW 9553   0.903   2.998   2.982
 2885SOL    HW1 9554   0.900   3.097   2.963
 2885SOL    HW2 9555   0.898   2.948   2.896
 2886SOL     OW 9556   2.535   4.434   6.046
 2886SOL    HW1 9557   2.478   4.386   6.112
 2886SOL    HW2 9558   2.580   4.367   5.986
 2887SOL     OW 9559   1.499   5.636   3.643
 2887SOL    HW1 9560   1.563   5.636   3.720
 2887SOL    HW2 9561   1.435   5.712   3.652
 2888SOL     OW 9562   6.249   6.500   0.674
 2888SOL    HW1 9563   6.253   6.570   0.602
 2888SOL    HW2 9564   6.265   6.542   0.763
 2889SOL     OW 9565   3.311   6.423   3.364
 2889SOL    HW1 9566   3.320   6.485   3.443
 2889SOL    HW2 9567   3.305   6.477   3.281
 2890SOL     OW 9568   2.440   0.507   0.881
 2890SOL    HW1 9569   2.436   0.607   0.892
 2890SOL    HW2 9570   2.351   0.468   0.904
 2891SOL     OW 9571   0.515   3.148   3.679
 2891SOL    HW1 9572   0.480   3.055   3.669
 2891SOL    HW2 9573   0.554   3.159   3.770
 2892SOL     OW 9574   6.895   3.737   1.546
 2892SOL    HW1 9575   6.846   3.697   1.624
 2892SOL    HW2 9576   6.934   3.825   1.573
 2893SOL     OW 9577   0.157   5.083   4.543
 2893SOL    HW1 9578   0.227   5.147   4.512
 2893SOL    HW2 9579   0.066   5.119   4.521
 2894SOL     OW 9580   1.417   5.364   2.251
 2894SOL    HW1 9581   1.514   5.374   2.271
 2894SOL    HW2 9582   1.391   5.429   2.180
 2895SOL     OW 9583   4.113   6.421   5.991
 2895SOL    HW1 9584   4.134   6.332   5.950
 2895SOL    HW2 9585   4.052   6.472   5.930
 2896SOL     OW 9586   6.147   6.277   4.933
 2896SOL    HW1 9587   6.201   6.225   5.000
 2896SOL    HW2 9588   6.063   6.228   4.912
 2897SOL     OW 9589   4.175   4.763   2.866
 2897SOL    HW1 9590   4.265   4.727   2.843
 2897SOL    HW2 9591   4.185   4.845   2.922
 2898SOL     OW 9592   5.797   4.144   2.074
 2898SOL    HW1 9593   5.724   4.089   2.116
 2898SOL    HW2 9594   5.868   4.161   2.142
 2899SOL     OW 9595   6.862   3.158   1.008
 2899SOL    HW1 9596   6.841   3.240   0.954
 2899SOL    HW2 9597   6.948   3.119   0.977
 2900SOL     OW 9598   2.839   4.145   6.984
 2900SOL    HW1 9599   2.889   4.088   0.022
 2900SOL    HW2 9600   2.903   4.207   6.937
 2901SOL     OW 9601   1.547   3.856   3.306
 2901SOL    HW1 9602   1.507   3.866   3.215
 2901SOL    HW2 9603   1.647   3.854   3.298
 2902SOL     OW 9604   0.991   5.791   4.071
 2902SOL    HW1 9605   1.022   5.828   4.158
 2902SOL    HW2 9606   0.956   5.698   4.084
 2903SOL     OW 9607   4.471   5.795   1.011
 2903SOL    HW1 9608   4.545   5.859   1.031
 2903SOL    HW2 9609   4.409   5.836   0.944
 2904SOL     OW 9610   2.565   4.368   5.296
 2904SOL    HW1 9611   2.648   4.422   5.314
 2904SOL    HW2 9612   2.510   4.414   5.226
 2905SOL     OW 9613   0.799   4.984   1.648
 2905SOL    HW1 9614   0.721   4.922   1.661
 2905SOL    HW2 9615   0.797   5.055   1.720
 2906SOL     OW 9616   5.945   5.733   3.603
 2906SOL    HW1 9617   5.894   5.796   3.545
 2906SOL    HW2 9618   5.884   5.695   3.672
 2907SOL     OW 9619   0.849   0.336   3.594
 2907SOL    HW1 9620   0.824   0.372   3.504
 2907SOL    HW2 9621   0.816   0.398   3.665
 2908SOL     OW 9622   4.579   7.013   3.152
 2908SOL    HW1 9623   4.557   0.076   3.111
 2908SOL    HW2 9624   4.597   7.026   3.250
 2909SOL     OW 9625   1.180   5.674   2.584
 2909SOL    HW1 9626   1.194   5.591   2.530
 2909SOL    HW2 9627   1.250   5.680   2.655
 2910SOL     OW 9628   0.012   0.302   3.387
 2910SOL    HW1 9629   0.068   0.352   3.453
 2910SOL    HW2 9630   0.044   0.322   3.295
 2911SOL     OW 9631   6.707   3.834   4.598
 2911SOL    HW1 9632   6.737   3.923   4.633
 2911SOL    HW2 9633   6.786   3.774   4.585
 2912SOL     OW 9634   6.998   6.929   0.671
 2912SOL    HW1 9635   0.040   6.960   0.737
 2912SOL    HW2 9636   0.016   6.872   0.601
 2913SOL     OW 9637   2.636   5.930   1.208
 2913SOL    HW1 9638   2.641   5.838   1.171
 2913SOL    HW2 9639   2.550   5.940   1.259
 2914SOL     OW 9640   5.308   4.987   0.414
 2914SOL    HW1 9641   5.238   5.057   0.397
 2914SOL    HW2 9642   5.265   4.908   0.458
 2915SOL     OW 9643   3.041   1.294   3.345
 2915SOL    HW1 9644   3.003   1.229   3.411
 2915SOL    HW2 9645   3.075   1.375   3.394
 2916SOL     OW 9646   1.416   5.839   0.472
 2916SOL    HW1 9647   1.407   5.917   0.534
 2916SOL    HW2 9648   1.394   5.868   0.378
 2917SOL     OW 9649   2.705   6.546   4.021
 2917SOL    HW1 9650   2.750   6.550   3.932
 2917SOL    HW2 9651   2.638   6.620   4.027
 2918SOL     OW 9652   6.305   3.563   1.125
 2918SOL    HW1 9653   6.219   3.565   1.074
 2918SOL    HW2 9654   6.359   3.644   1.102
 2919SOL     OW 9655   1.465   5.809   3.898
 2919SOL    HW1 9656   1.382   5.800   3.844
 2919SOL    HW2 9657   1.524   5.730   3.883
 2920SOL     OW 9658   1.344   2.470   2.204
 2920SOL    HW1 9659   1.415   2.401   2.190
 2920SOL    HW2 9660   1.255   2.426   2.215
 2921SOL     OW 9661   0.307   0.275   5.598
 2921SOL    HW1 9662   0.260   0.212   5.660
 2921SOL    HW2 9663   0.404   0.279   5.622
 2922SOL     OW 9664   3.790   0.486   3.363
 2922SOL    HW1 9665   3.799   0.387   3.355
 2922SOL    HW2 9666   3.715   0.508   3.425
 2923SOL     OW 9667   6.337   5.088   4.626
 2923SOL    HW1 9668   6.291   5.023   4.565
 2923SOL    HW2 9669   6.340   5.051   4.718
 2924SOL     OW 9670   6.684   2.777   5.379
 2924SOL    HW1 9671   6.643   2.737   5.297
 2924SOL    HW2 9672   6.661   2.721   5.458
 2925SOL     OW 9673   5.435   0.218   6.343
 2925SOL    HW1 9674   5.525   0.262   6.348
 2925SOL    HW2 9675   5.385   0.255   6.265
 2926SOL     OW 9676   6.964   2.100   4.602
 2926SOL    HW1 9677   6.942   2.025   4.665
 2926SOL    HW2 9678   6.881   2.126   4.552
 2927SOL     OW 9679   1.196   2.927   1.635
 2927SOL    HW1 9680   1.216   2.965   1.725
 2927SOL    HW2 9681   1.234   2.986   1.564
 2928SOL     OW 9682   6.789   2.629   0.326
 2928SOL    HW1 9683   6.861   2.594   0.265
 2928SOL    HW2 9684   6.823   2.629   0.420
 2929SOL     OW 9685   1.638   2.647   4.793
 2929SOL    HW1 9686   1.623   2.675   4.888
 2929SOL    HW2 9687   1.619   2.550   4.783
 2930SOL     OW 9688   0.512   5.373   5.473
 2930SOL    HW1 9689   0.569   5.386   5.392
 2930SOL    HW2 9690   0.536   5.287   5.517
 2931SOL     OW 9691   4.785   4.371   5.753
 2931SOL    HW1 9692   4.874   4.342   5.717
 2931SOL    HW2 9693   4.777   4.342   5.848
 2932SOL     OW 9694   6.616   5.706   0.423
 2932SOL    HW1 9695   6.637   5.803   0.432
 2932SOL    HW2 9696   6.599   5.667   0.514
 2933SOL     OW 9697   1.326   0.319   0.474
 2933SOL    HW1 9698   1.372   0.378   0.540
 2933SOL    HW2 9699   1.368   0.229   0.474
 2934SOL     OW 9700   3.964   4.533   0.505
 2934SOL    HW1 9701   3.953   4.628   0.476
 2934SOL    HW2 9702   4.061   4.510   0.507
 2935SOL     OW 9703   6.953   2.273   6.019
 2935SOL    HW1 9704   7.004   2.202   5.971
 2935SOL    HW2 9705   6.883   2.231   6.076
 2936SOL     OW 9706   5.142   7.006   1.209
 2936SOL    HW1 9707   5.084   0.054   1.173
 2936SOL    HW2 9708   5.084   6.936   1.250
 2937SOL     OW 9709   4.746   5.514   2.068
 2937SOL    HW1 9710   4.793   5.572   2.134
 2937SOL    HW2 9711   4.808   5.443   2.035
 2938SOL     OW 9712   6.166   5.551   6.847
 2938SOL    HW1 9713   6.128   5.460   6.833
 2938SOL    HW2 9714   6.191   5.591   6.758
 2939SOL     OW 9715   0.240   5.837   1.561
 2939SOL    HW1 9716   0.327   5.836   1.512
 2939SOL    HW2 9717   0.168   5.875   1.502
 2940SOL     OW 9718   4.498   5.875   4.030
 2940SOL    HW1 9719   4.400   5.890   4.022
 2940SOL    HW2 9720   4.517   5.776   4.028
 2941SOL     OW 9721   1.900   3.691   4.220
 2941SOL    HW1 9722   1.995   3.690   4.253
 2941SOL    HW2 9723   1.838   3.679   4.298
 2942SOL     OW 9724   3.773   1.757   0.953
 2942SOL    HW1 9725   3.763   1.852   0.980
 2942SOL    HW2 9726   3.755   1.698   1.032
 2943SOL     OW 9727   5.857   4.223   3.414
 2943SOL    HW1 9728   5.882   4.186   3.503
 2943SOL    HW2 9729   5.940   4.237   3.359
 2944SOL     OW 9730   2.123   5.839   3.510
 2944SOL    HW1 9731   2.118   5.904   3.433
 2944SOL    HW2 9732   2.071   5.757   3.487
 2945SOL     OW 9733   4.755   4.283   1.274
 2945SOL    HW1 9734   4.825   4.247   1.212
 2945SOL    HW2 9735   4.754   4.228   1.358
 2946SOL     OW 9736   3.092   4.015   6.095
 2946SOL    HW1 9737   3.089   4.005   5.995
 2946SOL    HW2 9738   3.187   4.006   6.126
 2947SOL     OW 9739   5.867   6.561   0.521
 2947SOL    HW1 9740   5.924   6.519   0.450
 2947SOL    HW2 9741   5.879   6.511   0.607
 2948SOL     OW 9742   5.985   3.932   2.267
 2948SOL    HW1 9743   6.016   4.026   2.252
 2948SOL    HW2 9744   6.016   3.900   2.356
 2949SOL     OW 9745   1.253   6.784   0.714
 2949SOL    HW1 9746   1.306   6.793   0.629
 2949SOL    HW2 9747   1.156   6.793   0.694
 2950SOL     OW 9748   5.062   4.944   2.762
 2950SOL    HW1 9749   5.040   4.850   2.785
 2950SOL    HW2 9750   5.066   4.999   2.845
 2951SOL     OW 9751   5.978   1.464   1.782
 2951SOL    HW1 9752   6.047   1.436   1.716
 2951SOL    HW2 9753   5.893   1.484   1.734
 2952SOL     OW 9754   5.845   1.311   4.062
 2952SOL    HW1 9755   5.767   1.310   4.000
 2952SOL    HW2 9756   5.813   1.307   4.156
 2953SOL     OW 9757   0.910   5.607   3.469
 2953SOL    HW1 9758   0.892   5.621   3.566
 2953SOL    HW2 9759   0.984   5.541   3.457
 2954SOL     OW 9760   0.502   4.564   6.242
 2954SOL    HW1 9761   0.526   4.574   6.146
 2954SOL    HW2 9762   0.439   4.487   6.253
 2955SOL     OW 9763   1.926   4.196   6.985
 2955SOL    HW1 9764   1.848   4.165   0.015
 2955SOL    HW2 9765   1.976   4.117   6.950
 2956SOL     OW 9766   6.269   4.374   3.521
 2956SOL    HW1 9767   6.234   4.375   3.427
 2956SOL    HW2 9768   6.280   4.468   3.553
 2957SOL     OW 9769   2.899   5.375   1.943
 2957SOL    HW1 9770   2.897   5.474   1.960
 2957SOL    HW2 9771   2.809   5.336   1.963
 2958SOL     OW 9772   2.504   5.270   3.435
 2958SOL    HW1 9773   2.575   5.217   3.481
 2958SOL    HW2 9774   2.525   5.277   3.337
 2959SOL     OW 9775   6.667   2.665   2.908
 2959SOL    HW1 9776   6.739   2.693   2.971
 2959SOL    HW2 9777   6.581   2.708   2.934
 2960SOL     OW 9778   4.556   0.792   0.488
 2960SOL    HW1 9779   4.531   0.742   0.405
 2960SOL    HW2 9780   4.639   0.845   0.471
 2961SOL     OW 9781   5.634   4.068   2.426
 2961SOL    HW1 9782   5.635   4.043   2.329
 2961SOL    HW2 9783   5.543   4.100   2.452
 2962SOL     OW 9784   0.272   6.928   2.061
 2962SOL    HW1 9785   0.307   7.020   2.041
 2962SOL    HW2 9786   0.195   6.909   2.000
 2963SOL     OW 9787   1.672   1.197   4.811
 2963SOL    HW1 9788   1.753   1.208   4.754
 2963SOL    HW2 9789   1.593   1.237   4.764
 2964SOL     OW 9790   0.878   2.587   6.957
 2964SOL    HW1 9791   0.812   2.659   6.975
 2964SOL    HW2 9792   0.945   2.619   6.890
 2965SOL     OW 9793   0.663   0.263   4.569
 2965SOL    HW1 9794   0.677   0.166   4.550
 2965SOL    HW2 9795   0.688   0.282   4.664
 2966SOL     OW 9796   4.320   5.763   3.365
 2966SOL    HW1 9797   4.275   5.849   3.343
 2966SOL    HW2 9798   4.347   5.717   3.280
 2967SOL     OW 9799   6.594   0.606   5.189
 2967SOL    HW1 9800   6.672   0.655   5.152
 2967SOL    HW2 9801   6.527   0.590   5.117
 2968SOL     OW 9802   1.917   2.277   1.148
 2968SOL    HW1 9803   2.017   2.271   1.152
 2968SOL    HW2 9804   1.891   2.354   1.090
 2969SOL     OW 9805   5.336   3.512   4.669
 2969SOL    HW1 9806   5.327   3.458   4.585
 2969SOL    HW2 9807   5.385   3.459   4.738
 2970SOL     OW 9808   2.586   2.414   4.162
 2970SOL    HW1 9809   2.494   2.381   4.185
 2970SOL    HW2 9810   2.581   2.471   4.080
 2971SOL     OW 9811   5.322   3.126   6.268
 2971SOL    HW1 9812   5.355   3.119   6.363
 2971SOL    HW2 9813   5.340   3.040   6.220
 2972SOL     OW 9814   5.586   4.785   6.795
 2972SOL    HW1 9815   5.615   4.707   6.850
 2972SOL    HW2 9816   5.656   4.856   6.798
 2973SOL     OW 9817   5.079   6.886   2.383
 2973SOL    HW1 9818   5.175   6.870   2.409
 2973SOL    HW2 9819   5.060   6.839   2.297
 2974SOL     OW 9820   4.553   5.345   3.535
 2974SOL    HW1 9821   4.569   5.287   3.455
 2974SOL    HW2 9822   4.543   5.440   3.506
 2975SOL     OW 9823   4.849   4.508   4.222
 2975SOL    HW1 9824   4.896   4.420   4.234
 2975SOL    HW2 9825   4.750   4.492   4.221
 2976SOL     OW 9826   4.188   2.318   2.004
 2976SOL    HW1 9827   4.177   2.260   2.085
 2976SOL    HW2 9828   4.275   2.368   2.010
 2977SOL     OW 9829   1.057   0.799   1.665
 2977SOL    HW1 9830   1.032   0.860   1.740
 2977SOL    HW2 9831   1.066   0.705   1.701
 2978SOL     OW 9832   4.751   4.699   6.724
 2978SOL    HW1 9833   4.800   4.691   6.810
 2978SOL    HW2 9834   4.775   4.785   6.679
 2979SOL     OW 9835   3.143   0.985   3.766
 2979SOL    HW1 9836   3.149   1.084   3.754
 2979SOL    HW2 9837   3.115   0.942   3.681
 2980SOL     OW 9838   3.871   4.124   5.558
 2980SOL    HW1 9839   3.852   4.084   5.648
 2980SOL    HW2 9840   3.961   4.167   5.559
 2981SOL     OW 9841   1.273   1.039   0.646
 2981SOL    HW1 9842   1.210   0.991   0.706
 2981SOL    HW2 9843   1.296   0.981   0.568
 2982SOL     OW 9844   0.914   1.036   1.540
 2982SOL    HW1 9845   0.973   1.087   1.477
 2982SOL    HW2 9846   0.947   1.048   1.633
 2983SOL     OW 9847   6.154   2.980   6.216
 2983SOL    HW1 9848   6.177   2.925   6.296
 2983SOL    HW2 9849   6.190   2.935   6.134
 2984SOL     OW 9850   0.082   4.641   0.478
 2984SOL    HW1 9851   0.129   4.665   0.563
 2984SOL    HW2 9852   7.021   4.597   0.500
 2985SOL     OW 9853   0.334   0.030   4.713
 2985SOL    HW1 9854   0.336   0.112   4.657
 2985SOL    HW2 9855   0.295   6.980   4.661
 2986SOL     OW 9856   3.293   4.056   2.738
 2986SOL    HW1 9857   3.387   4.029   2.755
 2986SOL    HW2 9858   3.287   4.099   2.647
 2987SOL     OW 9859   1.665   1.024   4.573
 2987SOL    HW1 9860   1.707   1.014   4.663
 2987SOL    HW2 9861   1.584   0.966   4.567
 2988SOL     OW 9862   0.732   1.863   0.480
 2988SOL    HW1 9863   0.794   1.930   0.521
 2988SOL    HW2 9864   0.784   1.786   0.444
 2989SOL     OW 9865   5.077   3.666   4.371
 2989SOL    HW1 9866   5.168   3.628   4.387
 2989SOL    HW2 9867   5.080   3.766   4.382
 2990SOL     OW 9868   4.931   1.984   4.600
 2990SOL    HW1 9869   5.008   2.024   4.651
 2990SOL    HW2 9870   4.845   2.017   4.639
 2991SOL     OW 9871   5.703   3.825   0.489
 2991SOL    HW1 9872   5.801   3.835   0.506
 2991SOL    HW2 9873   5.689   3.762   0.413
 2992SOL     OW 9874   0.416   3.281   5.397
 2992SOL    HW1 9875   0.495   3.334   5.426
 2992SOL    HW2 9876   0.371   3.327   5.321
 2993SOL     OW 9877   1.161   4.588   0.486
 2993SOL    HW1 9878   1.083   4.636   0.445
 2993SOL    HW2 9879   1.162   4.605   0.585
 2994SOL     OW 9880   4.777   6.736   6.853
 2994SOL    HW1 9881   4.702   6.802   6.856
 2994SOL    HW2 9882   4.863   6.784   6.839
 2995SOL     OW 9883   5.293   0.148   1.021
 2995SOL    HW1 9884   5.235   0.086   1.074
 2995SOL    HW2 9885   5.373   0.173   1.075
 2996SOL     OW 9886   0.265   1.701   4.620
 2996SOL    HW1 9887   0.308   1.734   4.535
 2996SOL    HW2 9888   0.337   1.680   4.687
 2997SOL     OW 9889   5.126   0.502   3.828
 2997SOL    HW1 9890   5.119   0.601   3.827
 2997SOL    HW2 9891   5.222   0.476   3.842
 2998SOL     OW 9892   2.630   1.508   2.485
 2998SOL    HW1 9893   2.720   1.465   2.494
 2998SOL    HW2 9894   2.631   1.570   2.406
 2999SOL     OW 9895   2.930   4.378   0.184
 2999SOL    HW1 9896   3.015   4.353   0.138
 2999SOL    HW2 9897   2.852   4.352   0.126
 3000SOL     OW 9898   2.926   3.621   5.180
 3000SOL    HW1 9899   2.883   3.532   5.197
 3000SOL    HW2 9900   3.026   3.609   5.174
 3001SOL     OW 9901   6.427   1.056   5.725
 3001SOL    HW1 9902   6.442   1.132   5.662
 3001SOL    HW2 9903   6.333   1.023   5.716
 3002SOL     OW 9904   2.464   1.264   1.695
 3002SOL    HW1 9905   2.564   1.274   1.697
 3002SOL    HW2 9906   2.421   1.354   1.699
 3003SOL     OW 9907   1.583   6.133   0.115
 3003SOL    HW1 9908   1.608   6.056   0.056
 3003SOL    HW2 9909   1.505   6.107   0.172
 3004SOL     OW 9910   2.640   5.878   4.025
 3004SOL    HW1 9911   2.667   5.812   3.955
 3004SOL    HW2 9912   2.562   5.843   4.076
 3005SOL     OW 9913   0.995   2.470   5.277
 3005SOL    HW1 9914   0.931   2.425   5.215
 3005SOL    HW2 9915   0.970   2.566   5.288
 3006SOL     OW 9916   6.004   1.777   5.164
 3006SOL    HW1 9917   6.042   1.730   5.085
 3006SOL    HW2 9918   5.994   1.713   5.240
 3007SOL     OW 9919   5.124   4.175   6.648
 3007SOL    HW1 9920   5.040   4.225   6.626
 3007SOL    HW2 9921   5.186   4.235   6.699
 3008SOL     OW 9922   4.773   2.385   5.643
 3008SOL    HW1 9923   4.772   2.386   5.543
 3008SOL    HW2 9924   4.753   2.293   5.677
 3009SOL     OW 9925   0.377   3.412   2.542
 3009SOL    HW1 9926   0.284   3.376   2.529
 3009SOL    HW2 9927   0.402   3.404   2.639
 3010SOL     OW 9928   4.394   6.105   6.142
 3010SOL    HW1 9929   4.435   6.123   6.232
 3010SOL    HW2 9930   4.418   6.179   6.079
 3011SOL     OW 9931   6.258   0.165   0.948
 3011SOL    HW1 9932   6.304   0.145   1.035
 3011SOL    HW2 9933   6.289   0.100   0.879
 3012SOL     OW 9934   2.560   2.795   6.086
 3012SOL    HW1 9935   2.611   2.820   6.005
 3012SOL    HW2 9936   2.462   2.804   6.068
 3013SOL     OW 9937   0.604   6.012   4.732
 3013SOL    HW1 9938   0.610   5.967   4.821
 3013SOL    HW2 9939   0.633   5.948   4.660
 3014SOL     OW 9940   4.778   0.463   5.294
 3014SOL    HW1 9941   4.818   0.554   5.286
 3014SOL    HW2 9942   4.790   0.429   5.387
 3015SOL     OW 9943   1.248   1.466   0.011
 3015SOL    HW1 9944   1.264   1.369   7.019
 3015SOL    HW2 9945   1.314   1.499   0.078
 3016SOL     OW 9946   2.351   6.392   4.743
 3016SOL    HW1 9947   2.260   6.431   4.743
 3016SOL    HW2 9948   2.370   6.350   4.654
 3017SOL     OW 9949   6.811   5.783   1.039
 3017SOL    HW1 9950   6.733   5.741   0.995
 3017SOL    HW2 9951   6.781   5.835   1.119
 3018SOL     OW 9952   3.810   6.738   6.706
 3018SOL    HW1 9953   3.854   6.663   6.755
 3018SOL    HW2 9954   3.712   6.718   6.695
 3019SOL     OW 9955   1.538   0.279   4.897
 3019SOL    HW1 9956   1.603   0.350   4.923
 3019SOL    HW2 9957   1.469   0.318   4.836
 3020SOL     OW 9958   4.958   3.453   0.196
 3020SOL    HW1 9959   4.880   3.475   0.255
 3020SOL    HW2 9960   4.937   3.374   0.140
 3021SOL     OW 9961   3.944   6.211   4.890
 3021SOL    HW1 9962   3.854   6.173   4.907
 3021SOL    HW2 9963   3.950   6.243   4.795
 3022SOL     OW 9964   4.406   5.551   3.784
 3022SOL    HW1 9965   4.349   5.610   3.726
 3022SOL    HW2 9966   4.496   5.539   3.741
 3023SOL     OW 9967   4.314   6.864   3.086
 3023SOL    HW1 9968   4.354   6.937   3.141
 3023SOL    HW2 9969   4.363   6.857   2.999
 3024SOL     OW 9970   0.125   6.541   0.044
 3024SOL    HW1 9971   0.104   6.444   0.052
 3024SOL    HW2 9972   0.166   6.574   0.129
 3025SOL     OW 9973   3.471   6.290   0.804
 3025SOL    HW1 9974   3.487   6.389   0.803
 3025SOL    HW2 9975   3.382   6.270   0.762
 3026SOL     OW 9976   6.211   0.924   0.184
 3026SOL    HW1 9977   6.218   0.844   0.124
 3026SOL    HW2 9978   6.120   0.965   0.173
 3027SOL     OW 9979   5.032   1.701   1.417
 3027SOL    HW1 9980   4.986   1.787   1.392
 3027SOL    HW2 9981   4.989   1.625   1.368
 3028SOL     OW 9982   2.529   4.681   5.930
 3028SOL    HW1 9983   2.519   4.606   5.995
 3028SOL    HW2 9984   2.537   4.643   5.837
 3029SOL     OW 9985   0.923   2.731   4.284
 3029SOL    HW1 9986   0.961   2.744   4.192
 3029SOL    HW2 9987   0.825   2.751   4.283
 3030SOL     OW 9988   2.421   3.275   0.349
 3030SOL    HW1 9989   2.408   3.240   0.256
 3030SOL    HW2 9990   2.378   3.214   0.415
 3031SOL     OW 9991   1.130   6.341   1.561
 3031SOL    HW1 9992   1.066   6.414   1.540
 3031SOL    HW2 9993   1.183   6.365   1.642
 3032SOL     OW 9994   2.046   0.339   2.394
 3032SOL    HW1 9995   1.948   0.356   2.392
 3032SOL    HW2 9996   2.093   0.411   2.343
 3033SOL     OW 9997   6.670   1.985   4.007
 3033SOL    HW1 9998   6.604   1.974   4.081
 3033SOL    HW2 9999   6.667   2.079   3.973
 3034SOL     OW10000   0.500   5.787   3.529
 3034SOL    HW110001   0.525   5.860   3.592
 3034SOL    HW210002   0.541   5.701   3.560
 3035SOL     OW10003   0.976   2.940   6.167
 3035SOL    HW110004   1.043   2.909   6.100
 3035SOL    HW210005   1.021   2.950   6.256
 3036SOL     OW10006   3.113   2.253   6.281
 3036SOL    HW110007   3.062   2.340   6.278
 3036SOL    HW210008   3.208   2.272   6.305
 3037SOL     OW10009   0.262   5.323   6.967
 3037SOL    HW110010   0.246   5.421   6.975
 3037SOL    HW210011   0.176   5.276   6.947
 3038SOL     OW10012   5.288   4.211   6.330
 3038SOL    HW110013   5.191   4.206   6.354
 3038SOL    HW210014   5.336   4.265   6.399
 3039SOL     OW10015   6.858   4.136   6.789
 3039SOL    HW110016   6.860   4.095   6.697
 3039SOL    HW210017   6.850   4.064   6.857
 3040SOL     OW10018   4.738   4.000   5.864
 3040SOL    HW110019   4.639   3.986   5.860
 3040SOL    HW210020   4.761   4.085   5.817
 3041SOL     OW10021   2.256   4.263   4.942
 3041SOL    HW110022   2.268   4.168   4.973
 3041SOL    HW210023   2.205   4.263   4.856
 3042SOL     OW10024   0.080   5.433   3.089
 3042SOL    HW110025   0.143   5.359   3.112
 3042SOL    HW210026   7.012   5.402   3.100
 3043SOL     OW10027   3.359   4.924   0.738
 3043SOL    HW110028   3.419   4.961   0.668
 3043SOL    HW210029   3.342   4.993   0.809
 3044SOL     OW10030   3.390   3.084   5.338
 3044SOL    HW110031   3.343   3.062   5.423
 3044SOL    HW210032   3.411   3.000   5.288
 3045SOL     OW10033   4.748   1.223   1.967
 3045SOL    HW110034   4.735   1.296   2.033
 3045SOL    HW210035   4.838   1.181   1.980
 3046SOL     OW10036   5.401   5.658   0.699
 3046SOL    HW110037   5.423   5.577   0.753
 3046SOL    HW210038   5.339   5.717   0.751
 3047SOL     OW10039   6.278   0.600   6.176
 3047SOL    HW110040   6.357   0.652   6.206
 3047SOL    HW210041   6.305   0.506   6.157
 3048SOL     OW10042   3.786   3.540   0.852
 3048SOL    HW110043   3.705   3.495   0.890
 3048SOL    HW210044   3.759   3.597   0.774
 3049SOL     OW10045   1.437   0.848   4.496
 3049SOL    HW110046   1.358   0.861   4.556
 3049SOL    HW210047   1.406   0.834   4.402
 3050SOL     OW10048   3.014   2.499   1.259
 3050SOL    HW110049   3.100   2.484   1.308
 3050SOL    HW210050   2.957   2.564   1.310
 3051SOL     OW10051   2.600   6.355   5.452
 3051SOL    HW110052   2.525   6.349   5.386
 3051SOL    HW210053   2.678   6.401   5.409
 3052SOL     OW10054   6.412   6.385   2.160
 3052SOL    HW110055   6.502   6.420   2.137
 3052SOL    HW210056   6.400   6.294   2.120
 3053SOL     OW10057   1.351   4.347   0.525
 3053SOL    HW110058   1.285   4.409   0.483
 3053SOL    HW210059   1.368   4.270   0.464
 3054SOL     OW10060   5.532   1.329   2.783
 3054SOL    HW110061   5.507   1.314   2.688
 3054SOL    HW210062   5.450   1.320   2.840
 3055SOL     OW10063   6.064   5.519   6.095
 3055SOL    HW110064   6.095   5.500   6.188
 3055SOL    HW210065   5.996   5.591   6.096
 3056SOL     OW10066   4.675   1.537   6.157
 3056SOL    HW110067   4.773   1.529   6.176
 3056SOL    HW210068   4.630   1.450   6.176
 3057SOL     OW10069   6.052   5.595   3.109
 3057SOL    HW110070   6.147   5.615   3.136
 3057SOL    HW210071   6.025   5.507   3.148
 3058SOL     OW10072   6.874   4.679   6.764
 3058SOL    HW110073   6.954   4.729   6.798
 3058SOL    HW210074   6.874   4.586   6.800
 3059SOL     OW10075   2.322   2.435   4.315
 3059SOL    HW110076   2.351   2.520   4.359
 3059SOL    HW210077   2.240   2.452   4.261
 3060SOL     OW10078   4.773   5.249   5.352
 3060SOL    HW110079   4.751   5.318   5.283
 3060SOL    HW210080   4.708   5.173   5.344
 3061SOL     OW10081   6.009   5.257   4.844
 3061SOL    HW110082   6.023   5.330   4.776
 3061SOL    HW210083   6.077   5.265   4.917
 3062SOL     OW10084   5.015   4.361   1.978
 3062SOL    HW110085   5.058   4.357   1.888
 3062SOL    HW210086   4.921   4.328   1.971
 3063SOL     OW10087   0.348   4.434   1.596
 3063SOL    HW110088   0.290   4.458   1.519
 3063SOL    HW210089   0.296   4.381   1.662
 3064SOL     OW10090   4.509   2.017   6.824
 3064SOL    HW110091   4.491   1.922   6.850
 3064SOL    HW210092   4.429   2.073   6.847
 3065SOL     OW10093   0.751   0.840   6.773
 3065SOL    HW110094   0.800   0.753   6.769
 3065SOL    HW210095   0.737   0.875   6.680
 3066SOL     OW10096   5.300   6.033   5.976
 3066SOL    HW110097   5.258   6.091   5.906
 3066SOL    HW210098   5.322   6.089   6.056
 3067SOL     OW10099   1.832   2.543   6.577
 3067SOL    HW110100   1.782   2.622   6.612
 3067SOL    HW210101   1.772   2.463   6.578
 3068SOL     OW10102   0.875   1.197   1.137
 3068SOL    HW110103   0.832   1.123   1.085
 3068SOL    HW210104   0.938   1.158   1.204
 3069SOL     OW10105   4.935   0.160   3.017
 3069SOL    HW110106   4.944   0.206   3.106
 3069SOL    HW210107   4.908   0.065   3.032
 3070SOL     OW10108   2.854   1.144   1.110
 3070SOL    HW110109   2.756   1.135   1.097
 3070SOL    HW210110   2.901   1.129   1.023
 3071SOL     OW10111   6.988   3.269   3.781
 3071SOL    HW110112   6.986   3.230   3.689
 3071SOL    HW210113   6.915   3.229   3.836
 3072SOL     OW10114   2.039   6.602   6.191
 3072SOL    HW110115   2.120   6.660   6.180
 3072SOL    HW210116   2.061   6.508   6.165
 3073SOL     OW10117   6.326   5.147   0.350
 3073SOL    HW110118   6.271   5.127   0.268
 3073SOL    HW210119   6.381   5.229   0.334
 3074SOL     OW10120   2.242   3.371   1.035
 3074SOL    HW110121   2.332   3.353   0.996
 3074SOL    HW210122   2.233   3.322   1.122
 3075SOL     OW10123   2.429   5.574   2.959
 3075SOL    HW110124   2.438   5.481   2.923
 3075SOL    HW210125   2.509   5.595   3.016
 3076SOL     OW10126   6.901   0.325   4.594
 3076SOL    HW110127   6.947   0.248   4.639
 3076SOL    HW210128   6.970   0.385   4.553
 3077SOL     OW10129   6.486   3.872   1.909
 3077SOL    HW110130   6.455   3.839   1.820
 3077SOL    HW210131   6.415   3.855   1.978
 3078SOL     OW10132   6.573   3.182   1.680
 3078SOL    HW110133   6.498   3.231   1.724
 3078SOL    HW210134   6.634   3.248   1.635
 3079SOL     OW10135   2.600   3.214   5.326
 3079SOL    HW110136   2.568   3.180   5.415
 3079SOL    HW210137   2.569   3.152   5.254
 3080SOL     OW10138   4.125   5.186   1.099
 3080SOL    HW110139   4.094   5.092   1.113
 3080SOL    HW210140   4.187   5.212   1.173
 3081SOL     OW10141   1.930   4.257   0.840
 3081SOL    HW110142   1.863   4.252   0.915
 3081SOL    HW210143   1.921   4.176   0.782
 3082SOL     OW10144   4.057   4.909   4.708
 3082SOL    HW110145   4.109   4.959   4.778
 3082SOL    HW210146   4.066   4.810   4.724
 3083SOL     OW10147   2.654   5.885   2.663
 3083SOL    HW110148   2.581   5.906   2.729
 3083SOL    HW210149   2.729   5.949   2.675
 3084SOL     OW10150   0.667   3.116   3.925
 3084SOL    HW110151   0.736   3.170   3.974
 3084SOL    HW210152   0.713   3.049   3.867
 3085SOL     OW10153   5.034   4.430   0.940
 3085SOL    HW110154   5.123   4.467   0.966
 3085SOL    HW210155   5.036   4.401   0.844
 3086SOL     OW10156   6.174   0.952   6.674
 3086SOL    HW110157   6.138   0.989   6.760
 3086SOL    HW210158   6.224   0.867   6.693
 3087SOL     OW10159   2.816   0.018   2.403
 3087SOL    HW110160   2.724   0.027   2.367
 3087SOL    HW210161   2.872   0.094   2.371
 3088SOL     OW10162   1.207   2.873   5.334
 3088SOL    HW110163   1.229   2.781   5.299
 3088SOL    HW210164   1.199   2.936   5.257
 3089SOL     OW10165   4.822   6.862   4.971
 3089SOL    HW110166   4.797   6.902   5.059
 3089SOL    HW210167   4.876   6.928   4.918
 3090SOL     OW10168   1.224   2.638   1.703
 3090SOL    HW110169   1.155   2.589   1.757
 3090SOL    HW210170   1.189   2.728   1.678
 3091SOL     OW10171   0.998   2.331   0.787
 3091SOL    HW110172   0.942   2.371   0.860
 3091SOL    HW210173   0.957   2.353   0.698
 3092SOL     OW10174   6.986   6.989   2.202
 3092SOL    HW110175   6.995   6.890   2.198
 3092SOL    HW210176   0.008   0.004   2.125
 3093SOL     OW10177   5.127   4.967   6.992
 3093SOL    HW110178   5.175   4.942   6.908
 3093SOL    HW210179   5.173   4.925   0.045
 3094SOL     OW10180   2.934   1.615   6.116
 3094SOL    HW110181   2.993   1.569   6.051
 3094SOL    HW210182   2.884   1.547   6.170
 3095SOL     OW10183   1.834   3.418   5.396
 3095SOL    HW110184   1.900   3.349   5.423
 3095SOL    HW210185   1.883   3.497   5.358
 3096SOL     OW10186   0.426   3.954   4.577
 3096SOL    HW110187   0.408   3.857   4.585
 3096SOL    HW210188   0.341   4.005   4.587
 3097SOL     OW10189   5.381   1.893   6.668
 3097SOL    HW110190   5.481   1.895   6.677
 3097SOL    HW210191   5.356   1.927   6.577
 3098SOL     OW10192   2.008   2.417   2.136
 3098SOL    HW110193   1.916   2.444   2.107
 3098SOL    HW210194   2.058   2.497   2.169
 3099SOL     OW10195   0.163   6.028   3.647
 3099SOL    HW110196   0.177   6.125   3.666
 3099SOL    HW210197   0.189   5.974   3.727
 3100SOL     OW10198   6.683   5.366   2.230
 3100SOL    HW110199   6.666   5.453   2.275
 3100SOL    HW210200   6.740   5.309   2.289
 3101SOL     OW10201   4.127   5.992   5.632
 3101SOL    HW110202   4.169   6.014   5.544
 3101SOL    HW210203   4.027   5.994   5.623
 3102SOL     OW10204   7.013   4.672   0.778
 3102SOL    HW110205   0.047   4.615   0.833
 3102SOL    HW210206   6.964   4.736   0.838
 3103SOL     OW10207   3.451   0.295   1.683
 3103SOL    HW110208   3.499   0.341   1.608
 3103SOL    HW210209   3.423   0.362   1.751
 3104SOL     OW10210   4.653   0.311   6.078
 3104SOL    HW110211   4.749   0.322   6.104
 3104SOL    HW210212   4.599   0.284   6.158
 3105SOL     OW10213   5.363   3.319   0.179
 3105SOL    HW110214   5.384   3.313   0.082
 3105SOL    HW210215   5.282   3.376   0.193
 3106SOL     OW10216   5.695   0.335   5.008
 3106SOL    HW110217   5.787   0.334   4.968
 3106SOL    HW210218   5.689   0.408   5.076
 3107SOL     OW10219   3.968   0.864   6.218
 3107SOL    HW110220   3.900   0.856   6.145
 3107SOL    HW210221   3.921   0.871   6.306
 3108SOL     OW10222   2.034   4.359   4.154
 3108SOL    HW110223   2.052   4.396   4.246
 3108SOL    HW210224   2.100   4.397   4.090
 3109SOL     OW10225   6.643   6.200   3.912
 3109SOL    HW110226   6.575   6.187   3.840
 3109SOL    HW210227   6.719   6.136   3.899
 3110SOL     OW10228   2.104   4.764   3.810
 3110SOL    HW110229   2.119   4.732   3.716
 3110SOL    HW210230   2.050   4.848   3.808
 3111SOL     OW10231   6.099   4.406   4.444
 3111SOL    HW110232   6.139   4.317   4.468
 3111SOL    HW210233   6.106   4.467   4.523
 3112SOL     OW10234   3.509   2.318   6.700
 3112SOL    HW110235   3.530   2.246   6.635
 3112SOL    HW210236   3.476   2.278   6.785
 3113SOL     OW10237   1.821   5.197   3.322
 3113SOL    HW110238   1.913   5.194   3.282
 3113SOL    HW210239   1.792   5.292   3.332
 3114SOL     OW10240   4.361   0.736   0.179
 3114SOL    HW110241   4.460   0.733   0.170
 3114SOL    HW210242   4.327   0.827   0.154
 3115SOL     OW10243   4.167   5.156   5.270
 3115SOL    HW110244   4.190   5.099   5.191
 3115SOL    HW210245   4.103   5.227   5.242
 3116SOL     OW10246   0.328   2.159   1.104
 3116SOL    HW110247   0.238   2.123   1.127
 3116SOL    HW210248   0.328   2.258   1.116
 3117SOL     OW10249   5.381   1.682   5.197
 3117SOL    HW110250   5.461   1.717   5.246
 3117SOL    HW210251   5.331   1.619   5.256
 3118SOL     OW10252   2.058   1.371   2.924
 3118SOL    HW110253   2.031   1.284   2.884
 3118SOL    HW210254   2.134   1.357   2.988
 3119SOL     OW10255   4.181   4.055   5.992
 3119SOL    HW110256   4.120   4.105   5.930
 3119SOL    HW210257   4.156   3.958   5.992
 3120SOL     OW10258   2.010   6.421   4.656
 3120SOL    HW110259   2.023   6.485   4.732
 3120SOL    HW210260   1.991   6.471   4.572
 3121SOL     OW10261   4.686   1.148   4.488
 3121SOL    HW110262   4.702   1.187   4.578
 3121SOL    HW210263   4.730   1.205   4.418
 3122SOL     OW10264   4.185   5.366   4.894
 3122SOL    HW110265   4.277   5.393   4.922
 3122SOL    HW210266   4.125   5.363   4.974
 3123SOL     OW10267   2.617   1.876   3.614
 3123SOL    HW110268   2.587   1.821   3.693
 3123SOL    HW210269   2.710   1.851   3.590
 3124SOL     OW10270   4.992   0.268   3.807
 3124SOL    HW110271   4.938   0.254   3.889
 3124SOL    HW210272   5.038   0.357   3.812
 3125SOL     OW10273   1.486   2.484   5.176
 3125SOL    HW110274   1.477   2.397   5.225
 3125SOL    HW210275   1.561   2.479   5.111
 3126SOL     OW10276   5.845   5.215   4.445
 3126SOL    HW110277   5.936   5.196   4.409
 3126SOL    HW210278   5.830   5.159   4.526
 3127SOL     OW10279   0.056   1.195   4.554
 3127SOL    HW110280   0.078   1.289   4.582
 3127SOL    HW210281   7.014   1.158   4.618
 3128SOL     OW10282   4.840   0.492   0.398
 3128SOL    HW110283   4.765   0.468   0.460
 3128SOL    HW210284   4.907   0.548   0.447
 3129SOL     OW10285   4.911   3.313   0.740
 3129SOL    HW110286   4.888   3.216   0.729
 3129SOL    HW210287   4.922   3.334   0.837
 3130SOL     OW10288   0.911   4.540   1.221
 3130SOL    HW110289   1.008   4.523   1.202
 3130SOL    HW210290   0.903   4.597   1.303
 3131SOL     OW10291   6.752   4.257   2.459
 3131SOL    HW110292   6.794   4.266   2.369
 3131SOL    HW210293   6.816   4.211   2.521
 3132SOL     OW10294   3.929   4.736   6.976
 3132SOL    HW110295   3.921   4.728   6.877
 3132SOL    HW210296   4.023   4.716   7.004
 3133SOL     OW10297   4.272   0.754   3.681
 3133SOL    HW110298   4.326   0.811   3.619
 3133SOL    HW210299   4.329   0.680   3.716
 3134SOL     OW10300   3.970   5.351   2.480
 3134SOL    HW110301   3.935   5.258   2.488
 3134SOL    HW210302   4.068   5.348   2.459
 3135SOL     OW10303   5.623   6.690   5.910
 3135SOL    HW110304   5.658   6.743   5.833
 3135SOL    HW210305   5.622   6.592   5.887
 3136SOL     OW10306   6.076   1.162   2.570
 3136SOL    HW110307   6.067   1.104   2.489
 3136SOL    HW210308   5.987   1.169   2.615
 3137SOL     OW10309   6.604   6.977   7.003
 3137SOL    HW110310   6.512   6.943   6.983
 3137SOL    HW210311   6.655   6.991   6.918
 3138SOL     OW10312   5.570   5.021   3.972
 3138SOL    HW110313   5.611   4.932   3.992
 3138SOL    HW210314   5.505   5.012   3.897
 3139SOL     OW10315   2.478   5.060   0.896
 3139SOL    HW110316   2.535   4.980   0.872
 3139SOL    HW210317   2.523   5.112   0.969
 3140SOL     OW10318   6.875   6.348   5.782
 3140SOL    HW110319   6.920   6.270   5.738
 3140SOL    HW210320   6.944   6.407   5.823
 3141SOL     OW10321   6.332   2.521   6.747
 3141SOL    HW110322   6.425   2.513   6.782
 3141SOL    HW210323   6.324   2.470   6.662
 3142SOL     OW10324   5.352   0.552   2.182
 3142SOL    HW110325   5.316   0.522   2.094
 3142SOL    HW210326   5.438   0.601   2.168
 3143SOL     OW10327   5.936   1.545   0.088
 3143SOL    HW110328   6.010   1.520   0.027
 3143SOL    HW210329   5.956   1.513   0.181
 3144SOL     OW10330   4.251   4.211   6.194
 3144SOL    HW110331   4.304   4.173   6.270
 3144SOL    HW210332   4.222   4.137   6.134
 3145SOL     OW10333   0.987   5.959   1.548
 3145SOL    HW110334   0.964   5.862   1.545
 3145SOL    HW210335   0.926   6.006   1.612
 3146SOL     OW10336   0.295   0.622   4.893
 3146SOL    HW110337   0.391   0.595   4.905
 3146SOL    HW210338   0.238   0.539   4.891
 3147SOL     OW10339   4.125   4.985   6.420
 3147SOL    HW110340   4.037   5.021   6.390
 3147SOL    HW210341   4.146   5.019   6.512
 3148SOL     OW10342   0.733   5.633   2.944
 3148SOL    HW110343   0.721   5.730   2.968
 3148SOL    HW210344   0.828   5.607   2.960
 3149SOL     OW10345   2.993   1.107   0.880
 3149SOL    HW110346   3.035   1.017   0.871
 3149SOL    HW210347   3.055   1.177   0.845
 3150SOL     OW10348   6.946   5.826   5.174
 3150SOL    HW110349   6.876   5.873   5.121
 3150SOL    HW210350   6.986   5.753   5.119
 3151SOL     OW10351   5.900   1.705   6.146
 3151SOL    HW110352   5.934   1.694   6.240
 3151SOL    HW210353   5.917   1.621   6.095
 3152SOL     OW10354   1.428   2.931   6.329
 3152SOL    HW110355   1.404   2.991   6.406
 3152SOL    HW210356   1.390   2.970   6.244
 3153SOL     OW10357   6.540   5.403   0.984
 3153SOL    HW110358   6.484   5.400   0.902
 3153SOL    HW210359   6.622   5.348   0.970
 3154SOL     OW10360   5.509   1.181   1.239
 3154SOL    HW110361   5.493   1.268   1.286
 3154SOL    HW210362   5.444   1.113   1.273
 3155SOL     OW10363   0.371   4.781   0.957
 3155SOL    HW110364   0.397   4.715   1.027
 3155SOL    HW210365   0.283   4.822   0.981
 3156SOL     OW10366   3.605   4.182   2.038
 3156SOL    HW110367   3.697   4.160   2.069
 3156SOL    HW210368   3.606   4.196   1.939
 3157SOL     OW10369   0.776   1.834   5.313
 3157SOL    HW110370   0.786   1.869   5.220
 3157SOL    HW210371   0.858   1.784   5.339
 3158SOL     OW10372   2.794   1.560   5.664
 3158SOL    HW110373   2.810   1.602   5.575
 3158SOL    HW210374   2.711   1.599   5.705
 3159SOL     OW10375   5.696   6.807   0.094
 3159SOL    HW110376   5.763   6.881   0.091
 3159SOL    HW210377   5.637   6.817   0.173
 3160SOL     OW10378   2.297   0.204   5.788
 3160SOL    HW110379   2.391   0.223   5.817
 3160SOL    HW210380   2.253   0.144   5.855
 3161SOL     OW10381   2.036   2.788   3.318
 3161SOL    HW110382   2.080   2.876   3.299
 3161SOL    HW210383   1.940   2.802   3.339
 3162SOL     OW10384   1.903   5.389   0.442
 3162SOL    HW110385   1.882   5.291   0.437
 3162SOL    HW210386   1.825   5.438   0.479
 3163SOL     OW10387   4.526   4.227   0.547
 3163SOL    HW110388   4.519   4.128   0.559
 3163SOL    HW210389   4.580   4.246   0.465
 3164SOL     OW10390   2.644   6.244   3.456
 3164SOL    HW110391   2.720   6.283   3.509
 3164SOL    HW210392   2.679   6.205   3.371
 3165SOL     OW10393   0.958   5.964   0.897
 3165SOL    HW110394   0.997   6.021   0.825
 3165SOL    HW210395   0.858   5.968   0.893
 3166SOL     OW10396   4.330   0.613   5.417
 3166SOL    HW110397   4.419   0.635   5.377
 3166SOL    HW210398   4.310   0.675   5.492
 3167SOL     OW10399   4.858   3.902   0.829
 3167SOL    HW110400   4.864   3.806   0.855
 3167SOL    HW210401   4.948   3.945   0.839
 3168SOL     OW10402   4.110   1.877   0.338
 3168SOL    HW110403   4.186   1.913   0.392
 3168SOL    HW210404   4.045   1.831   0.398
 3169SOL     OW10405   1.909   4.787   2.217
 3169SOL    HW110406   1.851   4.736   2.280
 3169SOL    HW210407   1.964   4.852   2.268
 3170SOL     OW10408   3.689   5.239   3.378
 3170SOL    HW110409   3.762   5.248   3.310
 3170SOL    HW210410   3.602   5.221   3.333
 3171SOL     OW10411   5.495   2.418   2.908
 3171SOL    HW110412   5.476   2.490   2.841
 3171SOL    HW210413   5.493   2.456   3.000
 3172SOL     OW10414   0.447   5.035   0.609
 3172SOL    HW110415   0.355   5.075   0.607
 3172SOL    HW210416   0.481   5.027   0.515
 3173SOL     OW10417   3.365   1.376   0.174
 3173SOL    HW110418   3.273   1.411   0.154
 3173SOL    HW210419   3.414   1.361   0.088
 3174SOL     OW10420   3.052   3.435   6.047
 3174SOL    HW110421   2.967   3.488   6.050
 3174SOL    HW210422   3.113   3.473   5.977
 3175SOL     OW10423   6.996   0.424   4.063
 3175SOL    HW110424   0.053   0.465   4.026
 3175SOL    HW210425   7.015   0.329   4.090
 3176SOL     OW10426   1.064   4.515   4.710
 3176SOL    HW110427   1.157   4.514   4.746
 3176SOL    HW210428   1.065   4.490   4.613
 3177SOL     OW10429   5.780   4.015   2.774
 3177SOL    HW110430   5.697   3.959   2.773
 3177SOL    HW210431   5.850   3.970   2.829
 3178SOL     OW10432   0.048   0.868   1.023
 3178SOL    HW110433   0.063   0.959   0.983
 3178SOL    HW210434   0.109   0.856   1.101
 3179SOL     OW10435   0.689   1.967   1.939
 3179SOL    HW110436   0.777   1.922   1.924
 3179SOL    HW210437   0.638   1.969   1.852
 3180SOL     OW10438   6.778   5.791   6.868
 3180SOL    HW110439   6.841   5.836   6.806
 3180SOL    HW210440   6.700   5.852   6.885
 3181SOL     OW10441   0.640   1.372   4.487
 3181SOL    HW110442   0.577   1.344   4.415
 3181SOL    HW210443   0.655   1.471   4.481
 3182SOL     OW10444   2.896   0.434   0.324
 3182SOL    HW110445   2.809   0.387   0.311
 3182SOL    HW210446   2.909   0.503   0.253
 3183SOL     OW10447   4.453   4.489   2.145
 3183SOL    HW110448   4.547   4.518   2.129
 3183SOL    HW210449   4.431   4.412   2.085
 3184SOL     OW10450   0.306   2.407   4.276
 3184SOL    HW110451   0.215   2.447   4.280
 3184SOL    HW210452   0.359   2.436   4.356
 3185SOL     OW10453   0.183   6.394   6.175
 3185SOL    HW110454   0.157   6.320   6.237
 3185SOL    HW210455   0.273   6.429   6.201
 3186SOL     OW10456   1.093   1.249   6.047
 3186SOL    HW110457   0.996   1.225   6.040
 3186SOL    HW210458   1.125   1.281   5.958
 3187SOL     OW10459   4.009   5.689   2.876
 3187SOL    HW110460   4.042   5.595   2.882
 3187SOL    HW210461   4.073   5.744   2.823
 3188SOL     OW10462   2.495   5.198   6.281
 3188SOL    HW110463   2.413   5.168   6.232
 3188SOL    HW210464   2.471   5.269   6.347
 3189SOL     OW10465   2.860   1.704   0.531
 3189SOL    HW110466   2.940   1.643   0.531
 3189SOL    HW210467   2.829   1.718   0.437
 3190SOL     OW10468   0.134   6.032   4.381
 3190SOL    HW110469   0.059   5.973   4.353
 3190SOL    HW210470   0.221   5.983   4.370
 3191SOL     OW10471   4.606   5.736   1.901
 3191SOL    HW110472   4.632   5.687   1.818
 3191SOL    HW210473   4.627   5.680   1.981
 3192SOL     OW10474   6.363   2.305   1.920
 3192SOL    HW110475   6.371   2.207   1.939
 3192SOL    HW210476   6.447   2.352   1.947
 3193SOL     OW10477   3.791   0.435   5.527
 3193SOL    HW110478   3.789   0.525   5.569
 3193SOL    HW210479   3.828   0.369   5.592
 3194SOL     OW10480   1.150   1.375   5.801
 3194SOL    HW110481   1.213   1.376   5.723
 3194SOL    HW210482   1.076   1.440   5.785
 3195SOL     OW10483   0.037   1.569   1.720
 3195SOL    HW110484   0.010   1.528   1.808
 3195SOL    HW210485   0.024   1.502   1.647
 3196SOL     OW10486   6.534   0.289   5.088
 3196SOL    HW110487   6.611   0.295   5.151
 3196SOL    HW210488   6.536   0.200   5.042
 3197SOL     OW10489   1.946   0.415   6.008
 3197SOL    HW110490   1.926   0.510   5.984
 3197SOL    HW210491   2.007   0.413   6.088
 3198SOL     OW10492   6.718   2.586   3.285
 3198SOL    HW110493   6.634   2.534   3.271
 3198SOL    HW210494   6.710   2.640   3.369
 3199SOL     OW10495   5.772   4.436   2.862
 3199SOL    HW110496   5.695   4.430   2.798
 3199SOL    HW210497   5.819   4.523   2.847
 3200SOL     OW10498   5.451   3.220   3.752
 3200SOL    HW110499   5.433   3.290   3.682
 3200SOL    HW210500   5.543   3.183   3.739
 3201SOL     OW10501   6.161   3.921   2.577
 3201SOL    HW110502   6.164   4.021   2.582
 3201SOL    HW210503   6.179   3.882   2.667
 3202SOL     OW10504   1.119   4.979   0.821
 3202SOL    HW110505   1.195   4.970   0.885
 3202SOL    HW210506   1.134   5.059   0.762
 3203SOL     OW10507   4.309   6.380   1.427
 3203SOL    HW110508   4.273   6.350   1.515
 3203SOL    HW210509   4.298   6.479   1.419
 3204SOL     OW10510   3.124   1.275   3.992
 3204SOL    HW110511   3.170   1.332   3.924
 3204SOL    HW210512   3.190   1.249   4.063
 3205SOL     OW10513   5.476   2.874   5.413
 3205SOL    HW110514   5.501   2.965   5.445
 3205SOL    HW210515   5.501   2.806   5.482
 3206SOL     OW10516   2.522   2.827   1.443
 3206SOL    HW110517   2.469   2.837   1.527
 3206SOL    HW210518   2.608   2.877   1.452
 3207SOL     OW10519   0.620   0.415   5.137
 3207SOL    HW110520   0.699   0.445   5.191
 3207SOL    HW210521   0.651   0.351   5.066
 3208SOL     OW10522   5.921   5.941   5.070
 3208SOL    HW110523   6.006   5.889   5.069
 3208SOL    HW210524   5.893   5.960   4.976
 3209SOL     OW10525   4.912   5.856   6.395
 3209SOL    HW110526   4.870   5.785   6.451
 3209SOL    HW210527   4.978   5.814   6.332
 3210SOL     OW10528   0.179   5.185   1.530
 3210SOL    HW110529   0.159   5.250   1.604
 3210SOL    HW210530   0.162   5.092   1.562
 3211SOL     OW10531   1.394   5.948   0.233
 3211SOL    HW110532   1.311   5.997   0.206
 3211SOL    HW210533   1.421   5.886   0.160
 3212SOL     OW10534   2.864   0.087   2.802
 3212SOL    HW110535   2.832   0.156   2.737
 3212SOL    HW210536   2.835   0.112   2.894
 3213SOL     OW10537   1.630   1.101   6.332
 3213SOL    HW110538   1.654   1.064   6.421
 3213SOL    HW210539   1.692   1.176   6.308
 3214SOL     OW10540   3.757   0.917   3.072
 3214SOL    HW110541   3.712   0.983   3.133
 3214SOL    HW210542   3.754   0.826   3.112
 3215SOL     OW10543   1.272   3.113   0.594
 3215SOL    HW110544   1.370   3.111   0.618
 3215SOL    HW210545   1.262   3.099   0.496
 3216SOL     OW10546   5.642   4.347   0.666
 3216SOL    HW110547   5.715   4.369   0.601
 3216SOL    HW210548   5.647   4.410   0.744
 3217SOL     OW10549   0.404   4.671   2.939
 3217SOL    HW110550   0.325   4.730   2.955
 3217SOL    HW210551   0.459   4.666   3.022
 3218SOL     OW10552   6.857   1.933   2.767
 3218SOL    HW110553   6.889   2.021   2.732
 3218SOL    HW210554   6.781   1.949   2.830
 3219SOL     OW10555   6.775   0.729   4.982
 3219SOL    HW110556   6.780   0.632   4.961
 3219SOL    HW210557   6.702   0.771   4.928
 3220SOL     OW10558   6.540   5.916   6.995
 3220SOL    HW110559   6.466   5.865   0.013
 3220SOL    HW210560   6.519   6.014   6.998
 3221SOL     OW10561   4.406   0.515   2.383
 3221SOL    HW110562   4.433   0.530   2.478
 3221SOL    HW210563   4.307   0.505   2.378
 3222SOL     OW10564   3.083   1.551   2.674
 3222SOL    HW110565   3.125   1.621   2.617
 3222SOL    HW210566   3.105   1.460   2.638
 3223SOL     OW10567   1.584   6.615   0.853
 3223SOL    HW110568   1.490   6.591   0.879
 3223SOL    HW210569   1.591   6.619   0.754
 3224SOL     OW10570   4.323   2.314   4.789
 3224SOL    HW110571   4.400   2.378   4.793
 3224SOL    HW210572   4.263   2.328   4.868
 3225SOL     OW10573   3.935   0.736   4.141
 3225SOL    HW110574   4.003   0.667   4.164
 3225SOL    HW210575   3.969   0.827   4.167
 3226SOL     OW10576   1.183   0.254   2.235
 3226SOL    HW110577   1.178   0.265   2.135
 3226SOL    HW210578   1.101   0.292   2.276
 3227SOL     OW10579   4.307   2.778   6.095
 3227SOL    HW110580   4.209   2.801   6.095
 3227SOL    HW210581   4.349   2.811   6.179
 3228SOL     OW10582   1.078   4.360   0.747
 3228SOL    HW110583   1.115   4.327   0.660
 3228SOL    HW210584   1.136   4.434   0.782
 3229SOL     OW10585   2.759   1.564   6.356
 3229SOL    HW110586   2.824   1.628   6.396
 3229SOL    HW210587   2.667   1.602   6.361
 3230SOL     OW10588   2.594   5.678   5.395
 3230SOL    HW110589   2.674   5.718   5.352
 3230SOL    HW210590   2.617   5.588   5.432
 3231SOL     OW10591   3.131   1.275   2.637
 3231SOL    HW110592   3.163   1.240   2.725
 3231SOL    HW210593   3.175   1.224   2.563
 3232SOL     OW10594   4.178   5.556   4.033
 3232SOL    HW110595   4.209   5.636   3.984
 3232SOL    HW210596   4.254   5.514   4.082
 3233SOL     OW10597   0.652   2.463   0.095
 3233SOL    HW110598   0.708   2.544   0.113
 3233SOL    HW210599   0.655   2.441   7.024
 3234SOL     OW10600   2.454   2.935   0.643
 3234SOL    HW110601   2.437   2.949   0.740
 3234SOL    HW210602   2.552   2.944   0.624
 3235SOL     OW10603   6.658   5.941   2.239
 3235SOL    HW110604   6.703   6.020   2.280
 3235SOL    HW210605   6.727   5.880   2.200
 3236SOL     OW10606   2.520   4.139   0.634
 3236SOL    HW110607   2.521   4.186   0.545
 3236SOL    HW210608   2.613   4.138   0.672
 3237SOL     OW10609   5.752   1.144   4.899
 3237SOL    HW110610   5.706   1.223   4.940
 3237SOL    HW210611   5.717   1.129   4.807
 3238SOL     OW10612   6.310   5.166   0.644
 3238SOL    HW110613   6.304   5.168   0.544
 3238SOL    HW210614   6.405   5.180   0.672
 3239SOL     OW10615   0.479   0.395   3.531
 3239SOL    HW110616   0.560   0.453   3.543
 3239SOL    HW210617   0.397   0.453   3.532
 3240SOL     OW10618   0.214   0.349   6.342
 3240SOL    HW110619   0.295   0.336   6.400
 3240SOL    HW210620   0.241   0.393   6.257
 3241SOL     OW10621   5.291   1.461   6.267
 3241SOL    HW110622   5.270   1.538   6.326
 3241SOL    HW210623   5.386   1.466   6.236
 3242SOL     OW10624   4.967   4.485   5.438
 3242SOL    HW110625   4.878   4.438   5.438
 3242SOL    HW210626   4.955   4.578   5.473
 3243SOL     OW10627   4.280   5.235   6.141
 3243SOL    HW110628   4.197   5.274   6.181
 3243SOL    HW210629   4.330   5.184   6.211
 3244SOL     OW10630   5.830   6.525   6.354
 3244SOL    HW110631   5.879   6.484   6.277
 3244SOL    HW210632   5.855   6.621   6.362
 3245SOL     OW10633   4.267   1.942   3.693
 3245SOL    HW110634   4.288   1.988   3.780
 3245SOL    HW210635   4.188   1.988   3.651
 3246SOL     OW10636   0.682   0.214   2.499
 3246SOL    HW110637   0.779   0.221   2.526
 3246SOL    HW210638   0.633   0.160   2.567
 3247SOL     OW10639   0.196   4.236   2.243
 3247SOL    HW110640   0.226   4.331   2.251
 3247SOL    HW210641   0.231   4.184   2.320
 3248SOL     OW10642   5.296   2.096   3.187
 3248SOL    HW110643   5.377   2.064   3.139
 3248SOL    HW210644   5.321   2.172   3.247
 3249SOL     OW10645   3.898   3.618   3.813
 3249SOL    HW110646   3.981   3.567   3.793
 3249SOL    HW210647   3.921   3.704   3.858
 3250SOL     OW10648   5.493   5.675   2.523
 3250SOL    HW110649   5.519   5.711   2.613
 3250SOL    HW210650   5.407   5.626   2.530
 3251SOL     OW10651   2.628   0.608   4.764
 3251SOL    HW110652   2.715   0.619   4.811
 3251SOL    HW210653   2.581   0.526   4.798
 3252SOL     OW10654   2.862   1.206   3.945
 3252SOL    HW110655   2.869   1.267   3.867
 3252SOL    HW210656   2.949   1.208   3.996
 3253SOL     OW10657   6.025   2.886   0.994
 3253SOL    HW110658   6.077   2.894   0.909
 3253SOL    HW210659   6.075   2.932   1.068
 3254SOL     OW10660   5.793   0.789   0.275
 3254SOL    HW110661   5.767   0.860   0.341
 3254SOL    HW210662   5.710   0.753   0.232
 3255SOL     OW10663   6.164   4.880   1.377
 3255SOL    HW110664   6.085   4.941   1.383
 3255SOL    HW210665   6.215   4.901   1.294
 3256SOL     OW10666   4.862   2.204   1.533
 3256SOL    HW110667   4.879   2.291   1.486
 3256SOL    HW210668   4.861   2.130   1.466
 3257SOL     OW10669   2.849   2.208   2.436
 3257SOL    HW110670   2.801   2.277   2.490
 3257SOL    HW210671   2.834   2.225   2.339
 3258SOL     OW10672   3.070   5.858   3.499
 3258SOL    HW110673   3.037   5.800   3.424
 3258SOL    HW210674   2.999   5.866   3.568
 3259SOL     OW10675   5.501   4.353   4.363
 3259SOL    HW110676   5.586   4.305   4.383
 3259SOL    HW210677   5.521   4.439   4.317
 3260SOL     OW10678   1.634   4.640   1.837
 3260SOL    HW110679   1.619   4.625   1.739
 3260SOL    HW210680   1.574   4.714   1.869
 3261SOL     OW10681   5.128   0.514   2.859
 3261SOL    HW110682   5.051   0.525   2.922
 3261SOL    HW210683   5.154   0.417   2.854
 3262SOL     OW10684   3.810   2.001   2.472
 3262SOL    HW110685   3.905   2.030   2.487
 3262SOL    HW210686   3.753   2.038   2.545
 3263SOL     OW10687   2.487   1.484   3.126
 3263SOL    HW110688   2.449   1.552   3.063
 3263SOL    HW210689   2.584   1.503   3.140
 3264SOL     OW10690   2.309   5.252   0.181
 3264SOL    HW110691   2.239   5.220   0.117
 3264SOL    HW210692   2.342   5.342   0.151
 3265SOL     OW10693   6.102   5.817   5.331
 3265SOL    HW110694   6.097   5.730   5.282
 3265SOL    HW210695   6.016   5.833   5.379
 3266SOL     OW10696   2.933   4.633   0.334
 3266SOL    HW110697   3.030   4.626   0.309
 3266SOL    HW210698   2.884   4.553   0.300
 3267SOL     OW10699   4.675   0.504   1.152
 3267SOL    HW110700   4.593   0.481   1.205
 3267SOL    HW210701   4.671   0.459   1.063
 3268SOL     OW10702   0.011   4.978   1.259
 3268SOL    HW110703   0.056   4.899   1.218
 3268SOL    HW210704   0.058   5.004   1.343
 3269SOL     OW10705   1.113   5.185   2.505
 3269SOL    HW110706   1.198   5.143   2.538
 3269SOL    HW210707   1.037   5.121   2.520
 3270SOL     OW10708   0.686   2.555   5.433
 3270SOL    HW110709   0.672   2.457   5.421
 3270SOL    HW210710   0.615   2.593   5.493
 3271SOL     OW10711   0.261   3.346   1.873
 3271SOL    HW110712   0.317   3.426   1.849
 3271SOL    HW210713   0.180   3.343   1.814
 3272SOL     OW10714   4.319   5.628   0.405
 3272SOL    HW110715   4.332   5.722   0.436
 3272SOL    HW210716   4.391   5.603   0.341
 3273SOL     OW10717   4.484   3.501   6.024
 3273SOL    HW110718   4.405   3.450   5.990
 3273SOL    HW210719   4.568   3.462   5.987
 3274SOL     OW10720   5.926   0.953   0.115
 3274SOL    HW110721   5.914   0.885   0.188
 3274SOL    HW210722   5.841   0.960   0.062
 3275SOL     OW10723   4.847   0.528   1.343
 3275SOL    HW110724   4.845   0.619   1.383
 3275SOL    HW210725   4.761   0.511   1.294
 3276SOL     OW10726   4.936   0.118   0.595
 3276SOL    HW110727   4.903   0.205   0.632
 3276SOL    HW210728   5.026   0.132   0.553
 3277SOL     OW10729   3.077   1.516   1.962
 3277SOL    HW110730   3.174   1.513   1.939
 3277SOL    HW210731   3.045   1.611   1.963
 3278SOL     OW10732   0.132   0.396   6.757
 3278SOL    HW110733   0.201   0.463   6.733
 3278SOL    HW210734   0.118   0.333   6.680
 3279SOL     OW10735   4.412   6.686   1.396
 3279SOL    HW110736   4.343   6.693   1.324
 3279SOL    HW210737   4.390   6.749   1.470
 3280SOL     OW10738   5.415   3.575   4.080
 3280SOL    HW110739   5.456   3.624   4.004
 3280SOL    HW210740   5.472   3.497   4.104
 3281SOL     OW10741   6.878   4.506   1.981
 3281SOL    HW110742   6.968   4.491   2.022
 3281SOL    HW210743   6.877   4.594   1.933
 3282SOL     OW10744   0.295   3.890   4.979
 3282SOL    HW110745   0.333   3.854   5.064
 3282SOL    HW210746   0.333   3.981   4.962
 3283SOL     OW10747   3.273   0.778   1.306
 3283SOL    HW110748   3.177   0.789   1.282
 3283SOL    HW210749   3.315   0.868   1.318
 3284SOL     OW10750   1.771   5.835   4.906
 3284SOL    HW110751   1.837   5.870   4.973
 3284SOL    HW210752   1.680   5.866   4.931
 3285SOL     OW10753   5.218   1.178   4.674
 3285SOL    HW110754   5.317   1.170   4.686
 3285SOL    HW210755   5.198   1.201   4.579
 3286SOL     OW10756   3.363   1.866   1.672
 3286SOL    HW110757   3.448   1.837   1.629
 3286SOL    HW210758   3.289   1.865   1.604
 3287SOL     OW10759   1.104   6.940   6.328
 3287SOL    HW110760   1.176   6.993   6.372
 3287SOL    HW210761   1.143   6.890   6.250
 3288SOL     OW10762   1.946   6.285   0.539
 3288SOL    HW110763   2.038   6.300   0.505
 3288SOL    HW210764   1.902   6.373   0.559
 3289SOL     OW10765   2.779   1.232   6.961
 3289SOL    HW110766   2.849   1.288   7.007
 3289SOL    HW210767   2.698   1.288   6.944
 3290SOL     OW10768   6.569   5.581   0.664
 3290SOL    HW110769   6.662   5.547   0.683
 3290SOL    HW210770   6.502   5.517   0.702
 3291SOL     OW10771   4.401   6.865   6.162
 3291SOL    HW110772   4.337   6.791   6.143
 3291SOL    HW210773   4.489   6.845   6.117
 3292SOL     OW10774   0.440   1.758   1.120
 3292SOL    HW110775   0.376   1.696   1.165
 3292SOL    HW210776   0.531   1.715   1.117
 3293SOL     OW10777   6.393   5.282   2.852
 3293SOL    HW110778   6.355   5.296   2.943
 3293SOL    HW210779   6.369   5.190   2.820
 3294SOL     OW10780   5.433   2.336   5.598
 3294SOL    HW110781   5.338   2.341   5.629
 3294SOL    HW210782   5.438   2.365   5.502
 3295SOL     OW10783   1.854   2.522   0.984
 3295SOL    HW110784   1.935   2.571   0.953
 3295SOL    HW210785   1.774   2.582   0.981
 3296SOL     OW10786   6.990   0.042   5.449
 3296SOL    HW110787   6.997   0.068   5.545
 3296SOL    HW210788   6.968   6.971   5.442
 3297SOL     OW10789   3.004   2.096   5.489
 3297SOL    HW110790   2.925   2.125   5.543
 3297SOL    HW210791   3.079   2.162   5.500
 3298SOL     OW10792   6.065   3.531   4.623
 3298SOL    HW110793   6.037   3.581   4.705
 3298SOL    HW210794   6.006   3.555   4.547
 3299SOL     OW10795   3.560   4.909   3.482
 3299SOL    HW110796   3.600   4.961   3.557
 3299SOL    HW210797   3.527   4.821   3.517
 3300SOL     OW10798   1.911   6.833   5.358
 3300SOL    HW110799   1.982   6.878   5.303
 3300SOL    HW210800   1.856   6.774   5.300
 3301SOL     OW10801   1.526   3.426   2.551
 3301SOL    HW110802   1.607   3.403   2.605
 3301SOL    HW210803   1.546   3.504   2.491
 3302SOL     OW10804   2.202   5.107   5.922
 3302SOL    HW110805   2.176   5.018   5.886
 3302SOL    HW210806   2.221   5.099   6.020
 3303SOL     OW10807   3.539   2.507   0.296
 3303SOL    HW110808   3.462   2.553   0.339
 3303SOL    HW210809   3.617   2.506   0.358
 3304SOL     OW10810   2.115   4.697   6.554
 3304SOL    HW110811   2.171   4.778   6.567
 3304SOL    HW210812   2.138   4.629   6.624
 3305SOL     OW10813   3.469   0.420   1.183
 3305SOL    HW110814   3.411   0.458   1.111
 3305SOL    HW210815   3.460   0.475   1.266
 3306SOL     OW10816   1.284   6.804   0.097
 3306SOL    HW110817   1.240   6.879   0.046
 3306SOL    HW210818   1.364   6.839   0.146
 3307SOL     OW10819   1.292   0.111   5.188
 3307SOL    HW110820   1.263   0.201   5.155
 3307SOL    HW210821   1.324   0.057   5.110
 3308SOL     OW10822   3.928   4.284   1.409
 3308SOL    HW110823   3.900   4.301   1.314
 3308SOL    HW210824   4.018   4.326   1.424
 3309SOL     OW10825   5.411   4.596   3.723
 3309SOL    HW110826   5.494   4.551   3.754
 3309SOL    HW210827   5.379   4.553   3.638
 3310SOL     OW10828   0.467   4.696   4.455
 3310SOL    HW110829   0.536   4.760   4.420
 3310SOL    HW210830   0.396   4.747   4.503
 3311SOL     OW10831   3.243   3.780   0.864
 3311SOL    HW110832   3.331   3.736   0.853
 3311SOL    HW210833   3.218   3.827   0.779
 3312SOL     OW10834   5.436   2.643   6.379
 3312SOL    HW110835   5.490   2.726   6.368
 3312SOL    HW210836   5.340   2.664   6.364
 3313SOL     OW10837   0.919   0.695   3.060
 3313SOL    HW110838   0.995   0.732   3.006
 3313SOL    HW210839   0.833   0.719   3.016
 3314SOL     OW10840   2.485   0.150   3.228
 3314SOL    HW110841   2.464   0.053   3.242
 3314SOL    HW210842   2.569   0.159   3.175
 3315SOL     OW10843   0.534   5.068   5.000
 3315SOL    HW110844   0.502   5.161   4.988
 3315SOL    HW210845   0.576   5.059   5.091
 3316SOL     OW10846   2.905   0.954   6.690
 3316SOL    HW110847   2.817   0.991   6.659
 3316SOL    HW210848   2.974   0.968   6.619
 3317SOL     OW10849   5.085   2.721   2.030
 3317SOL    HW110850   5.137   2.672   2.101
 3317SOL    HW210851   5.083   2.818   2.052
 3318SOL     OW10852   2.762   2.274   6.479
 3318SOL    HW110853   2.827   2.202   6.457
 3318SOL    HW210854   2.764   2.292   6.577
 3319SOL     OW10855   6.751   6.926   2.492
 3319SOL    HW110856   6.754   7.010   2.547
 3319SOL    HW210857   6.801   6.854   2.539
 3320SOL     OW10858   6.655   0.443   1.021
 3320SOL    HW110859   6.694   0.523   1.067
 3320SOL    HW210860   6.720   0.410   0.952
 3321SOL     OW10861   6.205   1.550   1.061
 3321SOL    HW110862   6.256   1.635   1.056
 3321SOL    HW210863   6.268   1.472   1.059
 3322SOL     OW10864   6.340   3.365   0.849
 3322SOL    HW110865   6.392   3.339   0.768
 3322SOL    HW210866   6.360   3.301   0.924
 3323SOL     OW10867   2.505   1.796   1.686
 3323SOL    HW110868   2.548   1.878   1.724
 3323SOL    HW210869   2.448   1.821   1.608
 3324SOL     OW10870   4.734   5.651   5.946
 3324SOL    HW110871   4.765   5.718   5.878
 3324SOL    HW210872   4.694   5.698   6.024
 3325SOL     OW10873   1.171   3.614   6.700
 3325SOL    HW110874   1.210   3.675   6.769
 3325SOL    HW210875   1.239   3.545   6.675
 3326SOL     OW10876   5.435   1.010   3.257
 3326SOL    HW110877   5.517   0.957   3.277
 3326SOL    HW210878   5.370   0.954   3.207
 3327SOL     OW10879   1.599   6.271   1.330
 3327SOL    HW110880   1.583   6.186   1.380
 3327SOL    HW210881   1.656   6.253   1.251
 3328SOL     OW10882   3.540   1.486   1.107
 3328SOL    HW110883   3.611   1.544   1.147
 3328SOL    HW210884   3.453   1.536   1.106
 3329SOL     OW10885   6.529   5.779   5.980
 3329SOL    HW110886   6.481   5.693   5.959
 3329SOL    HW210887   6.462   5.851   5.996
 3330SOL     OW10888   6.293   2.949   2.442
 3330SOL    HW110889   6.365   2.883   2.418
 3330SOL    HW210890   6.300   2.972   2.539
 3331SOL     OW10891   1.597   2.648   1.010
 3331SOL    HW110892   1.560   2.556   1.027
 3331SOL    HW210893   1.526   2.705   0.969
 3332SOL     OW10894   5.546   4.357   0.393
 3332SOL    HW110895   5.592   4.442   0.365
 3332SOL    HW210896   5.558   4.344   0.491
 3333SOL     OW10897   4.009   5.269   6.554
 3333SOL    HW110898   4.011   5.256   6.653
 3333SOL    HW210899   3.915   5.258   6.521
 3334SOL     OW10900   3.374   3.173   1.196
 3334SOL    HW110901   3.399   3.270   1.202
 3334SOL    HW210902   3.296   3.155   1.256
 3335SOL     OW10903   4.914   4.936   5.920
 3335SOL    HW110904   4.921   4.946   5.820
 3335SOL    HW210905   4.830   4.887   5.943
 3336SOL     OW10906   2.821   5.383   5.997
 3336SOL    HW110907   2.899   5.414   6.053
 3336SOL    HW210908   2.806   5.447   5.923
 3337SOL     OW10909   3.627   1.818   1.566
 3337SOL    HW110910   3.686   1.743   1.536
 3337SOL    HW210911   3.679   1.879   1.626
 3338SOL     OW10912   6.690   4.016   1.527
 3338SOL    HW110913   6.789   4.012   1.541
 3338SOL    HW210914   6.656   4.105   1.560
 3339SOL     OW10915   6.573   6.177   0.114
 3339SOL    HW110916   6.604   6.259   0.067
 3339SOL    HW210917   6.477   6.160   0.092
 3340SOL     OW10918   3.362   6.443   1.809
 3340SOL    HW110919   3.317   6.354   1.823
 3340SOL    HW210920   3.301   6.503   1.758
 3341SOL     OW10921   0.388   6.784   2.797
 3341SOL    HW110922   0.299   6.761   2.759
 3341SOL    HW210923   0.447   6.822   2.726
 3342SOL     OW10924   2.049   0.080   3.852
 3342SOL    HW110925   1.950   0.074   3.844
 3342SOL    HW210926   2.084   0.003   3.906
 3343SOL     OW10927   4.808   2.716   0.990
 3343SOL    HW110928   4.770   2.808   0.982
 3343SOL    HW210929   4.828   2.682   0.898
 3344SOL     OW10930   5.548   3.775   4.889
 3344SOL    HW110931   5.463   3.822   4.910
 3344SOL    HW210932   5.574   3.716   4.965
 3345SOL     OW10933   3.002   4.047   5.761
 3345SOL    HW110934   2.947   3.991   5.823
 3345SOL    HW210935   3.049   3.988   5.695
 3346SOL     OW10936   0.461   1.368   1.847
 3346SOL    HW110937   0.418   1.294   1.899
 3346SOL    HW210938   0.415   1.455   1.869
 3347SOL     OW10939   6.306   3.762   4.154
 3347SOL    HW110940   6.380   3.829   4.156
 3347SOL    HW210941   6.243   3.783   4.079
 3348SOL     OW10942   3.366   3.392   3.722
 3348SOL    HW110943   3.462   3.420   3.715
 3348SOL    HW210944   3.323   3.398   3.632
 3349SOL     OW10945   6.578   3.911   4.122
 3349SOL    HW110946   6.612   3.832   4.070
 3349SOL    HW210947   6.568   3.989   4.060
 3350SOL     OW10948   2.051   1.059   6.820
 3350SOL    HW110949   1.982   1.131   6.813
 3350SOL    HW210950   2.126   1.078   6.756
 3351SOL     OW10951   5.374   0.860   1.062
 3351SOL    HW110952   5.304   0.795   1.092
 3351SOL    HW210953   5.436   0.815   0.998
 3352SOL     OW10954   0.825   4.417   0.745
 3352SOL    HW110955   0.914   4.374   0.734
 3352SOL    HW210956   0.837   4.512   0.774
 3353SOL     OW10957   1.667   6.840   6.738
 3353SOL    HW110958   1.610   6.875   6.812
 3353SOL    HW210959   1.612   6.829   6.655
 3354SOL     OW10960   6.675   2.222   3.283
 3354SOL    HW110961   6.600   2.256   3.226
 3354SOL    HW210962   6.671   2.122   3.287
 3355SOL     OW10963   0.310   2.460   1.132
 3355SOL    HW110964   0.363   2.520   1.073
 3355SOL    HW210965   0.261   2.515   1.200
 3356SOL     OW10966   2.549   3.753   0.000
 3356SOL    HW110967   2.562   3.852   0.007
 3356SOL    HW210968   2.517   3.730   6.934
 3357SOL     OW10969   2.530   5.117   1.163
 3357SOL    HW110970   2.574   5.203   1.191
 3357SOL    HW210971   2.444   5.106   1.212
 3358SOL     OW10972   4.892   6.365   2.346
 3358SOL    HW110973   4.846   6.381   2.258
 3358SOL    HW210974   4.946   6.281   2.340
 3359SOL     OW10975   0.802   0.301   2.999
 3359SOL    HW110976   0.748   0.247   3.063
 3359SOL    HW210977   0.771   0.397   3.002
 3360SOL     OW10978   0.735   0.900   0.450
 3360SOL    HW110979   0.740   0.958   0.369
 3360SOL    HW210980   0.726   0.804   0.422
 3361SOL     OW10981   6.515   5.855   3.348
 3361SOL    HW110982   6.604   5.810   3.344
 3361SOL    HW210983   6.509   5.925   3.277
 3362SOL     OW10984   3.069   1.370   4.550
 3362SOL    HW110985   3.127   1.408   4.621
 3362SOL    HW210986   2.976   1.407   4.559
 3363SOL     OW10987   0.068   1.472   6.761
 3363SOL    HW110988   0.068   1.567   6.730
 3363SOL    HW210989   0.156   1.429   6.739
 3364SOL     OW10990   1.098   5.814   6.320
 3364SOL    HW110991   1.039   5.838   6.243
 3364SOL    HW210992   1.121   5.896   6.372
 3365SOL     OW10993   7.008   2.254   4.829
 3365SOL    HW110994   7.025   2.183   4.897
 3365SOL    HW210995   7.000   2.213   4.738
 3366SOL     OW10996   5.204   0.654   4.901
 3366SOL    HW110997   5.109   0.625   4.916
 3366SOL    HW210998   5.265   0.577   4.920
 3367SOL     OW10999   1.756   2.398   1.935
 3367SOL    HW111000   1.822   2.470   1.914
 3367SOL    HW211001   1.668   2.439   1.961
 3368SOL     OW11002   6.377   5.331   6.332
 3368SOL    HW111003   6.436   5.399   6.289
 3368SOL    HW211004   6.358   5.257   6.267
 3369SOL     OW11005   3.900   0.616   0.318
 3369SOL    HW111006   3.993   0.593   0.290
 3369SOL    HW211007   3.887   0.595   0.415
 3370SOL     OW11008   6.560   6.805   5.082
 3370SOL    HW111009   6.625   6.767   5.017
 3370SOL    HW211010   6.607   6.827   5.168
 3371SOL     OW11011   1.041   4.458   2.063
 3371SOL    HW111012   1.043   4.387   1.993
 3371SOL    HW211013   0.947   4.470   2.095
 3372SOL     OW11014   0.546   0.858   2.251
 3372SOL    HW111015   0.500   0.770   2.264
 3372SOL    HW211016   0.543   0.883   2.154
 3373SOL     OW11017   6.024   1.330   4.383
 3373SOL    HW111018   6.062   1.289   4.300
 3373SOL    HW211019   6.057   1.424   4.393
 3374SOL     OW11020   3.384   5.786   5.361
 3374SOL    HW111021   3.454   5.726   5.323
 3374SOL    HW211022   3.352   5.749   5.448
 3375SOL     OW11023   4.600   4.563   5.109
 3375SOL    HW111024   4.653   4.483   5.080
 3375SOL    HW211025   4.504   4.549   5.087
 3376SOL     OW11026   3.291   2.902   2.593
 3376SOL    HW111027   3.271   2.920   2.689
 3376SOL    HW211028   3.390   2.903   2.578
 3377SOL     OW11029   1.680   6.805   4.990
 3377SOL    HW111030   1.624   6.826   4.910
 3377SOL    HW211031   1.654   6.715   5.026
 3378SOL     OW11032   6.638   1.401   1.149
 3378SOL    HW111033   6.735   1.381   1.134
 3378SOL    HW211034   6.609   1.363   1.237
 3379SOL     OW11035   0.830   4.681   6.005
 3379SOL    HW111036   0.760   4.614   6.028
 3379SOL    HW211037   0.847   4.680   5.906
 3380SOL     OW11038   6.723   4.567   6.421
 3380SOL    HW111039   6.741   4.541   6.326
 3380SOL    HW211040   6.733   4.486   6.480
 3381SOL     OW11041   2.706   2.647   0.636
 3381SOL    HW111042   2.616   2.618   0.667
 3381SOL    HW211043   2.725   2.608   0.546
 3382SOL     OW11044   0.041   1.549   0.063
 3382SOL    HW111045   0.032   1.465   0.010
 3382SOL    HW211046   7.017   1.540   0.148
 3383SOL     OW11047   5.842   5.033   2.671
 3383SOL    HW111048   5.774   5.101   2.645
 3383SOL    HW211049   5.863   4.974   2.593
 3384SOL     OW11050   3.403   3.150   5.034
 3384SOL    HW111051   3.483   3.210   5.036
 3384SOL    HW211052   3.320   3.206   5.024
 3385SOL     OW11053   6.127   3.829   3.207
 3385SOL    HW111054   6.148   3.898   3.138
 3385SOL    HW211055   6.116   3.873   3.296
 3386SOL     OW11056   6.257   4.226   4.559
 3386SOL    HW111057   6.348   4.216   4.600
 3386SOL    HW211058   6.188   4.193   4.624
 3387SOL     OW11059   2.515   2.547   2.776
 3387SOL    HW111060   2.557   2.616   2.835
 3387SOL    HW211061   2.449   2.494   2.828
 3388SOL     OW11062   5.758   2.644   1.221
 3388SOL    HW111063   5.833   2.645   1.286
 3388SOL    HW211064   5.697   2.566   1.241
 3389SOL     OW11065   4.788   4.342   3.969
 3389SOL    HW111066   4.694   4.369   3.950
 3389SOL    HW211067   4.795   4.309   4.063
 3390SOL     OW11068   5.160   2.636   6.252
 3390SOL    HW111069   5.151   2.630   6.152
 3390SOL    HW211070   5.168   2.544   6.290
 3391SOL     OW11071   3.786   2.167   5.016
 3391SOL    HW111072   3.855   2.166   5.089
 3391SOL    HW211073   3.799   2.248   4.959
 3392SOL     OW11074   2.543   0.700   4.237
 3392SOL    HW111075   2.498   0.771   4.183
 3392SOL    HW211076   2.641   0.701   4.218
 3393SOL     OW11077   6.457   6.792   0.648
 3393SOL    HW111078   6.524   6.770   0.719
 3393SOL    HW211079   6.504   6.821   0.565
 3394SOL     OW11080   5.820   3.022   1.157
 3394SOL    HW111081   5.895   2.991   1.099
 3394SOL    HW211082   5.788   3.111   1.126
 3395SOL     OW11083   0.160   3.200   4.211
 3395SOL    HW111084   0.074   3.149   4.208
 3395SOL    HW211085   0.237   3.137   4.208
 3396SOL     OW11086   7.008   3.176   3.517
 3396SOL    HW111087   6.953   3.093   3.505
 3396SOL    HW211088   7.005   3.231   3.433
 3397SOL     OW11089   3.787   0.634   5.714
 3397SOL    HW111090   3.886   0.636   5.698
 3397SOL    HW211091   3.769   0.601   5.806
 3398SOL     OW11092   0.866   0.293   4.060
 3398SOL    HW111093   0.914   0.299   4.148
 3398SOL    HW211094   0.933   0.272   3.988
 3399SOL     OW11095   4.526   4.623   4.510
 3399SOL    HW111096   4.607   4.678   4.490
 3399SOL    HW211097   4.521   4.605   4.608
 3400SOL     OW11098   5.134   2.424   5.982
 3400SOL    HW111099   5.047   2.454   5.943
 3400SOL    HW211100   5.119   2.343   6.039
 3401SOL     OW11101   6.984   3.787   0.612
 3401SOL    HW111102   6.998   3.854   0.539
 3401SOL    HW211103   6.886   3.776   0.628
 3402SOL     OW11104   5.509   5.620   1.169
 3402SOL    HW111105   5.465   5.709   1.171
 3402SOL    HW211106   5.546   5.603   1.078
 3403SOL     OW11107   3.767   0.269   5.018
 3403SOL    HW111108   3.700   0.231   4.955
 3403SOL    HW211109   3.851   0.215   5.013
 3404SOL     OW11110   3.944   1.150   0.300
 3404SOL    HW111111   3.867   1.211   0.282
 3404SOL    HW211112   4.018   1.169   0.236
 3405SOL     OW11113   6.586   3.589   6.065
 3405SOL    HW111114   6.618   3.660   6.002
 3405SOL    HW211115   6.501   3.619   6.109
 3406SOL     OW11116   2.341   4.857   1.762
 3406SOL    HW111117   2.346   4.820   1.855
 3406SOL    HW211118   2.426   4.836   1.713
 3407SOL     OW11119   1.586   5.660   1.860
 3407SOL    HW111120   1.581   5.625   1.767
 3407SOL    HW211121   1.628   5.751   1.860
 3408SOL     OW11122   4.830   4.058   3.517
 3408SOL    HW111123   4.921   4.094   3.498
 3408SOL    HW211124   4.785   4.116   3.586
 3409SOL     OW11125   3.655   6.930   6.034
 3409SOL    HW111126   3.574   6.978   5.998
 3409SOL    HW211127   3.681   6.857   5.971
 3410SOL     OW11128   5.898   5.330   6.542
 3410SOL    HW111129   5.840   5.250   6.531
 3410SOL    HW211130   5.867   5.384   6.620
 3411SOL     OW11131   5.348   2.612   2.138
 3411SOL    HW111132   5.319   2.533   2.084
 3411SOL    HW211133   5.379   2.582   2.228
 3412SOL     OW11134   3.966   3.106   0.060
 3412SOL    HW111135   3.878   3.088   0.103
 3412SOL    HW211136   4.015   3.176   0.111
 3413SOL     OW11137   4.389   1.446   2.793
 3413SOL    HW111138   4.386   1.429   2.695
 3413SOL    HW211139   4.484   1.439   2.825
 3414SOL     OW11140   3.074   1.653   5.143
 3414SOL    HW111141   3.153   1.707   5.114
 3414SOL    HW211142   3.000   1.715   5.171
 3415SOL     OW11143   0.830   5.028   4.234
 3415SOL    HW111144   0.922   5.064   4.249
 3415SOL    HW211145   0.810   5.029   4.136
 3416SOL     OW11146   0.102   4.136   5.850
 3416SOL    HW111147   0.017   4.122   5.798
 3416SOL    HW211148   0.108   4.069   5.924
 3417SOL     OW11149   6.837   6.170   2.283
 3417SOL    HW111150   6.936   6.181   2.297
 3417SOL    HW211151   6.790   6.251   2.319
 3418SOL     OW11152   3.725   1.475   4.988
 3418SOL    HW111153   3.625   1.480   4.991
 3418SOL    HW211154   3.759   1.546   4.926
 3419SOL     OW11155   4.408   4.903   6.532
 3419SOL    HW111156   4.327   4.930   6.479
 3419SOL    HW211157   4.418   4.964   6.611
 3420SOL     OW11158   5.428   1.802   3.582
 3420SOL    HW111159   5.337   1.826   3.550
 3420SOL    HW211160   5.436   1.823   3.680
 3421SOL     OW11161   6.910   0.656   5.773
 3421SOL    HW111162   6.878   0.600   5.850
 3421SOL    HW211163   6.886   0.752   5.789
 3422SOL     OW11164   3.614   0.048   1.038
 3422SOL    HW111165   3.521   0.014   1.052
 3422SOL    HW211166   3.639   0.110   1.112
 3423SOL     OW11167   2.351   0.757   6.968
 3423SOL    HW111168   2.425   0.823   6.976
 3423SOL    HW211169   2.278   0.797   6.912
 3424SOL     OW11170   3.614   1.420   2.603
 3424SOL    HW111171   3.657   1.506   2.577
 3424SOL    HW211172   3.569   1.429   2.692
 3425SOL     OW11173   5.039   4.511   2.237
 3425SOL    HW111174   5.092   4.593   2.217
 3425SOL    HW211175   5.036   4.452   2.157
 3426SOL     OW11176   3.574   3.536   0.443
 3426SOL    HW111177   3.497   3.499   0.495
 3426SOL    HW211178   3.641   3.575   0.506
 3427SOL     OW11179   6.673   6.799   0.181
 3427SOL    HW111180   6.769   6.796   0.154
 3427SOL    HW211181   6.626   6.870   0.129
 3428SOL     OW11182   3.907   5.076   1.797
 3428SOL    HW111183   3.878   5.171   1.806
 3428SOL    HW211184   3.841   5.016   1.842
 3429SOL     OW11185   0.709   2.388   6.866
 3429SOL    HW111186   0.769   2.459   6.904
 3429SOL    HW211187   0.733   2.372   6.770
 3430SOL     OW11188   1.510   6.977   6.930
 3430SOL    HW111189   1.508   0.013   7.008
 3430SOL    HW211190   1.442   7.006   6.862
 3431SOL     OW11191   2.039   6.432   1.085
 3431SOL    HW111192   1.945   6.461   1.101
 3431SOL    HW211193   2.084   6.413   1.172
 3432SOL     OW11194   2.774   2.264   5.204
 3432SOL    HW111195   2.752   2.218   5.289
 3432SOL    HW211196   2.810   2.198   5.138
 3433SOL     OW11197   2.549   1.023   6.304
 3433SOL    HW111198   2.566   1.120   6.286
 3433SOL    HW211199   2.636   0.974   6.308
 3434SOL     OW11200   3.375   2.906   0.753
 3434SOL    HW111201   3.291   2.942   0.793
 3434SOL    HW211202   3.444   2.896   0.825
 3435SOL     OW11203   0.244   2.413   1.605
 3435SOL    HW111204   0.211   2.473   1.678
 3435SOL    HW211205   0.309   2.347   1.644
 3436SOL     OW11206   4.524   6.587   4.953
 3436SOL    HW111207   4.614   6.600   4.912
 3436SOL    HW211208   4.510   6.490   4.973
 3437SOL     OW11209   4.315   0.106   6.154
 3437SOL    HW111210   4.339   0.186   6.209
 3437SOL    HW211211   4.395   0.048   6.142
 3438SOL     OW11212   1.801   2.916   6.943
 3438SOL    HW111213   1.838   2.984   6.880
 3438SOL    HW211214   1.786   2.958   0.007
 3439SOL     OW11215   2.867   0.057   5.197
 3439SOL    HW111216   2.833   0.150   5.212
 3439SOL    HW211217   2.842   7.025   5.275
 3440SOL     OW11218   4.293   3.634   1.171
 3440SOL    HW111219   4.373   3.628   1.111
 3440SOL    HW211220   4.318   3.679   1.257
 3441SOL     OW11221   4.382   7.005   3.832
 3441SOL    HW111222   4.375   0.005   3.928
 3441SOL    HW211223   4.460   6.944   3.820
 3442SOL     OW11224   2.183   5.030   3.538
 3442SOL    HW111225   2.210   5.096   3.468
 3442SOL    HW211226   2.090   4.998   3.519
 3443SOL     OW11227   5.717   1.604   3.262
 3443SOL    HW111228   5.659   1.595   3.343
 3443SOL    HW211229   5.675   1.556   3.185
 3444SOL     OW11230   4.793   5.684   6.550
 3444SOL    HW111231   4.699   5.678   6.517
 3444SOL    HW211232   4.817   5.599   6.598
 3445SOL     OW11233   6.692   4.027   4.346
 3445SOL    HW111234   6.693   3.964   4.423
 3445SOL    HW211235   6.663   3.979   4.264
 3446SOL     OW11236   4.643   1.144   2.928
 3446SOL    HW111237   4.672   1.080   2.857
 3446SOL    HW211238   4.551   1.119   2.960
 3447SOL     OW11239   5.828   5.065   0.087
 3447SOL    HW111240   5.810   5.104   0.177
 3447SOL    HW211241   5.751   5.008   0.060
 3448SOL     OW11242   3.658   6.544   0.762
 3448SOL    HW111243   3.652   6.567   0.665
 3448SOL    HW211244   3.722   6.468   0.774
 3449SOL     OW11245   6.324   6.355   2.442
 3449SOL    HW111246   6.359   6.368   2.350
 3449SOL    HW211247   6.312   6.444   2.486
 3450SOL     OW11248   0.751   2.140   1.291
 3450SOL    HW111249   0.686   2.069   1.315
 3450SOL    HW211250   0.705   2.210   1.236
 3451SOL     OW11251   0.820   5.664   3.708
 3451SOL    HW111252   0.850   5.714   3.789
 3451SOL    HW211253   0.720   5.661   3.706
 3452SOL     OW11254   6.780   0.662   6.834
 3452SOL    HW111255   6.780   0.664   6.734
 3452SOL    HW211256   6.857   0.607   6.867
 3453SOL     OW11257   5.817   5.656   4.885
 3453SOL    HW111258   5.845   5.751   4.898
 3453SOL    HW211259   5.876   5.612   4.818
 3454SOL     OW11260   1.689   1.269   6.599
 3454SOL    HW111261   1.614   1.202   6.603
 3454SOL    HW211262   1.750   1.255   6.677
 3455SOL     OW11263   1.292   3.082   4.790
 3455SOL    HW111264   1.244   3.019   4.850
 3455SOL    HW211265   1.245   3.171   4.790
 3456SOL     OW11266   6.199   6.129   2.315
 3456SOL    HW111267   6.210   6.034   2.343
 3456SOL    HW211268   6.247   6.188   2.380
 3457SOL     OW11269   2.687   5.212   4.078
 3457SOL    HW111270   2.726   5.297   4.113
 3457SOL    HW211271   2.760   5.145   4.065
 3458SOL     OW11272   5.846   0.273   0.186
 3458SOL    HW111273   5.910   0.329   0.133
 3458SOL    HW211274   5.842   0.307   0.280
 3459SOL     OW11275   0.542   3.581   3.302
 3459SOL    HW111276   0.535   3.563   3.400
 3459SOL    HW211277   0.613   3.650   3.286
 3460SOL     OW11278   3.387   3.254   0.750
 3460SOL    HW111279   3.359   3.223   0.659
 3460SOL    HW211280   3.313   3.239   0.815
 3461SOL     OW11281   3.734   5.206   4.048
 3461SOL    HW111282   3.794   5.127   4.042
 3461SOL    HW211283   3.683   5.203   4.134
 3462SOL     OW11284   6.106   2.964   2.134
 3462SOL    HW111285   6.156   2.888   2.176
 3462SOL    HW211286   6.081   2.940   2.040
 3463SOL     OW11287   0.346   3.079   2.641
 3463SOL    HW111288   0.340   2.993   2.691
 3463SOL    HW211289   0.361   3.154   2.705
 3464SOL     OW11290   5.740   2.376   7.005
 3464SOL    HW111291   5.702   2.295   0.025
 3464SOL    HW211292   5.681   2.455   7.023
 3465SOL     OW11293   2.135   3.574   1.524
 3465SOL    HW111294   2.178   3.616   1.603
 3465SOL    HW211295   2.043   3.542   1.548
 3466SOL     OW11296   5.603   5.310   5.777
 3466SOL    HW111297   5.631   5.340   5.686
 3466SOL    HW211298   5.522   5.362   5.806
 3467SOL     OW11299   3.354   1.535   0.535
 3467SOL    HW111300   3.367   1.440   0.562
 3467SOL    HW211301   3.420   1.558   0.463
 3468SOL     OW11302   4.714   1.438   2.175
 3468SOL    HW111303   4.754   1.414   2.263
 3468SOL    HW211304   4.712   1.537   2.165
 3469SOL     OW11305   4.970   0.391   6.422
 3469SOL    HW111306   5.068   0.372   6.433
 3469SOL    HW211307   4.943   0.373   6.327
 3470SOL     OW11308   0.581   2.974   1.828
 3470SOL    HW111309   0.594   2.885   1.872
 3470SOL    HW211310   0.665   3.027   1.835
 3471SOL     OW11311   4.729   4.216   3.703
 3471SOL    HW111312   4.733   4.228   3.802
 3471SOL    HW211313   4.653   4.268   3.665
 3472SOL     OW11314   3.765   1.593   2.397
 3472SOL    HW111315   3.674   1.632   2.415
 3472SOL    HW211316   3.824   1.664   2.358
 3473SOL     OW11317   0.025   3.577   3.704
 3473SOL    HW111318   0.009   3.552   3.799
 3473SOL    HW211319   6.982   3.535   3.646
 3474SOL     OW11320   0.166   4.114   3.755
 3474SOL    HW111321   0.083   4.115   3.699
 3474SOL    HW211322   0.142   4.130   3.851
 3475SOL     OW11323   0.578   5.046   3.834
 3475SOL    HW111324   0.523   5.032   3.916
 3475SOL    HW211325   0.552   4.979   3.764
 3476SOL     OW11326   1.863   1.389   3.435
 3476SOL    HW111327   1.781   1.358   3.388
 3476SOL    HW211328   1.859   1.362   3.531
 3477SOL     OW11329   0.808   3.600   0.350
 3477SOL    HW111330   0.772   3.679   0.301
 3477SOL    HW211331   0.883   3.560   0.298
 3478SOL     OW11332   2.179   0.053   6.626
 3478SOL    HW111333   2.249   0.123   6.618
 3478SOL    HW211334   2.094   0.094   6.660
 3479SOL     OW11335   0.660   1.773   3.914
 3479SOL    HW111336   0.567   1.743   3.891
 3479SOL    HW211337   0.687   1.847   3.852
 3480SOL     OW11338   0.760   6.077   6.692
 3480SOL    HW111339   0.665   6.086   6.722
 3480SOL    HW211340   0.772   5.992   6.642
 3481SOL     OW11341   5.528   0.989   0.819
 3481SOL    HW111342   5.444   0.939   0.798
 3481SOL    HW211343   5.607   0.932   0.797
 3482SOL     OW11344   6.135   1.837   3.108
 3482SOL    HW111345   6.040   1.811   3.120
 3482SOL    HW211346   6.181   1.840   3.196
 3483SOL     OW11347   5.390   2.315   3.342
 3483SOL    HW111348   5.478   2.315   3.389
 3483SOL    HW211349   5.391   2.384   3.269
 3484SOL     OW11350   1.473   3.438   6.707
 3484SOL    HW111351   1.539   3.503   6.744
 3484SOL    HW211352   1.477   3.353   6.760
 3485SOL     OW11353   0.492   2.409   5.111
 3485SOL    HW111354   0.577   2.421   5.058
 3485SOL    HW211355   0.426   2.358   5.056
 3486SOL     OW11356   2.126   0.298   3.991
 3486SOL    HW111357   2.097   0.213   3.946
 3486SOL    HW211358   2.053   0.329   4.052
 3487SOL     OW11359   6.683   2.283   6.958
 3487SOL    HW111360   6.671   2.184   6.972
 3487SOL    HW211361   6.645   2.332   0.010
 3488SOL     OW11362   5.676   0.717   4.582
 3488SOL    HW111363   5.678   0.749   4.677
 3488SOL    HW211364   5.582   0.716   4.549
 3489SOL     OW11365   3.350   6.934   1.124
 3489SOL    HW111366   3.274   6.999   1.116
 3489SOL    HW211367   3.358   6.903   1.219
 3490SOL     OW11368   3.673   5.033   1.516
 3490SOL    HW111369   3.699   4.950   1.565
 3490SOL    HW211370   3.703   5.027   1.421
 3491SOL     OW11371   4.373   3.822   6.037
 3491SOL    HW111372   4.374   3.874   6.123
 3491SOL    HW211373   4.404   3.728   6.054
 3492SOL     OW11374   6.514   4.437   1.291
 3492SOL    HW111375   6.449   4.364   1.268
 3492SOL    HW211376   6.605   4.412   1.260
 3493SOL     OW11377   6.714   3.992   3.758
 3493SOL    HW111378   6.799   3.980   3.809
 3493SOL    HW211379   6.705   3.919   3.690
 3494SOL     OW11380   2.943   1.318   1.829
 3494SOL    HW111381   2.844   1.331   1.843
 3494SOL    HW211382   2.993   1.373   1.895
 3495SOL     OW11383   0.684   3.759   2.411
 3495SOL    HW111384   0.784   3.759   2.411
 3495SOL    HW211385   0.651   3.665   2.399
 3496SOL     OW11386   5.571   5.039   0.990
 3496SOL    HW111387   5.478   5.008   1.009
 3496SOL    HW211388   5.627   4.962   0.960
 3497SOL     OW11389   3.389   1.034   3.856
 3497SOL    HW111390   3.293   1.007   3.844
 3497SOL    HW211391   3.446   0.952   3.862
 3498SOL     OW11392   2.999   1.356   2.166
 3498SOL    HW111393   2.903   1.383   2.172
 3498SOL    HW211394   3.045   1.413   2.099
 3499SOL     OW11395   6.709   5.285   4.567
 3499SOL    HW111396   6.645   5.211   4.584
 3499SOL    HW211397   6.723   5.338   4.651
 3500SOL     OW11398   2.223   2.968   4.179
 3500SOL    HW111399   2.136   2.923   4.161
 3500SOL    HW211400   2.297   2.901   4.177
 3501SOL     OW11401   2.549   6.943   6.031
 3501SOL    HW111402   2.622   6.949   6.099
 3501SOL    HW211403   2.525   6.847   6.016
 3502SOL     OW11404   6.168   3.184   1.386
 3502SOL    HW111405   6.076   3.205   1.418
 3502SOL    HW211406   6.232   3.253   1.422
 3503SOL     OW11407   6.991   6.135   5.667
 3503SOL    HW111408   0.049   6.118   5.616
 3503SOL    HW211409   6.920   6.071   5.637
 3504SOL     OW11410   1.909   0.988   2.163
 3504SOL    HW111411   1.901   0.927   2.242
 3504SOL    HW211412   1.987   1.050   2.176
 3505SOL     OW11413   5.664   5.601   5.400
 3505SOL    HW111414   5.691   5.664   5.326
 3505SOL    HW211415   5.630   5.654   5.477
 3506SOL     OW11416   5.783   4.535   4.740
 3506SOL    HW111417   5.781   4.445   4.696
 3506SOL    HW211418   5.834   4.599   4.682
 3507SOL     OW11419   2.421   6.919   0.178
 3507SOL    HW111420   2.454   6.937   0.085
 3507SOL    HW211421   2.322   6.929   0.181
 3508SOL     OW11422   2.764   2.434   6.255
 3508SOL    HW111423   2.858   2.461   6.234
 3508SOL    HW211424   2.760   2.397   6.348
 3509SOL     OW11425   5.238   6.389   0.216
 3509SOL    HW111426   5.149   6.427   0.192
 3509SOL    HW211427   5.309   6.432   0.159
 3510SOL     OW11428   1.698   0.618   1.167
 3510SOL    HW111429   1.633   0.574   1.230
 3510SOL    HW211430   1.755   0.682   1.218
 3511SOL     OW11431   1.684   4.437   1.549
 3511SOL    HW111432   1.596   4.451   1.503
 3511SOL    HW211433   1.759   4.454   1.485
 3512SOL     OW11434   0.967   3.577   0.753
 3512SOL    HW111435   1.032   3.504   0.777
 3512SOL    HW211436   1.018   3.657   0.721
 3513SOL     OW11437   6.013   1.698   1.375
 3513SOL    HW111438   5.991   1.637   1.299
 3513SOL    HW211439   5.954   1.779   1.371
 3514SOL     OW11440   5.764   0.362   2.266
 3514SOL    HW111441   5.830   0.335   2.195
 3514SOL    HW211442   5.674   0.373   2.225
 3515SOL     OW11443   5.196   5.985   3.849
 3515SOL    HW111444   5.105   5.953   3.873
 3515SOL    HW211445   5.195   6.028   3.759
 3516SOL     OW11446   5.258   6.260   1.082
 3516SOL    HW111447   5.251   6.161   1.095
 3516SOL    HW211448   5.249   6.306   1.170
 3517SOL     OW11449   0.163   1.793   1.637
 3517SOL    HW111450   0.106   1.860   1.686
 3517SOL    HW211451   0.140   1.701   1.669
 3518SOL     OW11452   5.191   1.891   5.064
 3518SOL    HW111453   5.261   1.826   5.093
 3518SOL    HW211454   5.187   1.895   4.964
 3519SOL     OW11455   2.196   1.072   5.899
 3519SOL    HW111456   2.157   0.985   5.929
 3519SOL    HW211457   2.135   1.146   5.927
 3520SOL     OW11458   2.945   0.091   0.031
 3520SOL    HW111459   2.884   0.151   0.083
 3520SOL    HW211460   3.021   0.145   7.022
 3521SOL     OW11461   3.931   2.837   6.622
 3521SOL    HW111462   3.852   2.785   6.656
 3521SOL    HW211463   3.983   2.872   6.699
 3522SOL     OW11464   6.315   5.061   6.844
 3522SOL    HW111465   6.413   5.043   6.849
 3522SOL    HW211466   6.291   5.093   6.753
 3523SOL     OW11467   1.495   4.519   5.152
 3523SOL    HW111468   1.517   4.528   5.055
 3523SOL    HW211469   1.533   4.434   5.188
 3524SOL     OW11470   4.973   1.832   2.148
 3524SOL    HW111471   5.021   1.865   2.066
 3524SOL    HW211472   4.940   1.911   2.200
 3525SOL     OW11473   6.241   3.216   4.512
 3525SOL    HW111474   6.151   3.243   4.479
 3525SOL    HW211475   6.298   3.297   4.526
 3526SOL     OW11476   1.979   6.944   3.532
 3526SOL    HW111477   2.049   7.013   3.553
 3526SOL    HW211478   1.921   6.930   3.612
 3527SOL     OW11479   5.849   3.248   5.837
 3527SOL    HW111480   5.867   3.345   5.852
 3527SOL    HW211481   5.763   3.222   5.881
 3528SOL     OW11482   2.303   6.228   5.110
 3528SOL    HW111483   2.209   6.264   5.106
 3528SOL    HW211484   2.321   6.175   5.027
 3529SOL     OW11485   4.164   6.825   0.672
 3529SOL    HW111486   4.096   6.862   0.735
 3529SOL    HW211487   4.240   6.786   0.723
 3530SOL     OW11488   6.959   4.954   1.803
 3530SOL    HW111489   6.920   4.862   1.814
 3530SOL    HW211490   6.887   5.022   1.813
 3531SOL     OW11491   5.667   2.462   0.828
 3531SOL    HW111492   5.631   2.523   0.898
 3531SOL    HW211493   5.766   2.453   0.839
 3532SOL     OW11494   2.470   1.007   1.542
 3532SOL    HW111495   2.553   1.047   1.502
 3532SOL    HW211496   2.418   1.079   1.588
 3533SOL     OW11497   0.714   1.345   2.435
 3533SOL    HW111498   0.746   1.383   2.522
 3533SOL    HW211499   0.698   1.419   2.370
 3534SOL     OW11500   0.842   2.251   1.797
 3534SOL    HW111501   0.851   2.228   1.894
 3534SOL    HW211502   0.760   2.306   1.783
 3535SOL     OW11503   2.083   5.506   5.962
 3535SOL    HW111504   2.065   5.563   6.042
 3535SOL    HW211505   2.095   5.564   5.881
 3536SOL     OW11506   3.179   2.172   3.540
 3536SOL    HW111507   3.225   2.135   3.621
 3536SOL    HW211508   3.215   2.128   3.458
 3537SOL     OW11509   2.100   5.638   2.402
 3537SOL    HW111510   2.023   5.670   2.346
 3537SOL    HW211511   2.100   5.538   2.405
 3538SOL     OW11512   2.316   5.722   5.500
 3538SOL    HW111513   2.409   5.709   5.465
 3538SOL    HW211514   2.255   5.744   5.424
 3539SOL     OW11515   3.182   3.287   4.562
 3539SOL    HW111516   3.225   3.227   4.495
 3539SOL    HW211517   3.090   3.311   4.531
 3540SOL     OW11518   2.026   2.230   4.629
 3540SOL    HW111519   2.027   2.224   4.529
 3540SOL    HW211520   2.108   2.187   4.666
 3541SOL     OW11521   2.650   2.420   5.816
 3541SOL    HW111522   2.696   2.469   5.890
 3541SOL    HW211523   2.622   2.485   5.745
 3542SOL     OW11524   1.463   4.978   2.796
 3542SOL    HW111525   1.478   5.075   2.816
 3542SOL    HW211526   1.544   4.926   2.823
 3543SOL     OW11527   6.184   2.718   3.678
 3543SOL    HW111528   6.172   2.619   3.684
 3543SOL    HW211529   6.095   2.762   3.661
 3544SOL     OW11530   2.035   4.355   6.250
 3544SOL    HW111531   2.093   4.276   6.233
 3544SOL    HW211532   2.058   4.428   6.185
 3545SOL     OW11533   3.764   6.320   6.702
 3545SOL    HW111534   3.667   6.333   6.678
 3545SOL    HW211535   3.790   6.385   6.773
 3546SOL     OW11536   0.481   4.373   3.148
 3546SOL    HW111537   0.506   4.430   3.227
 3546SOL    HW211538   0.382   4.378   3.134
 3547SOL     OW11539   4.593   4.505   4.213
 3547SOL    HW111540   4.562   4.455   4.132
 3547SOL    HW211541   4.514   4.549   4.257
 3548SOL     OW11542   5.501   1.623   5.889
 3548SOL    HW111543   5.563   1.682   5.838
 3548SOL    HW211544   5.554   1.563   5.949
 3549SOL     OW11545   6.767   4.846   4.657
 3549SOL    HW111546   6.800   4.889   4.573
 3549SOL    HW211547   6.838   4.854   4.728
 3550SOL     OW11548   4.902   2.812   2.634
 3550SOL    HW111549   4.844   2.788   2.556
 3550SOL    HW211550   4.998   2.795   2.611
 3551SOL     OW11551   3.660   6.021   2.938
 3551SOL    HW111552   3.665   5.942   2.999
 3551SOL    HW211553   3.565   6.050   2.928
 3552SOL     OW11554   4.650   6.177   2.401
 3552SOL    HW111555   4.621   6.087   2.369
 3552SOL    HW211556   4.750   6.180   2.410
 3553SOL     OW11557   5.908   3.300   1.044
 3553SOL    HW111558   6.002   3.298   1.010
 3553SOL    HW211559   5.894   3.384   1.098
 3554SOL     OW11560   3.613   3.328   0.909
 3554SOL    HW111561   3.541   3.319   0.841
 3554SOL    HW211562   3.573   3.342   0.999
 3555SOL     OW11563   0.997   3.292   2.907
 3555SOL    HW111564   0.919   3.330   2.959
 3555SOL    HW211565   1.080   3.299   2.962
 3556SOL     OW11566   3.720   0.689   5.137
 3556SOL    HW111567   3.691   0.688   5.233
 3556SOL    HW211568   3.643   0.710   5.078
 3557SOL     OW11569   0.679   0.447   3.943
 3557SOL    HW111570   0.645   0.517   4.005
 3557SOL    HW211571   0.756   0.399   3.985
 3558SOL     OW11572   0.253   6.164   1.669
 3558SOL    HW111573   0.212   6.150   1.759
 3558SOL    HW211574   0.256   6.077   1.620
 3559SOL     OW11575   0.588   0.053   4.395
 3559SOL    HW111576   0.544   6.993   4.370
 3559SOL    HW211577   0.560   0.125   4.330
 3560SOL     OW11578   2.014   5.719   1.365
 3560SOL    HW111579   2.012   5.747   1.269
 3560SOL    HW211580   1.921   5.721   1.402
 3561SOL     OW11581   4.858   5.275   5.799
 3561SOL    HW111582   4.862   5.317   5.708
 3561SOL    HW211583   4.870   5.177   5.791
 3562SOL     OW11584   4.669   0.934   4.287
 3562SOL    HW111585   4.669   1.019   4.339
 3562SOL    HW211586   4.728   0.867   4.332
 3563SOL     OW11587   5.320   0.987   2.005
 3563SOL    HW111588   5.337   1.044   1.925
 3563SOL    HW211589   5.336   1.040   2.088
 3564SOL     OW11590   1.690   4.339   3.898
 3564SOL    HW111591   1.771   4.381   3.856
 3564SOL    HW211592   1.611   4.350   3.838
 3565SOL     OW11593   3.527   6.545   4.896
 3565SOL    HW111594   3.620   6.578   4.880
 3565SOL    HW211595   3.508   6.468   4.836
 3566SOL     OW11596   7.015   3.042   5.963
 3566SOL    HW111597   0.009   3.033   5.866
 3566SOL    HW211598   6.936   3.103   5.975
 3567SOL     OW11599   1.735   2.414   0.301
 3567SOL    HW111600   1.694   2.355   0.371
 3567SOL    HW211601   1.815   2.369   0.262
 3568SOL     OW11602   5.359   4.964   2.845
 3568SOL    HW111603   5.343   4.956   2.746
 3568SOL    HW211604   5.450   4.929   2.867
 3569SOL     OW11605   2.985   2.970   5.261
 3569SOL    HW111606   2.890   2.955   5.287
 3569SOL    HW211607   3.037   2.886   5.272
 3570SOL     OW11608   5.291   0.506   5.464
 3570SOL    HW111609   5.320   0.600   5.443
 3570SOL    HW211610   5.335   0.475   5.548
 3571SOL     OW11611   1.591   0.552   4.894
 3571SOL    HW111612   1.662   0.622   4.883
 3571SOL    HW211613   1.517   0.569   4.829
 3572SOL     OW11614   5.317   3.749   2.253
 3572SOL    HW111615   5.254   3.714   2.183
 3572SOL    HW211616   5.265   3.774   2.335
 3573SOL     OW11617   7.004   4.503   2.401
 3573SOL    HW111618   6.924   4.506   2.342
 3573SOL    HW211619   7.026   4.408   2.424
 3574SOL     OW11620   2.181   3.496   6.680
 3574SOL    HW111621   2.191   3.532   6.587
 3574SOL    HW211622   2.106   3.430   6.683
 3575SOL     OW11623   5.026   5.676   1.031
 3575SOL    HW111624   4.951   5.640   0.975
 3575SOL    HW211625   4.993   5.752   1.086
 3576SOL     OW11626   0.200   2.652   0.379
 3576SOL    HW111627   0.289   2.669   0.337
 3576SOL    HW211628   0.185   2.554   0.387
 3577SOL     OW11629   2.280   3.242   5.343
 3577SOL    HW111630   2.310   3.147   5.353
 3577SOL    HW211631   2.280   3.267   5.246
 3578SOL     OW11632   3.937   3.025   1.111
 3578SOL    HW111633   3.933   3.112   1.159
 3578SOL    HW211634   4.021   2.977   1.136
 3579SOL     OW11635   0.234   3.158   2.945
 3579SOL    HW111636   0.226   3.058   2.948
 3579SOL    HW211637   0.163   3.195   2.885
 3580SOL     OW11638   6.990   4.014   1.299
 3580SOL    HW111639   6.991   3.989   1.396
 3580SOL    HW211640   6.897   4.039   1.273
 3581SOL     OW11641   1.063   6.520   3.276
 3581SOL    HW111642   1.137   6.586   3.290
 3581SOL    HW211643   1.075   6.473   3.189
 3582SOL     OW11644   3.521   5.071   5.748
 3582SOL    HW111645   3.559   5.012   5.677
 3582SOL    HW211646   3.521   5.023   5.835
 3583SOL     OW11647   0.562   4.367   0.616
 3583SOL    HW111648   0.482   4.357   0.676
 3583SOL    HW211649   0.638   4.406   0.669
 3584SOL     OW11650   6.129   4.943   5.432
 3584SOL    HW111651   6.138   5.039   5.456
 3584SOL    HW211652   6.095   4.891   5.510
 3585SOL     OW11653   3.246   1.847   5.069
 3585SOL    HW111654   3.174   1.911   5.096
 3585SOL    HW211655   3.335   1.892   5.078
 3586SOL     OW11656   6.129   2.928   4.085
 3586SOL    HW111657   6.067   3.003   4.106
 3586SOL    HW211658   6.161   2.886   4.171
 3587SOL     OW11659   3.369   5.941   6.817
 3587SOL    HW111660   3.430   5.863   6.828
 3587SOL    HW211661   3.424   6.024   6.806
 3588SOL     OW11662   6.518   4.635   4.124
 3588SOL    HW111663   6.453   4.566   4.157
 3588SOL    HW211664   6.496   4.659   4.030
 3589SOL     OW11665   6.898   0.020   5.994
 3589SOL    HW111666   6.858   0.006   5.904
 3589SOL    HW211667   6.951   0.105   5.995
 3590SOL     OW11668   0.179   4.015   0.460
 3590SOL    HW111669   0.223   3.972   0.539
 3590SOL    HW211670   0.249   4.053   0.400
 3591SOL     OW11671   5.692   2.825   0.130
 3591SOL    HW111672   5.680   2.773   0.215
 3591SOL    HW211673   5.785   2.812   0.096
 3592SOL     OW11674   0.871   0.657   2.477
 3592SOL    HW111675   0.906   0.656   2.571
 3592SOL    HW211676   0.842   0.750   2.453
 3593SOL     OW11677   0.464   4.656   5.967
 3593SOL    HW111678   0.557   4.650   5.931
 3593SOL    HW211679   0.434   4.752   5.965
 3594SOL     OW11680   4.313   6.054   5.435
 3594SOL    HW111681   4.290   6.151   5.421
 3594SOL    HW211682   4.345   6.015   5.349
 3595SOL     OW11683   6.313   6.204   0.068
 3595SOL    HW111684   6.259   6.283   0.099
 3595SOL    HW211685   6.254   6.143   0.015
 3596SOL     OW11686   4.701   1.776   3.040
 3596SOL    HW111687   4.648   1.860   3.054
 3596SOL    HW211688   4.764   1.763   3.118
 3597SOL     OW11689   2.020   3.362   5.746
 3597SOL    HW111690   2.059   3.363   5.655
 3597SOL    HW211691   1.944   3.297   5.749
 3598SOL     OW11692   1.457   6.590   5.704
 3598SOL    HW111693   1.537   6.595   5.765
 3598SOL    HW211694   1.432   6.494   5.691
 3599SOL     OW11695   4.737   1.803   6.048
 3599SOL    HW111696   4.723   1.707   6.070
 3599SOL    HW211697   4.649   1.851   6.051
 3600SOL     OW11698   2.063   3.231   0.912
 3600SOL    HW111699   2.136   3.287   0.950
 3600SOL    HW211700   2.064   3.237   0.812
 3601SOL     OW11701   5.226   1.552   5.407
 3601SOL    HW111702   5.215   1.548   5.506
 3601SOL    HW211703   5.149   1.601   5.367
 3602SOL     OW11704   2.107   2.575   1.496
 3602SOL    HW111705   2.010   2.579   1.475
 3602SOL    HW211706   2.120   2.536   1.587
 3603SOL     OW11707   3.368   0.906   6.324
 3603SOL    HW111708   3.397   0.824   6.275
 3603SOL    HW211709   3.378   0.986   6.265
 3604SOL     OW11710   6.786   0.678   3.417
 3604SOL    HW111711   6.857   0.746   3.437
 3604SOL    HW211712   6.773   0.619   3.497
 3605SOL     OW11713   1.507   5.092   3.960
 3605SOL    HW111714   1.442   5.025   3.995
 3605SOL    HW211715   1.600   5.055   3.966
 3606SOL     OW11716   1.712   6.539   1.277
 3606SOL    HW111717   1.694   6.441   1.287
 3606SOL    HW211718   1.748   6.575   1.363
 3607SOL     OW11719   5.485   2.800   2.551
 3607SOL    HW111720   5.581   2.817   2.575
 3607SOL    HW211721   5.480   2.759   2.460
 3608SOL     OW11722   4.984   1.952   4.139
 3608SOL    HW111723   4.962   1.917   4.230
 3608SOL    HW211724   4.918   1.915   4.073
 3609SOL     OW11725   2.178   6.311   4.219
 3609SOL    HW111726   2.227   6.398   4.211
 3609SOL    HW211727   2.239   6.236   4.195
 3610SOL     OW11728   1.917   0.570   5.366
 3610SOL    HW111729   1.861   0.513   5.305
 3610SOL    HW211730   1.932   0.521   5.452
 3611SOL     OW11731   4.914   4.442   4.557
 3611SOL    HW111732   4.962   4.515   4.509
 3611SOL    HW211733   4.845   4.402   4.496
 3612SOL     OW11734   6.438   1.412   6.602
 3612SOL    HW111735   6.381   1.468   6.542
 3612SOL    HW211736   6.527   1.397   6.558
 3613SOL     OW11737   4.420   5.226   1.525
 3613SOL    HW111738   4.394   5.134   1.496
 3613SOL    HW211739   4.349   5.265   1.583
 3614SOL     OW11740   3.442   3.838   0.095
 3614SOL    HW111741   3.516   3.786   0.138
 3614SOL    HW211742   3.459   3.844   7.023
 3615SOL     OW11743   5.792   3.122   5.599
 3615SOL    HW111744   5.697   3.140   5.575
 3615SOL    HW211745   5.820   3.184   5.672
 3616SOL     OW11746   2.117   2.359   6.229
 3616SOL    HW111747   2.021   2.331   6.226
 3616SOL    HW211748   2.128   2.432   6.297
 3617SOL     OW11749   4.425   6.455   5.689
 3617SOL    HW111750   4.433   6.356   5.674
 3617SOL    HW211751   4.333   6.476   5.724
 3618SOL     OW11752   2.131   3.609   5.037
 3618SOL    HW111753   2.042   3.654   5.031
 3618SOL    HW211754   2.194   3.667   5.090
 3619SOL     OW11755   5.747   3.344   0.298
 3619SOL    HW111756   5.757   3.246   0.283
 3619SOL    HW211757   5.683   3.360   0.374
 3620SOL     OW11758   6.172   6.180   4.497
 3620SOL    HW111759   6.105   6.253   4.506
 3620SOL    HW211760   6.157   6.112   4.570
 3621SOL     OW11761   3.524   3.216   3.901
 3621SOL    HW111762   3.474   3.222   3.814
 3621SOL    HW211763   3.494   3.136   3.952
 3622SOL     OW11764   0.806   0.838   1.345
 3622SOL    HW111765   0.875   0.907   1.365
 3622SOL    HW211766   0.786   0.786   1.428
 3623SOL     OW11767   0.493   5.509   6.377
 3623SOL    HW111768   0.437   5.514   6.461
 3623SOL    HW211769   0.472   5.424   6.329
 3624SOL     OW11770   2.308   0.601   1.322
 3624SOL    HW111771   2.379   0.638   1.382
 3624SOL    HW211772   2.350   0.563   1.240
 3625SOL     OW11773   6.575   2.998   6.876
 3625SOL    HW111774   6.575   3.028   6.781
 3625SOL    HW211775   6.665   2.960   6.899
 3626SOL     OW11776   0.055   3.880   4.270
 3626SOL    HW111777   0.092   3.819   4.340
 3626SOL    HW211778   0.116   3.880   4.191
 3627SOL     OW11779   4.505   2.977   1.321
 3627SOL    HW111780   4.513   2.884   1.357
 3627SOL    HW211781   4.408   2.999   1.308
 3628SOL     OW11782   1.217   1.979   1.845
 3628SOL    HW111783   1.247   2.074   1.834
 3628SOL    HW211784   1.258   1.922   1.774
 3629SOL     OW11785   0.999   1.107   3.492
 3629SOL    HW111786   0.963   1.021   3.527
 3629SOL    HW211787   1.062   1.147   3.558
 3630SOL     OW11788   6.708   2.532   2.661
 3630SOL    HW111789   6.688   2.593   2.737
 3630SOL    HW211790   6.636   2.463   2.653
 3631SOL     OW11791   1.924   6.858   3.249
 3631SOL    HW111792   1.973   6.905   3.323
 3631SOL    HW211793   1.826   6.877   3.257
 3632SOL     OW11794   4.312   3.550   0.861
 3632SOL    HW111795   4.265   3.468   0.896
 3632SOL    HW211796   4.247   3.626   0.857
 3633SOL     OW11797   3.278   2.652   5.749
 3633SOL    HW111798   3.220   2.712   5.694
 3633SOL    HW211799   3.374   2.677   5.736
 3634SOL     OW11800   2.677   5.987   5.691
 3634SOL    HW111801   2.723   6.074   5.674
 3634SOL    HW211802   2.729   5.913   5.649
 3635SOL     OW11803   2.896   1.200   1.558
 3635SOL    HW111804   2.905   1.223   1.655
 3635SOL    HW211805   2.956   1.123   1.537
 3636SOL     OW11806   6.762   5.379   0.788
 3636SOL    HW111807   6.772   5.435   0.870
 3636SOL    HW211808   6.853   5.353   0.755
 3637SOL     OW11809   0.908   3.163   6.504
 3637SOL    HW111810   0.858   3.249   6.495
 3637SOL    HW211811   0.844   3.090   6.528
 3638SOL     OW11812   6.457   3.964   2.666
 3638SOL    HW111813   6.512   3.884   2.644
 3638SOL    HW211814   6.404   3.991   2.585
 3639SOL     OW11815   3.774   4.156   5.030
 3639SOL    HW111816   3.830   4.155   5.112
 3639SOL    HW211817   3.831   4.141   4.950
 3640SOL     OW11818   5.456   2.968   0.123
 3640SOL    HW111819   5.474   3.020   0.207
 3640SOL    HW211820   5.535   2.912   0.101
 3641SOL     OW11821   6.216   4.052   0.847
 3641SOL    HW111822   6.244   3.998   0.768
 3641SOL    HW211823   6.266   4.139   0.847
 3642SOL     OW11824   6.021   2.188   6.372
 3642SOL    HW111825   5.924   2.194   6.348
 3642SOL    HW211826   6.062   2.279   6.372
 3643SOL     OW11827   4.528   6.157   6.400
 3643SOL    HW111828   4.594   6.082   6.413
 3643SOL    HW211829   4.566   6.242   6.437
 3644SOL     OW11830   2.483   0.743   1.948
 3644SOL    HW111831   2.399   0.720   1.899
 3644SOL    HW211832   2.543   0.796   1.888
 3645SOL     OW11833   1.509   3.992   4.259
 3645SOL    HW111834   1.547   3.977   4.351
 3645SOL    HW211835   1.475   4.086   4.252
 3646SOL     OW11836   3.009   4.885   4.831
 3646SOL    HW111837   2.952   4.808   4.858
 3646SOL    HW211838   3.043   4.932   4.912
 3647SOL     OW11839   1.927   6.644   0.225
 3647SOL    HW111840   1.853   6.702   0.191
 3647SOL    HW211841   2.013   6.672   0.184
 3648SOL     OW11842   5.047   5.680   3.228
 3648SOL    HW111843   5.033   5.582   3.242
 3648SOL    HW211844   4.997   5.732   3.297
 3649SOL     OW11845   5.784   3.166   6.608
 3649SOL    HW111846   5.736   3.252   6.593
 3649SOL    HW211847   5.720   3.089   6.597
 3650SOL     OW11848   4.613   4.462   1.175
 3650SOL    HW111849   4.582   4.430   1.085
 3650SOL    HW211850   4.688   4.404   1.207
 3651SOL     OW11851   1.488   2.693   5.455
 3651SOL    HW111852   1.413   2.673   5.392
 3651SOL    HW211853   1.572   2.648   5.423
 3652SOL     OW11854   5.309   0.747   2.379
 3652SOL    HW111855   5.265   0.670   2.332
 3652SOL    HW211856   5.239   0.811   2.411
 3653SOL     OW11857   1.353   1.386   2.343
 3653SOL    HW111858   1.341   1.467   2.285
 3653SOL    HW211859   1.364   1.305   2.285
 3654SOL     OW11860   5.103   6.363   0.902
 3654SOL    HW111861   5.166   6.325   0.970
 3654SOL    HW211862   5.038   6.424   0.948
 3655SOL     OW11863   2.914   1.263   4.285
 3655SOL    HW111864   2.917   1.163   4.275
 3655SOL    HW211865   3.007   1.297   4.296
 3656SOL     OW11866   0.984   5.622   2.153
 3656SOL    HW111867   1.081   5.614   2.175
 3656SOL    HW211868   0.942   5.531   2.152
 3657SOL     OW11869   5.137   6.255   5.884
 3657SOL    HW111870   5.179   6.288   5.968
 3657SOL    HW211871   5.142   6.325   5.813
 3658SOL     OW11872   1.383   5.298   6.522
 3658SOL    HW111873   1.438   5.350   6.588
 3658SOL    HW211874   1.370   5.205   6.557
 3659SOL     OW11875   0.088   2.011   6.508
 3659SOL    HW111876   0.148   2.083   6.543
 3659SOL    HW211877   0.071   1.944   6.580
 3660SOL     OW11878   5.064   5.641   5.756
 3660SOL    HW111879   4.978   5.608   5.718
 3660SOL    HW211880   5.059   5.740   5.770
 3661SOL     OW11881   6.826   1.446   4.815
 3661SOL    HW111882   6.834   1.485   4.723
 3661SOL    HW211883   6.899   1.483   4.873
 3662SOL     OW11884   3.528   0.822   5.885
 3662SOL    HW111885   3.431   0.824   5.909
 3662SOL    HW211886   3.549   0.901   5.827
 3663SOL     OW11887   2.514   3.397   6.968
 3663SOL    HW111888   2.442   3.332   6.992
 3663SOL    HW211889   2.524   3.401   6.868
 3664SOL     OW11890   4.298   1.525   1.895
 3664SOL    HW111891   4.327   1.616   1.867
 3664SOL    HW211892   4.378   1.465   1.903
 3665SOL     OW11893   0.449   6.539   5.466
 3665SOL    HW111894   0.448   6.622   5.520
 3665SOL    HW211895   0.355   6.516   5.439
 3666SOL     OW11896   1.624   2.784   3.944
 3666SOL    HW111897   1.677   2.705   3.914
 3666SOL    HW211898   1.676   2.868   3.929
 3667SOL     OW11899   1.428   1.390   2.720
 3667SOL    HW111900   1.454   1.444   2.640
 3667SOL    HW211901   1.388   1.450   2.790
 3668SOL     OW11902   1.272   0.095   1.603
 3668SOL    HW111903   1.216   0.023   1.562
 3668SOL    HW211904   1.349   0.116   1.543
 3669SOL     OW11905   6.315   2.510   3.938
 3669SOL    HW111906   6.357   2.569   4.007
 3669SOL    HW211907   6.360   2.524   3.850
 3670SOL     OW11908   3.442   5.202   1.175
 3670SOL    HW111909   3.482   5.291   1.198
 3670SOL    HW211910   3.342   5.209   1.179
 3671SOL     OW11911   6.784   0.302   3.492
 3671SOL    HW111912   6.870   0.315   3.443
 3671SOL    HW211913   6.803   0.280   3.588
 3672SOL     OW11914   4.843   0.977   2.746
 3672SOL    HW111915   4.797   0.891   2.722
 3672SOL    HW211916   4.910   0.961   2.818
 3673SOL     OW11917   5.058   5.495   0.491
 3673SOL    HW111918   5.136   5.530   0.440
 3673SOL    HW211919   4.973   5.520   0.444
 3674SOL     OW11920   1.652   5.981   5.645
 3674SOL    HW111921   1.684   5.891   5.615
 3674SOL    HW211922   1.690   6.052   5.585
 3675SOL     OW11923   0.079   1.728   3.896
 3675SOL    HW111924   0.067   1.634   3.866
 3675SOL    HW211925   0.065   1.790   3.818
 3676SOL     OW11926   5.186   2.583   2.815
 3676SOL    HW111927   5.189   2.647   2.738
 3676SOL    HW211928   5.145   2.497   2.786
 3677SOL     OW11929   2.427   0.926   4.097
 3677SOL    HW111930   2.441   0.988   4.174
 3677SOL    HW211931   2.466   0.965   4.014
 3678SOL     OW11932   1.550   0.515   3.752
 3678SOL    HW111933   1.466   0.489   3.799
 3678SOL    HW211934   1.628   0.502   3.813
 3679SOL     OW11935   4.804   0.365   2.831
 3679SOL    HW111936   4.858   0.309   2.895
 3679SOL    HW211937   4.715   0.386   2.871
 3680SOL     OW11938   4.958   1.586   3.602
 3680SOL    HW111939   5.023   1.596   3.527
 3680SOL    HW211940   5.006   1.557   3.685
 3681SOL     OW11941   1.188   0.476   4.764
 3681SOL    HW111942   1.267   0.520   4.723
 3681SOL    HW211943   1.174   0.387   4.721
 3682SOL     OW11944   5.416   2.348   0.775
 3682SOL    HW111945   5.506   2.385   0.798
 3682SOL    HW211946   5.354   2.360   0.853
 3683SOL     OW11947   0.120   0.834   4.839
 3683SOL    HW111948   0.193   0.770   4.862
 3683SOL    HW211949   0.032   0.787   4.841
 3684SOL     OW11950   1.743   6.728   5.564
 3684SOL    HW111951   1.788   6.712   5.476
 3684SOL    HW211952   1.806   6.776   5.626
 3685SOL     OW11953   2.242   6.018   5.511
 3685SOL    HW111954   2.172   5.964   5.464
 3685SOL    HW211955   2.332   5.984   5.487
 3686SOL     OW11956   6.610   3.838   3.243
 3686SOL    HW111957   6.556   3.754   3.251
 3686SOL    HW211958   6.573   3.895   3.170
 3687SOL     OW11959   4.537   5.891   3.513
 3687SOL    HW111960   4.474   5.948   3.461
 3687SOL    HW211961   4.631   5.913   3.486
 3688SOL     OW11962   5.914   3.151   0.049
 3688SOL    HW111963   5.859   3.113   0.123
 3688SOL    HW211964   5.892   3.248   0.038
 3689SOL     OW11965   1.946   1.165   5.388
 3689SOL    HW111966   1.937   1.190   5.292
 3689SOL    HW211967   1.855   1.143   5.425
 3690SOL     OW11968   5.295   4.889   1.198
 3690SOL    HW111969   5.316   4.941   1.280
 3690SOL    HW211970   5.350   4.805   1.197
 3691SOL     OW11971   3.062   1.834   6.869
 3691SOL    HW111972   3.109   1.775   6.803
 3691SOL    HW211973   2.985   1.785   6.909
 3692SOL     OW11974   0.363   3.814   5.949
 3692SOL    HW111975   0.274   3.776   5.975
 3692SOL    HW211976   0.423   3.818   6.029
 3693SOL     OW11977   0.935   2.007   2.914
 3693SOL    HW111978   0.977   2.022   3.003
 3693SOL    HW211979   0.978   2.067   2.847
 3694SOL     OW11980   0.808   0.720   2.135
 3694SOL    HW111981   0.858   0.732   2.221
 3694SOL    HW211982   0.727   0.663   2.152
 3695SOL     OW11983   6.510   2.313   2.695
 3695SOL    HW111984   6.413   2.315   2.674
 3695SOL    HW211985   6.554   2.239   2.643
 3696SOL     OW11986   4.812   0.793   5.032
 3696SOL    HW111987   4.807   0.732   4.953
 3696SOL    HW211988   4.902   0.836   5.036
 3697SOL     OW11989   6.191   6.065   3.514
 3697SOL    HW111990   6.263   6.047   3.582
 3697SOL    HW211991   6.105   6.084   3.562
 3698SOL     OW11992   1.849   0.110   3.315
 3698SOL    HW111993   1.942   0.145   3.324
 3698SOL    HW211994   1.829   0.047   3.391
 3699SOL     OW11995   2.690   2.090   4.115
 3699SOL    HW111996   2.606   2.087   4.168
 3699SOL    HW211997   2.744   2.170   4.142
 3700SOL     OW11998   1.438   5.263   4.572
 3700SOL    HW111999   1.519   5.228   4.524
 3700SOL    HW212000   1.456   5.266   4.670
 3701SOL     OW12001   1.127   6.631   2.983
 3701SOL    HW112002   1.190   6.584   2.922
 3701SOL    HW212003   1.163   6.721   3.007
 3702SOL     OW12004   5.211   4.885   3.687
 3702SOL    HW112005   5.234   4.903   3.783
 3702SOL    HW212006   5.294   4.890   3.632
 3703SOL     OW12007   1.570   1.725   5.771
 3703SOL    HW112008   1.666   1.697   5.766
 3703SOL    HW212009   1.521   1.692   5.691
 3704SOL     OW12010   6.218   2.386   1.013
 3704SOL    HW112011   6.195   2.481   0.992
 3704SOL    HW212012   6.185   2.363   1.104
 3705SOL     OW12013   4.792   4.617   3.891
 3705SOL    HW112014   4.781   4.518   3.883
 3705SOL    HW212015   4.886   4.643   3.869
 3706SOL     OW12016   0.877   3.847   0.507
 3706SOL    HW112017   0.829   3.931   0.482
 3706SOL    HW212018   0.821   3.768   0.483
 3707SOL     OW12019   2.867   5.022   3.925
 3707SOL    HW112020   2.879   4.925   3.947
 3707SOL    HW212021   2.849   5.033   3.828
 3708SOL     OW12022   3.641   6.791   1.243
 3708SOL    HW112023   3.648   6.713   1.182
 3708SOL    HW212024   3.672   6.874   1.196
 3709SOL     OW12025   1.800   0.370   2.357
 3709SOL    HW112026   1.718   0.343   2.407
 3709SOL    HW212027   1.774   0.423   2.277
 3710SOL     OW12028   0.615   5.088   5.444
 3710SOL    HW112029   0.534   5.085   5.384
 3710SOL    HW212030   0.697   5.092   5.387
 3711SOL     OW12031   1.630   6.266   4.878
 3711SOL    HW112032   1.701   6.215   4.926
 3711SOL    HW212033   1.628   6.239   4.782
 3712SOL     OW12034   1.798   5.676   5.198
 3712SOL    HW112035   1.737   5.645   5.126
 3712SOL    HW212036   1.891   5.644   5.180
 3713SOL     OW12037   6.775   6.673   4.946
 3713SOL    HW112038   6.866   6.715   4.950
 3713SOL    HW212039   6.784   6.573   4.951
 3714SOL     OW12040   1.205   4.898   0.485
 3714SOL    HW112041   1.246   4.870   0.572
 3714SOL    HW212042   1.219   4.996   0.471
 3715SOL     OW12043   0.009   5.938   3.295
 3715SOL    HW112044   0.083   5.888   3.250
 3715SOL    HW212045   0.035   6.034   3.307
 3716SOL     OW12046   5.616   5.878   4.168
 3716SOL    HW112047   5.701   5.842   4.129
 3716SOL    HW212048   5.555   5.907   4.093
 3717SOL     OW12049   4.820   1.397   0.893
 3717SOL    HW112050   4.911   1.393   0.936
 3717SOL    HW212051   4.788   1.491   0.890
 3718SOL     OW12052   6.923   6.789   6.431
 3718SOL    HW112053   6.944   6.817   6.337
 3718SOL    HW212054   6.970   6.703   6.451
 3719SOL     OW12055   4.413   3.867   6.799
 3719SOL    HW112056   4.456   3.859   6.889
 3719SOL    HW212057   4.462   3.933   6.744
 3720SOL     OW12058   6.391   3.192   1.064
 3720SOL    HW112059   6.418   3.225   1.154
 3720SOL    HW212060   6.461   3.130   1.029
 3721SOL     OW12061   6.488   4.498   6.576
 3721SOL    HW112062   6.523   4.592   6.569
 3721SOL    HW212063   6.537   4.450   6.650
 3722SOL     OW12064   4.175   0.190   2.430
 3722SOL    HW112065   4.140   0.164   2.340
 3722SOL    HW212066   4.156   0.287   2.445
 3723SOL     OW12067   4.463   5.533   0.211
 3723SOL    HW112068   4.551   5.524   0.165
 3723SOL    HW212069   4.397   5.577   0.150
 3724SOL     OW12070   1.467   5.152   4.834
 3724SOL    HW112071   1.450   5.062   4.793
 3724SOL    HW212072   1.455   5.146   4.933
 3725SOL     OW12073   0.080   6.460   0.347
 3725SOL    HW112074   0.083   6.406   0.430
 3725SOL    HW212075   7.013   6.459   0.309
 3726SOL     OW12076   5.300   3.996   3.636
 3726SOL    HW112077   5.272   3.939   3.713
 3726SOL    HW212078   5.342   3.938   3.566
 3727SOL     OW12079   6.932   2.497   4.097
 3727SOL    HW112080   6.985   2.474   4.179
 3727SOL    HW212081   6.834   2.492   4.119
 3728SOL     OW12082   2.995   3.990   0.153
 3728SOL    HW112083   3.024   3.946   0.238
 3728SOL    HW212084   3.076   4.022   0.103
 3729SOL     OW12085   0.446   0.139   5.275
 3729SOL    HW112086   0.386   0.214   5.246
 3729SOL    HW212087   0.541   0.167   5.265
 3730SOL     OW12088   4.464   6.324   6.011
 3730SOL    HW112089   4.473   6.294   5.916
 3730SOL    HW212090   4.492   6.420   6.018
 3731SOL     OW12091   0.087   1.741   6.658
 3731SOL    HW112092   0.032   1.782   6.731
 3731SOL    HW212093   0.184   1.759   6.676
 3732SOL     OW12094   2.693   2.147   0.060
 3732SOL    HW112095   2.667   2.241   0.039
 3732SOL    HW212096   2.792   2.141   0.073
 3733SOL     OW12097   1.913   2.851   3.610
 3733SOL    HW112098   1.906   2.760   3.570
 3733SOL    HW212099   1.994   2.855   3.669
 3734SOL     OW12100   4.141   6.963   1.618
 3734SOL    HW112101   4.091   7.005   1.693
 3734SOL    HW212102   4.131   6.864   1.622
 3735SOL     OW12103   4.292   6.868   2.412
 3735SOL    HW112104   4.246   6.939   2.466
 3735SOL    HW212105   4.387   6.858   2.444
 3736SOL     OW12106   6.612   1.282   1.382
 3736SOL    HW112107   6.704   1.278   1.420
 3736SOL    HW212108   6.556   1.211   1.425
 3737SOL     OW12109   0.184   2.329   3.443
 3737SOL    HW112110   0.127   2.375   3.375
 3737SOL    HW212111   0.265   2.384   3.461
 3738SOL     OW12112   6.599   6.324   0.742
 3738SOL    HW112113   6.555   6.367   0.663
 3738SOL    HW212114   6.530   6.307   0.813
 3739SOL     OW12115   2.929   4.752   1.505
 3739SOL    HW112116   2.911   4.776   1.409
 3739SOL    HW212117   2.923   4.835   1.561
 3740SOL     OW12118   5.662   5.622   6.505
 3740SOL    HW112119   5.626   5.547   6.450
 3740SOL    HW212120   5.589   5.662   6.561
 3741SOL     OW12121   5.296   2.845   0.359
 3741SOL    HW112122   5.232   2.921   0.354
 3741SOL    HW212123   5.374   2.870   0.417
 3742SOL     OW12124   4.652   5.432   0.544
 3742SOL    HW112125   4.569   5.467   0.501
 3742SOL    HW212126   4.657   5.463   0.639
 3743SOL     OW12127   3.933   3.733   1.271
 3743SOL    HW112128   3.977   3.698   1.355
 3743SOL    HW212129   3.891   3.657   1.222
 3744SOL     OW12130   1.023   6.129   2.018
 3744SOL    HW112131   0.943   6.155   2.072
 3744SOL    HW212132   1.053   6.037   2.044
 3745SOL     OW12133   4.863   3.702   2.281
 3745SOL    HW112134   4.772   3.663   2.294
 3745SOL    HW212135   4.867   3.749   2.192
 3746SOL     OW12136   6.288   0.354   3.639
 3746SOL    HW112137   6.370   0.396   3.677
 3746SOL    HW212138   6.296   0.351   3.539
 3747SOL     OW12139   4.761   6.684   6.281
 3747SOL    HW112140   4.703   6.643   6.351
 3747SOL    HW212141   4.719   6.671   6.191
 3748SOL     OW12142   5.393   0.920   2.743
 3748SOL    HW112143   5.432   0.833   2.712
 3748SOL    HW212144   5.295   0.922   2.722
 3749SOL     OW12145   0.953   5.050   2.710
 3749SOL    HW112146   0.936   5.118   2.782
 3749SOL    HW212147   0.892   5.067   2.633
 3750SOL     OW12148   5.548   3.905   0.118
 3750SOL    HW112149   5.463   3.911   0.171
 3750SOL    HW212150   5.612   3.844   0.164
 3751SOL     OW12151   1.798   3.100   0.901
 3751SOL    HW112152   1.729   3.128   0.968
 3751SOL    HW212153   1.880   3.156   0.912
 3752SOL     OW12154   0.481   6.878   7.019
 3752SOL    HW112155   0.430   6.801   6.980
 3752SOL    HW212156   0.579   6.867   6.999
 3753SOL     OW12157   0.635   6.345   4.130
 3753SOL    HW112158   0.566   6.368   4.061
 3753SOL    HW212159   0.618   6.398   4.213
 3754SOL     OW12160   5.416   6.688   0.799
 3754SOL    HW112161   5.508   6.716   0.771
 3754SOL    HW212162   5.422   6.609   0.859
 3755SOL     OW12163   5.090   4.592   3.559
 3755SOL    HW112164   5.123   4.629   3.646
 3755SOL    HW212165   5.070   4.666   3.496
 3756SOL     OW12166   1.857   2.270   6.138
 3756SOL    HW112167   1.813   2.211   6.071
 3756SOL    HW212168   1.860   2.364   6.104
 3757SOL     OW12169   3.004   5.737   5.773
 3757SOL    HW112170   2.983   5.776   5.683
 3757SOL    HW212171   2.923   5.692   5.810
 3758SOL     OW12172   2.706   0.987   5.003
 3758SOL    HW112173   2.748   0.897   5.015
 3758SOL    HW212174   2.609   0.975   4.983
 3759SOL     OW12175   5.127   5.305   5.918
 3759SOL    HW112176   5.127   5.216   5.964
 3759SOL    HW212177   5.053   5.309   5.851
 3760SOL     OW12178   1.517   2.994   4.350
 3760SOL    HW112179   1.541   2.898   4.337
 3760SOL    HW212180   1.513   3.014   4.448
 3761SOL     OW12181   0.722   6.690   4.993
 3761SOL    HW112182   0.702   6.592   4.987
 3761SOL    HW212183   0.764   6.721   4.908
 3762SOL     OW12184   0.644   4.159   0.402
 3762SOL    HW112185   0.659   4.178   0.304
 3762SOL    HW212186   0.579   4.226   0.438
 3763SOL     OW12187   6.241   3.412   6.184
 3763SOL    HW112188   6.169   3.413   6.253
 3763SOL    HW212189   6.294   3.327   6.191
 3764SOL     OW12190   2.261   0.270   4.405
 3764SOL    HW112191   2.227   0.324   4.328
 3764SOL    HW212192   2.343   0.314   4.442
 3765SOL     OW12193   4.862   0.978   3.618
 3765SOL    HW112194   4.821   0.948   3.532
 3765SOL    HW212195   4.902   1.069   3.605
 3766SOL     OW12196   0.704   0.844   4.061
 3766SOL    HW112197   0.681   0.835   4.158
 3766SOL    HW212198   0.781   0.784   4.039
 3767SOL     OW12199   1.437   5.316   6.983
 3767SOL    HW112200   1.347   5.360   6.994
 3767SOL    HW212201   1.427   5.217   6.985
 3768SOL     OW12202   4.389   6.445   6.851
 3768SOL    HW112203   4.360   6.360   6.807
 3768SOL    HW212204   4.341   6.523   6.809
 3769SOL     OW12205   5.594   5.991   4.765
 3769SOL    HW112206   5.581   5.966   4.670
 3769SOL    HW212207   5.691   5.987   4.788
 3770SOL     OW12208   1.829   1.559   6.072
 3770SOL    HW112209   1.822   1.651   6.109
 3770SOL    HW212210   1.896   1.506   6.124
 3771SOL     OW12211   4.904   2.463   0.716
 3771SOL    HW112212   4.983   2.413   0.752
 3771SOL    HW212213   4.922   2.489   0.621
 3772SOL     OW12214   6.119   0.779   1.468
 3772SOL    HW112215   6.021   0.792   1.483
 3772SOL    HW212216   6.152   0.849   1.404
 3773SOL     OW12217   5.844   3.604   5.663
 3773SOL    HW112218   5.872   3.699   5.665
 3773SOL    HW212219   5.766   3.590   5.724
 3774SOL     OW12220   0.776   0.280   6.585
 3774SOL    HW112221   0.868   0.254   6.614
 3774SOL    HW212222   0.756   0.239   6.496
 3775SOL     OW12223   5.542   3.879   2.774
 3775SOL    HW112224   5.504   3.840   2.858
 3775SOL    HW212225   5.567   3.806   2.711
 3776SOL     OW12226   2.314   2.446   1.411
 3776SOL    HW112227   2.346   2.376   1.475
 3776SOL    HW212228   2.223   2.478   1.439
 3777SOL     OW12229   2.793   5.355   4.616
 3777SOL    HW112230   2.770   5.258   4.609
 3777SOL    HW212231   2.749   5.394   4.697
 3778SOL     OW12232   2.834   6.049   2.789
 3778SOL    HW112233   2.793   6.123   2.842
 3778SOL    HW212234   2.884   5.988   2.851
 3779SOL     OW12235   2.296   4.460   0.299
 3779SOL    HW112236   2.277   4.441   0.395
 3779SOL    HW212237   2.244   4.398   0.241
 3780SOL     OW12238   3.211   5.588   5.180
 3780SOL    HW112239   3.173   5.669   5.223
 3780SOL    HW212240   3.215   5.514   5.247
 3781SOL     OW12241   3.187   6.830   4.198
 3781SOL    HW112242   3.200   6.895   4.123
 3781SOL    HW212243   3.145   6.746   4.163
 3782SOL     OW12244   2.584   1.556   4.428
 3782SOL    HW112245   2.615   1.464   4.450
 3782SOL    HW212246   2.644   1.596   4.358
 3783SOL     OW12247   5.916   6.161   4.863
 3783SOL    HW112248   5.888   6.086   4.804
 3783SOL    HW212249   5.838   6.190   4.919
 3784SOL     OW12250   6.003   1.250   3.620
 3784SOL    HW112251   5.906   1.235   3.599
 3784SOL    HW212252   6.057   1.236   3.537
 3785SOL     OW12253   2.826   2.025   0.545
 3785SOL    HW112254   2.876   2.111   0.558
 3785SOL    HW212255   2.849   1.987   0.455
 3786SOL     OW12256   2.774   4.790   3.710
 3786SOL    HW112257   2.677   4.798   3.732
 3786SOL    HW212258   2.826   4.773   3.793
 3787SOL     OW12259   5.407   1.314   4.297
 3787SOL    HW112260   5.416   1.220   4.265
 3787SOL    HW212261   5.422   1.318   4.396
 3788SOL     OW12262   6.448   2.758   3.746
 3788SOL    HW112263   6.464   2.856   3.741
 3788SOL    HW212264   6.350   2.739   3.744
 3789SOL     OW12265   1.448   4.266   4.242
 3789SOL    HW112266   1.548   4.262   4.242
 3789SOL    HW212267   1.416   4.285   4.150
 3790SOL     OW12268   2.141   3.466   4.793
 3790SOL    HW112269   2.116   3.370   4.809
 3790SOL    HW212270   2.145   3.515   4.880
 3791SOL     OW12271   5.362   6.843   1.296
 3791SOL    HW112272   5.322   6.928   1.261
 3791SOL    HW212273   5.434   6.812   1.233
 3792SOL     OW12274   6.278   0.095   5.141
 3792SOL    HW112275   6.282   0.127   5.236
 3792SOL    HW212276   6.370   0.072   5.109
 3793SOL     OW12277   2.029   1.361   2.415
 3793SOL    HW112278   1.954   1.389   2.475
 3793SOL    HW212279   2.078   1.442   2.384
 3794SOL     OW12280   3.949   5.652   1.601
 3794SOL    HW112281   3.886   5.669   1.676
 3794SOL    HW212282   4.033   5.611   1.637
 3795SOL     OW12283   5.056   0.781   6.984
 3795SOL    HW112284   5.068   0.849   6.912
 3795SOL    HW212285   5.039   0.692   6.943
 3796SOL     OW12286   1.244   2.108   1.435
 3796SOL    HW112287   1.295   2.084   1.519
 3796SOL    HW212288   1.268   2.043   1.363
 3797SOL     OW12289   1.164   5.234   2.100
 3797SOL    HW112290   1.223   5.288   2.040
 3797SOL    HW212291   1.219   5.168   2.151
 3798SOL     OW12292   2.859   4.750   3.314
 3798SOL    HW112293   2.851   4.721   3.218
 3798SOL    HW212294   2.777   4.723   3.364
 3799SOL     OW12295   0.868   1.466   4.897
 3799SOL    HW112296   0.872   1.384   4.840
 3799SOL    HW212297   0.799   1.529   4.860
 3800SOL     OW12298   5.041   2.423   4.768
 3800SOL    HW112299   4.985   2.420   4.685
 3800SOL    HW212300   4.989   2.387   4.845
 3801SOL     OW12301   6.766   6.235   5.438
 3801SOL    HW112302   6.707   6.301   5.484
 3801SOL    HW212303   6.748   6.237   5.340
 3802SOL     OW12304   1.026   1.781   4.830
 3802SOL    HW112305   1.022   1.698   4.774
 3802SOL    HW212306   0.988   1.858   4.778
 3803SOL     OW12307   4.346   0.104   1.691
 3803SOL    HW112308   4.269   0.043   1.671
 3803SOL    HW212309   4.322   0.163   1.768
 3804SOL     OW12310   4.132   1.890   4.550
 3804SOL    HW112311   4.046   1.876   4.598
 3804SOL    HW212312   4.156   1.987   4.551
 3805SOL     OW12313   2.965   4.198   1.744
 3805SOL    HW112314   2.957   4.290   1.783
 3805SOL    HW212315   2.875   4.154   1.745
 3806SOL     OW12316   3.377   3.064   6.937
 3806SOL    HW112317   3.293   3.067   6.990
 3806SOL    HW212318   3.364   3.004   6.858
 3807SOL     OW12319   0.980   6.796   3.938
 3807SOL    HW112320   0.950   6.702   3.953
 3807SOL    HW212321   0.979   6.815   3.840
 3808SOL     OW12322   2.724   0.362   2.132
 3808SOL    HW112323   2.797   0.418   2.091
 3808SOL    HW212324   2.645   0.361   2.070
 3809SOL     OW12325   6.165   1.875   6.875
 3809SOL    HW112326   6.260   1.883   6.843
 3809SOL    HW212327   6.155   1.922   6.962
 3810SOL     OW12328   3.253   3.055   5.609
 3810SOL    HW112329   3.202   3.138   5.588
 3810SOL    HW212330   3.193   2.976   5.601
 3811SOL     OW12331   0.599   4.017   4.395
 3811SOL    HW112332   0.524   3.996   4.457
 3811SOL    HW212333   0.686   3.988   4.437
 3812SOL     OW12334   6.487   1.989   5.782
 3812SOL    HW112335   6.393   2.021   5.799
 3812SOL    HW212336   6.534   1.979   5.870
 3813SOL     OW12337   3.388   5.542   0.648
 3813SOL    HW112338   3.450   5.486   0.702
 3813SOL    HW212339   3.407   5.529   0.551
 3814SOL     OW12340   6.341   5.926   1.163
 3814SOL    HW112341   6.318   5.840   1.207
 3814SOL    HW212342   6.290   6.000   1.207
 3815SOL     OW12343   5.334   2.301   1.249
 3815SOL    HW112344   5.318   2.237   1.175
 3815SOL    HW212345   5.308   2.259   1.336
 3816SOL     OW12346   0.068   6.669   1.886
 3816SOL    HW112347   0.080   6.768   1.872
 3816SOL    HW212348   0.080   6.648   1.983
 3817SOL     OW12349   4.360   2.242   4.189
 3817SOL    HW112350   4.437   2.212   4.245
 3817SOL    HW212351   4.394   2.291   4.109
 3818SOL     OW12352   4.198   5.854   2.761
 3818SOL    HW112353   4.250   5.866   2.676
 3818SOL    HW212354   4.170   5.943   2.797
 3819SOL     OW12355   5.742   5.174   0.357
 3819SOL    HW112356   5.833   5.211   0.375
 3819SOL    HW212357   5.675   5.225   0.411
 3820SOL     OW12358   4.491   5.561   4.345
 3820SOL    HW112359   4.493   5.544   4.247
 3820SOL    HW212360   4.570   5.617   4.371
 3821SOL     OW12361   1.820   3.828   2.313
 3821SOL    HW112362   1.881   3.787   2.381
 3821SOL    HW212363   1.840   3.925   2.304
 3822SOL     OW12364   2.172   5.047   1.690
 3822SOL    HW112365   2.198   5.141   1.714
 3822SOL    HW212366   2.245   4.984   1.717
 3823SOL     OW12367   4.056   2.253   5.771
 3823SOL    HW112368   4.133   2.306   5.807
 3823SOL    HW212369   3.995   2.313   5.721
 3824SOL     OW12370   6.168   2.110   6.109
 3824SOL    HW112371   6.129   2.199   6.130
 3824SOL    HW212372   6.106   2.037   6.140
 3825SOL     OW12373   0.034   0.035   6.912
 3825SOL    HW112374   7.005   0.102   6.962
 3825SOL    HW212375   0.126   0.032   6.950
 3826SOL     OW12376   7.018   3.527   0.944
 3826SOL    HW112377   0.047   3.521   0.860
 3826SOL    HW212378   6.922   3.514   0.921
 3827SOL     OW12379   3.325   3.894   0.477
 3827SOL    HW112380   3.425   3.897   0.476
 3827SOL    HW212381   3.291   3.943   0.558
 3828SOL     OW12382   4.581   2.452   1.741
 3828SOL    HW112383   4.657   2.517   1.737
 3828SOL    HW212384   4.526   2.460   1.658
 3829SOL     OW12385   2.211   5.359   3.476
 3829SOL    HW112386   2.165   5.383   3.390
 3829SOL    HW212387   2.303   5.327   3.457
 3830SOL     OW12388   2.180   0.115   5.291
 3830SOL    HW112389   2.225   0.193   5.247
 3830SOL    HW212390   2.209   0.110   5.386
 3831SOL     OW12391   4.163   2.135   2.216
 3831SOL    HW112392   4.063   2.140   2.207
 3831SOL    HW212393   4.194   2.042   2.198
 3832SOL     OW12394   6.442   0.750   1.523
 3832SOL    HW112395   6.424   0.653   1.538
 3832SOL    HW212396   6.457   0.767   1.426
 3833SOL     OW12397   0.694   4.878   1.259
 3833SOL    HW112398   0.630   4.913   1.191
 3833SOL    HW212399   0.735   4.954   1.309
 3834SOL     OW12400   3.416   1.726   0.743
 3834SOL    HW112401   3.510   1.741   0.715
 3834SOL    HW212402   3.376   1.653   0.688
 3835SOL     OW12403   3.922   5.564   6.243
 3835SOL    HW112404   3.996   5.588   6.180
 3835SOL    HW212405   3.864   5.644   6.258
 3836SOL     OW12406   1.458   4.306   5.687
 3836SOL    HW112407   1.428   4.400   5.705
 3836SOL    HW212408   1.435   4.248   5.765
 3837SOL     OW12409   4.591   3.851   7.021
 3837SOL    HW112410   4.622   3.758   0.016
 3837SOL    HW212411   4.577   3.902   0.080
 3838SOL     OW12412   5.647   2.542   4.445
 3838SOL    HW112413   5.745   2.533   4.460
 3838SOL    HW212414   5.605   2.587   4.523
 3839SOL     OW12415   5.714   6.639   5.267
 3839SOL    HW112416   5.652   6.715   5.246
 3839SOL    HW212417   5.807   6.662   5.237
 3840SOL     OW12418   1.849   1.212   4.123
 3840SOL    HW112419   1.778   1.248   4.062
 3840SOL    HW212420   1.938   1.247   4.095
 3841SOL     OW12421   0.942   3.602   5.345
 3841SOL    HW112422   1.038   3.578   5.354
 3841SOL    HW212423   0.922   3.682   5.402
 3842SOL     OW12424   0.766   5.347   0.348
 3842SOL    HW112425   0.706   5.425   0.333
 3842SOL    HW212426   0.784   5.337   0.446
 3843SOL     OW12427   6.650   3.288   0.389
 3843SOL    HW112428   6.677   3.196   0.416
 3843SOL    HW212429   6.584   3.283   0.314
 3844SOL     OW12430   1.823   5.138   5.918
 3844SOL    HW112431   1.734   5.166   5.882
 3844SOL    HW212432   1.894   5.197   5.881
 3845SOL     OW12433   3.358   3.363   3.121
 3845SOL    HW112434   3.295   3.299   3.076
 3845SOL    HW212435   3.427   3.394   3.056
 3846SOL     OW12436   0.252   4.172   4.559
 3846SOL    HW112437   0.325   4.239   4.546
 3846SOL    HW212438   0.194   4.170   4.478
 3847SOL     OW12439   6.673   0.239   6.290
 3847SOL    HW112440   6.608   0.168   6.315
 3847SOL    HW212441   6.766   0.204   6.300
 3848SOL     OW12442   2.966   4.993   1.657
 3848SOL    HW112443   3.065   4.982   1.660
 3848SOL    HW212444   2.929   4.993   1.749
 3849SOL     OW12445   0.899   1.973   5.959
 3849SOL    HW112446   0.981   2.030   5.964
 3849SOL    HW212447   0.922   1.880   5.986
 3850SOL     OW12448   3.403   4.030   1.883
 3850SOL    HW112449   3.472   4.090   1.843
 3850SOL    HW212450   3.402   4.042   1.982
 3851SOL     OW12451   1.912   3.478   3.217
 3851SOL    HW112452   1.840   3.409   3.213
 3851SOL    HW212453   1.908   3.525   3.305
 3852SOL     OW12454   4.313   0.434   5.115
 3852SOL    HW112455   4.371   0.445   5.034
 3852SOL    HW212456   4.317   0.339   5.146
 3853SOL     OW12457   0.895   3.490   2.308
 3853SOL    HW112458   0.803   3.465   2.276
 3853SOL    HW212459   0.929   3.566   2.253
 3854SOL     OW12460   0.881   3.563   4.377
 3854SOL    HW112461   0.814   3.511   4.323
 3854SOL    HW212462   0.832   3.622   4.441
 3855SOL     OW12463   6.100   4.013   5.771
 3855SOL    HW112464   6.164   3.959   5.718
 3855SOL    HW212465   6.010   3.970   5.768
 3856SOL     OW12466   6.474   6.859   5.792
 3856SOL    HW112467   6.524   6.946   5.798
 3856SOL    HW212468   6.539   6.785   5.778
 3857SOL     OW12469   1.289   6.617   4.970
 3857SOL    HW112470   1.247   6.705   4.947
 3857SOL    HW212471   1.387   6.621   4.952
 3858SOL     OW12472   1.628   5.743   6.316
 3858SOL    HW112473   1.536   5.777   6.298
 3858SOL    HW212474   1.673   5.802   6.384
 3859SOL     OW12475   7.025   3.108   2.768
 3859SOL    HW112476   6.941   3.162   2.767
 3859SOL    HW212477   7.002   3.012   2.780
 3860SOL     OW12478   2.466   6.485   5.647
 3860SOL    HW112479   2.378   6.496   5.600
 3860SOL    HW212480   2.533   6.447   5.582
 3861SOL     OW12481   4.389   4.355   1.313
 3861SOL    HW112482   4.411   4.330   1.408
 3861SOL    HW212483   4.469   4.399   1.272
 3862SOL     OW12484   0.993   5.924   6.102
 3862SOL    HW112485   0.964   6.019   6.099
 3862SOL    HW212486   0.926   5.867   6.054
 3863SOL     OW12487   3.236   3.803   1.612
 3863SOL    HW112488   3.194   3.838   1.528
 3863SOL    HW212489   3.220   3.867   1.686
 3864SOL     OW12490   3.478   1.868   6.743
 3864SOL    HW112491   3.572   1.866   6.711
 3864SOL    HW212492   3.439   1.775   6.738
 3865SOL     OW12493   4.454   0.211   2.357
 3865SOL    HW112494   4.367   0.163   2.364
 3865SOL    HW212495   4.463   0.276   2.432
 3866SOL     OW12496   3.989   0.113   0.635
 3866SOL    HW112497   3.949   0.022   0.641
 3866SOL    HW212498   3.929   0.178   0.682
 3867SOL     OW12499   2.117   3.321   3.243
 3867SOL    HW112500   2.048   3.391   3.223
 3867SOL    HW212501   2.153   3.335   3.335
 3868SOL     OW12502   2.467   6.964   2.338
 3868SOL    HW112503   2.465   6.910   2.254
 3868SOL    HW212504   2.385   6.946   2.392
 3869SOL     OW12505   0.556   3.178   3.142
 3869SOL    HW112506   0.511   3.261   3.108
 3869SOL    HW212507   0.587   3.193   3.236
 3870SOL     OW12508   3.061   5.384   0.564
 3870SOL    HW112509   3.120   5.365   0.643
 3870SOL    HW212510   2.972   5.342   0.579
 3871SOL     OW12511   3.036   0.256   3.427
 3871SOL    HW112512   2.986   0.169   3.437
 3871SOL    HW212513   2.972   0.327   3.397
 3872SOL     OW12514   4.150   3.412   1.088
 3872SOL    HW112515   4.193   3.502   1.099
 3872SOL    HW212516   4.069   3.407   1.147
 3873SOL     OW12517   5.722   4.589   1.570
 3873SOL    HW112518   5.799   4.601   1.633
 3873SOL    HW212519   5.693   4.494   1.572
 3874SOL     OW12520   4.530   0.273   0.345
 3874SOL    HW112521   4.432   0.287   0.335
 3874SOL    HW212522   4.552   0.177   0.327
 3875SOL     OW12523   1.289   4.746   1.246
 3875SOL    HW112524   1.203   4.789   1.276
 3875SOL    HW212525   1.271   4.690   1.165
 3876SOL     OW12526   5.215   3.678   3.617
 3876SOL    HW112527   5.190   3.734   3.697
 3876SOL    HW212528   5.252   3.737   3.546
 3877SOL     OW12529   6.135   1.349   2.357
 3877SOL    HW112530   6.061   1.389   2.303
 3877SOL    HW212531   6.100   1.271   2.408
 3878SOL     OW12532   3.965   6.629   5.881
 3878SOL    HW112533   3.906   6.592   5.953
 3878SOL    HW212534   4.002   6.717   5.909
 3879SOL     OW12535   4.304   5.680   1.914
 3879SOL    HW112536   4.400   5.699   1.892
 3879SOL    HW212537   4.299   5.594   1.965
 3880SOL     OW12538   5.578   3.075   3.156
 3880SOL    HW112539   5.516   3.142   3.198
 3880SOL    HW212540   5.628   3.027   3.227
 3881SOL     OW12541   0.944   3.982   0.831
 3881SOL    HW112542   0.964   4.068   0.878
 3881SOL    HW212543   0.883   4.001   0.753
 3882SOL     OW12544   0.087   1.080   5.243
 3882SOL    HW112545   0.040   1.019   5.307
 3882SOL    HW212546   0.184   1.085   5.267
 3883SOL     OW12547   4.171   0.321   5.521
 3883SOL    HW112548   4.271   0.315   5.520
 3883SOL    HW212549   4.143   0.409   5.483
 3884SOL     OW12550   1.711   5.897   5.913
 3884SOL    HW112551   1.719   5.953   5.831
 3884SOL    HW212552   1.802   5.882   5.952
 3885SOL     OW12553   6.804   1.137   3.887
 3885SOL    HW112554   6.878   1.131   3.954
 3885SOL    HW212555   6.719   1.164   3.933
 3886SOL     OW12556   6.811   6.711   5.254
 3886SOL    HW112557   6.816   6.676   5.160
 3886SOL    HW212558   6.903   6.722   5.291
 3887SOL     OW12559   4.344   2.165   5.821
 3887SOL    HW112560   4.435   2.133   5.795
 3887SOL    HW212561   4.282   2.086   5.827
 3888SOL     OW12562   0.029   2.139   0.839
 3888SOL    HW112563   0.052   2.044   0.820
 3888SOL    HW212564   0.084   2.199   0.781
 3889SOL     OW12565   0.676   6.411   6.517
 3889SOL    HW112566   0.598   6.375   6.568
 3889SOL    HW212567   0.705   6.343   6.449
 3890SOL     OW12568   5.459   4.225   3.073
 3890SOL    HW112569   5.428   4.244   2.980
 3890SOL    HW212570   5.409   4.284   3.137
 3891SOL     OW12571   5.293   5.026   4.881
 3891SOL    HW112572   5.234   4.987   4.810
 3891SOL    HW212573   5.389   5.018   4.853
 3892SOL     OW12574   4.961   6.942   3.165
 3892SOL    HW112575   5.030   6.907   3.102
 3892SOL    HW212576   4.889   6.873   3.177
 3893SOL     OW12577   3.368   6.097   4.075
 3893SOL    HW112578   3.278   6.110   4.033
 3893SOL    HW212579   3.392   6.000   4.074
 3894SOL     OW12580   4.841   3.937   6.865
 3894SOL    HW112581   4.757   3.937   6.919
 3894SOL    HW212582   4.862   3.843   6.836
 3895SOL     OW12583   2.814   2.198   5.656
 3895SOL    HW112584   2.890   2.262   5.665
 3895SOL    HW212585   2.733   2.235   5.702
 3896SOL     OW12586   6.333   2.814   5.309
 3896SOL    HW112587   6.371   2.901   5.342
 3896SOL    HW212588   6.333   2.815   5.209
 3897SOL     OW12589   3.714   7.005   2.082
 3897SOL    HW112590   3.628   0.011   2.121
 3897SOL    HW212591   3.763   0.057   2.042
 3898SOL     OW12592   3.749   4.146   4.411
 3898SOL    HW112593   3.733   4.242   4.433
 3898SOL    HW212594   3.666   4.107   4.371
 3899SOL     OW12595   4.353   1.331   5.527
 3899SOL    HW112596   4.416   1.280   5.585
 3899SOL    HW212597   4.368   1.305   5.431
 3900SOL     OW12598   6.848   2.747   3.128
 3900SOL    HW112599   6.820   2.679   3.196
 3900SOL    HW212600   6.881   2.829   3.174
 3901SOL     OW12601   1.400   6.327   5.759
 3901SOL    HW112602   1.343   6.288   5.687
 3901SOL    HW212603   1.402   6.265   5.838
 3902SOL     OW12604   4.010   4.846   1.503
 3902SOL    HW112605   3.992   4.762   1.452
 3902SOL    HW212606   3.938   4.859   1.572
 3903SOL     OW12607   4.177   2.692   6.676
 3903SOL    HW112608   4.169   2.653   6.768
 3903SOL    HW212609   4.090   2.734   6.650
 3904SOL     OW12610   1.164   6.477   1.245
 3904SOL    HW112611   1.245   6.455   1.190
 3904SOL    HW212612   1.179   6.448   1.340
 3905SOL     OW12613   6.889   0.237   4.962
 3905SOL    HW112614   6.926   0.172   4.896
 3905SOL    HW212615   6.891   0.197   5.054
 3906SOL     OW12616   1.179   5.421   3.887
 3906SOL    HW112617   1.245   5.443   3.814
 3906SOL    HW212618   1.175   5.322   3.899
 3907SOL     OW12619   0.605   0.821   4.330
 3907SOL    HW112620   0.515   0.803   4.372
 3907SOL    HW212621   0.667   0.856   4.400
 3908SOL     OW12622   1.216   0.728   4.874
 3908SOL    HW112623   1.183   0.636   4.855
 3908SOL    HW212624   1.280   0.726   4.951
 3909SOL     OW12625   5.843   2.437   6.494
 3909SOL    HW112626   5.887   2.380   6.564
 3909SOL    HW212627   5.746   2.444   6.513
 3910SOL     OW12628   3.656   1.678   0.121
 3910SOL    HW112629   3.709   1.725   0.051
 3910SOL    HW212630   3.704   1.681   0.208
 3911SOL     OW12631   6.933   1.511   0.801
 3911SOL    HW112632   6.952   1.576   0.875
 3911SOL    HW212633   6.870   1.441   0.834
 3912SOL     OW12634   3.856   1.506   0.354
 3912SOL    HW112635   3.816   1.595   0.376
 3912SOL    HW212636   3.784   1.436   0.355
 3913SOL     OW12637   5.421   5.436   0.834
 3913SOL    HW112638   5.513   5.448   0.871
 3913SOL    HW212639   5.403   5.338   0.823
 3914SOL     OW12640   6.439   1.775   0.029
 3914SOL    HW112641   6.506   1.701   0.035
 3914SOL    HW212642   6.361   1.746   7.000
 3915SOL     OW12643   4.922   5.491   6.689
 3915SOL    HW112644   4.910   5.489   6.788
 3915SOL    HW212645   4.995   5.427   6.663
 3916SOL     OW12646   2.108   2.003   1.938
 3916SOL    HW112647   2.202   1.972   1.950
 3916SOL    HW212648   2.106   2.103   1.933
 3917SOL     OW12649   3.470   5.304   1.544
 3917SOL    HW112650   3.566   5.309   1.574
 3917SOL    HW212651   3.432   5.216   1.570
 3918SOL     OW12652   5.591   1.263   0.732
 3918SOL    HW112653   5.535   1.263   0.649
 3918SOL    HW212654   5.595   1.171   0.769
 3919SOL     OW12655   3.187   0.288   2.469
 3919SOL    HW112656   3.106   0.268   2.414
 3919SOL    HW212657   3.267   0.291   2.409
 3920SOL     OW12658   2.791   1.733   5.920
 3920SOL    HW112659   2.847   1.699   5.995
 3920SOL    HW212660   2.838   1.809   5.874
 3921SOL     OW12661   6.900   2.789   5.922
 3921SOL    HW112662   6.943   2.874   5.952
 3921SOL    HW212663   6.966   2.715   5.926
 3922SOL     OW12664   5.608   4.438   2.601
 3922SOL    HW112665   5.665   4.357   2.587
 3922SOL    HW212666   5.513   4.417   2.578
 3923SOL     OW12667   5.177   1.370   1.544
 3923SOL    HW112668   5.096   1.317   1.570
 3923SOL    HW212669   5.161   1.414   1.455
 3924SOL     OW12670   5.748   4.657   4.139
 3924SOL    HW112671   5.773   4.728   4.073
 3924SOL    HW212672   5.823   4.643   4.203
 3925SOL     OW12673   4.682   3.626   0.637
 3925SOL    HW112674   4.765   3.593   0.681
 3925SOL    HW212675   4.680   3.726   0.642
 3926SOL     OW12676   0.406   6.462   6.317
 3926SOL    HW112677   0.416   6.379   6.372
 3926SOL    HW212678   0.480   6.467   6.250
 3927SOL     OW12679   5.803   2.254   5.872
 3927SOL    HW112680   5.745   2.317   5.820
 3927SOL    HW212681   5.749   2.174   5.898
 3928SOL     OW12682   3.001   6.011   2.125
 3928SOL    HW112683   2.945   6.002   2.207
 3928SOL    HW212684   3.073   5.942   2.126
 3929SOL     OW12685   6.762   2.079   4.829
 3929SOL    HW112686   6.803   2.112   4.914
 3929SOL    HW212687   6.682   2.135   4.806
 3930SOL     OW12688   1.057   4.808   4.417
 3930SOL    HW112689   0.969   4.857   4.423
 3930SOL    HW212690   1.129   4.864   4.457
 3931SOL     OW12691   1.870   2.505   1.334
 3931SOL    HW112692   1.884   2.407   1.318
 3931SOL    HW212693   1.772   2.526   1.329
 3932SOL     OW12694   2.449   5.304   3.973
 3932SOL    HW112695   2.540   5.286   4.010
 3932SOL    HW212696   2.426   5.400   3.986
 3933SOL     OW12697   2.266   5.735   1.012
 3933SOL    HW112698   2.192   5.798   0.989
 3933SOL    HW212699   2.228   5.646   1.035
 3934SOL     OW12700   0.307   1.558   1.488
 3934SOL    HW112701   0.326   1.643   1.537
 3934SOL    HW212702   0.389   1.502   1.487
 3935SOL     OW12703   6.335   3.167   5.906
 3935SOL    HW112704   6.432   3.161   5.930
 3935SOL    HW212705   6.326   3.206   5.814
 3936SOL     OW12706   0.668   5.126   5.746
 3936SOL    HW112707   0.625   5.095   5.661
 3936SOL    HW212708   0.633   5.217   5.769
 3937SOL     OW12709   0.732   6.782   1.848
 3937SOL    HW112710   0.816   6.837   1.849
 3937SOL    HW212711   0.679   6.803   1.767
 3938SOL     OW12712   0.480   3.613   2.775
 3938SOL    HW112713   0.566   3.593   2.729
 3938SOL    HW212714   0.456   3.538   2.836
 3939SOL     OW12715   1.505   1.101   2.482
 3939SOL    HW112716   1.584   1.146   2.442
 3939SOL    HW212717   1.504   1.117   2.581
 3940SOL     OW12718   3.351   5.443   1.009
 3940SOL    HW112719   3.409   5.448   0.928
 3940SOL    HW212720   3.404   5.471   1.089
 3941SOL     OW12721   5.041   5.916   3.429
 3941SOL    HW112722   4.986   5.989   3.471
 3941SOL    HW212723   5.020   5.829   3.473
 3942SOL     OW12724   6.358   5.667   5.385
 3942SOL    HW112725   6.439   5.726   5.385
 3942SOL    HW212726   6.275   5.724   5.386
 3943SOL     OW12727   1.376   3.002   0.056
 3943SOL    HW112728   1.369   3.034   0.151
 3943SOL    HW212729   1.422   2.913   0.054
 3944SOL     OW12730   5.693   2.191   6.781
 3944SOL    HW112731   5.594   2.193   6.766
 3944SOL    HW212732   5.721   2.272   6.832
 3945SOL     OW12733   6.335   0.639   3.364
 3945SOL    HW112734   6.420   0.691   3.372
 3945SOL    HW212735   6.281   0.648   3.448
 3946SOL     OW12736   1.243   2.964   0.312
 3946SOL    HW112737   1.250   3.061   0.288
 3946SOL    HW212738   1.167   2.923   0.262
 3947SOL     OW12739   6.278   4.979   2.551
 3947SOL    HW112740   6.217   5.038   2.498
 3947SOL    HW212741   6.293   5.020   2.641
 3948SOL     OW12742   0.897   2.672   6.457
 3948SOL    HW112743   0.963   2.631   6.394
 3948SOL    HW212744   0.804   2.652   6.425
 3949SOL     OW12745   5.895   6.989   1.556
 3949SOL    HW112746   5.937   6.976   1.466
 3949SOL    HW212747   5.894   6.902   1.606
 3950SOL     OW12748   3.094   4.571   1.634
 3950SOL    HW112749   3.037   4.527   1.703
 3950SOL    HW212750   3.037   4.635   1.581
 3951SOL     OW12751   0.889   2.071   5.012
 3951SOL    HW112752   0.824   1.997   5.023
 3951SOL    HW212753   0.982   2.037   5.028
 3952SOL     OW12754   5.967   3.204   6.215
 3952SOL    HW112755   5.885   3.182   6.163
 3952SOL    HW212756   6.031   3.126   6.210
 3953SOL     OW12757   3.280   4.391   6.137
 3953SOL    HW112758   3.266   4.353   6.228
 3953SOL    HW212759   3.349   4.337   6.089
 3954SOL     OW12760   0.303   3.393   5.193
 3954SOL    HW112761   0.357   3.452   5.132
 3954SOL    HW212762   0.268   3.315   5.141
 3955SOL     OW12763   6.813   4.438   0.122
 3955SOL    HW112764   6.734   4.413   0.179
 3955SOL    HW212765   6.897   4.417   0.172
 3956SOL     OW12766   1.102   2.716   5.615
 3956SOL    HW112767   1.191   2.718   5.660
 3956SOL    HW212768   1.114   2.709   5.516
 3957SOL     OW12769   1.044   1.364   2.931
 3957SOL    HW112770   1.052   1.335   3.026
 3957SOL    HW212771   0.953   1.400   2.914
 3958SOL     OW12772   5.907   6.297   5.895
 3958SOL    HW112773   5.919   6.201   5.923
 3958SOL    HW212774   5.988   6.326   5.844
 3959SOL     OW12775   2.626   5.028   0.657
 3959SOL    HW112776   2.710   5.009   0.709
 3959SOL    HW212777   2.559   5.070   0.717
 3960SOL     OW12778   4.462   3.938   0.487
 3960SOL    HW112779   4.458   3.886   0.572
 3960SOL    HW212780   4.369   3.949   0.451
 3961SOL     OW12781   5.533   0.692   2.620
 3961SOL    HW112782   5.515   0.733   2.531
 3961SOL    HW212783   5.452   0.640   2.649
 3962SOL     OW12784   0.454   6.897   5.921
 3962SOL    HW112785   0.529   6.888   5.987
 3962SOL    HW212786   0.445   6.993   5.894
 3963SOL     OW12787   5.023   5.423   3.336
 3963SOL    HW112788   5.118   5.422   3.369
 3963SOL    HW212789   4.980   5.336   3.356
 3964SOL     OW12790   5.669   6.438   5.782
 3964SOL    HW112791   5.758   6.393   5.790
 3964SOL    HW212792   5.596   6.371   5.794
 3965SOL     OW12793   3.663   3.660   0.083
 3965SOL    HW112794   3.712   3.682   7.025
 3965SOL    HW212795   3.660   3.560   0.094
 3966SOL     OW12796   5.619   4.225   5.067
 3966SOL    HW112797   5.572   4.257   5.150
 3966SOL    HW212798   5.559   4.162   5.018
 3967SOL     OW12799   0.730   5.369   6.432
 3967SOL    HW112800   0.643   5.417   6.415
 3967SOL    HW212801   0.804   5.422   6.390
 3968SOL     OW12802   5.930   0.399   1.519
 3968SOL    HW112803   6.017   0.441   1.492
 3968SOL    HW212804   5.859   0.424   1.454
 3969SOL     OW12805   0.058   5.437   1.694
 3969SOL    HW112806   0.069   5.479   1.605
 3969SOL    HW212807   0.077   5.504   1.766
 3970SOL     OW12808   4.225   4.666   3.389
 3970SOL    HW112809   4.278   4.739   3.432
 3970SOL    HW212810   4.224   4.586   3.449
 3971SOL     OW12811   1.705   5.772   4.075
 3971SOL    HW112812   1.786   5.812   4.118
 3971SOL    HW212813   1.645   5.845   4.043
 3972SOL     OW12814   1.429   0.059   0.488
 3972SOL    HW112815   1.495   0.035   0.559
 3972SOL    HW212816   1.447   0.005   0.406
 3973SOL     OW12817   3.247   3.406   3.487
 3973SOL    HW112818   3.249   3.469   3.409
 3973SOL    HW212819   3.154   3.401   3.524
 3974SOL     OW12820   6.097   1.457   6.480
 3974SOL    HW112821   6.050   1.454   6.568
 3974SOL    HW212822   6.114   1.365   6.447
 3975SOL     OW12823   6.883   0.897   6.006
 3975SOL    HW112824   6.850   0.811   6.046
 3975SOL    HW212825   6.870   0.894   5.907
 3976SOL     OW12826   0.761   3.410   6.830
 3976SOL    HW112827   0.859   3.421   6.850
 3976SOL    HW212828   0.709   3.420   6.914
 3977SOL     OW12829   3.868   6.344   6.450
 3977SOL    HW112830   3.964   6.372   6.455
 3977SOL    HW212831   3.830   6.337   6.543
 3978SOL     OW12832   5.613   3.136   5.982
 3978SOL    HW112833   5.608   3.180   6.072
 3978SOL    HW212834   5.529   3.154   5.932
 3979SOL     OW12835   1.089   6.969   3.147
 3979SOL    HW112836   1.047   0.001   3.215
 3979SOL    HW212837   1.148   6.901   3.192
 3980SOL     OW12838   5.501   3.364   4.843
 3980SOL    HW112839   5.508   3.294   4.914
 3980SOL    HW212840   5.593   3.387   4.810
 3981SOL     OW12841   6.652   1.713   5.954
 3981SOL    HW112842   6.569   1.657   5.956
 3981SOL    HW212843   6.640   1.793   6.013
 3982SOL     OW12844   3.461   1.636   3.943
 3982SOL    HW112845   3.367   1.641   3.908
 3982SOL    HW212846   3.510   1.562   3.898
 3983SOL     OW12847   3.483   6.402   3.713
 3983SOL    HW112848   3.472   6.316   3.662
 3983SOL    HW212849   3.461   6.386   3.810
 3984SOL     OW12850   1.374   6.717   1.618
 3984SOL    HW112851   1.340   6.757   1.533
 3984SOL    HW212852   1.452   6.657   1.597
 3985SOL     OW12853   1.796   3.358   2.073
 3985SOL    HW112854   1.804   3.448   2.030
 3985SOL    HW212855   1.816   3.366   2.171
 3986SOL     OW12856   0.865   3.088   2.553
 3986SOL    HW112857   0.951   3.117   2.597
 3986SOL    HW212858   0.886   3.023   2.480
 3987SOL     OW12859   2.284   4.841   0.014
 3987SOL    HW112860   2.359   4.847   6.974
 3987SOL    HW212861   2.232   4.758   7.025
 3988SOL     OW12862   3.992   2.249   0.751
 3988SOL    HW112863   4.023   2.242   0.846
 3988SOL    HW212864   3.979   2.345   0.728
 3989SOL     OW12865   4.677   0.068   6.460
 3989SOL    HW112866   4.739   0.016   6.401
 3989SOL    HW212867   4.610   0.115   6.404
 3990SOL     OW12868   1.043   3.245   3.718
 3990SOL    HW112869   0.993   3.159   3.711
 3990SOL    HW212870   1.136   3.227   3.749
 3991SOL     OW12871   0.258   1.815   4.058
 3991SOL    HW112872   0.258   1.914   4.073
 3991SOL    HW212873   0.195   1.793   3.984
 3992SOL     OW12874   4.639   3.848   6.282
 3992SOL    HW112875   4.626   3.781   6.354
 3992SOL    HW212876   4.729   3.836   6.240
 3993SOL     OW12877   2.393   1.939   3.186
 3993SOL    HW112878   2.411   1.918   3.281
 3993SOL    HW212879   2.307   1.990   3.179
 3994SOL     OW12880   2.544   2.180   3.634
 3994SOL    HW112881   2.604   2.118   3.582
 3994SOL    HW212882   2.451   2.145   3.633
 3995SOL     OW12883   1.717   3.962   2.931
 3995SOL    HW112884   1.726   3.954   2.832
 3995SOL    HW212885   1.794   4.014   2.968
 3996SOL     OW12886   5.881   0.254   3.380
 3996SOL    HW112887   5.917   0.328   3.323
 3996SOL    HW212888   5.893   0.278   3.477
 3997SOL     OW12889   5.777   3.825   2.478
 3997SOL    HW112890   5.771   3.923   2.497
 3997SOL    HW212891   5.715   3.802   2.402
 3998SOL     OW12892   6.198   1.932   2.876
 3998SOL    HW112893   6.289   1.910   2.840
 3998SOL    HW212894   6.188   1.893   2.967
 3999SOL     OW12895   5.247   3.034   1.815
 3999SOL    HW112896   5.303   2.958   1.847
 3999SOL    HW212897   5.221   3.020   1.720
 4000SOL     OW12898   3.452   5.519   2.477
 4000SOL    HW112899   3.551   5.513   2.493
 4000SOL    HW212900   3.427   5.615   2.461
 4001SOL     OW12901   2.002   4.349   5.080
 4001SOL    HW112902   2.099   4.346   5.059
 4001SOL    HW212903   1.951   4.376   4.998
 4002SOL     OW12904   3.657   3.308   3.679
 4002SOL    HW112905   3.752   3.336   3.667
 4002SOL    HW212906   3.647   3.263   3.767
 4003SOL     OW12907   2.368   0.694   5.080
 4003SOL    HW112908   2.299   0.719   5.148
 4003SOL    HW212909   2.322   0.676   4.992
 4004SOL     OW12910   0.394   3.804   3.246
 4004SOL    HW112911   0.437   3.721   3.282
 4004SOL    HW212912   0.351   3.855   3.322
 4005SOL     OW12913   5.029   2.957   1.323
 4005SOL    HW112914   4.945   3.011   1.319
 4005SOL    HW212915   5.060   2.936   1.230
 4006SOL     OW12916   5.383   5.115   3.077
 4006SOL    HW112917   5.376   5.063   2.991
 4006SOL    HW212918   5.296   5.107   3.126
 4007SOL     OW12919   6.667   1.461   2.608
 4007SOL    HW112920   6.712   1.508   2.532
 4007SOL    HW212921   6.595   1.401   2.572
 4008SOL     OW12922   2.200   0.398   0.641
 4008SOL    HW112923   2.173   0.417   0.735
 4008SOL    HW212924   2.291   0.355   0.641
 4009SOL     OW12925   4.034   1.848   1.138
 4009SOL    HW112926   4.011   1.852   1.236
 4009SOL    HW212927   3.976   1.913   1.088
 4010SOL     OW12928   2.394   5.608   1.880
 4010SOL    HW112929   2.363   5.672   1.950
 4010SOL    HW212930   2.487   5.633   1.851
 4011SOL     OW12931   6.149   6.030   6.958
 4011SOL    HW112932   6.059   6.032   7.002
 4011SOL    HW212933   6.201   5.952   6.993
 4012SOL     OW12934   3.874   0.210   1.999
 4012SOL    HW112935   3.934   0.283   1.966
 4012SOL    HW212936   3.808   0.186   1.928
 4013SOL     OW12937   0.891   1.463   6.708
 4013SOL    HW112938   0.952   1.451   6.786
 4013SOL    HW212939   0.817   1.396   6.713
 4014SOL     OW12940   2.701   5.443   3.266
 4014SOL    HW112941   2.699   5.524   3.208
 4014SOL    HW212942   2.646   5.371   3.225
 4015SOL     OW12943   4.066   5.313   6.277
 4015SOL    HW112944   4.032   5.395   6.231
 4015SOL    HW212945   4.043   5.316   6.374
 4016SOL     OW12946   4.254   5.864   6.100
 4016SOL    HW112947   4.314   5.942   6.120
 4016SOL    HW212948   4.250   5.850   6.001
 4017SOL     OW12949   1.095   4.829   6.081
 4017SOL    HW112950   1.187   4.801   6.056
 4017SOL    HW212951   1.032   4.752   6.072
 4018SOL     OW12952   4.434   6.355   1.972
 4018SOL    HW112953   4.413   6.445   1.934
 4018SOL    HW212954   4.417   6.284   1.904
 4019SOL     OW12955   5.153   3.087   2.827
 4019SOL    HW112956   5.171   3.043   2.915
 4019SOL    HW212957   5.058   3.068   2.799
 4020SOL     OW12958   6.789   4.572   4.666
 4020SOL    HW112959   6.800   4.672   4.660
 4020SOL    HW212960   6.805   4.531   4.577
 4021SOL     OW12961   3.214   3.605   5.584
 4021SOL    HW112962   3.130   3.631   5.537
 4021SOL    HW212963   3.292   3.653   5.543
 4022SOL     OW12964   2.329   0.454   0.298
 4022SOL    HW112965   2.319   0.365   0.253
 4022SOL    HW212966   2.265   0.520   0.258
 4023SOL     OW12967   0.414   2.462   5.383
 4023SOL    HW112968   0.433   2.469   5.285
 4023SOL    HW212969   0.479   2.398   5.425
 4024SOL     OW12970   0.914   4.573   3.748
 4024SOL    HW112971   0.872   4.525   3.826
 4024SOL    HW212972   1.010   4.591   3.768
 4025SOL     OW12973   1.262   5.808   3.633
 4025SOL    HW112974   1.206   5.866   3.574
 4025SOL    HW212975   1.204   5.757   3.696
 4026SOL     OW12976   6.710   5.918   3.574
 4026SOL    HW112977   6.723   5.895   3.478
 4026SOL    HW212978   6.764   5.999   3.596
 4027SOL     OW12979   2.536   3.804   5.477
 4027SOL    HW112980   2.456   3.863   5.488
 4027SOL    HW212981   2.607   3.852   5.425
 4028SOL     OW12982   4.479   1.766   2.573
 4028SOL    HW112983   4.412   1.818   2.626
 4028SOL    HW212984   4.567   1.768   2.620
 4029SOL     OW12985   2.268   4.928   6.671
 4029SOL    HW112986   2.248   4.941   6.768
 4029SOL    HW212987   2.316   5.009   6.636
 4030SOL     OW12988   0.313   1.345   2.676
 4030SOL    HW112989   0.328   1.247   2.687
 4030SOL    HW212990   0.365   1.395   2.746
 4031SOL     OW12991   5.439   0.201   1.488
 4031SOL    HW112992   5.485   0.162   1.408
 4031SOL    HW212993   5.353   0.243   1.460
 4032SOL     OW12994   6.251   7.004   1.526
 4032SOL    HW112995   6.188   7.006   1.604
 4032SOL    HW212996   6.222   0.045   1.458
 4033SOL     OW12997   3.040   2.190   2.690
 4033SOL    HW112998   3.006   2.216   2.600
 4033SOL    HW212999   3.139   2.200   2.692
 4034SOL     OW13000   0.200   3.437   4.839
 4034SOL    HW113001   0.240   3.488   4.915
 4034SOL    HW213002   0.127   3.492   4.798
 4035SOL     OW13003   6.805   2.100   1.015
 4035SOL    HW113004   6.746   2.111   0.935
 4035SOL    HW213005   6.901   2.106   0.986
 4036SOL     OW13006   2.875   5.443   3.743
 4036SOL    HW113007   2.804   5.383   3.780
 4036SOL    HW213008   2.965   5.408   3.769
 4037SOL     OW13009   1.711   1.116   5.489
 4037SOL    HW113010   1.659   1.095   5.406
 4037SOL    HW213011   1.648   1.126   5.566
 4038SOL     OW13012   3.576   4.642   5.834
 4038SOL    HW113013   3.533   4.715   5.887
 4038SOL    HW213014   3.510   4.570   5.814
 4039SOL     OW13015   5.211   4.599   1.519
 4039SOL    HW113016   5.278   4.526   1.530
 4039SOL    HW213017   5.150   4.577   1.443
 4040SOL     OW13018   3.760   5.223   5.320
 4040SOL    HW113019   3.794   5.290   5.386
 4040SOL    HW213020   3.661   5.213   5.330
 4041SOL     OW13021   1.995   6.919   1.313
 4041SOL    HW113022   2.045   7.005   1.309
 4041SOL    HW213023   1.952   6.900   1.225
 4042SOL     OW13024   6.501   0.421   3.225
 4042SOL    HW113025   6.498   0.328   3.262
 4042SOL    HW213026   6.434   0.478   3.273
 4043SOL     OW13027   5.551   3.517   6.156
 4043SOL    HW113028   5.606   3.435   6.171
 4043SOL    HW213029   5.474   3.517   6.220
 4044SOL     OW13030   4.339   4.741   3.149
 4044SOL    HW113031   4.297   4.710   3.235
 4044SOL    HW213032   4.373   4.662   3.098
 4045SOL     OW13033   4.981   0.042   6.099
 4045SOL    HW113034   4.978   6.984   6.153
 4045SOL    HW213035   4.961   0.021   6.003
 4046SOL     OW13036   0.180   1.706   3.493
 4046SOL    HW113037   0.194   1.804   3.480
 4046SOL    HW213038   0.268   1.661   3.509
 4047SOL     OW13039   2.695   3.024   6.743
 4047SOL    HW113040   2.759   3.096   6.773
 4047SOL    HW213041   2.614   3.026   6.801
 4048SOL     OW13042   4.952   1.082   2.134
 4048SOL    HW113043   4.877   1.073   2.199
 4048SOL    HW213044   5.030   1.127   2.178
 4049SOL     OW13045   3.702   5.769   6.817
 4049SOL    HW113046   3.621   5.762   6.875
 4049SOL    HW213047   3.759   5.688   6.830
 4050SOL     OW13048   0.936   5.895   2.780
 4050SOL    HW113049   0.854   5.842   2.757
 4050SOL    HW213050   0.939   5.978   2.725
 4051SOL     OW13051   4.997   1.010   6.807
 4051SOL    HW113052   4.900   1.026   6.821
 4051SOL    HW213053   5.017   1.008   6.709
 4052SOL     OW13054   6.275   1.816   3.353
 4052SOL    HW113055   6.226   1.800   3.439
 4052SOL    HW213056   6.335   1.895   3.363
 4053SOL     OW13057   0.802   5.499   4.683
 4053SOL    HW113058   0.762   5.515   4.774
 4053SOL    HW213059   0.756   5.558   4.617
 4054SOL     OW13060   4.621   4.122   1.025
 4054SOL    HW113061   4.539   4.177   1.011
 4054SOL    HW213062   4.701   4.182   1.026
 4055SOL     OW13063   1.342   3.850   2.160
 4055SOL    HW113064   1.254   3.803   2.172
 4055SOL    HW213065   1.400   3.833   2.240
 4056SOL     OW13066   5.338   3.502   0.681
 4056SOL    HW113067   5.296   3.441   0.614
 4056SOL    HW213068   5.409   3.557   0.637
 4057SOL     OW13069   6.325   3.480   6.560
 4057SOL    HW113070   6.354   3.545   6.630
 4057SOL    HW213071   6.312   3.528   6.473
 4058SOL     OW13072   2.606   5.506   4.796
 4058SOL    HW113073   2.532   5.487   4.861
 4058SOL    HW213074   2.662   5.581   4.830
 4059SOL     OW13075   0.736   2.440   4.331
 4059SOL    HW113076   0.823   2.480   4.361
 4059SOL    HW213077   0.749   2.401   4.239
 4060SOL     OW13078   6.748   5.697   4.822
 4060SOL    HW113079   6.695   5.728   4.744
 4060SOL    HW213080   6.720   5.604   4.847
 4061SOL     OW13081   2.669   5.269   2.052
 4061SOL    HW113082   2.649   5.172   2.036
 4061SOL    HW213083   2.601   5.307   2.114
 4062SOL     OW13084   2.665   1.380   1.858
 4062SOL    HW113085   2.575   1.372   1.900
 4062SOL    HW213086   2.682   1.475   1.831
 4063SOL     OW13087   5.775   0.361   0.968
 4063SOL    HW113088   5.837   0.398   1.037
 4063SOL    HW213089   5.688   0.409   0.972
 4064SOL     OW13090   1.994   2.229   4.220
 4064SOL    HW113091   2.084   2.214   4.260
 4064SOL    HW213092   1.924   2.206   4.287
 4065SOL     OW13093   1.527   6.932   0.203
 4065SOL    HW113094   1.507   7.025   0.176
 4065SOL    HW213095   1.602   6.896   0.147
 4066SOL     OW13096   6.450   4.248   2.814
 4066SOL    HW113097   6.458   4.148   2.817
 4066SOL    HW213098   6.506   4.284   2.740
 4067SOL     OW13099   6.008   4.310   2.452
 4067SOL    HW113100   5.943   4.255   2.506
 4067SOL    HW213101   6.094   4.319   2.503
 4068SOL     OW13102   1.578   2.745   5.060
 4068SOL    HW113103   1.493   2.794   5.041
 4068SOL    HW213104   1.561   2.674   5.128
 4069SOL     OW13105   3.844   6.502   6.895
 4069SOL    HW113106   3.856   6.443   6.974
 4069SOL    HW213107   3.930   6.547   6.874
 4070SOL     OW13108   1.122   3.001   3.141
 4070SOL    HW113109   1.060   3.007   3.063
 4070SOL    HW213110   1.077   3.037   3.222
 4071SOL     OW13111   1.046   0.560   3.945
 4071SOL    HW113112   1.136   0.590   3.915
 4071SOL    HW213113   0.979   0.631   3.924
 4072SOL     OW13114   1.072   5.681   4.388
 4072SOL    HW113115   1.107   5.636   4.306
 4072SOL    HW213116   1.073   5.617   4.464
 4073SOL     OW13117   2.197   5.137   0.398
 4073SOL    HW113118   2.232   5.189   0.476
 4073SOL    HW213119   2.216   5.188   0.314
 4074SOL     OW13120   1.397   4.942   1.728
 4074SOL    HW113121   1.391   4.912   1.823
 4074SOL    HW213122   1.452   4.876   1.676
 4075SOL     OW13123   5.119   1.278   0.743
 4075SOL    HW113124   5.122   1.354   0.679
 4075SOL    HW213125   5.210   1.261   0.781
 4076SOL     OW13126   3.366   3.381   5.557
 4076SOL    HW113127   3.313   3.342   5.482
 4076SOL    HW213128   3.318   3.461   5.595
 4077SOL     OW13129   4.381   1.791   1.516
 4077SOL    HW113130   4.392   1.697   1.481
 4077SOL    HW213131   4.359   1.852   1.440
 4078SOL     OW13132   2.900   4.763   2.767
 4078SOL    HW113133   2.864   4.741   2.677
 4078SOL    HW213134   2.976   4.827   2.758
 4079SOL     OW13135   1.578   2.347   4.464
 4079SOL    HW113136   1.555   2.434   4.420
 4079SOL    HW213137   1.516   2.276   4.431
 4080SOL     OW13138   4.958   1.893   5.190
 4080SOL    HW113139   4.886   1.913   5.124
 4080SOL    HW213140   5.047   1.906   5.148
 4081SOL     OW13141   1.869   2.915   4.400
 4081SOL    HW113142   1.878   3.014   4.391
 4081SOL    HW213143   1.858   2.891   4.496
 4082SOL     OW13144   1.376   3.420   0.881
 4082SOL    HW113145   1.315   3.480   0.933
 4082SOL    HW213146   1.447   3.476   0.837
 4083SOL     OW13147   5.918   2.843   3.678
 4083SOL    HW113148   5.905   2.861   3.776
 4083SOL    HW213149   5.853   2.774   3.648
 4084SOL     OW13150   6.071   1.958   4.147
 4084SOL    HW113151   6.038   1.947   4.053
 4084SOL    HW213152   6.017   2.028   4.193
 4085SOL     OW13153   4.165   6.099   0.841
 4085SOL    HW113154   4.114   6.154   0.908
 4085SOL    HW213155   4.263   6.116   0.851
 4086SOL     OW13156   1.981   5.112   1.514
 4086SOL    HW113157   2.054   5.087   1.577
 4086SOL    HW213158   1.953   5.032   1.461
 4087SOL     OW13159   2.243   2.427   3.232
 4087SOL    HW113160   2.334   2.460   3.206
 4087SOL    HW213161   2.212   2.477   3.313
 4088SOL     OW13162   6.544   1.735   1.392
 4088SOL    HW113163   6.551   1.657   1.454
 4088SOL    HW213164   6.452   1.774   1.400
 4089SOL     OW13165   0.750   0.088   3.536
 4089SOL    HW113166   0.660   0.097   3.577
 4089SOL    HW213167   0.799   0.175   3.541
 4090SOL     OW13168   2.988   4.329   6.463
 4090SOL    HW113169   3.002   4.312   6.365
 4090SOL    HW213170   2.996   4.244   6.514
 4091SOL     OW13171   5.252   6.773   0.198
 4091SOL    HW113172   5.326   6.783   0.133
 4091SOL    HW213173   5.174   6.728   0.154
 4092SOL     OW13174   0.174   2.897   5.202
 4092SOL    HW113175   0.085   2.878   5.244
 4092SOL    HW213176   0.234   2.939   5.271
 4093SOL     OW13177   5.412   0.400   3.666
 4093SOL    HW113178   5.406   0.403   3.765
 4093SOL    HW213179   5.452   0.312   3.638
 4094SOL     OW13180   2.033   4.688   5.056
 4094SOL    HW113181   2.014   4.638   4.972
 4094SOL    HW213182   2.013   4.630   5.135
 4095SOL     OW13183   1.055   3.806   6.137
 4095SOL    HW113184   1.046   3.716   6.094
 4095SOL    HW213185   1.064   3.876   6.066
 4096SOL     OW13186   4.757   5.540   1.211
 4096SOL    HW113187   4.759   5.608   1.285
 4096SOL    HW213188   4.833   5.558   1.148
 4097SOL     OW13189   3.004   4.445   6.036
 4097SOL    HW113190   3.092   4.426   6.080
 4097SOL    HW213191   2.943   4.487   6.103
 4098SOL     OW13192   0.320   2.893   2.878
 4098SOL    HW113193   0.321   2.877   2.977
 4098SOL    HW213194   0.408   2.868   2.838
 4099SOL     OW13195   3.200   5.153   1.750
 4099SOL    HW113196   3.209   5.216   1.828
 4099SOL    HW213197   3.291   5.132   1.714
 4100SOL     OW13198   4.927   5.448   3.757
 4100SOL    HW113199   4.925   5.351   3.779
 4100SOL    HW213200   5.021   5.482   3.764
 4101SOL     OW13201   5.621   1.621   0.346
 4101SOL    HW113202   5.588   1.527   0.331
 4101SOL    HW213203   5.565   1.665   0.415
 4102SOL     OW13204   6.579   0.277   1.211
 4102SOL    HW113205   6.662   0.222   1.224
 4102SOL    HW213206   6.598   0.351   1.148
 4103SOL     OW13207   0.989   1.040   1.815
 4103SOL    HW113208   1.078   1.056   1.856
 4103SOL    HW213209   0.918   1.047   1.885
 4104SOL     OW13210   1.816   4.252   2.679
 4104SOL    HW113211   1.805   4.334   2.623
 4104SOL    HW213212   1.726   4.212   2.697
 4105SOL     OW13213   4.025   5.850   0.881
 4105SOL    HW113214   3.937   5.890   0.856
 4105SOL    HW213215   4.099   5.914   0.859
 4106SOL     OW13216   7.005   3.953   4.913
 4106SOL    HW113217   0.036   4.027   4.878
 4106SOL    HW213218   0.031   3.868   4.915
 4107SOL     OW13219   0.406   6.105   1.269
 4107SOL    HW113220   0.432   6.169   1.341
 4107SOL    HW213221   0.454   6.019   1.282
 4108SOL     OW13222   0.050   4.699   6.383
 4108SOL    HW113223   6.999   4.753   6.415
 4108SOL    HW213224   0.037   4.676   6.286
 4109SOL     OW13225   4.183   6.312   4.252
 4109SOL    HW113226   4.195   6.404   4.216
 4109SOL    HW213227   4.271   6.277   4.284
 4110SOL     OW13228   3.956   4.363   6.349
 4110SOL    HW113229   4.030   4.300   6.325
 4110SOL    HW213230   3.909   4.329   6.431
 4111SOL     OW13231   3.740   2.987   0.171
 4111SOL    HW113232   3.641   2.975   0.169
 4111SOL    HW213233   3.772   2.988   0.266
 4112SOL     OW13234   4.959   1.397   5.281
 4112SOL    HW113235   4.981   1.492   5.304
 4112SOL    HW213236   5.033   1.359   5.225
 4113SOL     OW13237   3.512   5.472   4.950
 4113SOL    HW113238   3.542   5.423   4.867
 4113SOL    HW213239   3.520   5.411   5.029
 4114SOL     OW13240   3.194   1.681   3.860
 4114SOL    HW113241   3.179   1.744   3.936
 4114SOL    HW213242   3.179   1.729   3.773
 4115SOL     OW13243   5.015   6.113   2.342
 4115SOL    HW113244   5.109   6.101   2.373
 4115SOL    HW213245   5.011   6.103   2.242
 4116SOL     OW13246   4.171   1.571   1.409
 4116SOL    HW113247   4.143   1.666   1.397
 4116SOL    HW213248   4.179   1.550   1.506
 4117SOL     OW13249   0.373   5.539   1.558
 4117SOL    HW113250   0.362   5.457   1.504
 4117SOL    HW213251   0.390   5.514   1.654
 4118SOL     OW13252   1.131   6.687   1.055
 4118SOL    HW113253   1.099   6.625   0.983
 4118SOL    HW213254   1.157   6.634   1.136
 4119SOL     OW13255   3.844   1.392   4.699
 4119SOL    HW113256   3.912   1.318   4.703
 4119SOL    HW213257   3.758   1.359   4.737
 4120SOL     OW13258   4.573   6.855   2.395
 4120SOL    HW113259   4.627   6.936   2.374
 4120SOL    HW213260   4.616   6.802   2.468
 4121SOL     OW13261   6.164   1.798   4.710
 4121SOL    HW113262   6.136   1.866   4.778
 4121SOL    HW213263   6.092   1.729   4.702
 4122SOL     OW13264   0.521   6.255   5.122
 4122SOL    HW113265   0.528   6.155   5.115
 4122SOL    HW213266   0.585   6.287   5.192
 4123SOL     OW13267   5.773   4.311   5.863
 4123SOL    HW113268   5.696   4.352   5.814
 4123SOL    HW213269   5.740   4.237   5.921
 4124SOL     OW13270   5.760   5.733   4.572
 4124SOL    HW113271   5.823   5.656   4.584
 4124SOL    HW213272   5.687   5.707   4.510
 4125SOL     OW13273   4.743   0.352   1.717
 4125SOL    HW113274   4.684   0.398   1.783
 4125SOL    HW213275   4.839   0.374   1.737
 4126SOL     OW13276   1.249   3.924   4.209
 4126SOL    HW113277   1.346   3.931   4.233
 4126SOL    HW213278   1.240   3.912   4.110
 4127SOL     OW13279   5.171   3.463   4.021
 4127SOL    HW113280   5.109   3.460   4.100
 4127SOL    HW213281   5.251   3.518   4.043
 4128SOL     OW13282   2.284   4.127   2.406
 4128SOL    HW113283   2.271   4.170   2.317
 4128SOL    HW213284   2.235   4.040   2.409
 4129SOL     OW13285   5.249   1.669   6.417
 4129SOL    HW113286   5.177   1.679   6.485
 4129SOL    HW213287   5.338   1.664   6.463
 4130SOL     OW13288   0.037   3.191   5.508
 4130SOL    HW113289   0.135   3.189   5.530
 4130SOL    HW213290   0.024   3.234   5.419
 4131SOL     OW13291   0.491   5.810   4.003
 4131SOL    HW113292   0.542   5.727   4.029
 4131SOL    HW213293   0.519   5.885   4.063
 4132SOL     OW13294   5.909   3.447   3.427
 4132SOL    HW113295   5.939   3.484   3.339
 4132SOL    HW213296   5.834   3.503   3.462
 4133SOL     OW13297   3.313   0.489   0.973
 4133SOL    HW113298   3.354   0.452   0.890
 4133SOL    HW213299   3.220   0.454   0.983
 4134SOL     OW13300   1.900   2.412   0.622
 4134SOL    HW113301   1.855   2.324   0.640
 4134SOL    HW213302   1.856   2.456   0.543
 4135SOL     OW13303   2.022   0.851   1.944
 4135SOL    HW113304   1.990   0.907   2.020
 4135SOL    HW213305   2.018   0.754   1.971
 4136SOL     OW13306   0.299   2.038   3.816
 4136SOL    HW113307   0.281   2.050   3.914
 4136SOL    HW213308   0.220   2.070   3.764
 4137SOL     OW13309   2.666   3.825   0.562
 4137SOL    HW113310   2.694   3.899   0.623
 4137SOL    HW213311   2.663   3.739   0.613
 4138SOL     OW13312   3.885   4.982   4.046
 4138SOL    HW113313   3.971   4.941   4.017
 4138SOL    HW213314   3.891   5.009   4.142
 4139SOL     OW13315   2.140   2.381   5.949
 4139SOL    HW113316   2.070   2.431   5.898
 4139SOL    HW213317   2.129   2.399   6.047
 4140SOL     OW13318   3.489   0.986   5.599
 4140SOL    HW113319   3.497   1.065   5.538
 4140SOL    HW213320   3.394   0.974   5.626
 4141SOL     OW13321   4.826   4.958   1.212
 4141SOL    HW113322   4.847   4.965   1.309
 4141SOL    HW213323   4.816   5.050   1.173
 4142SOL     OW13324   6.495   5.518   1.227
 4142SOL    HW113325   6.529   5.454   1.296
 4142SOL    HW213326   6.518   5.483   1.136
 4143SOL     OW13327   6.973   3.356   0.521
 4143SOL    HW113328   0.013   3.394   0.457
 4143SOL    HW213329   6.933   3.273   0.482
 4144SOL     OW13330   6.057   1.800   0.860
 4144SOL    HW113331   6.019   1.854   0.935
 4144SOL    HW213332   6.095   1.862   0.791
 4145SOL     OW13333   6.589   6.429   1.682
 4145SOL    HW113334   6.563   6.480   1.599
 4145SOL    HW213335   6.604   6.333   1.658
 4146SOL     OW13336   5.903   0.284   6.075
 4146SOL    HW113337   5.994   0.323   6.083
 4146SOL    HW213338   5.879   0.235   6.159
 4147SOL     OW13339   3.324   1.946   6.139
 4147SOL    HW113340   3.389   2.008   6.094
 4147SOL    HW213341   3.244   1.933   6.080
 4148SOL     OW13342   0.388   0.474   3.914
 4148SOL    HW113343   0.486   0.464   3.933
 4148SOL    HW213344   0.374   0.486   3.816
 4149SOL     OW13345   6.856   2.957   6.963
 4149SOL    HW113346   6.887   2.984   0.029
 4149SOL    HW213347   6.930   2.973   6.898
 4150SOL     OW13348   5.775   0.507   6.202
 4150SOL    HW113349   5.854   0.559   6.233
 4150SOL    HW213350   5.805   0.437   6.137
 4151SOL     OW13351   5.545   6.121   0.187
 4151SOL    HW113352   5.452   6.130   0.151
 4151SOL    HW213353   5.599   6.201   0.162
 4152SOL     OW13354   3.636   5.176   2.051
 4152SOL    HW113355   3.627   5.107   2.122
 4152SOL    HW213356   3.678   5.136   1.970
 4153SOL     OW13357   5.538   5.556   5.951
 4153SOL    HW113358   5.498   5.645   5.973
 4153SOL    HW213359   5.490   5.484   6.001
 4154SOL     OW13360   6.481   3.774   4.942
 4154SOL    HW113361   6.428   3.848   4.901
 4154SOL    HW213362   6.419   3.709   4.986
 4155SOL     OW13363   0.222   3.563   3.047
 4155SOL    HW113364   0.172   3.499   2.988
 4155SOL    HW213365   0.174   3.651   3.049
 4156SOL     OW13366   5.650   0.077   5.005
 4156SOL    HW113367   5.650   0.176   4.992
 4156SOL    HW213368   5.713   0.035   4.940
 4157SOL     OW13369   3.780   0.418   4.018
 4157SOL    HW113370   3.812   0.506   3.984
 4157SOL    HW213371   3.719   0.434   4.097
 4158SOL     OW13372   0.859   4.988   3.947
 4158SOL    HW113373   0.935   4.952   3.893
 4158SOL    HW213374   0.783   5.012   3.886
 4159SOL     OW13375   1.815   3.131   3.650
 4159SOL    HW113376   1.848   3.037   3.647
 4159SOL    HW213377   1.716   3.133   3.637
 4160SOL     OW13378   6.391   0.484   1.257
 4160SOL    HW113379   6.452   0.415   1.296
 4160SOL    HW213380   6.391   0.474   1.157
 4161SOL     OW13381   1.761   0.615   6.377
 4161SOL    HW113382   1.696   0.685   6.348
 4161SOL    HW213383   1.753   0.535   6.317
 4162SOL     OW13384   5.930   0.283   4.852
 4162SOL    HW113385   6.013   0.282   4.907
 4162SOL    HW213386   5.902   0.377   4.835
 4163SOL     OW13387   5.989   1.456   3.198
 4163SOL    HW113388   5.998   1.522   3.274
 4163SOL    HW213389   5.893   1.449   3.173
 4164SOL     OW13390   1.669   0.329   6.774
 4164SOL    HW113391   1.570   0.332   6.765
 4164SOL    HW213392   1.709   0.413   6.738
 4165SOL     OW13393   4.249   6.514   0.841
 4165SOL    HW113394   4.153   6.539   0.856
 4165SOL    HW213395   4.294   6.502   0.929
 4166SOL     OW13396   4.010   2.446   1.276
 4166SOL    HW113397   3.933   2.454   1.339
 4166SOL    HW213398   4.065   2.529   1.280
 4167SOL     OW13399   2.609   2.417   1.069
 4167SOL    HW113400   2.626   2.515   1.060
 4167SOL    HW213401   2.649   2.384   1.155
 4168SOL     OW13402   6.996   5.308   1.350
 4168SOL    HW113403   7.022   5.404   1.362
 4168SOL    HW213404   0.028   5.251   1.408
 4169SOL     OW13405   5.062   4.022   4.177
 4169SOL    HW113406   5.105   4.099   4.224
 4169SOL    HW213407   5.042   4.048   4.083
 4170SOL     OW13408   3.946   2.489   5.612
 4170SOL    HW113409   3.970   2.480   5.516
 4170SOL    HW213410   3.973   2.579   5.646
 4171SOL     OW13411   5.131   3.636   0.940
 4171SOL    HW113412   5.073   3.600   0.868
 4171SOL    HW213413   5.133   3.736   0.935
 4172SOL     OW13414   0.158   2.267   0.311
 4172SOL    HW113415   0.178   2.169   0.306
 4172SOL    HW213416   0.239   2.319   0.287
 4173SOL     OW13417   5.915   3.113   5.330
 4173SOL    HW113418   6.002   3.159   5.350
 4173SOL    HW213419   5.861   3.106   5.414
 4174SOL     OW13420   4.682   0.532   4.176
 4174SOL    HW113421   4.606   0.561   4.118
 4174SOL    HW213422   4.684   0.588   4.259
 4175SOL     OW13423   3.665   6.932   3.988
 4175SOL    HW113424   3.645   6.834   3.989
 4175SOL    HW213425   3.647   6.968   3.896
 4176SOL     OW13426   4.450   0.312   2.609
 4176SOL    HW113427   4.371   0.333   2.667
 4176SOL    HW213428   4.491   0.226   2.639
 4177SOL     OW13429   0.438   5.326   4.858
 4177SOL    HW113430   0.478   5.274   4.783
 4177SOL    HW213431   0.468   5.421   4.854
 4178SOL     OW13432   3.231   1.169   6.149
 4178SOL    HW113433   3.246   1.133   6.056
 4178SOL    HW213434   3.261   1.265   6.152
 4179SOL     OW13435   5.706   3.351   4.335
 4179SOL    HW113436   5.803   3.342   4.356
 4179SOL    HW213437   5.673   3.440   4.369
 4180SOL     OW13438   5.532   4.503   1.826
 4180SOL    HW113439   5.598   4.431   1.850
 4180SOL    HW213440   5.482   4.477   1.744
 4181SOL     OW13441   1.123   2.272   6.265
 4181SOL    HW113442   1.041   2.225   6.298
 4181SOL    HW213443   1.202   2.245   6.321
 4182SOL     OW13444   0.547   0.108   2.698
 4182SOL    HW113445   0.448   0.124   2.700
 4182SOL    HW213446   0.577   0.076   2.788
 4183SOL     OW13447   2.708   1.634   1.790
 4183SOL    HW113448   2.772   1.702   1.828
 4183SOL    HW213449   2.629   1.681   1.751
 4184SOL     OW13450   3.738   5.576   1.119
 4184SOL    HW113451   3.755   5.545   1.026
 4184SOL    HW213452   3.825   5.597   1.164
 4185SOL     OW13453   0.832   6.170   3.421
 4185SOL    HW113454   0.863   6.076   3.409
 4185SOL    HW213455   0.877   6.229   3.354
 4186SOL     OW13456   2.329   3.913   6.794
 4186SOL    HW113457   2.409   3.854   6.801
 4186SOL    HW213458   2.324   3.972   6.875
 4187SOL     OW13459   3.406   3.234   6.258
 4187SOL    HW113460   3.424   3.280   6.171
 4187SOL    HW213461   3.326   3.274   6.302
 4188SOL     OW13462   4.845   0.558   4.526
 4188SOL    HW113463   4.760   0.506   4.514
 4188SOL    HW213464   4.915   0.522   4.465
 4189SOL     OW13465   3.214   1.416   4.343
 4189SOL    HW113466   3.173   1.384   4.428
 4189SOL    HW213467   3.262   1.340   4.298
 4190SOL     OW13468   2.111   0.532   6.493
 4190SOL    HW113469   2.157   0.613   6.530
 4190SOL    HW213470   2.051   0.494   6.563
 4191SOL     OW13471   5.858   3.024   2.884
 4191SOL    HW113472   5.873   2.984   2.974
 4191SOL    HW213473   5.762   3.052   2.875
 4192SOL     OW13474   5.952   1.347   2.863
 4192SOL    HW113475   5.890   1.406   2.914
 4192SOL    HW213476   6.016   1.403   2.811
 4193SOL     OW13477   2.192   0.092   2.176
 4193SOL    HW113478   2.115   0.061   2.121
 4193SOL    HW213479   2.183   0.057   2.269
 4194SOL     OW13480   6.638   1.964   4.442
 4194SOL    HW113481   6.559   2.024   4.453
 4194SOL    HW213482   6.703   2.005   4.379
 4195SOL     OW13483   4.587   0.312   1.487
 4195SOL    HW113484   4.640   0.340   1.567
 4195SOL    HW213485   4.650   0.288   1.413
 4196SOL     OW13486   5.321   2.520   4.050
 4196SOL    HW113487   5.404   2.478   4.087
 4196SOL    HW213488   5.314   2.614   4.085
 4197SOL     OW13489   5.414   4.369   4.625
 4197SOL    HW113490   5.469   4.386   4.543
 4197SOL    HW213491   5.423   4.445   4.688
 4198SOL     OW13492   5.561   3.265   6.941
 4198SOL    HW113493   5.642   3.225   6.986
 4198SOL    HW213494   5.501   3.191   6.910
 4199SOL     OW13495   3.258   3.324   5.255
 4199SOL    HW113496   3.213   3.316   5.166
 4199SOL    HW213497   3.319   3.245   5.269
 4200SOL     OW13498   2.148   6.794   5.817
 4200SOL    HW113499   2.164   6.767   5.912
 4200SOL    HW213500   2.051   6.810   5.803
 4201SOL     OW13501   6.389   6.723   2.920
 4201SOL    HW113502   6.373   6.630   2.885
 4201SOL    HW213503   6.464   6.721   2.985
 4202SOL     OW13504   5.146   4.808   5.741
 4202SOL    HW113505   5.227   4.861   5.714
 4202SOL    HW213506   5.175   4.729   5.795
 4203SOL     OW13507   4.677   5.937   3.238
 4203SOL    HW113508   4.593   5.986   3.261
 4203SOL    HW213509   4.745   6.001   3.202
 4204SOL     OW13510   3.037   3.162   1.450
 4204SOL    HW113511   3.057   3.072   1.411
 4204SOL    HW213512   3.112   3.189   1.511
 4205SOL     OW13513   2.956   5.230   5.008
 4205SOL    HW113514   2.942   5.240   4.909
 4205SOL    HW213515   2.868   5.213   5.053
 4206SOL     OW13516   4.720   7.006   5.198
 4206SOL    HW113517   4.697   0.051   5.132
 4206SOL    HW213518   4.637   6.958   5.226
 4207SOL     OW13519   1.418   1.284   1.683
 4207SOL    HW113520   1.319   1.274   1.694
 4207SOL    HW213521   1.455   1.337   1.759
 4208SOL     OW13522   1.683   2.831   1.217
 4208SOL    HW113523   1.664   2.925   1.187
 4208SOL    HW213524   1.653   2.767   1.147
 4209SOL     OW13525   1.723   6.953   4.635
 4209SOL    HW113526   1.710   6.902   4.550
 4209SOL    HW213527   1.818   6.985   4.641
 4210SOL     OW13528   3.690   3.395   1.354
 4210SOL    HW113529   3.785   3.369   1.373
 4210SOL    HW213530   3.635   3.379   1.435
 4211SOL     OW13531   4.915   4.974   5.014
 4211SOL    HW113532   4.847   4.928   5.071
 4211SOL    HW213533   4.949   5.056   5.060
 4212SOL     OW13534   6.368   1.148   2.627
 4212SOL    HW113535   6.379   1.166   2.724
 4212SOL    HW213536   6.273   1.164   2.600
 4213SOL     OW13537   1.706   1.160   2.104
 4213SOL    HW113538   1.773   1.086   2.111
 4213SOL    HW213539   1.614   1.122   2.102
 4214SOL     OW13540   0.879   3.070   5.832
 4214SOL    HW113541   0.801   3.087   5.771
 4214SOL    HW213542   0.873   2.977   5.869
 4215SOL     OW13543   0.720   5.830   4.511
 4215SOL    HW113544   0.791   5.844   4.580
 4215SOL    HW213545   0.711   5.732   4.492
 4216SOL     OW13546   0.952   2.526   4.448
 4216SOL    HW113547   0.940   2.612   4.399
 4216SOL    HW213548   1.044   2.491   4.431
 4217SOL     OW13549   0.390   0.324   2.311
 4217SOL    HW113550   0.458   0.253   2.297
 4217SOL    HW213551   0.416   0.380   2.390
 4218SOL     OW13552   4.937   6.927   1.910
 4218SOL    HW113553   5.012   6.949   1.972
 4218SOL    HW213554   4.885   7.010   1.890
 4219SOL     OW13555   3.884   4.957   5.268
 4219SOL    HW113556   3.846   5.046   5.291
 4219SOL    HW213557   3.829   4.914   5.196
 4220SOL     OW13558   6.848   3.462   3.541
 4220SOL    HW113559   6.772   3.399   3.559
 4220SOL    HW213560   6.901   3.428   3.464
 4221SOL     OW13561   5.378   5.335   6.079
 4221SOL    HW113562   5.315   5.287   6.018
 4221SOL    HW213563   5.376   5.291   6.169
 4222SOL     OW13564   5.762   2.297   1.738
 4222SOL    HW113565   5.719   2.382   1.708
 4222SOL    HW213566   5.826   2.316   1.812
 4223SOL     OW13567   3.321   4.029   2.436
 4223SOL    HW113568   3.243   3.989   2.387
 4223SOL    HW213569   3.390   3.959   2.451
 4224SOL     OW13570   4.538   2.495   4.848
 4224SOL    HW113571   4.630   2.526   4.869
 4224SOL    HW213572   4.518   2.516   4.752
 4225SOL     OW13573   5.958   0.378   4.328
 4225SOL    HW113574   6.004   0.373   4.239
 4225SOL    HW213575   5.951   0.474   4.355
 4226SOL     OW13576   0.721   1.246   3.482
 4226SOL    HW113577   0.777   1.193   3.546
 4226SOL    HW213578   0.777   1.274   3.404
 4227SOL     OW13579   3.987   4.813   0.455
 4227SOL    HW113580   3.890   4.830   0.472
 4227SOL    HW213581   4.039   4.829   0.539
 4228SOL     OW13582   5.750   5.705   3.780
 4228SOL    HW113583   5.725   5.800   3.761
 4228SOL    HW213584   5.667   5.653   3.801
 4229SOL     OW13585   4.516   5.091   6.324
 4229SOL    HW113586   4.609   5.122   6.340
 4229SOL    HW213587   4.488   5.030   6.398
 4230SOL     OW13588   3.050   0.399   5.150
 4230SOL    HW113589   3.123   0.466   5.142
 4230SOL    HW213590   3.083   0.310   5.120
 4231SOL     OW13591   5.075   6.828   5.518
 4231SOL    HW113592   5.061   6.796   5.424
 4231SOL    HW213593   4.992   6.811   5.572
 4232SOL     OW13594   1.682   5.197   2.620
 4232SOL    HW113595   1.608   5.264   2.630
 4232SOL    HW213596   1.720   5.178   2.711
 4233SOL     OW13597   6.224   0.346   6.931
 4233SOL    HW113598   6.276   0.262   6.923
 4233SOL    HW213599   6.209   0.385   6.840
 4234SOL     OW13600   3.001   5.366   6.497
 4234SOL    HW113601   2.932   5.409   6.439
 4234SOL    HW213602   3.041   5.288   6.450
 4235SOL     OW13603   6.177   4.526   5.528
 4235SOL    HW113604   6.244   4.459   5.561
 4235SOL    HW213605   6.167   4.599   5.597
 4236SOL     OW13606   0.343   2.478   3.868
 4236SOL    HW113607   0.420   2.473   3.803
 4236SOL    HW213608   0.358   2.412   3.941
 4237SOL     OW13609   5.204   3.999   5.074
 4237SOL    HW113610   5.183   3.978   5.170
 4237SOL    HW213611   5.119   4.016   5.024
 4238SOL     OW13612   3.971   5.336   3.729
 4238SOL    HW113613   3.872   5.329   3.738
 4238SOL    HW213614   4.007   5.398   3.799
 4239SOL     OW13615   4.472   6.511   5.379
 4239SOL    HW113616   4.569   6.534   5.377
 4239SOL    HW213617   4.435   6.530   5.470
 4240SOL     OW13618   2.748   4.826   0.290
 4240SOL    HW113619   2.672   4.766   0.266
 4240SOL    HW213620   2.824   4.770   0.324
 4241SOL     OW13621   5.296   0.342   1.275
 4241SOL    HW113622   5.319   0.418   1.337
 4241SOL    HW213623   5.197   0.336   1.266
 4242SOL     OW13624   2.542   0.186   2.709
 4242SOL    HW113625   2.525   0.102   2.760
 4242SOL    HW213626   2.479   0.191   2.632
 4243SOL     OW13627   0.572   3.517   2.373
 4243SOL    HW113628   0.545   3.508   2.278
 4243SOL    HW213629   0.497   3.486   2.432
 4244SOL     OW13630   4.918   6.542   1.002
 4244SOL    HW113631   4.917   6.626   0.947
 4244SOL    HW213632   4.827   6.525   1.040
 4245SOL     OW13633   6.500   3.101   0.675
 4245SOL    HW113634   6.404   3.075   0.662
 4245SOL    HW213635   6.512   3.197   0.652
 4246SOL     OW13636   5.106   2.528   3.379
 4246SOL    HW113637   5.112   2.431   3.402
 4246SOL    HW213638   5.110   2.538   3.279
 4247SOL     OW13639   1.735   4.809   4.931
 4247SOL    HW113640   1.823   4.770   4.959
 4247SOL    HW213641   1.747   4.906   4.909
 4248SOL     OW13642   1.854   0.731   2.762
 4248SOL    HW113643   1.895   0.642   2.779
 4248SOL    HW213644   1.777   0.721   2.698
 4249SOL     OW13645   6.941   0.642   4.537
 4249SOL    HW113646   6.884   0.588   4.599
 4249SOL    HW213647   6.927   0.612   4.443
 4250SOL     OW13648   6.812   6.288   4.376
 4250SOL    HW113649   6.722   6.329   4.391
 4250SOL    HW213650   6.801   6.192   4.352
 4251SOL     OW13651   6.132   2.391   6.136
 4251SOL    HW113652   6.039   2.428   6.138
 4251SOL    HW213653   6.196   2.465   6.117
 4252SOL     OW13654   6.319   6.150   5.585
 4252SOL    HW113655   6.275   6.240   5.585
 4252SOL    HW213656   6.308   6.107   5.674
 4253SOL     OW13657   4.287   5.985   2.545
 4253SOL    HW113658   4.355   6.058   2.543
 4253SOL    HW213659   4.219   6.001   2.474
 4254SOL     OW13660   2.264   3.646   6.466
 4254SOL    HW113661   2.231   3.737   6.491
 4254SOL    HW213662   2.363   3.642   6.480
 4255SOL     OW13663   0.293   3.718   2.366
 4255SOL    HW113664   0.340   3.638   2.327
 4255SOL    HW213665   0.289   3.708   2.466
 4256SOL     OW13666   0.627   5.347   2.420
 4256SOL    HW113667   0.634   5.273   2.353
 4256SOL    HW213668   0.717   5.385   2.438
 4257SOL     OW13669   5.972   0.985   4.863
 4257SOL    HW113670   5.906   1.056   4.889
 4257SOL    HW213671   5.993   0.929   4.943
 4258SOL     OW13672   4.034   5.785   0.307
 4258SOL    HW113673   4.060   5.701   0.354
 4258SOL    HW213674   4.104   5.855   0.323
 4259SOL     OW13675   1.053   6.586   2.024
 4259SOL    HW113676   0.970   6.550   2.065
 4259SOL    HW213677   1.095   6.652   2.086
 4260SOL     OW13678   5.224   6.960   5.182
 4260SOL    HW113679   5.213   6.866   5.214
 4260SOL    HW213680   5.175   7.022   5.243
 4261SOL     OW13681   1.772   0.074   3.912
 4261SOL    HW113682   1.805   0.093   4.004
 4261SOL    HW213683   1.696   0.134   3.890
 4262SOL     OW13684   1.528   4.556   6.544
 4262SOL    HW113685   1.491   4.477   6.593
 4262SOL    HW213686   1.600   4.525   6.482
 4263SOL     OW13687   2.958   1.932   3.820
 4263SOL    HW113688   2.877   1.981   3.852
 4263SOL    HW213689   2.955   1.924   3.720
 4264SOL     OW13690   5.590   1.413   3.906
 4264SOL    HW113691   5.623   1.480   3.840
 4264SOL    HW213692   5.531   1.458   3.973
 4265SOL     OW13693   3.027   0.385   0.999
 4265SOL    HW113694   2.959   0.459   1.002
 4265SOL    HW213695   3.013   0.325   1.078
 4266SOL     OW13696   1.443   6.400   0.590
 4266SOL    HW113697   1.367   6.435   0.644
 4266SOL    HW213698   1.514   6.470   0.583
 4267SOL     OW13699   1.813   4.180   4.538
 4267SOL    HW113700   1.788   4.229   4.621
 4267SOL    HW213701   1.912   4.182   4.526
 4268SOL     OW13702   1.345   4.791   6.541
 4268SOL    HW113703   1.399   4.734   6.479
 4268SOL    HW213704   1.270   4.834   6.490
 4269SOL     OW13705   3.236   1.877   4.395
 4269SOL    HW113706   3.334   1.856   4.393
 4269SOL    HW213707   3.222   1.973   4.419
 4270SOL     OW13708   3.787   2.493   0.451
 4270SOL    HW113709   3.859   2.445   0.500
 4270SOL    HW213710   3.817   2.586   0.430
 4271SOL     OW13711   6.843   0.330   0.848
 4271SOL    HW113712   6.896   0.282   0.917
 4271SOL    HW213713   6.776   0.266   0.808
 4272SOL     OW13714   6.349   2.711   5.796
 4272SOL    HW113715   6.409   2.649   5.745
 4272SOL    HW213716   6.255   2.702   5.763
 4273SOL     OW13717   4.502   5.622   5.177
 4273SOL    HW113718   4.478   5.692   5.110
 4273SOL    HW213719   4.601   5.611   5.182
 4274SOL     OW13720   6.520   0.262   1.871
 4274SOL    HW113721   6.528   0.238   1.968
 4274SOL    HW213722   6.424   0.268   1.846
 4275SOL     OW13723   0.739   2.758   3.398
 4275SOL    HW113724   0.666   2.746   3.330
 4275SOL    HW213725   0.736   2.852   3.433
 4276SOL     OW13726   3.120   6.135   3.998
 4276SOL    HW113727   3.071   6.133   4.085
 4276SOL    HW213728   3.072   6.076   3.932
 4277SOL     OW13729   6.619   5.681   4.203
 4277SOL    HW113730   6.564   5.763   4.185
 4277SOL    HW213731   6.609   5.617   4.127
 4278SOL     OW13732   1.250   6.817   2.067
 4278SOL    HW113733   1.297   6.865   1.993
 4278SOL    HW213734   1.239   6.879   2.145
 4279SOL     OW13735   2.049   2.588   3.110
 4279SOL    HW113736   2.117   2.525   3.146
 4279SOL    HW213737   2.051   2.674   3.162
 4280SOL     OW13738   6.692   6.958   6.184
 4280SOL    HW113739   6.679   7.023   6.258
 4280SOL    HW213740   6.761   6.993   6.120
 4281SOL     OW13741   4.765   5.565   4.054
 4281SOL    HW113742   4.807   5.655   4.067
 4281SOL    HW213743   4.780   5.534   3.960
 4282SOL     OW13744   3.528   4.265   1.066
 4282SOL    HW113745   3.525   4.359   1.033
 4282SOL    HW213746   3.623   4.234   1.069
 4283SOL     OW13747   5.001   1.218   3.632
 4283SOL    HW113748   4.999   1.172   3.721
 4283SOL    HW213749   5.024   1.315   3.646
 4284SOL     OW13750   5.010   5.801   6.976
 4284SOL    HW113751   4.916   5.800   7.011
 4284SOL    HW213752   5.053   5.889   6.997
 4285SOL     OW13753   2.999   0.724   5.998
 4285SOL    HW113754   2.903   0.742   6.020
 4285SOL    HW213755   3.005   0.645   5.938
 4286SOL     OW13756   6.796   1.072   6.492
 4286SOL    HW113757   6.853   1.071   6.574
 4286SOL    HW213758   6.842   1.127   6.421
 4287SOL     OW13759   4.636   0.745   0.209
 4287SOL    HW113760   4.694   0.825   0.192
 4287SOL    HW213761   4.692   0.662   0.203
 4288SOL     OW13762   6.798   6.186   2.005
 4288SOL    HW113763   6.890   6.194   1.966
 4288SOL    HW213764   6.804   6.155   2.100
 4289SOL     OW13765   0.197   2.979   4.764
 4289SOL    HW113766   0.176   3.071   4.733
 4289SOL    HW213767   0.262   2.936   4.701
 4290SOL     OW13768   0.577   0.490   3.050
 4290SOL    HW113769   0.562   0.565   2.986
 4290SOL    HW213770   0.516   0.414   3.028
 4291SOL     OW13771   5.098   3.172   5.870
 4291SOL    HW113772   5.044   3.231   5.811
 4291SOL    HW213773   5.118   3.219   5.956
 4292SOL     OW13774   5.223   1.921   0.586
 4292SOL    HW113775   5.218   1.842   0.647
 4292SOL    HW213776   5.153   1.914   0.515
 4293SOL     OW13777   4.511   4.088   6.675
 4293SOL    HW113778   4.568   4.135   6.742
 4293SOL    HW213779   4.500   4.146   6.594
 4294SOL     OW13780   2.935   2.067   6.339
 4294SOL    HW113781   2.966   1.973   6.324
 4294SOL    HW213782   3.010   2.130   6.324
 4295SOL     OW13783   4.099   6.318   3.209
 4295SOL    HW113784   4.057   6.276   3.289
 4295SOL    HW213785   4.180   6.371   3.238
 4296SOL     OW13786   2.611   6.527   1.001
 4296SOL    HW113787   2.520   6.487   1.006
 4296SOL    HW213788   2.662   6.505   1.085
 4297SOL     OW13789   5.676   5.517   0.969
 4297SOL    HW113790   5.757   5.549   0.920
 4297SOL    HW213791   5.701   5.439   1.027
 4298SOL     OW13792   3.201   6.319   1.390
 4298SOL    HW113793   3.289   6.285   1.424
 4298SOL    HW213794   3.204   6.419   1.383
 4299SOL     OW13795   1.133   2.347   0.343
 4299SOL    HW113796   1.165   2.272   0.285
 4299SOL    HW213797   1.210   2.408   0.364
 4300SOL     OW13798   3.926   0.381   1.105
 4300SOL    HW113799   3.995   0.451   1.088
 4300SOL    HW213800   3.839   0.408   1.063
 4301SOL     OW13801   3.394   0.001   2.240
 4301SOL    HW113802   3.331   6.965   2.193
 4301SOL    HW213803   3.373   0.095   2.215
 4302SOL     OW13804   1.853   5.889   6.158
 4302SOL    HW113805   1.780   5.833   6.197
 4302SOL    HW213806   1.849   5.981   6.198
 4303SOL     OW13807   6.143   4.264   4.035
 4303SOL    HW113808   6.155   4.329   3.959
 4303SOL    HW213809   6.072   4.299   4.097
 4304SOL     OW13810   3.495   3.544   1.616
 4304SOL    HW113811   3.578   3.576   1.570
 4304SOL    HW213812   3.482   3.595   1.701
 4305SOL     OW13813   0.993   0.269   5.144
 4305SOL    HW113814   0.953   0.295   5.232
 4305SOL    HW213815   1.075   0.324   5.128
 4306SOL     OW13816   5.082   3.922   4.419
 4306SOL    HW113817   5.076   3.951   4.323
 4306SOL    HW213818   4.995   3.939   4.465
 4307SOL     OW13819   6.206   1.930   5.290
 4307SOL    HW113820   6.239   1.903   5.380
 4307SOL    HW213821   6.119   1.884   5.272
 4308SOL     OW13822   4.889   4.634   1.036
 4308SOL    HW113823   4.934   4.695   1.101
 4308SOL    HW213824   4.944   4.551   1.024
 4309SOL     OW13825   1.252   3.663   0.256
 4309SOL    HW113826   1.308   3.592   0.214
 4309SOL    HW213827   1.223   3.633   0.347
 4310SOL     OW13828   0.137   1.698   2.185
 4310SOL    HW113829   0.197   1.768   2.146
 4310SOL    HW213830   0.050   1.699   2.136
 4311SOL     OW13831   1.027   6.107   2.433
 4311SOL    HW113832   1.034   6.198   2.392
 4311SOL    HW213833   0.931   6.078   2.432
 4312SOL     OW13834   0.344   4.751   2.312
 4312SOL    HW113835   0.310   4.836   2.351
 4312SOL    HW213836   0.409   4.771   2.239
 4313SOL     OW13837   5.967   1.437   6.721
 4313SOL    HW113838   6.029   1.423   6.799
 4313SOL    HW213839   5.908   1.357   6.710
 4314SOL     OW13840   6.639   2.650   4.936
 4314SOL    HW113841   6.679   2.580   4.877
 4314SOL    HW213842   6.593   2.607   5.013
 4315SOL     OW13843   2.705   1.411   4.165
 4315SOL    HW113844   2.786   1.364   4.200
 4315SOL    HW213845   2.642   1.344   4.127
 4316SOL     OW13846   5.717   6.743   2.210
 4316SOL    HW113847   5.648   6.703   2.270
 4316SOL    HW213848   5.698   6.716   2.116
 4317SOL     OW13849   4.922   1.060   5.941
 4317SOL    HW113850   4.995   1.110   5.987
 4317SOL    HW213851   4.837   1.114   5.945
 4318SOL     OW13852   1.269   1.677   3.871
 4318SOL    HW113853   1.300   1.584   3.890
 4318SOL    HW213854   1.215   1.679   3.787
 4319SOL     OW13855   1.248   4.609   2.262
 4319SOL    HW113856   1.170   4.630   2.320
 4319SOL    HW213857   1.220   4.547   2.189
 4320SOL     OW13858   3.791   6.086   0.174
 4320SOL    HW113859   3.784   6.176   0.132
 4320SOL    HW213860   3.824   6.095   0.268
 4321SOL     OW13861   6.459   6.989   2.522
 4321SOL    HW113862   6.541   6.931   2.520
 4321SOL    HW213863   6.429   7.001   2.616
 4322SOL     OW13864   0.961   3.209   5.074
 4322SOL    HW113865   0.913   3.295   5.087
 4322SOL    HW213866   0.902   3.133   5.104
 4323SOL     OW13867   3.866   5.362   0.162
 4323SOL    HW113868   3.828   5.453   0.178
 4323SOL    HW213869   3.827   5.323   0.079
 4324SOL     OW13870   7.012   3.578   5.837
 4324SOL    HW113871   6.932   3.637   5.841
 4324SOL    HW213872   0.014   3.566   5.742
 4325SOL     OW13873   2.757   1.162   2.824
 4325SOL    HW113874   2.757   1.251   2.871
 4325SOL    HW213875   2.663   1.130   2.815
 4326SOL     OW13876   5.058   2.352   2.695
 4326SOL    HW113877   5.031   2.335   2.600
 4326SOL    HW213878   5.125   2.283   2.724
 4327SOL     OW13879   3.720   5.640   4.341
 4327SOL    HW113880   3.750   5.577   4.270
 4327SOL    HW213881   3.687   5.589   4.420
 4328SOL     OW13882   5.554   5.507   4.871
 4328SOL    HW113883   5.536   5.428   4.931
 4328SOL    HW213884   5.649   5.506   4.842
 4329SOL     OW13885   5.959   2.589   6.189
 4329SOL    HW113886   5.997   2.635   6.269
 4329SOL    HW213887   5.950   2.655   6.113
 4330SOL     OW13888   2.723   5.083   5.380
 4330SOL    HW113889   2.768   5.006   5.335
 4330SOL    HW213890   2.668   5.133   5.314
 4331SOL     OW13891   6.486   0.414   1.552
 4331SOL    HW113892   6.388   0.405   1.571
 4331SOL    HW213893   6.533   0.329   1.576
 4332SOL     OW13894   6.763   4.943   2.638
 4332SOL    HW113895   6.774   4.846   2.656
 4332SOL    HW213896   6.829   4.971   2.568
 4333SOL     OW13897   3.987   1.953   5.254
 4333SOL    HW113898   4.005   1.897   5.174
 4333SOL    HW213899   4.015   1.904   5.337
 4334SOL     OW13900   1.192   2.943   3.747
 4334SOL    HW113901   1.209   2.863   3.689
 4334SOL    HW213902   1.244   2.933   3.832
 4335SOL     OW13903   3.406   3.574   1.337
 4335SOL    HW113904   3.406   3.592   1.436
 4335SOL    HW213905   3.361   3.650   1.290
 4336SOL     OW13906   2.300   5.835   5.970
 4336SOL    HW113907   2.325   5.807   6.062
 4336SOL    HW213908   2.377   5.882   5.927
 4337SOL     OW13909   1.494   5.431   2.647
 4337SOL    HW113910   1.398   5.459   2.657
 4337SOL    HW213911   1.534   5.477   2.568
 4338SOL     OW13912   4.887   0.720   5.980
 4338SOL    HW113913   4.969   0.774   5.959
 4338SOL    HW213914   4.807   0.779   5.975
 4339SOL     OW13915   4.292   2.788   5.757
 4339SOL    HW113916   4.354   2.748   5.824
 4339SOL    HW213917   4.329   2.774   5.665
 4340SOL     OW13918   6.498   3.613   0.879
 4340SOL    HW113919   6.469   3.677   0.950
 4340SOL    HW213920   6.427   3.543   0.866
 4341SOL     OW13921   1.192   5.856   2.348
 4341SOL    HW113922   1.158   5.792   2.418
 4341SOL    HW213923   1.135   5.938   2.349
 4342SOL     OW13924   5.175   3.951   2.626
 4342SOL    HW113925   5.103   3.926   2.561
 4342SOL    HW213926   5.228   3.870   2.649
 4343SOL     OW13927   3.759   0.147   6.101
 4343SOL    HW113928   3.787   0.134   6.197
 4343SOL    HW213929   3.728   0.060   6.064
 4344SOL     OW13930   0.125   2.213   3.705
 4344SOL    HW113931   0.126   2.266   3.620
 4344SOL    HW213932   0.093   2.272   3.780
 4345SOL     OW13933   3.057   3.446   2.333
 4345SOL    HW113934   3.014   3.370   2.382
 4345SOL    HW213935   3.096   3.510   2.399
 4346SOL     OW13936   1.821   3.262   1.662
 4346SOL    HW113937   1.771   3.318   1.728
 4346SOL    HW213938   1.867   3.320   1.596
 4347SOL     OW13939   5.710   5.050   1.734
 4347SOL    HW113940   5.809   5.032   1.729
 4347SOL    HW213941   5.665   4.975   1.783
 4348SOL     OW13942   6.405   6.075   4.141
 4348SOL    HW113943   6.373   6.158   4.187
 4348SOL    HW213944   6.362   5.996   4.183
 4349SOL     OW13945   0.296   3.727   3.894
 4349SOL    HW113946   0.208   3.754   3.856
 4349SOL    HW213947   0.299   3.628   3.905
 4350SOL     OW13948   4.819   1.126   5.005
 4350SOL    HW113949   4.911   1.092   4.989
 4350SOL    HW213950   4.820   1.226   5.004
 4351SOL     OW13951   1.318   6.859   0.980
 4351SOL    HW113952   1.254   6.806   1.035
 4351SOL    HW213953   1.303   6.838   0.883
 4352SOL     OW13954   4.122   3.847   1.061
 4352SOL    HW113955   4.155   3.785   1.131
 4352SOL    HW213956   4.069   3.921   1.103
 4353SOL     OW13957   2.976   2.830   0.456
 4353SOL    HW113958   3.045   2.767   0.492
 4353SOL    HW213959   2.955   2.806   0.362
 4354SOL     OW13960   6.309   0.016   4.777
 4354SOL    HW113961   6.222   0.003   4.825
 4354SOL    HW213962   6.328   6.961   4.720
 4355SOL     OW13963   1.852   6.214   3.389
 4355SOL    HW113964   1.908   6.220   3.306
 4355SOL    HW213965   1.878   6.287   3.452
 4356SOL     OW13966   5.197   2.416   6.621
 4356SOL    HW113967   5.205   2.424   6.522
 4356SOL    HW213968   5.136   2.488   6.655
 4357SOL     OW13969   6.674   0.483   1.952
 4357SOL    HW113970   6.773   0.479   1.935
 4357SOL    HW213971   6.627   0.417   1.893
 4358SOL     OW13972   0.944   0.766   0.157
 4358SOL    HW113973   0.879   0.690   0.161
 4358SOL    HW213974   0.899   0.850   0.185
 4359SOL     OW13975   2.039   1.134   6.409
 4359SOL    HW113976   2.110   1.085   6.357
 4359SOL    HW213977   2.072   1.152   6.502
 4360SOL     OW13978   1.313   3.192   3.782
 4360SOL    HW113979   1.278   3.100   3.796
 4360SOL    HW213980   1.396   3.189   3.726
 4361SOL     OW13981   0.948   2.197   1.086
 4361SOL    HW113982   0.862   2.174   1.131
 4361SOL    HW213983   0.988   2.115   1.044
 4362SOL     OW13984   1.385   5.700   4.189
 4362SOL    HW113985   1.384   5.714   4.288
 4362SOL    HW213986   1.386   5.790   4.144
 4363SOL     OW13987   4.724   0.562   2.450
 4363SOL    HW113988   4.758   0.480   2.496
 4363SOL    HW213989   4.640   0.541   2.401
 4364SOL     OW13990   3.269   3.754   2.780
 4364SOL    HW113991   3.235   3.680   2.722
 4364SOL    HW213992   3.191   3.798   2.825
 4365SOL     OW13993   2.970   2.163   1.762
 4365SOL    HW113994   3.069   2.172   1.760
 4365SOL    HW213995   2.932   2.229   1.827
 4366SOL     OW13996   4.832   6.196   5.136
 4366SOL    HW113997   4.751   6.200   5.195
 4366SOL    HW213998   4.891   6.121   5.167
 4367SOL     OW13999   3.113   5.781   4.016
 4367SOL    HW114000   3.100   5.852   4.086
 4367SOL    HW214001   3.108   5.691   4.059
 4368SOL     OW14002   4.760   4.609   2.324
 4368SOL    HW114003   4.842   4.552   2.335
 4368SOL    HW214004   4.688   4.577   2.386
 4369SOL     OW14005   4.451   5.096   2.920
 4369SOL    HW114006   4.430   5.141   3.007
 4369SOL    HW214007   4.366   5.065   2.878
 4370SOL     OW14008   3.694   4.772   1.629
 4370SOL    HW114009   3.642   4.738   1.707
 4370SOL    HW214010   3.643   4.754   1.545
 4371SOL     OW14011   2.732   0.670   1.564
 4371SOL    HW114012   2.756   0.622   1.648
 4371SOL    HW214013   2.633   0.676   1.556
 4372SOL     OW14014   1.883   2.820   4.970
 4372SOL    HW114015   1.903   2.746   5.035
 4372SOL    HW214016   1.809   2.877   5.005
 4373SOL     OW14017   4.411   0.823   6.124
 4373SOL    HW114018   4.416   0.887   6.201
 4373SOL    HW214019   4.319   0.786   6.118
 4374SOL     OW14020   2.586   1.108   1.082
 4374SOL    HW114021   2.520   1.079   1.150
 4374SOL    HW214022   2.539   1.154   1.006
 4375SOL     OW14023   4.049   0.612   3.407
 4375SOL    HW114024   3.967   0.597   3.352
 4375SOL    HW214025   4.131   0.599   3.350
 4376SOL     OW14026   6.030   6.664   1.331
 4376SOL    HW114027   6.003   6.759   1.322
 4376SOL    HW214028   6.130   6.656   1.321
 4377SOL     OW14029   6.208   6.423   6.574
 4377SOL    HW114030   6.182   6.405   6.480
 4377SOL    HW214031   6.179   6.347   6.633
 4378SOL     OW14032   2.046   5.899   2.197
 4378SOL    HW114033   2.010   5.968   2.134
 4378SOL    HW214034   1.990   5.816   2.191
 4379SOL     OW14035   0.943   1.378   1.542
 4379SOL    HW114036   0.863   1.369   1.600
 4379SOL    HW214037   0.918   1.361   1.447
 4380SOL     OW14038   1.777   6.355   5.182
 4380SOL    HW114039   1.877   6.354   5.183
 4380SOL    HW214040   1.743   6.270   5.144
 4381SOL     OW14041   3.575   0.137   4.882
 4381SOL    HW114042   3.511   0.213   4.875
 4381SOL    HW214043   3.580   0.090   4.794
 4382SOL     OW14044   5.206   4.137   4.616
 4382SOL    HW114045   5.239   4.049   4.583
 4382SOL    HW214046   5.280   4.204   4.614
 4383SOL     OW14047   1.272   2.819   6.005
 4383SOL    HW114048   1.199   2.752   5.993
 4383SOL    HW214049   1.360   2.771   6.004
 4384SOL     OW14050   4.098   6.702   1.449
 4384SOL    HW114051   4.098   6.798   1.421
 4384SOL    HW214052   4.022   6.654   1.404
 4385SOL     OW14053   0.677   1.594   3.309
 4385SOL    HW114054   0.665   1.562   3.403
 4385SOL    HW214055   0.725   1.682   3.309
 4386SOL     OW14056   0.845   3.763   6.602
 4386SOL    HW114057   0.778   3.728   6.667
 4386SOL    HW214058   0.933   3.776   6.648
 4387SOL     OW14059   6.522   3.230   1.301
 4387SOL    HW114060   6.544   3.322   1.334
 4387SOL    HW214061   6.599   3.169   1.317
 4388SOL     OW14062   3.268   0.810   5.898
 4388SOL    HW114063   3.216   0.785   5.980
 4388SOL    HW214064   3.209   0.801   5.818
 4389SOL     OW14065   5.946   2.897   1.895
 4389SOL    HW114066   5.916   2.924   1.803
 4389SOL    HW214067   6.023   2.834   1.888
 4390SOL     OW14068   4.699   2.736   2.170
 4390SOL    HW114069   4.677   2.639   2.161
 4390SOL    HW214070   4.654   2.787   2.097
 4391SOL     OW14071   0.719   5.421   0.611
 4391SOL    HW114072   0.729   5.521   0.611
 4391SOL    HW214073   0.657   5.394   0.685
 4392SOL     OW14074   5.006   3.271   4.482
 4392SOL    HW114075   4.967   3.328   4.555
 4392SOL    HW214076   5.010   3.176   4.513
 4393SOL     OW14077   4.837   0.034   3.391
 4393SOL    HW114078   4.885   7.011   3.318
 4393SOL    HW214079   4.886   0.022   3.477
 4394SOL     OW14080   5.509   6.684   2.374
 4394SOL    HW114081   5.530   6.775   2.410
 4394SOL    HW214082   5.411   6.667   2.381
 4395SOL     OW14083   4.705   1.681   1.536
 4395SOL    HW114084   4.681   1.599   1.589
 4395SOL    HW214085   4.742   1.751   1.597
 4396SOL     OW14086   0.824   1.099   4.250
 4396SOL    HW114087   0.793   1.051   4.333
 4396SOL    HW214088   0.876   1.035   4.193
 4397SOL     OW14089   6.985   0.547   5.333
 4397SOL    HW114090   0.021   0.475   5.302
 4397SOL    HW214091   6.991   0.625   5.270
 4398SOL     OW14092   0.472   4.491   4.026
 4398SOL    HW114093   0.539   4.417   4.035
 4398SOL    HW214094   0.477   4.529   3.933
 4399SOL     OW14095   1.694   1.346   0.697
 4399SOL    HW114096   1.718   1.318   0.603
 4399SOL    HW214097   1.599   1.323   0.715
 4400SOL     OW14098   2.692   6.642   4.414
 4400SOL    HW114099   2.656   6.550   4.425
 4400SOL    HW214100   2.777   6.639   4.361
 4401SOL     OW14101   5.872   6.153   4.159
 4401SOL    HW114102   5.936   6.085   4.196
 4401SOL    HW214103   5.814   6.188   4.232
 4402SOL     OW14104   1.402   5.697   2.769
 4402SOL    HW114105   1.475   5.675   2.833
 4402SOL    HW214106   1.438   5.751   2.693
 4403SOL     OW14107   0.087   0.026   3.120
 4403SOL    HW114108   0.081   6.957   3.151
 4403SOL    HW214109   0.180   0.045   3.089
 4404SOL     OW14110   0.339   3.990   2.753
 4404SOL    HW114111   0.406   4.062   2.738
 4404SOL    HW214112   0.368   3.934   2.831
 4405SOL     OW14113   2.928   4.789   6.014
 4405SOL    HW114114   2.986   4.786   5.933
 4405SOL    HW214115   2.870   4.871   6.011
 4406SOL     OW14116   5.848   4.102   1.113
 4406SOL    HW114117   5.814   4.188   1.149
 4406SOL    HW214118   5.890   4.117   1.023
 4407SOL     OW14119   6.759   6.330   0.430
 4407SOL    HW114120   6.745   6.353   0.333
 4407SOL    HW214121   6.680   6.281   0.465
 4408SOL     OW14122   5.192   0.431   0.142
 4408SOL    HW114123   5.193   0.427   0.242
 4408SOL    HW214124   5.149   0.349   0.105
 4409SOL     OW14125   3.647   0.348   2.121
 4409SOL    HW114126   3.633   0.442   2.091
 4409SOL    HW214127   3.725   0.309   2.072
 4410SOL     OW14128   2.188   5.481   1.079
 4410SOL    HW114129   2.184   5.398   1.024
 4410SOL    HW214130   2.199   5.457   1.175
 4411SOL     OW14131   3.685   3.132   2.810
 4411SOL    HW114132   3.779   3.109   2.835
 4411SOL    HW214133   3.623   3.059   2.840
 4412SOL     OW14134   4.244   1.138   6.491
 4412SOL    HW114135   4.155   1.182   6.480
 4412SOL    HW214136   4.253   1.103   6.584
 4413SOL     OW14137   3.917   5.512   4.170
 4413SOL    HW114138   3.997   5.538   4.116
 4413SOL    HW214139   3.902   5.414   4.163
 4414SOL     OW14140   4.069   4.804   1.818
 4414SOL    HW114141   4.156   4.759   1.838
 4414SOL    HW214142   4.006   4.789   1.894
 4415SOL     OW14143   5.332   3.548   6.300
 4415SOL    HW114144   5.276   3.620   6.260
 4415SOL    HW214145   5.275   3.490   6.359
 4416SOL     OW14146   3.139   0.948   4.501
 4416SOL    HW114147   3.042   0.967   4.488
 4416SOL    HW214148   3.180   0.923   4.413
 4417SOL     OW14149   0.182   5.260   2.027
 4417SOL    HW114150   0.175   5.345   1.975
 4417SOL    HW214151   0.120   5.192   1.987
 4418SOL     OW14152   4.468   5.910   4.521
 4418SOL    HW114153   4.535   5.836   4.528
 4418SOL    HW214154   4.381   5.873   4.490
 4419SOL     OW14155   6.569   4.960   0.405
 4419SOL    HW114156   6.598   5.012   0.486
 4419SOL    HW214157   6.470   4.951   0.404
 4420SOL     OW14158   5.204   1.339   0.295
 4420SOL    HW114159   5.171   1.422   0.249
 4420SOL    HW214160   5.243   1.277   0.227
 4421SOL     OW14161   1.919   1.601   2.994
 4421SOL    HW114162   1.985   1.675   2.977
 4421SOL    HW214163   1.964   1.513   2.980
 4422SOL     OW14164   2.482   4.037   6.199
 4422SOL    HW114165   2.507   3.946   6.230
 4422SOL    HW214166   2.538   4.061   6.119
 4423SOL     OW14167   1.238   2.729   6.348
 4423SOL    HW114168   1.328   2.760   6.319
 4423SOL    HW214169   1.192   2.803   6.398
 4424SOL     OW14170   6.136   6.456   2.966
 4424SOL    HW114171   6.224   6.459   2.918
 4424SOL    HW214172   6.069   6.510   2.915
 4425SOL     OW14173   3.744   5.246   6.453
 4425SOL    HW114174   3.703   5.225   6.364
 4425SOL    HW214175   3.745   5.345   6.467
 4426SOL     OW14176   6.898   0.215   5.696
 4426SOL    HW114177   6.967   0.227   5.767
 4426SOL    HW214178   6.887   0.301   5.645
 4427SOL     OW14179   0.978   0.548   3.278
 4427SOL    HW114180   0.953   0.606   3.200
 4427SOL    HW214181   0.911   0.475   3.287
 4428SOL     OW14182   1.673   5.161   4.430
 4428SOL    HW114183   1.677   5.090   4.359
 4428SOL    HW214184   1.695   5.121   4.519
 4429SOL     OW14185   3.327   0.155   3.705
 4429SOL    HW114186   3.272   0.238   3.712
 4429SOL    HW214187   3.267   0.075   3.706
 4430SOL     OW14188   3.312   1.655   3.009
 4430SOL    HW114189   3.233   1.714   2.992
 4430SOL    HW214190   3.289   1.561   2.985
 4431SOL     OW14191   3.214   1.431   3.806
 4431SOL    HW114192   3.195   1.521   3.845
 4431SOL    HW214193   3.193   1.432   3.708
 4432SOL     OW14194   3.281   3.260   2.658
 4432SOL    HW114195   3.245   3.339   2.707
 4432SOL    HW214196   3.216   3.184   2.663
 4433SOL     OW14197   6.509   6.289   2.644
 4433SOL    HW114198   6.448   6.307   2.567
 4433SOL    HW214199   6.498   6.194   2.674
 4434SOL     OW14200   5.585   1.604   3.497
 4434SOL    HW114201   5.524   1.681   3.517
 4434SOL    HW214202   5.632   1.576   3.581
 4435SOL     OW14203   3.381   2.903   1.633
 4435SOL    HW114204   3.337   2.828   1.683
 4435SOL    HW214205   3.438   2.956   1.695
 4436SOL     OW14206   3.756   1.799   6.919
 4436SOL    HW114207   3.715   1.885   6.889
 4436SOL    HW214208   3.853   1.815   6.941
 4437SOL     OW14209   4.013   0.336   4.822
 4437SOL    HW114210   4.019   0.251   4.874
 4437SOL    HW214211   4.034   0.414   4.881
 4438SOL     OW14212   4.002   2.371   6.821
 4438SOL    HW114213   3.970   2.282   6.853
 4438SOL    HW214214   3.954   2.395   6.736
 4439SOL     OW14215   1.250   5.438   2.479
 4439SOL    HW114216   1.199   5.353   2.469
 4439SOL    HW214217   1.299   5.458   2.395
 4440SOL     OW14218   1.502   6.231   6.662
 4440SOL    HW114219   1.593   6.268   6.642
 4440SOL    HW214220   1.478   6.253   6.757
 4441SOL     OW14221   5.482   2.570   2.372
 4441SOL    HW114222   5.384   2.580   2.394
 4441SOL    HW214223   5.507   2.474   2.374
 4442SOL     OW14224   4.045   5.876   3.706
 4442SOL    HW114225   4.015   5.967   3.735
 4442SOL    HW214226   3.965   5.820   3.686
 4443SOL     OW14227   2.293   2.163   5.846
 4443SOL    HW114228   2.270   2.241   5.904
 4443SOL    HW214229   2.274   2.078   5.896
 4444SOL     OW14230   4.424   6.562   1.080
 4444SOL    HW114231   4.489   6.628   1.042
 4444SOL    HW214232   4.347   6.610   1.121
 4445SOL     OW14233   1.355   1.046   6.402
 4445SOL    HW114234   1.452   1.039   6.378
 4445SOL    HW214235   1.307   1.098   6.330
 4446SOL     OW14236   5.885   0.476   2.853
 4446SOL    HW114237   5.926   0.464   2.763
 4446SOL    HW214238   5.889   0.573   2.879
 4447SOL     OW14239   5.602   2.630   5.888
 4447SOL    HW114240   5.524   2.589   5.936
 4447SOL    HW214241   5.624   2.718   5.930
 4448SOL     OW14242   2.064   3.638   0.413
 4448SOL    HW114243   2.000   3.562   0.406
 4448SOL    HW214244   2.158   3.605   0.401
 4449SOL     OW14245   2.541   0.527   5.157
 4449SOL    HW114246   2.481   0.601   5.128
 4449SOL    HW214247   2.623   0.564   5.201
 4450SOL     OW14248   3.379   3.071   3.245
 4450SOL    HW114249   3.289   3.052   3.205
 4450SOL    HW214250   3.389   3.169   3.259
 4451SOL     OW14251   6.387   4.665   2.048
 4451SOL    HW114252   6.345   4.584   2.009
 4451SOL    HW214253   6.349   4.683   2.138
 4452SOL     OW14254   6.296   5.925   6.016
 4452SOL    HW114255   6.257   5.889   6.100
 4452SOL    HW214256   6.225   5.935   5.947
 4453SOL     OW14257   5.092   2.562   1.764
 4453SOL    HW114258   5.100   2.633   1.834
 4453SOL    HW214259   4.997   2.532   1.757
 4454SOL     OW14260   5.184   2.908   1.056
 4454SOL    HW114261   5.163   2.874   0.964
 4454SOL    HW214262   5.166   3.007   1.060
 4455SOL     OW14263   3.581   0.384   2.849
 4455SOL    HW114264   3.606   0.390   2.946
 4455SOL    HW214265   3.562   0.288   2.826
 4456SOL     OW14266   1.717   5.286   2.973
 4456SOL    HW114267   1.620   5.280   2.947
 4456SOL    HW214268   1.766   5.340   2.905
 4457SOL     OW14269   5.026   1.980   6.552
 4457SOL    HW114270   4.995   1.982   6.457
 4457SOL    HW214271   5.050   1.886   6.577
 4458SOL     OW14272   2.439   2.270   6.582
 4458SOL    HW114273   2.491   2.354   6.566
 4458SOL    HW214274   2.345   2.282   6.551
 4459SOL     OW14275   4.791   6.595   4.919
 4459SOL    HW114276   4.834   6.561   5.002
 4459SOL    HW214277   4.806   6.694   4.912
 4460SOL     OW14278   2.593   3.289   6.465
 4460SOL    HW114279   2.593   3.330   6.373
 4460SOL    HW214280   2.682   3.248   6.483
 4461SOL     OW14281   1.722   0.057   2.558
 4461SOL    HW114282   1.722   0.044   2.657
 4461SOL    HW214283   1.644   0.009   2.518
 4462SOL     OW14284   6.342   5.435   0.795
 4462SOL    HW114285   6.294   5.512   0.753
 4462SOL    HW214286   6.280   5.356   0.799
 4463SOL     OW14287   1.961   3.543   6.360
 4463SOL    HW114288   2.053   3.545   6.323
 4463SOL    HW214289   1.895   3.523   6.287
 4464SOL     OW14290   5.516   3.936   5.839
 4464SOL    HW114291   5.504   3.866   5.909
 4464SOL    HW214292   5.446   3.925   5.769
 4465SOL     OW14293   2.025   6.384   2.026
 4465SOL    HW114294   2.012   6.290   1.996
 4465SOL    HW214295   2.116   6.416   1.996
 4466SOL     OW14296   1.075   1.777   2.488
 4466SOL    HW114297   1.096   1.679   2.490
 4466SOL    HW214298   1.071   1.812   2.582
 4467SOL     OW14299   1.471   6.818   2.705
 4467SOL    HW114300   1.407   6.893   2.685
 4467SOL    HW214301   1.563   6.855   2.715
 4468SOL     OW14302   1.067   2.748   0.153
 4468SOL    HW114303   0.990   2.685   0.162
 4468SOL    HW214304   1.152   2.696   0.149
 4469SOL     OW14305   3.282   0.157   1.427
 4469SOL    HW114306   3.256   0.245   1.467
 4469SOL    HW214307   3.378   0.160   1.399
 4470SOL     OW14308   5.034   3.706   1.445
 4470SOL    HW114309   5.074   3.768   1.513
 4470SOL    HW214310   5.066   3.612   1.462
 4471SOL     OW14311   7.014   2.483   1.816
 4471SOL    HW114312   6.994   2.581   1.811
 4471SOL    HW214313   7.016   2.454   1.912
 4472SOL     OW14314   1.929   4.099   2.333
 4472SOL    HW114315   1.894   4.188   2.303
 4472SOL    HW214316   1.945   4.102   2.432
 4473SOL     OW14317   0.219   6.823   4.542
 4473SOL    HW114318   0.281   6.793   4.470
 4473SOL    HW214319   0.130   6.846   4.503
 4474SOL     OW14320   3.916   7.016   2.798
 4474SOL    HW114321   3.985   6.974   2.856
 4474SOL    HW214322   3.828   6.970   2.812
 4475SOL     OW14323   1.724   4.337   1.250
 4475SOL    HW114324   1.740   4.272   1.175
 4475SOL    HW214325   1.812   4.373   1.281
 4476SOL     OW14326   4.696   6.475   2.136
 4476SOL    HW114327   4.640   6.392   2.128
 4476SOL    HW214328   4.641   6.549   2.174
 4477SOL     OW14329   2.095   1.409   0.059
 4477SOL    HW114330   2.003   1.371   0.071
 4477SOL    HW214331   2.090   1.488   7.023
 4478SOL     OW14332   2.197   6.963   2.431
 4478SOL    HW114333   2.132   6.895   2.398
 4478SOL    HW214334   2.153   7.020   2.501
 4479SOL     OW14335   0.945   0.310   5.420
 4479SOL    HW114336   1.011   0.320   5.494
 4479SOL    HW214337   0.910   0.216   5.419
 4480SOL     OW14338   1.138   5.088   4.501
 4480SOL    HW114339   1.106   5.031   4.576
 4480SOL    HW214340   1.238   5.080   4.493
 4481SOL     OW14341   1.159   6.074   4.054
 4481SOL    HW114342   1.146   6.012   4.131
 4481SOL    HW214343   1.075   6.127   4.039
 4482SOL     OW14344   0.356   4.498   3.586
 4482SOL    HW114345   0.415   4.552   3.526
 4482SOL    HW214346   0.334   4.411   3.542
 4483SOL     OW14347   5.966   2.863   1.354
 4483SOL    HW114348   6.052   2.855   1.304
 4483SOL    HW214349   5.894   2.893   1.292
 4484SOL     OW14350   3.876   2.541   5.330
 4484SOL    HW114351   3.779   2.534   5.309
 4484SOL    HW214352   3.892   2.620   5.389
 4485SOL     OW14353   4.771   1.712   6.839
 4485SOL    HW114354   4.868   1.721   6.864
 4485SOL    HW214355   4.753   1.617   6.812
 4486SOL     OW14356   6.660   3.992   5.149
 4486SOL    HW114357   6.664   4.012   5.051
 4486SOL    HW214358   6.565   3.996   5.179
 4487SOL     OW14359   2.779   3.696   6.257
 4487SOL    HW114360   2.802   3.650   6.171
 4487SOL    HW214361   2.861   3.699   6.315
 4488SOL     OW14362   6.300   1.903   5.551
 4488SOL    HW114363   6.386   1.860   5.577
 4488SOL    HW214364   6.226   1.867   5.608
 4489SOL     OW14365   5.722   5.420   4.608
 4489SOL    HW114366   5.760   5.339   4.564
 4489SOL    HW214367   5.628   5.435   4.577
 4490SOL     OW14368   5.973   1.739   2.249
 4490SOL    HW114369   6.038   1.772   2.318
 4490SOL    HW214370   5.977   1.640   2.245
 4491SOL     OW14371   1.443   3.967   3.075
 4491SOL    HW114372   1.536   3.979   3.042
 4491SOL    HW214373   1.378   3.997   3.005
 4492SOL     OW14374   4.948   2.459   0.402
 4492SOL    HW114375   4.936   2.558   0.406
 4492SOL    HW214376   5.021   2.437   0.337
 4493SOL     OW14377   5.007   5.215   5.155
 4493SOL    HW114378   4.938   5.252   5.217
 4493SOL    HW214379   5.089   5.273   5.159
 4494SOL     OW14380   0.208   3.967   5.262
 4494SOL    HW114381   0.268   3.892   5.289
 4494SOL    HW214382   0.114   3.934   5.253
 4495SOL     OW14383   5.261   6.607   2.286
 4495SOL    HW114384   5.253   6.625   2.188
 4495SOL    HW214385   5.175   6.569   2.320
 4496SOL     OW14386   5.494   3.755   6.036
 4496SOL    HW114387   5.451   3.808   6.109
 4496SOL    HW214388   5.536   3.673   6.076
 4497SOL     OW14389   5.625   5.255   6.839
 4497SOL    HW114390   5.671   5.321   6.780
 4497SOL    HW214391   5.535   5.233   6.801
 4498SOL     OW14392   0.349   3.688   6.631
 4498SOL    HW114393   0.389   3.622   6.568
 4498SOL    HW214394   0.355   3.652   6.724
 4499SOL     OW14395   6.777   3.480   4.733
 4499SOL    HW114396   6.684   3.514   4.719
 4499SOL    HW214397   6.817   3.525   4.813
 4500SOL     OW14398   2.916   3.345   4.596
 4500SOL    HW114399   2.861   3.300   4.666
 4500SOL    HW214400   2.905   3.298   4.509
 4501SOL     OW14401   0.525   4.463   5.208
 4501SOL    HW114402   0.540   4.519   5.290
 4501SOL    HW214403   0.612   4.438   5.168
 4502SOL     OW14404   1.499   2.751   0.119
 4502SOL    HW114405   1.427   2.682   0.129
 4502SOL    HW214406   1.585   2.714   0.155
 4503SOL     OW14407   2.011   1.272   3.855
 4503SOL    HW114408   1.967   1.257   3.766
 4503SOL    HW214409   2.108   1.252   3.848
 4504SOL     OW14410   6.069   2.600   5.792
 4504SOL    HW114411   6.074   2.506   5.825
 4504SOL    HW214412   6.030   2.601   5.700
 4505SOL     OW14413   1.508   6.414   5.239
 4505SOL    HW114414   1.435   6.351   5.213
 4505SOL    HW214415   1.596   6.370   5.224
 4506SOL     OW14416   4.196   1.185   5.229
 4506SOL    HW114417   4.167   1.089   5.226
 4506SOL    HW214418   4.289   1.191   5.265
 4507SOL     OW14419   4.574   4.641   0.813
 4507SOL    HW114420   4.635   4.677   0.883
 4507SOL    HW214421   4.566   4.707   0.738
 4508SOL     OW14422   1.325   4.122   0.052
 4508SOL    HW114423   1.234   4.080   0.055
 4508SOL    HW214424   1.317   4.221   0.043
 4509SOL     OW14425   3.886   1.866   4.682
 4509SOL    HW114426   3.813   1.881   4.615
 4509SOL    HW214427   3.879   1.774   4.720
 4510SOL     OW14428   5.417   0.293   5.134
 4510SOL    HW114429   5.445   0.209   5.180
 4510SOL    HW214430   5.495   0.354   5.126
 4511SOL     OW14431   6.743   3.019   0.514
 4511SOL    HW114432   6.821   2.984   0.565
 4511SOL    HW214433   6.667   3.037   0.578
 4512SOL     OW14434   2.023   6.256   6.841
 4512SOL    HW114435   2.065   6.323   6.780
 4512SOL    HW214436   2.000   6.299   6.928
 4513SOL     OW14437   4.919   6.648   1.656
 4513SOL    HW114438   4.958   6.740   1.651
 4513SOL    HW214439   4.967   6.595   1.727
 4514SOL     OW14440   3.274   1.280   5.109
 4514SOL    HW114441   3.340   1.206   5.117
 4514SOL    HW214442   3.274   1.334   5.194
 4515SOL     OW14443   7.009   4.939   0.497
 4515SOL    HW114444   0.026   4.849   0.493
 4515SOL    HW214445   6.975   4.964   0.406
 4516SOL     OW14446   0.772   1.324   5.140
 4516SOL    HW114447   0.792   1.390   5.067
 4516SOL    HW214448   0.765   1.372   5.227
 4517SOL     OW14449   3.378   6.557   6.476
 4517SOL    HW114450   3.335   6.638   6.516
 4517SOL    HW214451   3.377   6.564   6.376
 4518SOL     OW14452   0.760   1.958   3.756
 4518SOL    HW114453   0.778   1.964   3.658
 4518SOL    HW214454   0.682   2.015   3.779
 4519SOL     OW14455   6.908   2.632   3.645
 4519SOL    HW114456   6.996   2.663   3.608
 4519SOL    HW214457   6.834   2.667   3.589
 4520SOL     OW14458   6.254   4.537   2.563
 4520SOL    HW114459   6.326   4.569   2.625
 4520SOL    HW214460   6.282   4.450   2.523
 4521SOL     OW14461   4.803   2.462   6.590
 4521SOL    HW114462   4.788   2.523   6.513
 4521SOL    HW214463   4.899   2.469   6.620
 4522SOL     OW14464   6.097   6.449   3.249
 4522SOL    HW114465   6.133   6.496   3.168
 4522SOL    HW214466   6.001   6.427   3.235
 4523SOL     OW14467   2.914   4.745   0.594
 4523SOL    HW114468   2.850   4.676   0.627
 4523SOL    HW214469   2.941   4.722   0.500
 4524SOL     OW14470   5.192   1.307   5.078
 4524SOL    HW114471   5.162   1.220   5.040
 4524SOL    HW214472   5.274   1.292   5.135
 4525SOL     OW14473   6.400   1.266   4.376
 4525SOL    HW114474   6.384   1.322   4.457
 4525SOL    HW214475   6.418   1.326   4.298
 4526SOL     OW14476   4.634   6.723   1.018
 4526SOL    HW114477   4.667   6.701   0.926
 4526SOL    HW214478   4.634   6.822   1.031
 4527SOL     OW14479   5.078   1.436   2.686
 4527SOL    HW114480   5.102   1.455   2.781
 4527SOL    HW214481   5.047   1.342   2.678
 4528SOL     OW14482   5.571   0.325   0.191
 4528SOL    HW114483   5.509   0.330   0.112
 4528SOL    HW214484   5.665   0.320   0.159
 4529SOL     OW14485   2.472   0.576   2.905
 4529SOL    HW114486   2.389   0.541   2.860
 4529SOL    HW214487   2.446   0.641   2.977
 4530SOL     OW14488   0.622   3.421   5.519
 4530SOL    HW114489   0.669   3.443   5.605
 4530SOL    HW214490   0.690   3.401   5.448
 4531SOL     OW14491   0.856   3.533   3.930
 4531SOL    HW114492   0.829   3.437   3.943
 4531SOL    HW214493   0.955   3.540   3.930
 4532SOL     OW14494   6.399   1.372   1.030
 4532SOL    HW114495   6.491   1.381   1.067
 4532SOL    HW214496   6.393   1.419   0.941
 4533SOL     OW14497   2.042   6.300   2.757
 4533SOL    HW114498   2.061   6.396   2.779
 4533SOL    HW214499   1.946   6.291   2.731
 4534SOL     OW14500   5.993   3.986   4.983
 4534SOL    HW114501   6.070   3.925   5.002
 4534SOL    HW214502   5.938   3.998   5.066
 4535SOL     OW14503   5.161   3.398   1.968
 4535SOL    HW114504   5.067   3.363   1.975
 4535SOL    HW214505   5.216   3.360   2.043
 4536SOL     OW14506   5.461   1.013   4.805
 4536SOL    HW114507   5.443   1.104   4.842
 4536SOL    HW214508   5.534   0.969   4.857
 4537SOL     OW14509   3.932   3.368   6.844
 4537SOL    HW114510   3.922   3.277   6.803
 4537SOL    HW214511   3.945   3.360   6.943
 4538SOL     OW14512   3.561   1.755   2.938
 4538SOL    HW114513   3.655   1.744   2.971
 4538SOL    HW214514   3.498   1.750   3.016
 4539SOL     OW14515   2.007   2.187   3.499
 4539SOL    HW114516   2.055   2.211   3.415
 4539SOL    HW214517   1.936   2.120   3.479
 4540SOL     OW14518   3.229   2.981   4.764
 4540SOL    HW114519   3.269   3.052   4.823
 4540SOL    HW214520   3.130   2.976   4.782
 4541SOL     OW14521   4.963   1.784   0.633
 4541SOL    HW114522   4.948   1.773   0.731
 4541SOL    HW214523   4.958   1.694   0.588
 4542SOL     OW14524   6.042   6.001   1.928
 4542SOL    HW114525   6.134   6.003   1.967
 4542SOL    HW214526   6.021   6.090   1.887
 4543SOL     OW14527   4.906   1.963   1.051
 4543SOL    HW114528   4.878   1.869   1.033
 4543SOL    HW214529   4.959   1.998   0.974
 4544SOL     OW14530   2.656   5.954   6.845
 4544SOL    HW114531   2.678   5.974   6.750
 4544SOL    HW214532   2.673   5.857   6.863
 4545SOL     OW14533   4.320   1.965   5.300
 4545SOL    HW114534   4.272   1.893   5.350
 4545SOL    HW214535   4.385   1.924   5.237
 4546SOL     OW14536   0.929   6.440   6.758
 4546SOL    HW114537   0.942   6.390   6.672
 4546SOL    HW214538   0.855   6.397   6.811
 4547SOL     OW14539   5.937   2.664   1.556
 4547SOL    HW114540   6.014   2.649   1.617
 4547SOL    HW214541   5.960   2.738   1.491
 4548SOL     OW14542   0.304   4.225   3.537
 4548SOL    HW114543   0.246   4.207   3.617
 4548SOL    HW214544   0.387   4.170   3.543
 4549SOL     OW14545   6.648   3.476   2.885
 4549SOL    HW114546   6.590   3.412   2.935
 4549SOL    HW214547   6.610   3.568   2.890
 4550SOL     OW14548   1.133   5.803   3.226
 4550SOL    HW114549   1.149   5.827   3.131
 4550SOL    HW214550   1.210   5.749   3.261
 4551SOL     OW14551   0.613   2.758   5.255
 4551SOL    HW114552   0.581   2.728   5.165
 4551SOL    HW214553   0.653   2.679   5.303
 4552SOL     OW14554   0.450   3.461   4.651
 4552SOL    HW114555   0.432   3.408   4.567
 4552SOL    HW214556   0.506   3.406   4.713
 4553SOL     OW14557   4.538   5.097   0.701
 4553SOL    HW114558   4.632   5.127   0.718
 4553SOL    HW214559   4.530   5.066   0.607
 4554SOL     OW14560   3.997   6.808   3.018
 4554SOL    HW114561   3.934   6.732   2.999
 4554SOL    HW214562   4.083   6.772   3.053
 4555SOL     OW14563   4.751   1.957   6.718
 4555SOL    HW114564   4.666   1.988   6.762
 4555SOL    HW214565   4.767   1.861   6.742
 4556SOL     OW14566   4.483   0.593   3.724
 4556SOL    HW114567   4.457   0.514   3.669
 4556SOL    HW214568   4.576   0.621   3.702
 4557SOL     OW14569   5.465   0.492   5.713
 4557SOL    HW114570   5.526   0.441   5.653
 4557SOL    HW214571   5.505   0.581   5.735
 4558SOL     OW14572   5.815   3.569   6.294
 4558SOL    HW114573   5.744   3.621   6.341
 4558SOL    HW214574   5.876   3.633   6.247
 4559SOL     OW14575   1.361   6.855   1.377
 4559SOL    HW114576   1.423   6.812   1.311
 4559SOL    HW214577   1.368   6.954   1.370
 4560SOL     OW14578   5.221   2.829   2.670
 4560SOL    HW114579   5.298   2.807   2.611
 4560SOL    HW214580   5.195   2.924   2.657
 4561SOL     OW14581   3.133   1.487   0.070
 4561SOL    HW114582   3.156   1.585   0.072
 4561SOL    HW214583   3.074   1.465   0.148
 4562SOL     OW14584   3.320   5.856   6.300
 4562SOL    HW114585   3.375   5.906   6.366
 4562SOL    HW214586   3.259   5.919   6.252
 4563SOL     OW14587   5.620   1.819   0.635
 4563SOL    HW114588   5.531   1.773   0.632
 4563SOL    HW214589   5.666   1.796   0.721
 4564SOL     OW14590   0.982   5.420   0.767
 4564SOL    HW114591   0.926   5.360   0.711
 4564SOL    HW214592   1.024   5.490   0.710
 4565SOL     OW14593   0.499   1.358   4.944
 4565SOL    HW114594   0.404   1.339   4.918
 4565SOL    HW214595   0.560   1.318   4.876
 4566SOL     OW14596   0.417   0.223   6.473
 4566SOL    HW114597   0.434   0.208   6.570
 4566SOL    HW214598   0.385   0.138   6.431
 4567SOL     OW14599   0.026   1.352   0.587
 4567SOL    HW114600   0.099   1.288   0.611
 4567SOL    HW214601   0.011   1.416   0.663
 4568SOL     OW14602   2.947   4.293   5.811
 4568SOL    HW114603   2.970   4.196   5.816
 4568SOL    HW214604   2.954   4.333   5.903
 4569SOL     OW14605   1.193   1.725   4.194
 4569SOL    HW114606   1.105   1.717   4.146
 4569SOL    HW214607   1.240   1.637   4.192
 4570SOL     OW14608   0.249   5.816   3.130
 4570SOL    HW114609   0.198   5.756   3.192
 4570SOL    HW214610   0.309   5.761   3.073
 4571SOL     OW14611   2.991   3.200   4.388
 4571SOL    HW114612   3.073   3.145   4.405
 4571SOL    HW214613   2.993   3.237   4.295
 4572SOL     OW14614   1.150   0.081   1.196
 4572SOL    HW114615   1.141   0.179   1.178
 4572SOL    HW214616   1.246   0.055   1.192
 4573SOL     OW14617   6.080   5.775   1.451
 4573SOL    HW114618   6.018   5.710   1.407
 4573SOL    HW214619   6.163   5.784   1.397
 4574SOL     OW14620   6.715   4.679   1.551
 4574SOL    HW114621   6.620   4.648   1.546
 4574SOL    HW214622   6.729   4.756   1.488
 4575SOL     OW14623   6.602   1.686   1.131
 4575SOL    HW114624   6.625   1.590   1.113
 4575SOL    HW214625   6.595   1.700   1.230
 4576SOL     OW14626   3.038   6.128   6.746
 4576SOL    HW114627   3.104   6.107   6.674
 4576SOL    HW214628   3.020   6.045   6.799
 4577SOL     OW14629   0.925   3.453   3.185
 4577SOL    HW114630   0.896   3.484   3.095
 4577SOL    HW214631   0.845   3.434   3.242
 4578SOL     OW14632   0.255   3.406   3.639
 4578SOL    HW114633   0.180   3.451   3.689
 4578SOL    HW214634   0.234   3.309   3.628
 4579SOL     OW14635   4.992   1.801   2.907
 4579SOL    HW114636   4.920   1.827   2.971
 4579SOL    HW214637   4.987   1.859   2.825
 4580SOL     OW14638   5.927   5.613   0.888
 4580SOL    HW114639   5.986   5.590   0.812
 4580SOL    HW214640   5.943   5.550   0.964
 4581SOL     OW14641   3.580   5.455   3.503
 4581SOL    HW114642   3.635   5.384   3.458
 4581SOL    HW214643   3.618   5.545   3.481
 4582SOL     OW14644   5.107   6.809   3.405
 4582SOL    HW114645   5.177   6.855   3.458
 4582SOL    HW214646   5.018   6.819   3.450
 4583SOL     OW14647   2.900   1.838   5.496
 4583SOL    HW114648   2.943   1.914   5.448
 4583SOL    HW214649   2.890   1.761   5.434
 4584SOL     OW14650   6.869   6.078   5.999
 4584SOL    HW114651   6.858   6.035   6.089
 4584SOL    HW214652   6.827   6.021   5.929
 4585SOL     OW14653   3.163   6.180   3.418
 4585SOL    HW114654   3.210   6.095   3.392
 4585SOL    HW214655   3.223   6.258   3.400
 4586SOL     OW14656   3.497   5.799   2.084
 4586SOL    HW114657   3.474   5.852   2.166
 4586SOL    HW214658   3.585   5.753   2.098
 4587SOL     OW14659   3.707   3.079   1.343
 4587SOL    HW114660   3.675   3.058   1.250
 4587SOL    HW214661   3.698   3.177   1.361
 4588SOL     OW14662   4.042   3.894   5.074
 4588SOL    HW114663   4.033   3.952   4.993
 4588SOL    HW214664   4.110   3.823   5.057
 4589SOL     OW14665   6.047   2.176   3.048
 4589SOL    HW114666   5.987   2.188   2.969
 4589SOL    HW214667   6.117   2.109   3.027
 4590SOL     OW14668   4.263   5.396   2.603
 4590SOL    HW114669   4.297   5.422   2.512
 4590SOL    HW214670   4.326   5.429   2.673
 4591SOL     OW14671   6.432   5.438   5.539
 4591SOL    HW114672   6.498   5.375   5.499
 4591SOL    HW214673   6.425   5.519   5.482
 4592SOL     OW14674   4.059   2.697   0.568
 4592SOL    HW114675   3.994   2.716   0.493
 4592SOL    HW214676   4.144   2.660   0.529
 4593SOL     OW14677   3.923   5.899   2.576
 4593SOL    HW114678   4.010   5.871   2.616
 4593SOL    HW214679   3.885   5.975   2.629
 4594SOL     OW14680   3.147   1.356   1.670
 4594SOL    HW114681   3.102   1.333   1.584
 4594SOL    HW214682   3.077   1.373   1.741
 4595SOL     OW14683   3.603   3.062   6.267
 4595SOL    HW114684   3.534   3.132   6.285
 4595SOL    HW214685   3.673   3.100   6.206
 4596SOL     OW14686   5.798   6.518   2.551
 4596SOL    HW114687   5.874   6.513   2.616
 4596SOL    HW214688   5.803   6.605   2.501
 4597SOL     OW14689   5.476   4.406   5.870
 4597SOL    HW114690   5.504   4.487   5.922
 4597SOL    HW214691   5.423   4.346   5.929
 4598SOL     OW14692   1.984   5.553   6.957
 4598SOL    HW114693   1.973   5.494   6.876
 4598SOL    HW214694   1.963   5.501   0.013
 4599SOL     OW14695   1.464   4.568   1.380
 4599SOL    HW114696   1.478   4.497   1.312
 4599SOL    HW214697   1.405   4.639   1.343
 4600SOL     OW14698   3.406   5.929   0.211
 4600SOL    HW114699   3.373   5.874   0.134
 4600SOL    HW214700   3.344   5.917   0.289
 4601SOL     OW14701   2.255   1.243   4.834
 4601SOL    HW114702   2.273   1.144   4.833
 4601SOL    HW214703   2.336   1.291   4.801
 4602SOL     OW14704   1.886   0.093   1.478
 4602SOL    HW114705   1.912   0.032   1.403
 4602SOL    HW214706   1.797   0.135   1.457
 4603SOL     OW14707   3.078   6.898   1.832
 4603SOL    HW114708   3.132   6.930   1.754
 4603SOL    HW214709   3.133   6.903   1.915
 4604SOL     OW14710   3.792   0.305   2.569
 4604SOL    HW114711   3.819   0.228   2.512
 4604SOL    HW214712   3.824   0.291   2.663
 4605SOL     OW14713   4.869   0.788   4.406
 4605SOL    HW114714   4.876   0.697   4.447
 4605SOL    HW214715   4.900   0.857   4.471
 4606SOL     OW14716   6.538   6.603   4.723
 4606SOL    HW114717   6.618   6.619   4.666
 4606SOL    HW214718   6.539   6.509   4.757
 4607SOL     OW14719   2.922   1.706   1.440
 4607SOL    HW114720   2.850   1.759   1.396
 4607SOL    HW214721   2.884   1.618   1.470
 4608SOL     OW14722   1.139   5.205   4.911
 4608SOL    HW114723   1.196   5.138   4.864
 4608SOL    HW214724   1.127   5.285   4.853
 4609SOL     OW14725   4.473   5.896   0.267
 4609SOL    HW114726   4.541   5.862   0.332
 4609SOL    HW214727   4.518   5.954   0.199
 4610SOL     OW14728   0.449   2.687   0.218
 4610SOL    HW114729   0.548   2.690   0.204
 4610SOL    HW214730   0.404   2.652   0.136
 4611SOL     OW14731   0.411   3.463   6.814
 4611SOL    HW114732   0.467   3.502   6.887
 4611SOL    HW214733   0.453   3.378   6.782
 4612SOL     OW14734   1.825   6.141   6.265
 4612SOL    HW114735   1.902   6.163   6.324
 4612SOL    HW214736   1.756   6.213   6.271
 4613SOL     OW14737   3.021   5.594   2.520
 4613SOL    HW114738   3.047   5.605   2.424
 4613SOL    HW214739   2.924   5.570   2.526
 4614SOL     OW14740   2.385   5.490   0.329
 4614SOL    HW114741   2.396   5.509   0.231
 4614SOL    HW214742   2.453   5.542   0.380
 4615SOL     OW14743   1.507   2.088   0.014
 4615SOL    HW114744   1.430   2.152   0.015
 4615SOL    HW214745   1.485   2.010   6.981
 4616SOL     OW14746   6.026   6.866   6.735
 4616SOL    HW114747   5.932   6.832   6.731
 4616SOL    HW214748   6.086   6.802   6.687
 4617SOL     OW14749   0.890   2.822   2.789
 4617SOL    HW114750   0.895   2.723   2.782
 4617SOL    HW214751   0.866   2.861   2.700
 4618SOL     OW14752   0.858   2.676   5.701
 4618SOL    HW114753   0.950   2.702   5.672
 4618SOL    HW214754   0.794   2.748   5.675
 4619SOL     OW14755   4.991   1.122   3.904
 4619SOL    HW114756   4.891   1.122   3.901
 4619SOL    HW214757   5.024   1.037   3.944
 4620SOL     OW14758   3.190   4.608   0.193
 4620SOL    HW114759   3.208   4.554   0.110
 4620SOL    HW214760   3.133   4.686   0.170
 4621SOL     OW14761   6.543   1.223   4.792
 4621SOL    HW114762   6.533   1.155   4.720
 4621SOL    HW214763   6.593   1.183   4.869
 4622SOL     OW14764   2.068   3.286   0.656
 4622SOL    HW114765   2.125   3.368   0.646
 4622SOL    HW214766   1.972   3.314   0.663
 4623SOL     OW14767   6.897   4.875   0.938
 4623SOL    HW114768   6.910   4.972   0.956
 4623SOL    HW214769   6.819   4.842   0.992
 4624SOL     OW14770   4.719   1.126   3.850
 4624SOL    HW114771   4.725   1.038   3.896
 4624SOL    HW214772   4.635   1.130   3.796
 4625SOL     OW14773   0.803   4.009   6.763
 4625SOL    HW114774   0.850   4.058   6.836
 4625SOL    HW214775   0.870   3.966   6.702
 4626SOL     OW14776   6.389   4.956   1.838
 4626SOL    HW114777   6.434   4.867   1.825
 4626SOL    HW214778   6.456   5.022   1.871
 4627SOL     OW14779   3.588   5.589   5.297
 4627SOL    HW114780   3.678   5.613   5.261
 4627SOL    HW214781   3.554   5.508   5.251
 4628SOL     OW14782   6.326   4.760   2.310
 4628SOL    HW114783   6.296   4.851   2.338
 4628SOL    HW214784   6.388   4.723   2.379
 4629SOL     OW14785   2.051   5.341   5.542
 4629SOL    HW114786   2.038   5.316   5.638
 4629SOL    HW214787   2.143   5.315   5.512
 4630SOL     OW14788   2.643   5.733   3.384
 4630SOL    HW114789   2.564   5.775   3.340
 4630SOL    HW214790   2.615   5.652   3.434
 4631SOL     OW14791   2.719   6.518   3.741
 4631SOL    HW114792   2.768   6.461   3.675
 4631SOL    HW214793   2.628   6.479   3.756
 4632SOL     OW14794   4.655   5.195   4.292
 4632SOL    HW114795   4.644   5.229   4.386
 4632SOL    HW214796   4.582   5.129   4.272
 4633SOL     OW14797   6.284   2.007   5.016
 4633SOL    HW114798   6.363   1.948   4.998
 4633SOL    HW214799   6.240   1.978   5.101
 4634SOL     OW14800   2.718   4.544   0.653
 4634SOL    HW114801   2.634   4.500   0.623
 4634SOL    HW214802   2.781   4.476   0.689
 4635SOL     OW14803   5.300   3.306   2.410
 4635SOL    HW114804   5.399   3.305   2.419
 4635SOL    HW214805   5.271   3.231   2.351
 4636SOL     OW14806   2.793   5.283   0.634
 4636SOL    HW114807   2.762   5.193   0.603
 4636SOL    HW214808   2.850   5.272   0.716
 4637SOL     OW14809   1.044   0.205   6.234
 4637SOL    HW114810   0.962   0.238   6.188
 4637SOL    HW214811   1.052   0.106   6.222
 4638SOL     OW14812   4.043   3.388   6.129
 4638SOL    HW114813   4.049   3.296   6.089
 4638SOL    HW214814   4.058   3.382   6.227
 4639SOL     OW14815   0.478   4.277   5.626
 4639SOL    HW114816   0.425   4.234   5.700
 4639SOL    HW214817   0.417   4.299   5.550
 4640SOL     OW14818   5.315   4.462   3.511
 4640SOL    HW114819   5.336   4.442   3.415
 4640SOL    HW214820   5.233   4.519   3.515
 4641SOL     OW14821   2.587   4.886   4.525
 4641SOL    HW114822   2.582   4.794   4.563
 4641SOL    HW214823   2.525   4.894   4.447
 4642SOL     OW14824   6.066   5.505   4.354
 4642SOL    HW114825   5.976   5.524   4.314
 4642SOL    HW214826   6.114   5.438   4.296
 4643SOL     OW14827   4.040   2.009   1.659
 4643SOL    HW114828   4.082   2.074   1.723
 4643SOL    HW214829   3.951   2.045   1.630
 4644SOL     OW14830   1.368   6.542   4.473
 4644SOL    HW114831   1.304   6.612   4.441
 4644SOL    HW214832   1.326   6.452   4.463
 4645SOL     OW14833   2.266   6.580   4.200
 4645SOL    HW114834   2.167   6.581   4.184
 4645SOL    HW214835   2.285   6.613   4.293
 4646SOL     OW14836   2.933   0.185   2.228
 4646SOL    HW114837   2.855   0.241   2.199
 4646SOL    HW214838   2.989   0.163   2.148
 4647SOL     OW14839   0.524   0.158   3.699
 4647SOL    HW114840   0.440   0.130   3.746
 4647SOL    HW214841   0.500   0.213   3.618
 4648SOL     OW14842   2.675   6.531   2.851
 4648SOL    HW114843   2.601   6.579   2.898
 4648SOL    HW214844   2.754   6.592   2.844
 4649SOL     OW14845   5.531   0.760   5.741
 4649SOL    HW114846   5.450   0.806   5.703
 4649SOL    HW214847   5.554   0.800   5.829
 4650SOL     OW14848   4.451   6.208   2.824
 4650SOL    HW114849   4.377   6.159   2.870
 4650SOL    HW214850   4.442   6.197   2.725
 4651SOL     OW14851   6.934   2.203   1.852
 4651SOL    HW114852   6.990   2.276   1.812
 4651SOL    HW214853   6.842   2.237   1.868
 4652SOL     OW14854   6.871   0.528   4.309
 4652SOL    HW114855   6.902   0.515   4.215
 4652SOL    HW214856   6.772   0.514   4.313
 4653SOL     OW14857   6.873   6.510   0.201
 4653SOL    HW114858   6.913   6.590   0.156
 4653SOL    HW214859   6.774   6.524   0.212
 4654SOL     OW14860   0.638   6.976   0.741
 4654SOL    HW114861   0.715   6.926   0.781
 4654SOL    HW214862   0.601   6.924   0.664
 4655SOL     OW14863   0.189   4.200   2.720
 4655SOL    HW114864   0.215   4.274   2.781
 4655SOL    HW214865   0.220   4.113   2.758
 4656SOL     OW14866   1.120   0.826   2.925
 4656SOL    HW114867   1.154   0.843   3.018
 4656SOL    HW214868   1.177   0.757   2.881
 4657SOL     OW14869   5.120   6.453   1.523
 4657SOL    HW114870   5.031   6.448   1.478
 4657SOL    HW214871   5.151   6.549   1.525
 4658SOL     OW14872   4.261   0.217   3.124
 4658SOL    HW114873   4.197   0.141   3.132
 4658SOL    HW214874   4.318   0.222   3.205
 4659SOL     OW14875   1.841   2.875   5.332
 4659SOL    HW114876   1.803   2.784   5.349
 4659SOL    HW214877   1.794   2.917   5.255
 4660SOL     OW14878   0.145   1.499   5.377
 4660SOL    HW114879   0.203   1.456   5.307
 4660SOL    HW214880   0.107   1.428   5.437
 4661SOL     OW14881   3.514   4.082   4.307
 4661SOL    HW114882   3.490   4.093   4.211
 4661SOL    HW214883   3.434   4.051   4.359
 4662SOL     OW14884   5.009   0.527   5.459
 4662SOL    HW114885   4.951   0.545   5.539
 4662SOL    HW214886   5.103   0.512   5.489
 4663SOL     OW14887   6.799   2.032   2.124
 4663SOL    HW114888   6.888   1.993   2.104
 4663SOL    HW214889   6.810   2.116   2.177
 4664SOL     OW14890   2.477   2.575   6.594
 4664SOL    HW114891   2.388   2.620   6.601
 4664SOL    HW214892   2.549   2.644   6.589
 4665SOL     OW14893   5.226   0.367   6.478
 4665SOL    HW114894   5.212   0.363   6.576
 4665SOL    HW214895   5.324   0.360   6.458
 4666SOL     OW14896   2.068   2.135   7.003
 4666SOL    HW114897   2.102   2.101   6.915
 4666SOL    HW214898   2.123   2.098   0.051
 4667SOL     OW14899   6.883   4.860   6.534
 4667SOL    HW114900   6.879   4.791   6.605
 4667SOL    HW214901   6.791   4.878   6.498
 4668SOL     OW14902   6.355   1.369   4.645
 4668SOL    HW114903   6.262   1.330   4.651
 4668SOL    HW214904   6.413   1.325   4.713
 4669SOL     OW14905   1.715   6.365   0.131
 4669SOL    HW114906   1.681   6.272   0.149
 4669SOL    HW214907   1.667   6.430   0.190
 4670SOL     OW14908   2.541   1.561   4.982
 4670SOL    HW114909   2.595   1.640   4.952
 4670SOL    HW214910   2.553   1.547   5.080
 4671SOL     OW14911   6.169   3.106   1.795
 4671SOL    HW114912   6.094   3.140   1.852
 4671SOL    HW214913   6.133   3.041   1.728
 4672SOL     OW14914   1.769   4.083   6.284
 4672SOL    HW114915   1.863   4.065   6.256
 4672SOL    HW214916   1.706   4.044   6.217
 4673SOL     OW14917   3.424   0.321   2.348
 4673SOL    HW114918   3.496   0.303   2.281
 4673SOL    HW214919   3.457   0.387   2.416
 4674SOL     OW14920   4.925   5.382   5.552
 4674SOL    HW114921   4.981   5.437   5.490
 4674SOL    HW214922   4.879   5.310   5.501
 4675SOL     OW14923   1.201   3.967   1.045
 4675SOL    HW114924   1.282   3.952   1.102
 4675SOL    HW214925   1.165   3.880   1.014
 4676SOL     OW14926   1.729   5.772   3.402
 4676SOL    HW114927   1.630   5.788   3.405
 4676SOL    HW214928   1.776   5.850   3.443
 4677SOL     OW14929   1.642   2.284   0.507
 4677SOL    HW114930   1.620   2.348   0.581
 4677SOL    HW214931   1.715   2.223   0.537
 4678SOL     OW14932   1.778   4.514   3.001
 4678SOL    HW114933   1.762   4.604   3.040
 4678SOL    HW214934   1.690   4.471   2.979
 4679SOL     OW14935   5.456   6.249   1.697
 4679SOL    HW114936   5.502   6.327   1.654
 4679SOL    HW214937   5.416   6.191   1.626
 4680SOL     OW14938   2.826   1.455   1.509
 4680SOL    HW114939   2.745   1.439   1.566
 4680SOL    HW214940   2.880   1.371   1.504
 4681SOL     OW14941   5.363   4.206   0.253
 4681SOL    HW114942   5.375   4.108   0.271
 4681SOL    HW214943   5.424   4.259   0.313
 4682SOL     OW14944   4.814   3.480   6.384
 4682SOL    HW114945   4.804   3.408   6.453
 4682SOL    HW214946   4.869   3.555   6.422
 4683SOL     OW14947   5.562   4.388   3.850
 4683SOL    HW114948   5.521   4.317   3.794
 4683SOL    HW214949   5.536   4.374   3.946
 4684SOL     OW14950   3.983   6.406   0.354
 4684SOL    HW114951   4.032   6.477   0.404
 4684SOL    HW214952   4.044   6.329   0.338
 4685SOL     OW14953   2.524   3.524   6.034
 4685SOL    HW114954   2.525   3.491   5.939
 4685SOL    HW214955   2.443   3.583   6.047
 4686SOL     OW14956   3.582   6.383   1.127
 4686SOL    HW114957   3.488   6.357   1.148
 4686SOL    HW214958   3.630   6.306   1.086
 4687SOL     OW14959   3.088   1.479   3.534
 4687SOL    HW114960   3.028   1.549   3.573
 4687SOL    HW214961   3.117   1.507   3.443
 4688SOL     OW14962   5.415   2.460   5.986
 4688SOL    HW114963   5.429   2.471   6.084
 4688SOL    HW214964   5.318   2.465   5.965
 4689SOL     OW14965   5.310   0.841   0.725
 4689SOL    HW114966   5.220   0.872   0.754
 4689SOL    HW214967   5.306   0.744   0.700
 4690SOL     OW14968   2.372   1.454   0.784
 4690SOL    HW114969   2.293   1.488   0.733
 4690SOL    HW214970   2.455   1.500   0.752
 4691SOL     OW14971   5.295   4.266   7.014
 4691SOL    HW114972   5.322   4.172   6.991
 4691SOL    HW214973   5.314   4.283   0.084
 4692SOL     OW14974   6.603   4.424   2.979
 4692SOL    HW114975   6.636   4.391   3.067
 4692SOL    HW214976   6.522   4.373   2.952
 4693SOL     OW14977   1.423   0.969   3.691
 4693SOL    HW114978   1.373   0.887   3.663
 4693SOL    HW214979   1.456   1.017   3.609
 4694SOL     OW14980   2.645   1.085   0.726
 4694SOL    HW114981   2.689   1.001   0.760
 4694SOL    HW214982   2.665   1.096   0.629
 4695SOL     OW14983   1.225   5.584   0.729
 4695SOL    HW114984   1.320   5.614   0.718
 4695SOL    HW214985   1.187   5.625   0.812
 4696SOL     OW14986   1.153   5.411   6.109
 4696SOL    HW114987   1.143   5.454   6.198
 4696SOL    HW214988   1.145   5.312   6.119
 4697SOL     OW14989   1.848   4.012   1.248
 4697SOL    HW114990   1.842   3.912   1.238
 4697SOL    HW214991   1.772   4.044   1.304
 4698SOL     OW14992   4.656   0.362   3.174
 4698SOL    HW114993   4.739   0.343   3.227
 4698SOL    HW214994   4.594   0.419   3.228
 4699SOL     OW14995   0.393   0.666   2.375
 4699SOL    HW114996   0.380   0.586   2.433
 4699SOL    HW214997   0.307   0.686   2.327
 4700SOL     OW14998   6.436   1.889   2.742
 4700SOL    HW114999   6.428   1.813   2.678
 4700SOL    HW215000   6.474   1.969   2.695
 4701SOL     OW15001   3.358   2.011   1.994
 4701SOL    HW115002   3.356   1.914   1.968
 4701SOL    HW215003   3.270   2.035   2.035
 4702SOL     OW15004   4.865   5.075   6.988
 4702SOL    HW115005   4.830   5.063   6.895
 4702SOL    HW215006   4.964   5.063   6.989
 4703SOL     OW15007   1.096   4.821   2.553
 4703SOL    HW115008   1.166   4.890   2.534
 4703SOL    HW215009   1.070   4.776   2.468
 4704SOL     OW15010   0.112   6.015   5.952
 4704SOL    HW115011   0.042   6.067   5.904
 4704SOL    HW215012   0.088   6.007   6.049
 4705SOL     OW15013   3.067   2.389   1.007
 4705SOL    HW115014   3.165   2.380   1.027
 4705SOL    HW215015   3.026   2.452   1.073
 4706SOL     OW15016   1.223   0.329   0.832
 4706SOL    HW115017   1.136   0.280   0.820
 4706SOL    HW215018   1.299   0.265   0.822
 4707SOL     OW15019   1.791   6.576   1.011
 4707SOL    HW115020   1.768   6.552   1.105
 4707SOL    HW215021   1.707   6.589   0.958
 4708SOL     OW15022   1.464   2.374   4.740
 4708SOL    HW115023   1.506   2.284   4.732
 4708SOL    HW215024   1.476   2.424   4.654
 4709SOL     OW15025   5.135   4.922   4.719
 4709SOL    HW115026   5.058   4.965   4.672
 4709SOL    HW215027   5.101   4.847   4.777
 4710SOL     OW15028   5.260   6.848   4.776
 4710SOL    HW115029   5.299   6.927   4.824
 4710SOL    HW215030   5.213   6.879   4.694
 4711SOL     OW15031   6.023   3.054   3.524
 4711SOL    HW115032   5.989   2.961   3.534
 4711SOL    HW215033   5.949   3.114   3.494
 4712SOL     OW15034   4.300   4.520   5.588
 4712SOL    HW115035   4.393   4.526   5.624
 4712SOL    HW215036   4.237   4.567   5.651
 4713SOL     OW15037   5.714   4.331   1.171
 4713SOL    HW115038   5.702   4.362   1.077
 4713SOL    HW215039   5.626   4.327   1.218
 4714SOL     OW15040   6.321   1.602   6.373
 4714SOL    HW115041   6.283   1.672   6.314
 4714SOL    HW215042   6.247   1.544   6.408
 4715SOL     OW15043   6.171   1.855   2.073
 4715SOL    HW115044   6.188   1.773   2.018
 4715SOL    HW215045   6.104   1.834   2.144
 4716SOL     OW15046   4.017   5.547   5.555
 4716SOL    HW115047   4.044   5.566   5.649
 4716SOL    HW215048   3.966   5.625   5.519
 4717SOL     OW15049   2.713   5.415   5.641
 4717SOL    HW115050   2.791   5.367   5.600
 4717SOL    HW215051   2.629   5.365   5.619
 4718SOL     OW15052   5.500   2.764   0.808
 4718SOL    HW115053   5.518   2.722   0.897
 4718SOL    HW215054   5.506   2.864   0.817
 4719SOL     OW15055   6.138   3.153   3.294
 4719SOL    HW115056   6.159   3.066   3.249
 4719SOL    HW215057   6.112   3.137   3.389
 4720SOL     OW15058   3.333   5.242   0.653
 4720SOL    HW115059   3.415   5.195   0.620
 4720SOL    HW215060   3.336   5.249   0.752
 4721SOL     OW15061   6.280   3.601   1.824
 4721SOL    HW115062   6.320   3.632   1.737
 4721SOL    HW215063   6.295   3.670   1.894
 4722SOL     OW15064   1.181   4.535   6.854
 4722SOL    HW115065   1.248   4.463   6.832
 4722SOL    HW215066   1.113   4.540   6.782
 4723SOL     OW15067   3.725   4.761   5.648
 4723SOL    HW115068   3.686   4.704   5.721
 4723SOL    HW215069   3.792   4.824   5.687
 4724SOL     OW15070   0.075   6.569   4.227
 4724SOL    HW115071   0.159   6.560   4.280
 4724SOL    HW215072   0.075   6.504   4.152
 4725SOL     OW15073   5.340   5.192   0.715
 4725SOL    HW115074   5.258   5.243   0.690
 4725SOL    HW215075   5.318   5.095   0.724
 4726SOL     OW15076   2.011   3.093   6.046
 4726SOL    HW115077   1.996   3.176   6.100
 4726SOL    HW215078   2.096   3.049   6.074
 4727SOL     OW15079   0.551   5.481   0.987
 4727SOL    HW115080   0.580   5.555   0.926
 4727SOL    HW215081   0.629   5.422   1.006
 4728SOL     OW15082   6.360   1.109   2.910
 4728SOL    HW115083   6.262   1.092   2.908
 4728SOL    HW215084   6.408   1.022   2.924
 4729SOL     OW15085   5.654   0.547   6.971
 4729SOL    HW115086   5.579   0.487   7.000
 4729SOL    HW215087   5.681   0.606   0.021
 4730SOL     OW15088   3.540   0.003   4.647
 4730SOL    HW115089   3.487   0.035   4.568
 4730SOL    HW215090   3.630   6.999   4.616
 4731SOL     OW15091   2.998   0.251   0.768
 4731SOL    HW115092   3.035   0.296   0.850
 4731SOL    HW215093   3.005   0.312   0.690
 4732SOL     OW15094   0.607   4.037   4.787
 4732SOL    HW115095   0.549   4.077   4.858
 4732SOL    HW215096   0.552   4.020   4.705
 4733SOL     OW15097   2.170   4.023   3.166
 4733SOL    HW115098   2.215   4.091   3.108
 4733SOL    HW215099   2.194   4.040   3.262
 4734SOL     OW15100   5.339   3.918   5.652
 4734SOL    HW115101   5.350   3.890   5.557
 4734SOL    HW215102   5.243   3.909   5.678
 4735SOL     OW15103   0.301   6.238   4.497
 4735SOL    HW115104   0.246   6.159   4.471
 4735SOL    HW215105   0.271   6.273   4.585
 4736SOL     OW15106   6.782   1.972   3.656
 4736SOL    HW115107   6.707   2.038   3.666
 4736SOL    HW215108   6.856   2.014   3.603
 4737SOL     OW15109   1.762   5.215   1.224
 4737SOL    HW115110   1.733   5.301   1.266
 4737SOL    HW215111   1.747   5.140   1.287
 4738SOL     OW15112   2.450   0.468   4.098
 4738SOL    HW115113   2.503   0.550   4.118
 4738SOL    HW215114   2.357   0.494   4.072
 4739SOL     OW15115   5.965   2.990   4.795
 4739SOL    HW115116   6.023   3.023   4.870
 4739SOL    HW215117   5.895   2.928   4.832
 4740SOL     OW15118   0.713   1.298   1.749
 4740SOL    HW115119   0.623   1.318   1.787
 4740SOL    HW215120   0.705   1.224   1.681
 4741SOL     OW15121   3.995   4.423   0.955
 4741SOL    HW115122   3.948   4.441   1.042
 4741SOL    HW215123   3.973   4.496   0.890
 4742SOL     OW15124   2.786   5.857   1.636
 4742SOL    HW115125   2.785   5.758   1.628
 4742SOL    HW215126   2.832   5.884   1.720
 4743SOL     OW15127   2.492   1.423   6.098
 4743SOL    HW115128   2.507   1.379   6.009
 4743SOL    HW215129   2.551   1.380   6.166
 4744SOL     OW15130   1.598   3.565   5.473
 4744SOL    HW115131   1.696   3.548   5.462
 4744SOL    HW215132   1.558   3.495   5.532
 4745SOL     OW15133   2.930   5.396   5.423
 4745SOL    HW115134   2.956   5.323   5.360
 4745SOL    HW215135   3.012   5.438   5.461
 4746SOL     OW15136   6.154   5.522   0.107
 4746SOL    HW115137   6.241   5.474   0.123
 4746SOL    HW215138   6.138   5.529   0.009
 4747SOL     OW15139   6.910   2.381   0.173
 4747SOL    HW115140   7.008   2.362   0.184
 4747SOL    HW215141   6.868   2.309   0.118
 4748SOL     OW15142   1.104   0.864   1.381
 4748SOL    HW115143   1.061   0.859   1.471
 4748SOL    HW215144   1.102   0.774   1.337
 4749SOL     OW15145   1.973   6.389   0.055
 4749SOL    HW115146   1.998   6.461   0.120
 4749SOL    HW215147   1.884   6.351   0.081
 4750SOL     OW15148   0.323   1.509   4.114
 4750SOL    HW115149   0.293   1.422   4.074
 4750SOL    HW215150   0.333   1.577   4.042
 4751SOL     OW15151   1.416   4.327   6.796
 4751SOL    HW115152   1.422   4.366   6.888
 4751SOL    HW215153   1.451   4.233   6.797
 4752SOL     OW15154   2.468   6.379   1.217
 4752SOL    HW115155   2.494   6.315   1.289
 4752SOL    HW215156   2.402   6.334   1.156
 4753SOL     OW15157   5.505   0.075   5.348
 4753SOL    HW115158   5.534   7.025   5.290
 4753SOL    HW215159   5.432   0.045   5.410
 4754SOL     OW15160   6.815   7.004   6.616
 4754SOL    HW115161   6.883   0.050   6.626
 4754SOL    HW215162   6.847   6.938   6.548
 4755SOL     OW15163   2.667   1.269   6.261
 4755SOL    HW115164   2.754   1.244   6.219
 4755SOL    HW215165   2.683   1.331   6.337
 4756SOL     OW15166   4.817   2.594   1.709
 4756SOL    HW115167   4.785   2.643   1.627
 4756SOL    HW215168   4.840   2.661   1.780
 4757SOL     OW15169   2.327   2.411   2.003
 4757SOL    HW115170   2.418   2.377   1.978
 4757SOL    HW215171   2.299   2.371   2.090
 4758SOL     OW15172   4.267   5.141   5.654
 4758SOL    HW115173   4.318   5.150   5.569
 4758SOL    HW215174   4.173   5.115   5.633
 4759SOL     OW15175   5.616   5.964   5.048
 4759SOL    HW115176   5.613   6.063   5.063
 4759SOL    HW215177   5.541   5.938   4.987
 4760SOL     OW15178   1.727   1.230   1.266
 4760SOL    HW115179   1.810   1.248   1.319
 4760SOL    HW215180   1.684   1.146   1.299
 4761SOL     OW15181   6.861   0.411   6.936
 4761SOL    HW115182   6.869   0.324   6.984
 4761SOL    HW215183   6.935   0.419   6.869
 4762SOL     OW15184   2.290   4.715   2.037
 4762SOL    HW115185   2.369   4.657   2.060
 4762SOL    HW215186   2.262   4.766   2.119
 4763SOL     OW15187   6.248   5.933   2.947
 4763SOL    HW115188   6.235   6.032   2.949
 4763SOL    HW215189   6.252   5.898   3.041
 4764SOL     OW15190   4.500   3.834   5.303
 4764SOL    HW115191   4.556   3.761   5.263
 4764SOL    HW215192   4.559   3.908   5.336
 4765SOL     OW15193   4.839   5.900   5.502
 4765SOL    HW115194   4.862   5.901   5.405
 4765SOL    HW215195   4.757   5.955   5.518
 4766SOL     OW15196   2.816   0.941   3.148
 4766SOL    HW115197   2.745   0.872   3.157
 4766SOL    HW215198   2.808   1.007   3.223
 4767SOL     OW15199   4.018   6.927   0.905
 4767SOL    HW115200   4.021   7.010   0.960
 4767SOL    HW215201   3.923   6.903   0.886
 4768SOL     OW15202   5.009   1.475   4.747
 4768SOL    HW115203   5.037   1.493   4.841
 4768SOL    HW215204   4.981   1.380   4.737
 4769SOL     OW15205   3.662   5.748   1.347
 4769SOL    HW115206   3.718   5.828   1.366
 4769SOL    HW215207   3.679   5.717   1.253
 4770SOL     OW15208   2.031   0.419   3.078
 4770SOL    HW115209   2.063   0.326   3.095
 4770SOL    HW215210   2.074   0.482   3.143
 4771SOL     OW15211   3.164   4.633   6.547
 4771SOL    HW115212   3.210   4.721   6.530
 4771SOL    HW215213   3.073   4.650   6.584
 4772SOL     OW15214   2.665   0.209   1.098
 4772SOL    HW115215   2.604   0.136   1.067
 4772SOL    HW215216   2.610   0.286   1.133
 4773SOL     OW15217   0.141   5.845   4.148
 4773SOL    HW115218   0.145   5.765   4.207
 4773SOL    HW215219   0.046   5.872   4.134
 4774SOL     OW15220   0.653   3.223   2.660
 4774SOL    HW115221   0.571   3.209   2.604
 4774SOL    HW215222   0.732   3.181   2.615
 4775SOL     OW15223   4.856   0.301   2.569
 4775SOL    HW115224   4.925   0.229   2.580
 4775SOL    HW215225   4.828   0.334   2.659
 4776SOL     OW15226   2.809   6.099   2.301
 4776SOL    HW115227   2.723   6.053   2.323
 4776SOL    HW215228   2.862   6.113   2.384
 4777SOL     OW15229   2.734   4.357   0.911
 4777SOL    HW115230   2.741   4.391   1.005
 4777SOL    HW215231   2.645   4.383   0.873
 4778SOL     OW15232   4.906   3.649   1.815
 4778SOL    HW115233   5.003   3.626   1.804
 4778SOL    HW215234   4.850   3.580   1.770
 4779SOL     OW15235   6.705   0.197   3.074
 4779SOL    HW115236   6.727   0.281   3.123
 4779SOL    HW215237   6.611   0.170   3.093
 4780SOL     OW15238   0.737   0.551   6.045
 4780SOL    HW115239   0.678   0.542   5.965
 4780SOL    HW215240   0.799   0.629   6.032
 4781SOL     OW15241   2.320   5.949   1.219
 4781SOL    HW115242   2.318   5.891   1.300
 4781SOL    HW215243   2.307   5.893   1.137
 4782SOL     OW15244   5.815   0.849   6.494
 4782SOL    HW115245   5.838   0.935   6.538
 4782SOL    HW215246   5.716   0.834   6.499
 4783SOL     OW15247   4.802   4.407   0.773
 4783SOL    HW115248   4.818   4.458   0.857
 4783SOL    HW215249   4.752   4.323   0.793
 4784SOL     OW15250   5.922   4.661   5.399
 4784SOL    HW115251   5.873   4.676   5.314
 4784SOL    HW215252   5.984   4.584   5.388
 4785SOL     OW15253   6.571   6.627   1.075
 4785SOL    HW115254   6.610   6.535   1.060
 4785SOL    HW215255   6.591   6.684   0.996
 4786SOL     OW15256   1.941   2.712   2.145
 4786SOL    HW115257   2.000   2.793   2.152
 4786SOL    HW215258   1.875   2.712   2.220
 4787SOL     OW15259   2.928   2.273   3.619
 4787SOL    HW115260   2.883   2.205   3.677
 4787SOL    HW215261   3.027   2.264   3.626
 4788SOL     OW15262   1.245   5.647   5.536
 4788SOL    HW115263   1.283   5.684   5.620
 4788SOL    HW215264   1.284   5.556   5.519
 4789SOL     OW15265   5.419   0.406   7.019
 4789SOL    HW115266   5.345   0.447   0.046
 4789SOL    HW215267   5.396   0.409   6.922
 4790SOL     OW15268   5.312   1.976   6.421
 4790SOL    HW115269   5.382   1.956   6.353
 4790SOL    HW215270   5.253   2.049   6.388
 4791SOL     OW15271   5.844   0.019   2.256
 4791SOL    HW115272   5.785   0.096   2.282
 4791SOL    HW215273   5.791   6.978   2.205
 4792SOL     OW15274   2.203   3.050   2.785
 4792SOL    HW115275   2.238   2.998   2.863
 4792SOL    HW215276   2.194   2.991   2.705
 4793SOL     OW15277   1.211   0.313   5.552
 4793SOL    HW115278   1.232   0.411   5.545
 4793SOL    HW215279   1.214   0.286   5.648
 4794SOL     OW15280   3.382   6.714   2.764
 4794SOL    HW115281   3.401   6.634   2.820
 4794SOL    HW215282   3.431   6.706   2.677
 4795SOL     OW15283   6.421   2.793   4.748
 4795SOL    HW115284   6.511   2.751   4.744
 4795SOL    HW215285   6.350   2.724   4.733
 4796SOL     OW15286   5.063   3.069   0.261
 4796SOL    HW115287   4.991   3.001   0.251
 4796SOL    HW215288   5.032   3.156   0.221
 4797SOL     OW15289   1.109   5.144   6.129
 4797SOL    HW115290   1.184   5.126   6.193
 4797SOL    HW215291   1.127   5.096   6.043
 4798SOL     OW15292   0.410   4.432   4.546
 4798SOL    HW115293   0.392   4.528   4.521
 4798SOL    HW215294   0.414   4.425   4.646
 4799SOL     OW15295   5.487   1.238   4.964
 4799SOL    HW115296   5.481   1.311   4.896
 4799SOL    HW215297   5.535   1.271   5.045
 4800SOL     OW15298   2.954   2.832   6.090
 4800SOL    HW115299   2.931   2.832   6.187
 4800SOL    HW215300   3.025   2.900   6.072
 4801SOL     OW15301   1.782   1.893   0.232
 4801SOL    HW115302   1.713   1.963   0.211
 4801SOL    HW215303   1.793   1.886   0.331
 4802SOL     OW15304   2.275   6.536   1.919
 4802SOL    HW115305   2.233   6.625   1.938
 4802SOL    HW215306   2.374   6.543   1.929
 4803SOL     OW15307   0.917   0.023   1.060
 4803SOL    HW115308   0.998   0.014   1.118
 4803SOL    HW215309   0.862   0.100   1.091
 4804SOL     OW15310   4.207   5.467   6.827
 4804SOL    HW115311   4.281   5.483   6.892
 4804SOL    HW215312   4.206   5.540   6.759
 4805SOL     OW15313   6.733   0.280   0.574
 4805SOL    HW115314   6.832   0.293   0.585
 4805SOL    HW215315   6.693   0.362   0.534
 4806SOL     OW15316   6.816   4.017   2.970
 4806SOL    HW115317   6.803   4.106   2.927
 4806SOL    HW215318   6.862   4.030   3.058
 4807SOL     OW15319   0.838   6.006   1.808
 4807SOL    HW115320   0.758   6.036   1.756
 4807SOL    HW215321   0.864   6.077   1.874
 4808SOL     OW15322   5.638   3.334   0.578
 4808SOL    HW115323   5.573   3.258   0.587
 4808SOL    HW215324   5.686   3.347   0.665
 4809SOL     OW15325   3.010   4.810   0.111
 4809SOL    HW115326   3.004   4.762   0.023
 4809SOL    HW215327   2.918   4.824   0.148
 4810SOL     OW15328   0.792   5.481   1.911
 4810SOL    HW115329   0.869   5.457   1.970
 4810SOL    HW215330   0.795   5.579   1.890
 4811SOL     OW15331   3.063   4.946   2.073
 4811SOL    HW115332   3.133   5.013   2.049
 4811SOL    HW215333   3.063   4.873   2.004
 4812SOL     OW15334   7.025   5.071   4.150
 4812SOL    HW115335   0.036   5.161   4.174
 4812SOL    HW215336   0.074   5.007   4.135
 4813SOL     OW15337   4.958   1.585   2.313
 4813SOL    HW115338   5.012   1.639   2.377
 4813SOL    HW215339   4.931   1.643   2.236
 4814SOL     OW15340   6.923   4.060   0.470
 4814SOL    HW115341   6.868   4.138   0.440
 4814SOL    HW215342   7.008   4.057   0.417
 4815SOL     OW15343   5.257   5.204   2.227
 4815SOL    HW115344   5.304   5.208   2.139
 4815SOL    HW215345   5.253   5.296   2.267
 4816SOL     OW15346   5.256   5.354   2.756
 4816SOL    HW115347   5.172   5.340   2.704
 4816SOL    HW215348   5.330   5.300   2.717
 4817SOL     OW15349   0.969   1.935   5.590
 4817SOL    HW115350   0.952   1.995   5.513
 4817SOL    HW215351   0.883   1.917   5.638
 4818SOL     OW15352   0.122   6.972   3.661
 4818SOL    HW115353   0.070   7.019   3.733
 4818SOL    HW215354   0.218   6.964   3.689
 4819SOL     OW15355   1.422   3.485   0.158
 4819SOL    HW115356   1.469   3.442   0.080
 4819SOL    HW215357   1.489   3.510   0.228
 4820SOL     OW15358   0.072   3.337   1.633
 4820SOL    HW115359   0.133   3.262   1.608
 4820SOL    HW215360   0.027   3.372   1.551
 4821SOL     OW15361   0.089   5.876   2.151
 4821SOL    HW115362   0.028   5.802   2.180
 4821SOL    HW215363   0.184   5.845   2.155
 4822SOL     OW15364   0.883   3.951   4.197
 4822SOL    HW115365   0.808   3.998   4.244
 4822SOL    HW215366   0.847   3.875   4.143
 4823SOL     OW15367   1.244   2.925   2.589
 4823SOL    HW115368   1.219   3.017   2.621
 4823SOL    HW215369   1.317   2.932   2.521
 4824SOL     OW15370   5.122   1.010   5.256
 4824SOL    HW115371   5.074   0.925   5.277
 4824SOL    HW215372   5.177   0.998   5.173
 4825SOL     OW15373   1.441   0.516   4.339
 4825SOL    HW115374   1.366   0.456   4.367
 4825SOL    HW215375   1.528   0.468   4.348
 4826SOL     OW15376   4.807   6.984   1.609
 4826SOL    HW115377   4.747   6.990   1.689
 4826SOL    HW215378   4.871   0.035   1.608
 4827SOL     OW15379   6.760   1.989   0.243
 4827SOL    HW115380   6.677   2.044   0.230
 4827SOL    HW215381   6.823   2.006   0.167
 4828SOL     OW15382   4.791   6.929   2.740
 4828SOL    HW115383   4.728   6.970   2.807
 4828SOL    HW215384   4.827   7.001   2.680
 4829SOL     OW15385   4.189   6.568   5.729
 4829SOL    HW115386   4.090   6.572   5.742
 4829SOL    HW215387   4.227   6.660   5.734
 4830SOL     OW15388   3.802   5.758   3.365
 4830SOL    HW115389   3.839   5.743   3.457
 4830SOL    HW215390   3.702   5.765   3.370
 4831SOL     OW15391   3.458   5.568   5.813
 4831SOL    HW115392   3.496   5.602   5.727
 4831SOL    HW215393   3.414   5.644   5.862
 4832SOL     OW15394   2.980   3.184   5.100
 4832SOL    HW115395   2.914   3.246   5.142
 4832SOL    HW215396   2.985   3.100   5.153
 4833SOL     OW15397   5.735   2.893   4.556
 4833SOL    HW115398   5.749   2.799   4.587
 4833SOL    HW215399   5.710   2.950   4.634
 4834SOL     OW15400   2.374   5.238   2.614
 4834SOL    HW115401   2.276   5.247   2.597
 4834SOL    HW215402   2.412   5.165   2.557
 4835SOL     OW15403   6.816   3.362   5.510
 4835SOL    HW115404   6.895   3.302   5.522
 4835SOL    HW215405   6.746   3.338   5.577
 4836SOL     OW15406   5.042   0.762   5.334
 4836SOL    HW115407   5.038   0.665   5.357
 4836SOL    HW215408   5.002   0.816   5.409
 4837SOL     OW15409   6.766   3.209   3.933
 4837SOL    HW115410   6.794   3.221   4.029
 4837SOL    HW215411   6.687   3.267   3.914
 4838SOL     OW15412   1.427   4.389   6.233
 4838SOL    HW115413   1.516   4.344   6.239
 4838SOL    HW215414   1.409   4.438   6.318
 4839SOL     OW15415   2.298   2.152   0.482
 4839SOL    HW115416   2.247   2.199   0.554
 4839SOL    HW215417   2.395   2.146   0.508
 4840SOL     OW15418   4.903   3.852   5.243
 4840SOL    HW115419   4.864   3.830   5.333
 4840SOL    HW215420   4.860   3.795   5.173
 4841SOL     OW15421   3.075   5.175   3.574
 4841SOL    HW115422   2.980   5.177   3.606
 4841SOL    HW215423   3.136   5.180   3.653
 4842SOL     OW15424   2.713   5.310   2.833
 4842SOL    HW115425   2.719   5.410   2.840
 4842SOL    HW215426   2.733   5.282   2.739
 4843SOL     OW15427   0.185   2.508   2.098
 4843SOL    HW115428   0.100   2.458   2.091
 4843SOL    HW215429   0.166   2.606   2.108
 4844SOL     OW15430   1.165   5.337   5.156
 4844SOL    HW115431   1.162   5.275   5.078
 4844SOL    HW215432   1.216   5.420   5.130
 4845SOL     OW15433   4.444   4.388   5.376
 4845SOL    HW115434   4.394   4.402   5.291
 4845SOL    HW215435   4.396   4.435   5.451
 4846SOL     OW15436   0.125   2.824   4.494
 4846SOL    HW115437   0.070   2.905   4.516
 4846SOL    HW215438   0.075   2.766   4.430
 4847SOL     OW15439   2.747   6.323   5.944
 4847SOL    HW115440   2.796   6.382   5.879
 4847SOL    HW215441   2.650   6.343   5.939
 4848SOL     OW15442   2.534   1.024   3.844
 4848SOL    HW115443   2.467   0.976   3.788
 4848SOL    HW215444   2.621   1.028   3.796
 4849SOL     OW15445   2.060   0.597   0.517
 4849SOL    HW115446   1.971   0.576   0.557
 4849SOL    HW215447   2.129   0.535   0.554
 4850SOL     OW15448   4.924   1.014   1.077
 4850SOL    HW115449   4.868   1.096   1.062
 4850SOL    HW215450   4.885   0.937   1.026
 4851SOL     OW15451   3.063   6.472   0.081
 4851SOL    HW115452   3.009   6.543   0.036
 4851SOL    HW215453   3.132   6.438   0.018
 4852SOL     OW15454   4.340   5.373   5.156
 4852SOL    HW115455   4.262   5.376   5.218
 4852SOL    HW215456   4.401   5.450   5.174
 4853SOL     OW15457   3.735   0.657   3.136
 4853SOL    HW115458   3.784   0.631   3.053
 4853SOL    HW215459   3.738   0.582   3.202
 4854SOL     OW15460   6.009   6.053   1.396
 4854SOL    HW115461   6.055   5.965   1.410
 4854SOL    HW215462   5.920   6.038   1.353
 4855SOL     OW15463   6.478   4.660   4.949
 4855SOL    HW115464   6.532   4.586   4.910
 4855SOL    HW215465   6.539   4.730   4.986
 4856SOL     OW15466   0.472   3.923   2.385
 4856SOL    HW115467   0.557   3.881   2.417
 4856SOL    HW215468   0.411   3.851   2.350
 4857SOL     OW15469   3.146   2.166   4.134
 4857SOL    HW115470   3.189   2.169   4.225
 4857SOL    HW215471   3.055   2.206   4.140
 4858SOL     OW15472   0.704   7.024   4.701
 4858SOL    HW115473   0.629   0.012   4.766
 4858SOL    HW215474   0.687   6.941   4.647
 4859SOL     OW15475   0.810   5.754   1.915
 4859SOL    HW115476   0.866   5.758   1.998
 4859SOL    HW215477   0.813   5.842   1.868
 4860SOL     OW15478   5.067   5.284   0.696
 4860SOL    HW115479   5.056   5.324   0.605
 4860SOL    HW215480   5.042   5.353   0.765
 4861SOL     OW15481   7.010   4.724   6.133
 4861SOL    HW115482   6.922   4.772   6.131
 4861SOL    HW215483   0.058   4.790   6.120
 4862SOL     OW15484   2.658   4.881   4.994
 4862SOL    HW115485   2.651   4.801   4.934
 4862SOL    HW215486   2.714   4.858   5.073
 4863SOL     OW15487   4.604   2.558   3.026
 4863SOL    HW115488   4.623   2.568   2.928
 4863SOL    HW215489   4.647   2.475   3.060
 4864SOL     OW15490   3.161   0.857   2.153
 4864SOL    HW115491   3.225   0.835   2.227
 4864SOL    HW215492   3.098   0.928   2.182
 4865SOL     OW15493   3.830   5.372   5.526
 4865SOL    HW115494   3.890   5.452   5.534
 4865SOL    HW215495   3.762   5.375   5.598
 4866SOL     OW15496   5.931   4.910   1.835
 4866SOL    HW115497   5.905   4.816   1.813
 4866SOL    HW215498   5.980   4.911   1.922
 4867SOL     OW15499   5.173   5.583   2.512
 4867SOL    HW115500   5.110   5.637   2.568
 4867SOL    HW215501   5.147   5.487   2.517
 4868SOL     OW15502   0.636   5.647   1.304
 4868SOL    HW115503   0.553   5.635   1.250
 4868SOL    HW215504   0.692   5.719   1.263
 4869SOL     OW15505   6.875   1.757   0.017
 4869SOL    HW115506   6.952   1.694   0.008
 4869SOL    HW215507   6.862   1.780   0.114
 4870SOL     OW15508   4.691   6.478   1.618
 4870SOL    HW115509   4.775   6.531   1.605
 4870SOL    HW215510   4.631   6.526   1.682
 4871SOL     OW15511   1.082   2.253   3.799
 4871SOL    HW115512   1.115   2.207   3.881
 4871SOL    HW215513   1.098   2.196   3.719
 4872SOL     OW15514   1.304   7.017   2.664
 4872SOL    HW115515   1.266   0.035   2.583
 4872SOL    HW215516   1.243   0.004   2.741
 4873SOL     OW15517   7.004   5.580   4.752
 4873SOL    HW115518   6.921   5.628   4.782
 4873SOL    HW215519   0.044   5.578   4.826
 4874SOL     OW15520   5.581   3.464   3.100
 4874SOL    HW115521   5.588   3.389   3.034
 4874SOL    HW215522   5.557   3.548   3.052
 4875SOL     OW15523   5.513   1.677   0.993
 4875SOL    HW115524   5.494   1.654   1.089
 4875SOL    HW215525   5.490   1.772   0.976
 4876SOL     OW15526   6.770   1.326   6.999
 4876SOL    HW115527   6.811   1.240   0.004
 4876SOL    HW215528   6.672   1.315   6.988
 4877SOL     OW15529   6.275   1.223   1.242
 4877SOL    HW115530   6.229   1.299   1.289
 4877SOL    HW215531   6.328   1.259   1.165
 4878SOL     OW15532   6.862   1.567   1.470
 4878SOL    HW115533   6.853   1.662   1.501
 4878SOL    HW215534   6.773   1.524   1.469
 4879SOL     OW15535   3.919   4.919   3.639
 4879SOL    HW115536   3.833   4.969   3.649
 4879SOL    HW215537   3.994   4.973   3.676
 4880SOL     OW15538   5.675   1.515   7.008
 4880SOL    HW115539   5.767   1.510   0.022
 4880SOL    HW215540   5.641   1.609   7.014
 4881SOL     OW15541   3.428   6.154   6.134
 4881SOL    HW115542   3.343   6.108   6.158
 4881SOL    HW215543   3.426   6.181   6.038
 4882SOL     OW15544   5.687   1.265   5.199
 4882SOL    HW115545   5.765   1.224   5.246
 4882SOL    HW215546   5.688   1.364   5.213
 4883SOL     OW15547   6.462   4.653   1.742
 4883SOL    HW115548   6.530   4.583   1.722
 4883SOL    HW215549   6.407   4.624   1.821
 4884SOL     OW15550   3.578   6.251   1.829
 4884SOL    HW115551   3.478   6.250   1.837
 4884SOL    HW215552   3.618   6.213   1.912
 4885SOL     OW15553   1.950   0.250   0.844
 4885SOL    HW115554   1.944   0.322   0.913
 4885SOL    HW215555   2.025   0.188   0.865
 4886SOL     OW15556   6.320   0.619   0.287
 4886SOL    HW115557   6.386   0.649   0.355
 4886SOL    HW215558   6.232   0.662   0.304
 4887SOL     OW15559   0.039   1.916   3.724
 4887SOL    HW115560   0.056   2.013   3.707
 4887SOL    HW215561   6.967   1.902   3.738
 4888SOL     OW15562   2.212   5.876   2.812
 4888SOL    HW115563   2.210   5.966   2.767
 4888SOL    HW215564   2.171   5.883   2.903
 4889SOL     OW15565   1.212   1.882   6.975
 4889SOL    HW115566   1.141   1.945   7.006
 4889SOL    HW215567   1.187   1.847   6.884
 4890SOL     OW15568   1.016   0.860   4.264
 4890SOL    HW115569   0.993   0.763   4.274
 4890SOL    HW215570   1.110   0.875   4.295
 4891SOL     OW15571   0.796   4.962   0.557
 4891SOL    HW115572   0.854   4.887   0.586
 4891SOL    HW215573   0.796   4.967   0.457
 4892SOL     OW15574   0.947   5.416   1.596
 4892SOL    HW115575   0.856   5.389   1.562
 4892SOL    HW215576   1.013   5.344   1.574
 4893SOL     OW15577   0.397   3.935   6.338
 4893SOL    HW115578   0.416   3.979   6.250
 4893SOL    HW215579   0.483   3.923   6.388
 4894SOL     OW15580   2.315   1.030   3.482
 4894SOL    HW115581   2.384   1.000   3.415
 4894SOL    HW215582   2.237   1.070   3.434
 4895SOL     OW15583   0.851   2.975   0.318
 4895SOL    HW115584   0.770   3.001   0.371
 4895SOL    HW215585   0.925   2.950   0.381
 4896SOL     OW15586   3.681   4.998   4.839
 4896SOL    HW115587   3.722   4.953   4.918
 4896SOL    HW215588   3.581   4.985   4.841
 4897SOL     OW15589   3.569   5.527   0.385
 4897SOL    HW115590   3.625   5.599   0.425
 4897SOL    HW215591   3.503   5.568   0.322
 4898SOL     OW15592   5.503   1.427   5.460
 4898SOL    HW115593   5.435   1.388   5.398
 4898SOL    HW215594   5.480   1.523   5.478
 4899SOL     OW15595   6.314   4.643   3.660
 4899SOL    HW115596   6.411   4.658   3.638
 4899SOL    HW215597   6.261   4.724   3.635
 4900SOL     OW15598   0.447   6.509   5.927
 4900SOL    HW115599   0.387   6.570   5.978
 4900SOL    HW215600   0.404   6.486   5.839
 4901SOL     OW15601   0.906   6.215   4.055
 4901SOL    HW115602   0.872   6.169   3.972
 4901SOL    HW215603   0.830   6.228   4.119
 4902SOL     OW15604   2.776   5.051   1.452
 4902SOL    HW115605   2.685   5.070   1.489
 4902SOL    HW215606   2.842   5.046   1.526
 4903SOL     OW15607   4.547   6.900   6.615
 4903SOL    HW115608   4.608   6.958   6.561
 4903SOL    HW215609   4.584   6.890   6.708
 4904SOL     OW15610   2.354   5.969   4.240
 4904SOL    HW115611   2.388   5.876   4.241
 4904SOL    HW215612   2.302   5.985   4.155
 4905SOL     OW15613   4.819   3.088   1.672
 4905SOL    HW115614   4.808   3.052   1.765
 4905SOL    HW215615   4.729   3.112   1.636
 4906SOL     OW15616   5.213   0.143   0.573
 4906SOL    HW115617   5.301   0.160   0.528
 4906SOL    HW215618   5.211   0.190   0.661
 4907SOL     OW15619   3.745   0.192   3.382
 4907SOL    HW115620   3.745   0.215   3.479
 4907SOL    HW215621   3.813   0.120   3.365
 4908SOL     OW15622   3.492   6.319   6.586
 4908SOL    HW115623   3.510   6.262   6.506
 4908SOL    HW215624   3.453   6.406   6.557
 4909SOL     OW15625   6.592   5.858   5.395
 4909SOL    HW115626   6.514   5.912   5.362
 4909SOL    HW215627   6.660   5.920   5.435
 4910SOL     OW15628   5.016   0.599   5.100
 4910SOL    HW115629   5.028   0.675   5.164
 4910SOL    HW215630   5.071   0.521   5.130
 4911SOL     OW15631   0.043   2.552   5.754
 4911SOL    HW115632   0.135   2.590   5.756
 4911SOL    HW215633   0.017   2.525   5.847
 4912SOL     OW15634   3.859   1.797   2.234
 4912SOL    HW115635   3.892   1.892   2.234
 4912SOL    HW215636   3.910   1.744   2.167
 4913SOL     OW15637   3.603   3.807   3.209
 4913SOL    HW115638   3.508   3.796   3.179
 4913SOL    HW215639   3.635   3.722   3.251
 4914SOL     OW15640   2.113   6.679   3.554
 4914SOL    HW115641   2.110   6.664   3.455
 4914SOL    HW215642   2.092   6.775   3.573
 4915SOL     OW15643   4.072   6.502   3.868
 4915SOL    HW115644   4.027   6.424   3.912
 4915SOL    HW215645   4.106   6.565   3.938
 4916SOL     OW15646   2.632   2.057   3.037
 4916SOL    HW115647   2.580   2.119   2.979
 4916SOL    HW215648   2.569   2.008   3.098
 4917SOL     OW15649   1.918   4.725   0.835
 4917SOL    HW115650   1.961   4.789   0.899
 4917SOL    HW215651   1.820   4.724   0.850
 4918SOL     OW15652   1.963   0.333   2.051
 4918SOL    HW115653   1.939   0.247   2.006
 4918SOL    HW215654   1.982   0.316   2.147
 4919SOL     OW15655   1.714   2.690   2.313
 4919SOL    HW115656   1.617   2.668   2.301
 4919SOL    HW215657   1.725   2.743   2.397
 4920SOL     OW15658   4.137   0.554   1.047
 4920SOL    HW115659   4.209   0.495   1.013
 4920SOL    HW215660   4.173   0.647   1.061
 4921SOL     OW15661   1.868   4.112   1.884
 4921SOL    HW115662   1.939   4.183   1.882
 4921SOL    HW215663   1.778   4.154   1.871
 4922SOL     OW15664   1.566   3.123   5.311
 4922SOL    HW115665   1.596   3.207   5.266
 4922SOL    HW215666   1.482   3.141   5.363
 4923SOL     OW15667   5.078   0.531   1.611
 4923SOL    HW115668   5.023   0.610   1.638
 4923SOL    HW215669   5.036   0.448   1.648
 4924SOL     OW15670   0.824   3.912   4.483
 4924SOL    HW115671   0.919   3.916   4.452
 4924SOL    HW215672   0.821   3.881   4.578
 4925SOL     OW15673   4.932   6.394   0.383
 4925SOL    HW115674   4.918   6.489   0.410
 4925SOL    HW215675   4.941   6.337   0.464
 4926SOL     OW15676   4.683   2.449   2.162
 4926SOL    HW115677   4.771   2.446   2.116
 4926SOL    HW215678   4.687   2.394   2.246
 4927SOL     OW15679   3.138   3.040   3.129
 4927SOL    HW115680   3.110   3.124   3.082
 4927SOL    HW215681   3.103   3.041   3.223
 4928SOL     OW15682   0.863   6.553   0.223
 4928SOL    HW115683   0.765   6.533   0.216
 4928SOL    HW215684   0.875   6.641   0.271
 4929SOL     OW15685   1.073   5.217   4.259
 4929SOL    HW115686   1.080   5.152   4.335
 4929SOL    HW215687   1.163   5.255   4.238
 4930SOL     OW15688   0.602   2.133   0.783
 4930SOL    HW115689   0.511   2.128   0.742
 4930SOL    HW215690   0.601   2.089   0.873
 4931SOL     OW15691   0.369   0.355   0.714
 4931SOL    HW115692   0.438   0.282   0.719
 4931SOL    HW215693   0.382   0.407   0.629
 4932SOL     OW15694   2.706   1.878   1.412
 4932SOL    HW115695   2.708   1.926   1.325
 4932SOL    HW215696   2.624   1.821   1.416
 4933SOL     OW15697   2.806   0.967   3.851
 4933SOL    HW115698   2.872   0.939   3.780
 4933SOL    HW215699   2.833   1.056   3.888
 4934SOL     OW15700   0.627   6.041   4.088
 4934SOL    HW115701   0.604   6.138   4.100
 4934SOL    HW215702   0.674   6.029   4.001
 4935SOL     OW15703   1.785   1.589   6.879
 4935SOL    HW115704   1.864   1.647   6.860
 4935SOL    HW215705   1.734   1.574   6.794
 4936SOL     OW15706   3.777   5.999   1.682
 4936SOL    HW115707   3.734   6.008   1.592
 4936SOL    HW215708   3.709   5.968   1.748
 4937SOL     OW15709   0.862   2.821   5.926
 4937SOL    HW115710   0.858   2.735   5.875
 4937SOL    HW215711   0.808   2.812   6.010
 4938SOL     OW15712   3.317   4.521   1.490
 4938SOL    HW115713   3.400   4.496   1.539
 4938SOL    HW215714   3.256   4.573   1.550
 4939SOL     OW15715   1.492   2.269   1.464
 4939SOL    HW115716   1.452   2.320   1.540
 4939SOL    HW215717   1.439   2.287   1.381
 4940SOL     OW15718   6.860   2.964   3.851
 4940SOL    HW115719   6.826   3.046   3.896
 4940SOL    HW215720   6.960   2.961   3.857
 4941SOL     OW15721   4.223   2.327   5.339
 4941SOL    HW115722   4.260   2.375   5.419
 4941SOL    HW215723   4.206   2.392   5.266
 4942SOL     OW15724   5.370   2.395   3.640
 4942SOL    HW115725   5.454   2.403   3.694
 4942SOL    HW215726   5.375   2.312   3.584
 4943SOL     OW15727   5.076   3.003   6.588
 4943SOL    HW115728   5.148   2.971   6.650
 4943SOL    HW215729   5.060   2.934   6.517
 4944SOL     OW15730   1.503   5.388   1.046
 4944SOL    HW115731   1.558   5.355   1.123
 4944SOL    HW215732   1.563   5.434   0.980
 4945SOL     OW15733   2.041   0.707   4.965
 4945SOL    HW115734   2.102   0.658   4.903
 4945SOL    HW215735   2.088   0.722   5.053
 4946SOL     OW15736   1.424   5.103   0.426
 4946SOL    HW115737   1.406   5.200   0.409
 4946SOL    HW215738   1.487   5.068   0.356
 4947SOL     OW15739   1.754   0.909   1.764
 4947SOL    HW115740   1.843   0.915   1.720
 4947SOL    HW215741   1.761   0.855   1.848
 4948SOL     OW15742   1.589   2.509   1.344
 4948SOL    HW115743   1.592   2.410   1.357
 4948SOL    HW215744   1.517   2.532   1.278
 4949SOL     OW15745   6.597   3.139   6.030
 4949SOL    HW115746   6.660   3.146   6.107
 4949SOL    HW215747   6.649   3.122   5.946
 4950SOL     OW15748   2.568   4.702   5.453
 4950SOL    HW115749   2.521   4.752   5.381
 4950SOL    HW215750   2.662   4.684   5.425
 4951SOL     OW15751   5.156   5.600   3.744
 4951SOL    HW115752   5.176   5.655   3.825
 4951SOL    HW215753   5.242   5.569   3.703
 4952SOL     OW15754   0.519   0.272   6.063
 4952SOL    HW115755   0.598   0.308   6.014
 4952SOL    HW215756   0.488   0.187   6.020
 4953SOL     OW15757   1.432   1.947   4.969
 4953SOL    HW115758   1.427   1.933   4.871
 4953SOL    HW215759   1.519   1.991   4.992
 4954SOL     OW15760   3.053   4.078   5.228
 4954SOL    HW115761   3.151   4.074   5.210
 4954SOL    HW215762   3.031   4.164   5.274
 4955SOL     OW15763   3.077   6.187   0.182
 4955SOL    HW115764   3.039   6.271   0.144
 4955SOL    HW215765   3.174   6.200   0.202
 4956SOL     OW15766   2.316   0.370   5.237
 4956SOL    HW115767   2.278   0.406   5.323
 4956SOL    HW215768   2.400   0.419   5.215
 4957SOL     OW15769   6.420   4.015   6.448
 4957SOL    HW115770   6.458   4.105   6.427
 4957SOL    HW215771   6.460   3.981   6.534
 4958SOL     OW15772   2.391   0.378   6.470
 4958SOL    HW115773   2.446   0.425   6.539
 4958SOL    HW215774   2.306   0.428   6.455
 4959SOL     OW15775   0.051   3.075   1.793
 4959SOL    HW115776   7.011   3.150   1.793
 4959SOL    HW215777   0.116   3.087   1.718
 4960SOL     OW15778   4.157   4.853   4.299
 4960SOL    HW115779   4.233   4.917   4.285
 4960SOL    HW215780   4.178   4.793   4.376
 4961SOL     OW15781   3.104   0.854   6.906
 4961SOL    HW115782   3.074   0.792   6.833
 4961SOL    HW215783   3.158   0.803   6.973
 4962SOL     OW15784   0.358   3.713   1.204
 4962SOL    HW115785   0.381   3.712   1.107
 4962SOL    HW215786   0.442   3.710   1.259
 4963SOL     OW15787   0.449   4.096   6.852
 4963SOL    HW115788   0.467   4.194   6.844
 4963SOL    HW215789   0.427   4.060   6.762
 4964SOL     OW15790   2.529   6.602   4.822
 4964SOL    HW115791   2.628   6.586   4.823
 4964SOL    HW215792   2.481   6.514   4.812
 4965SOL     OW15793   1.464   6.385   2.966
 4965SOL    HW115794   1.563   6.393   2.960
 4965SOL    HW215795   1.422   6.465   2.922
 4966SOL     OW15796   3.327   6.597   3.944
 4966SOL    HW115797   3.242   6.623   3.989
 4966SOL    HW215798   3.326   6.499   3.924
 4967SOL     OW15799   3.923   4.769   5.458
 4967SOL    HW115800   3.909   4.836   5.385
 4967SOL    HW215801   3.840   4.761   5.512
 4968SOL     OW15802   0.393   1.638   3.870
 4968SOL    HW115803   0.329   1.706   3.906
 4968SOL    HW215804   0.367   1.615   3.776
 4969SOL     OW15805   0.551   6.141   2.544
 4969SOL    HW115806   0.468   6.118   2.493
 4969SOL    HW215807   0.569   6.239   2.538
 4970SOL     OW15808   1.526   1.173   1.459
 4970SOL    HW115809   1.620   1.194   1.486
 4970SOL    HW215810   1.463   1.210   1.527
 4971SOL     OW15811   6.600   6.044   2.765
 4971SOL    HW115812   6.643   6.051   2.855
 4971SOL    HW215813   6.670   6.053   2.694
 4972SOL     OW15814   1.464   4.366   1.182
 4972SOL    HW115815   1.455   4.391   1.086
 4972SOL    HW215816   1.560   4.348   1.203
 4973SOL     OW15817   0.283   0.950   0.799
 4973SOL    HW115818   0.377   0.973   0.771
 4973SOL    HW215819   0.274   0.851   0.807
 4974SOL     OW15820   3.550   4.907   5.976
 4974SOL    HW115821   3.484   4.921   6.050
 4974SOL    HW215822   3.643   4.911   6.014
 4975SOL     OW15823   5.852   3.619   6.896
 4975SOL    HW115824   5.826   3.540   6.951
 4975SOL    HW215825   5.772   3.678   6.882
 4976SOL     OW15826   1.176   6.897   4.264
 4976SOL    HW115827   1.185   6.990   4.228
 4976SOL    HW215828   1.125   6.900   4.350
 4977SOL     OW15829   2.799   5.448   6.351
 4977SOL    HW115830   2.745   5.529   6.376
 4977SOL    HW215831   2.792   5.433   6.253
 4978SOL     OW15832   5.136   4.613   5.124
 4978SOL    HW115833   5.096   4.532   5.167
 4978SOL    HW215834   5.081   4.639   5.045
 4979SOL     OW15835   1.737   6.801   6.396
 4979SOL    HW115836   1.788   6.775   6.314
 4979SOL    HW215837   1.789   6.869   6.447
 4980SOL     OW15838   6.232   3.803   2.805
 4980SOL    HW115839   6.329   3.790   2.782
 4980SOL    HW215840   6.189   3.714   2.820
 4981SOL     OW15841   3.651   4.997   1.837
 4981SOL    HW115842   3.592   4.992   1.757
 4981SOL    HW215843   3.633   4.919   1.897
 4982SOL     OW15844   4.771   1.364   6.856
 4982SOL    HW115845   4.720   1.290   6.812
 4982SOL    HW215846   4.848   1.390   6.799
 4983SOL     OW15847   6.658   5.243   3.739
 4983SOL    HW115848   6.713   5.284   3.812
 4983SOL    HW215849   6.561   5.249   3.763
 4984SOL     OW15850   5.013   4.383   2.837
 4984SOL    HW115851   4.930   4.332   2.813
 4984SOL    HW215852   4.990   4.456   2.901
 4985SOL     OW15853   5.913   5.889   3.104
 4985SOL    HW115854   5.931   5.888   3.203
 4985SOL    HW215855   5.973   5.822   3.059
 4986SOL     OW15856   0.906   4.778   1.900
 4986SOL    HW115857   0.828   4.732   1.943
 4986SOL    HW215858   0.941   4.722   1.825
 4987SOL     OW15859   0.977   0.409   2.360
 4987SOL    HW115860   0.939   0.343   2.425
 4987SOL    HW215861   0.945   0.501   2.383
 4988SOL     OW15862   5.593   6.943   3.470
 4988SOL    HW115863   5.684   6.963   3.506
 4988SOL    HW215864   5.602   6.908   3.376
 4989SOL     OW15865   4.954   1.308   2.371
 4989SOL    HW115866   4.953   1.408   2.382
 4989SOL    HW215867   5.049   1.277   2.362
 4990SOL     OW15868   4.365   1.327   6.359
 4990SOL    HW115869   4.313   1.411   6.369
 4990SOL    HW215870   4.325   1.255   6.415
 4991SOL     OW15871   1.011   5.918   5.088
 4991SOL    HW115872   1.028   5.983   5.014
 4991SOL    HW215873   1.098   5.887   5.126
 4992SOL     OW15874   0.126   0.826   3.692
 4992SOL    HW115875   0.026   0.824   3.684
 4992SOL    HW215876   0.151   0.826   3.789
 4993SOL     OW15877   4.553   5.971   5.529
 4993SOL    HW115878   4.460   5.973   5.494
 4993SOL    HW215879   4.553   5.940   5.624
 4994SOL     OW15880   3.039   5.069   5.753
 4994SOL    HW115881   2.998   5.001   5.694
 4994SOL    HW215882   2.966   5.121   5.799
 4995SOL     OW15883   0.177   0.747   4.551
 4995SOL    HW115884   0.185   0.802   4.634
 4995SOL    HW215885   0.091   0.696   4.553
 4996SOL     OW15886   0.306   1.853   4.370
 4996SOL    HW115887   0.256   1.921   4.423
 4996SOL    HW215888   0.269   1.849   4.277
 4997SOL     OW15889   3.485   1.944   1.354
 4997SOL    HW115890   3.530   1.924   1.441
 4997SOL    HW215891   3.422   1.870   1.331
 4998SOL     OW15892   0.964   3.400   3.500
 4998SOL    HW115893   1.037   3.449   3.450
 4998SOL    HW215894   1.004   3.352   3.578
 4999SOL     OW15895   1.105   3.848   4.726
 4999SOL    HW115896   1.009   3.838   4.751
 4999SOL    HW215897   1.113   3.907   4.646
 5000SOL     OW15898   3.049   5.670   3.306
 5000SOL    HW115899   3.145   5.643   3.304
 5000SOL    HW215900   2.999   5.609   3.367
 5001SOL     OW15901   1.103   5.048   3.047
 5001SOL    HW115902   1.102   5.137   3.002
 5001SOL    HW215903   1.143   4.979   2.986
 5002SOL     OW15904   0.734   4.324   2.502
 5002SOL    HW115905   0.676   4.401   2.475
 5002SOL    HW215906   0.682   4.263   2.563
 5003SOL     OW15907   4.186   6.091   2.926
 5003SOL    HW115908   4.132   6.077   3.009
 5003SOL    HW215909   4.142   6.160   2.869
 5004SOL     OW15910   3.170   6.062   6.160
 5004SOL    HW115911   3.137   6.021   6.075
 5004SOL    HW215912   3.093   6.074   6.223
 5005SOL     OW15913   3.075   3.096   6.278
 5005SOL    HW115914   2.988   3.075   6.323
 5005SOL    HW215915   3.094   3.194   6.286
 5006SOL     OW15916   5.394   1.480   1.689
 5006SOL    HW115917   5.401   1.577   1.666
 5006SOL    HW215918   5.317   1.439   1.640
 5007SOL     OW15919   6.489   0.763   1.234
 5007SOL    HW115920   6.484   0.824   1.154
 5007SOL    HW215921   6.443   0.677   1.213
 5008SOL     OW15922   6.793   6.919   1.503
 5008SOL    HW115923   6.812   6.901   1.600
 5008SOL    HW215924   6.707   6.875   1.477
 5009SOL     OW15925   0.831   2.674   0.681
 5009SOL    HW115926   0.758   2.686   0.614
 5009SOL    HW215927   0.920   2.673   0.634
 5010SOL     OW15928   3.494   2.694   7.017
 5010SOL    HW115929   3.463   2.706   6.923
 5010SOL    HW215930   3.463   2.605   0.024
 5011SOL     OW15931   1.880   3.682   6.969
 5011SOL    HW115932   1.920   3.639   0.024
 5011SOL    HW215933   1.784   3.703   6.987
 5012SOL     OW15934   5.455   2.185   6.044
 5012SOL    HW115935   5.439   2.265   5.987
 5012SOL    HW215936   5.494   2.214   6.132
 5013SOL     OW15937   6.193   0.584   5.095
 5013SOL    HW115938   6.159   0.493   5.117
 5013SOL    HW215939   6.270   0.577   5.032
 5014SOL     OW15940   6.697   3.944   0.602
 5014SOL    HW115941   6.763   3.984   0.539
 5014SOL    HW215942   6.744   3.916   0.686
 5015SOL     OW15943   5.573   0.341   4.314
 5015SOL    HW115944   5.524   0.265   4.356
 5015SOL    HW215945   5.663   0.351   4.356
 5016SOL     OW15946   1.254   3.551   4.913
 5016SOL    HW115947   1.226   3.459   4.885
 5016SOL    HW215948   1.335   3.578   4.863
 5017SOL     OW15949   0.974   2.624   1.119
 5017SOL    HW115950   0.913   2.606   1.042
 5017SOL    HW215951   0.939   2.701   1.172
 5018SOL     OW15952   0.425   5.229   2.146
 5018SOL    HW115953   0.326   5.226   2.132
 5018SOL    HW215954   0.462   5.312   2.105
 5019SOL     OW15955   1.741   5.745   5.545
 5019SOL    HW115956   1.796   5.692   5.610
 5019SOL    HW215957   1.649   5.705   5.539
 5020SOL     OW15958   0.424   6.675   5.066
 5020SOL    HW115959   0.503   6.615   5.057
 5020SOL    HW215960   0.417   6.733   4.985
 5021SOL     OW15961   1.619   0.887   0.841
 5021SOL    HW115962   1.660   0.796   0.853
 5021SOL    HW215963   1.658   0.950   0.908
 5022SOL     OW15964   0.145   2.881   1.521
 5022SOL    HW115965   0.146   2.848   1.616
 5022SOL    HW215966   0.053   2.872   1.484
 5023SOL     OW15967   0.008   3.517   1.437
 5023SOL    HW115968   0.034   3.519   1.340
 5023SOL    HW215969   6.980   3.599   1.458
 5024SOL     OW15970   5.254   3.991   0.658
 5024SOL    HW115971   5.179   4.043   0.617
 5024SOL    HW215972   5.252   4.004   0.758
 5025SOL     OW15973   4.131   1.804   4.292
 5025SOL    HW115974   4.142   1.838   4.385
 5025SOL    HW215975   4.034   1.786   4.274
 5026SOL     OW15976   6.148   5.927   4.621
 5026SOL    HW115977   6.138   5.840   4.573
 5026SOL    HW215978   6.221   5.920   4.689
 5027SOL     OW15979   5.058   0.914   0.838
 5027SOL    HW115980   5.056   0.968   0.922
 5027SOL    HW215981   4.976   0.933   0.784
 5028SOL     OW15982   0.321   2.148   2.986
 5028SOL    HW115983   0.235   2.153   3.036
 5028SOL    HW215984   0.332   2.229   2.929
 5029SOL     OW15985   6.284   2.729   2.240
 5029SOL    HW115986   6.287   2.702   2.336
 5029SOL    HW215987   6.377   2.737   2.204
 5030SOL     OW15988   6.779   5.969   6.241
 5030SOL    HW115989   6.685   5.948   6.213
 5030SOL    HW215990   6.778   6.036   6.314
 5031SOL     OW15991   6.947   1.315   5.094
 5031SOL    HW115992   6.981   1.404   5.064
 5031SOL    HW215993   7.017   1.246   5.078
 5032SOL     OW15994   3.382   2.242   6.342
 5032SOL    HW115995   3.400   2.336   6.313
 5032SOL    HW215996   3.439   2.179   6.289
 5033SOL     OW15997   2.437   1.478   0.411
 5033SOL    HW115998   2.484   1.523   0.487
 5033SOL    HW215999   2.342   1.458   0.438
 5034SOL     OW16000   4.445   6.475   4.213
 5034SOL    HW116001   4.536   6.479   4.254
 5034SOL    HW216002   4.387   6.546   4.252
 5035SOL     OW16003   6.663   4.220   4.943
 5035SOL    HW116004   6.663   4.222   5.043
 5035SOL    HW216005   6.749   4.258   4.909
 5036SOL     OW16006   6.928   4.100   5.674
 5036SOL    HW116007   6.875   4.083   5.591
 5036SOL    HW216008   6.871   4.145   5.742
 5037SOL     OW16009   4.167   4.422   1.455
 5037SOL    HW116010   4.258   4.420   1.413
 5037SOL    HW216011   4.171   4.380   1.546
 5038SOL     OW16012   3.880   3.408   4.027
 5038SOL    HW116013   3.863   3.387   3.931
 5038SOL    HW216014   3.964   3.461   4.034
 5039SOL     OW16015   1.975   3.436   6.015
 5039SOL    HW116016   2.065   3.434   6.060
 5039SOL    HW216017   1.983   3.396   5.924
 5040SOL     OW16018   1.253   5.172   5.383
 5040SOL    HW116019   1.316   5.105   5.343
 5040SOL    HW216020   1.215   5.228   5.309
 5041SOL     OW16021   0.856   3.309   2.067
 5041SOL    HW116022   0.798   3.275   2.141
 5041SOL    HW216023   0.844   3.407   2.057
 5042SOL     OW16024   0.087   3.695   6.537
 5042SOL    HW116025   0.070   3.664   6.444
 5042SOL    HW216026   0.186   3.708   6.551
 5043SOL     OW16027   4.166   0.570   0.253
 5043SOL    HW116028   4.182   0.471   0.257
 5043SOL    HW216029   4.253   0.618   0.247
 5044SOL     OW16030   0.041   6.347   1.508
 5044SOL    HW116031   0.066   6.349   1.605
 5044SOL    HW216032   0.036   6.440   1.473
 5045SOL     OW16033   6.330   4.635   5.799
 5045SOL    HW116034   6.281   4.718   5.771
 5045SOL    HW216035   6.424   4.658   5.824
 5046SOL     OW16036   3.633   3.716   4.141
 5046SOL    HW116037   3.722   3.742   4.104
 5046SOL    HW216038   3.611   3.623   4.111
 5047SOL     OW16039   2.053   3.265   2.845
 5047SOL    HW116040   2.097   3.292   2.760
 5047SOL    HW216041   2.083   3.174   2.871
 5048SOL     OW16042   1.777   0.765   4.953
 5048SOL    HW116043   1.865   0.722   4.934
 5048SOL    HW216044   1.779   0.806   5.044
 5049SOL     OW16045   6.321   1.000   6.138
 5049SOL    HW116046   6.310   0.946   6.222
 5049SOL    HW216047   6.329   0.939   6.060
 5050SOL     OW16048   1.595   1.561   6.674
 5050SOL    HW116049   1.510   1.576   6.726
 5050SOL    HW216050   1.590   1.472   6.629
 5051SOL     OW16051   3.841   4.497   1.153
 5051SOL    HW116052   3.886   4.563   1.213
 5051SOL    HW216053   3.749   4.530   1.130
 5052SOL     OW16054   3.636   1.915   6.224
 5052SOL    HW116055   3.598   1.827   6.253
 5052SOL    HW216056   3.736   1.907   6.217
 5053SOL     OW16057   0.890   4.919   3.158
 5053SOL    HW116058   0.950   4.983   3.110
 5053SOL    HW216059   0.892   4.938   3.256
 5054SOL     OW16060   3.558   4.961   5.511
 5054SOL    HW116061   3.609   4.876   5.522
 5054SOL    HW216062   3.461   4.945   5.528
 5055SOL     OW16063   0.536   2.818   5.890
 5055SOL    HW116064   0.455   2.873   5.870
 5055SOL    HW216065   0.609   2.842   5.827
 5056SOL     OW16066   4.914   4.120   5.202
 5056SOL    HW116067   4.917   4.130   5.103
 5056SOL    HW216068   4.900   4.024   5.226
 5057SOL     OW16069   1.208   7.007   2.332
 5057SOL    HW116070   1.117   6.972   2.310
 5057SOL    HW216071   1.215   0.076   2.299
 5058SOL     OW16072   3.367   4.661   6.884
 5058SOL    HW116073   3.441   4.671   6.950
 5058SOL    HW216074   3.356   4.747   6.834
 5059SOL     OW16075   6.854   6.827   3.314
 5059SOL    HW116076   6.854   6.812   3.215
 5059SOL    HW216077   6.924   6.895   3.337
 5060SOL     OW16078   0.093   1.830   5.835
 5060SOL    HW116079   0.068   1.768   5.760
 5060SOL    HW216080   0.028   1.821   5.910
 5061SOL     OW16081   4.681   2.473   0.024
 5061SOL    HW116082   4.635   2.441   6.967
 5061SOL    HW216083   4.625   2.543   0.068
 5062SOL     OW16084   0.578   0.120   2.264
 5062SOL    HW116085   0.631   0.159   2.340
 5062SOL    HW216086   0.621   0.034   2.234
 5063SOL     OW16087   0.713   6.538   1.999
 5063SOL    HW116088   0.686   6.462   1.941
 5063SOL    HW216089   0.734   6.619   1.943
 5064SOL     OW16090   4.624   3.296   0.153
 5064SOL    HW116091   4.643   3.262   0.245
 5064SOL    HW216092   4.530   3.329   0.148
 5065SOL     OW16093   3.334   6.993   5.194
 5065SOL    HW116094   3.389   0.026   5.254
 5065SOL    HW216095   3.374   6.992   5.102
 5066SOL     OW16096   5.370   4.379   1.549
 5066SOL    HW116097   5.466   4.356   1.565
 5066SOL    HW216098   5.315   4.344   1.624
 5067SOL     OW16099   5.159   1.596   0.201
 5067SOL    HW116100   5.237   1.653   0.176
 5067SOL    HW216101   5.075   1.649   0.192
 5068SOL     OW16102   3.256   4.465   0.747
 5068SOL    HW116103   3.220   4.556   0.725
 5068SOL    HW216104   3.263   4.411   0.664
 5069SOL     OW16105   1.119   4.329   3.132
 5069SOL    HW116106   1.169   4.243   3.123
 5069SOL    HW216107   1.148   4.393   3.060
 5070SOL     OW16108   4.941   3.642   4.034
 5070SOL    HW116109   5.032   3.674   4.061
 5070SOL    HW216110   4.915   3.564   4.091
 5071SOL     OW16111   4.170   2.145   5.041
 5071SOL    HW116112   4.209   2.085   4.970
 5071SOL    HW216113   4.175   2.240   5.011
 5072SOL     OW16114   0.012   5.384   0.733
 5072SOL    HW116115   0.064   5.363   0.815
 5072SOL    HW216116   0.074   5.384   0.654
 5073SOL     OW16117   6.954   6.689   2.160
 5073SOL    HW116118   6.868   6.676   2.111
 5073SOL    HW216119   6.937   6.680   2.259
 5074SOL     OW16120   2.850   3.905   6.783
 5074SOL    HW116121   2.779   3.919   6.852
 5074SOL    HW216122   2.936   3.945   6.816
 5075SOL     OW16123   6.992   0.902   5.410
 5075SOL    HW116124   0.009   0.861   5.490
 5075SOL    HW216125   6.898   0.869   5.402
 5076SOL     OW16126   3.399   0.390   0.729
 5076SOL    HW116127   3.449   0.307   0.703
 5076SOL    HW216128   3.354   0.429   0.648
 5077SOL     OW16129   1.312   2.608   3.851
 5077SOL    HW116130   1.269   2.618   3.761
 5077SOL    HW216131   1.387   2.542   3.845
 5078SOL     OW16132   1.366   2.126   3.411
 5078SOL    HW116133   1.339   2.214   3.374
 5078SOL    HW216134   1.440   2.087   3.355
 5079SOL     OW16135   3.034   5.462   6.140
 5079SOL    HW116136   3.047   5.364   6.156
 5079SOL    HW216137   3.101   5.513   6.195
 5080SOL     OW16138   5.815   6.415   5.052
 5080SOL    HW116139   5.750   6.393   5.125
 5080SOL    HW216140   5.896   6.459   5.092
 5081SOL     OW16141   2.957   3.818   3.429
 5081SOL    HW116142   3.056   3.830   3.428
 5081SOL    HW216143   2.916   3.877   3.498
 5082SOL     OW16144   6.018   6.686   5.924
 5082SOL    HW116145   5.967   6.664   5.841
 5082SOL    HW216146   6.116   6.687   5.903
 5083SOL     OW16147   1.468   0.202   2.251
 5083SOL    HW116148   1.504   0.219   2.343
 5083SOL    HW216149   1.381   0.249   2.240
 5084SOL     OW16150   1.328   4.939   4.042
 5084SOL    HW116151   1.307   4.984   4.129
 5084SOL    HW216152   1.322   4.840   4.054
 5085SOL     OW16153   5.818   1.108   6.520
 5085SOL    HW116154   5.831   1.140   6.614
 5085SOL    HW216155   5.722   1.118   6.494
 5086SOL     OW16156   6.512   4.977   3.584
 5086SOL    HW116157   6.546   5.013   3.671
 5086SOL    HW216158   6.546   4.884   3.571
 5087SOL     OW16159   6.274   6.280   4.253
 5087SOL    HW116160   6.198   6.277   4.318
 5087SOL    HW216161   6.245   6.326   4.170
 5088SOL     OW16162   6.533   0.749   6.199
 5088SOL    HW116163   6.609   0.780   6.255
 5088SOL    HW216164   6.528   0.803   6.115
 5089SOL     OW16165   6.593   3.199   2.713
 5089SOL    HW116166   6.643   3.120   2.748
 5089SOL    HW216167   6.538   3.239   2.787
 5090SOL     OW16168   2.291   4.552   1.358
 5090SOL    HW116169   2.220   4.511   1.415
 5090SOL    HW216170   2.293   4.506   1.269
 5091SOL     OW16171   1.351   6.141   3.036
 5091SOL    HW116172   1.386   6.231   3.012
 5091SOL    HW216173   1.267   6.122   2.985
 5092SOL     OW16174   3.558   2.415   1.561
 5092SOL    HW116175   3.520   2.330   1.525
 5092SOL    HW216176   3.626   2.394   1.631
 5093SOL     OW16177   1.552   2.550   1.979
 5093SOL    HW116178   1.532   2.586   1.888
 5093SOL    HW216179   1.480   2.577   2.043
 5094SOL     OW16180   1.298   6.804   5.849
 5094SOL    HW116181   1.368   6.734   5.832
 5094SOL    HW216182   1.274   6.848   5.762
 5095SOL     OW16183   1.690   0.627   4.491
 5095SOL    HW116184   1.629   0.702   4.465
 5095SOL    HW216185   1.735   0.591   4.409
 5096SOL     OW16186   5.028   3.739   0.477
 5096SOL    HW116187   5.119   3.777   0.493
 5096SOL    HW216188   4.990   3.779   0.394
 5097SOL     OW16189   1.520   0.766   5.557
 5097SOL    HW116190   1.498   0.689   5.617
 5097SOL    HW216191   1.618   0.765   5.536
 5098SOL     OW16192   0.826   1.056   2.026
 5098SOL    HW116193   0.824   1.106   2.112
 5098SOL    HW216194   0.753   0.988   2.025
 5099SOL     OW16195   0.815   0.530   5.315
 5099SOL    HW116196   0.807   0.609   5.376
 5099SOL    HW216197   0.853   0.453   5.366
 5100SOL     OW16198   5.546   6.780   6.535
 5100SOL    HW116199   5.491   6.852   6.493
 5100SOL    HW216200   5.501   6.691   6.520
 5101SOL     OW16201   4.439   6.388   0.348
 5101SOL    HW116202   4.365   6.378   0.282
 5101SOL    HW216203   4.515   6.327   0.325
 5102SOL     OW16204   5.553   1.040   5.460
 5102SOL    HW116205   5.457   1.034   5.487
 5102SOL    HW216206   5.600   1.104   5.520
 5103SOL     OW16207   0.246   0.469   4.279
 5103SOL    HW116208   0.158   0.422   4.286
 5103SOL    HW216209   0.258   0.504   4.186
 5104SOL     OW16210   2.517   1.083   1.889
 5104SOL    HW116211   2.484   1.146   1.818
 5104SOL    HW216212   2.586   1.022   1.850
 5105SOL     OW16213   4.437   4.339   6.041
 5105SOL    HW116214   4.372   4.294   6.101
 5105SOL    HW216215   4.414   4.437   6.034
 5106SOL     OW16216   3.323   0.241   2.733
 5106SOL    HW116217   3.231   0.263   2.700
 5106SOL    HW216218   3.320   0.158   2.789
 5107SOL     OW16219   3.025   0.365   6.917
 5107SOL    HW116220   3.123   0.378   6.905
 5107SOL    HW216221   2.980   0.361   6.828
 5108SOL     OW16222   2.997   3.848   3.987
 5108SOL    HW116223   2.972   3.910   4.061
 5108SOL    HW216224   2.974   3.890   3.899
 5109SOL     OW16225   0.293   1.503   0.731
 5109SOL    HW116226   0.274   1.492   0.829
 5109SOL    HW216227   0.330   1.417   0.695
 5110SOL     OW16228   2.123   6.475   5.685
 5110SOL    HW116229   2.099   6.403   5.751
 5110SOL    HW216230   2.203   6.447   5.633
 5111SOL     OW16231   1.362   1.848   6.528
 5111SOL    HW116232   1.417   1.767   6.509
 5111SOL    HW216233   1.317   1.878   6.444
 5112SOL     OW16234   0.407   6.312   3.713
 5112SOL    HW116235   0.377   6.398   3.672
 5112SOL    HW216236   0.505   6.315   3.731
 5113SOL     OW16237   1.362   1.014   0.135
 5113SOL    HW116238   1.379   1.096   0.080
 5113SOL    HW216239   1.285   1.029   0.196
 5114SOL     OW16240   3.435   4.876   0.424
 5114SOL    HW116241   3.471   4.953   0.475
 5114SOL    HW216242   3.365   4.908   0.360
 5115SOL     OW16243   1.411   3.808   6.480
 5115SOL    HW116244   1.386   3.903   6.460
 5115SOL    HW216245   1.358   3.747   6.421
 5116SOL     OW16246   5.102   4.840   6.615
 5116SOL    HW116247   5.016   4.891   6.615
 5116SOL    HW216248   5.097   4.765   6.550
 5117SOL     OW16249   2.690   4.651   4.329
 5117SOL    HW116250   2.717   4.556   4.313
 5117SOL    HW216251   2.644   4.686   4.247
 5118SOL     OW16252   4.692   5.817   0.402
 5118SOL    HW116253   4.761   5.745   0.402
 5118SOL    HW216254   4.727   5.897   0.451
 5119SOL     OW16255   5.532   0.770   2.220
 5119SOL    HW116256   5.610   0.744   2.277
 5119SOL    HW216257   5.449   0.770   2.275
 5120SOL     OW16258   5.320   0.880   3.013
 5120SOL    HW116259   5.370   0.797   3.036
 5120SOL    HW216260   5.357   0.917   2.927
 5121SOL     OW16261   0.263   3.355   5.631
 5121SOL    HW116262   0.279   3.441   5.680
 5121SOL    HW216263   0.312   3.358   5.544
 5122SOL     OW16264   2.260   0.253   3.119
 5122SOL    HW116265   2.276   0.310   3.038
 5122SOL    HW216266   2.345   0.244   3.171
 5123SOL     OW16267   5.056   3.818   3.019
 5123SOL    HW116268   5.008   3.759   2.954
 5123SOL    HW216269   5.127   3.869   2.971
 5124SOL     OW16270   2.841   6.614   7.005
 5124SOL    HW116271   2.885   6.668   0.051
 5124SOL    HW216272   2.795   6.536   0.020
 5125SOL     OW16273   0.395   3.450   3.933
 5125SOL    HW116274   0.302   3.414   3.945
 5125SOL    HW216275   0.419   3.448   3.835
 5126SOL     OW16276   6.034   4.903   6.562
 5126SOL    HW116277   6.020   4.872   6.467
 5126SOL    HW216278   5.950   4.945   6.596
 5127SOL     OW16279   5.730   3.385   6.461
 5127SOL    HW116280   5.766   3.454   6.398
 5127SOL    HW216281   5.709   3.428   6.549
 5128SOL     OW16282   1.103   0.794   6.809
 5128SOL    HW116283   1.135   0.788   6.903
 5128SOL    HW216284   1.182   0.804   6.748
 5129SOL     OW16285   5.056   0.218   2.259
 5129SOL    HW116286   4.992   0.237   2.334
 5129SOL    HW216287   5.146   0.254   2.282
 5130SOL     OW16288   1.016   5.345   4.548
 5130SOL    HW116289   0.930   5.323   4.594
 5130SOL    HW216290   1.069   5.261   4.534
 5131SOL     OW16291   3.176   5.245   3.312
 5131SOL    HW116292   3.258   5.189   3.301
 5131SOL    HW216293   3.137   5.231   3.403
 5132SOL     OW16294   3.252   1.218   6.515
 5132SOL    HW116295   3.327   1.283   6.505
 5132SOL    HW216296   3.282   1.127   6.485
 5133SOL     OW16297   3.866   5.539   6.742
 5133SOL    HW116298   3.948   5.595   6.759
 5133SOL    HW216299   3.871   5.500   6.650
 5134SOL     OW16300   6.521   6.812   1.359
 5134SOL    HW116301   6.432   6.819   1.314
 5134SOL    HW216302   6.590   6.784   1.293
 5135SOL     OW16303   6.622   3.060   1.934
 5135SOL    HW116304   6.527   3.027   1.928
 5135SOL    HW216305   6.648   3.102   1.847
 5136SOL     OW16306   0.947   1.072   6.344
 5136SOL    HW116307   1.038   1.112   6.337
 5136SOL    HW216308   0.954   0.982   6.389
 5137SOL     OW16309   5.356   2.016   5.288
 5137SOL    HW116310   5.338   1.955   5.365
 5137SOL    HW216311   5.327   1.971   5.203
 5138SOL     OW16312   3.801   3.459   4.600
 5138SOL    HW116313   3.898   3.463   4.579
 5138SOL    HW216314   3.748   3.481   4.519
 5139SOL     OW16315   2.211   0.303   4.985
 5139SOL    HW116316   2.238   0.331   5.077
 5139SOL    HW216317   2.123   0.345   4.962
 5140SOL     OW16318   4.283   2.230   6.110
 5140SOL    HW116319   4.273   2.324   6.143
 5140SOL    HW216320   4.273   2.229   6.010
 5141SOL     OW16321   6.822   2.926   2.061
 5141SOL    HW116322   6.909   2.975   2.058
 5141SOL    HW216323   6.752   2.981   2.016
 5142SOL     OW16324   0.097   6.686   3.512
 5142SOL    HW116325   7.023   6.684   3.515
 5142SOL    HW216326   0.130   6.766   3.561
 5143SOL     OW16327   0.603   4.895   4.330
 5143SOL    HW116328   0.530   4.962   4.341
 5143SOL    HW216329   0.688   4.942   4.303
 5144SOL     OW16330   1.628   3.629   6.222
 5144SOL    HW116331   1.659   3.536   6.245
 5144SOL    HW216332   1.534   3.641   6.253
 5145SOL     OW16333   2.510   6.579   6.611
 5145SOL    HW116334   2.496   6.576   6.710
 5145SOL    HW216335   2.603   6.548   6.589
 5146SOL     OW16336   4.804   4.741   6.189
 5146SOL    HW116337   4.752   4.656   6.194
 5146SOL    HW216338   4.895   4.723   6.152
 5147SOL     OW16339   4.777   3.022   3.294
 5147SOL    HW116340   4.697   2.963   3.297
 5147SOL    HW216341   4.809   3.041   3.387
 5148SOL     OW16342   0.631   0.578   1.869
 5148SOL    HW116343   0.609   0.569   1.967
 5148SOL    HW216344   0.710   0.638   1.858
 5149SOL     OW16345   5.656   4.447   3.311
 5149SOL    HW116346   5.737   4.477   3.262
 5149SOL    HW216347   5.673   4.448   3.409
 5150SOL     OW16348   1.065   4.946   3.756
 5150SOL    HW116349   1.061   5.011   3.679
 5150SOL    HW216350   1.141   4.884   3.742
 5151SOL     OW16351   6.004   4.714   2.083
 5151SOL    HW116352   6.065   4.794   2.086
 5151SOL    HW216353   6.007   4.674   1.991
 5152SOL     OW16354   1.318   0.270   6.249
 5152SOL    HW116355   1.244   0.207   6.224
 5152SOL    HW216356   1.357   0.309   6.165
 5153SOL     OW16357   1.395   2.158   0.522
 5153SOL    HW116358   1.487   2.195   0.505
 5153SOL    HW216359   1.402   2.080   0.584
 5154SOL     OW16360   0.525   2.983   6.648
 5154SOL    HW116361   0.601   2.931   6.609
 5154SOL    HW216362   0.438   2.944   6.615
 5155SOL     OW16363   2.184   1.387   0.473
 5155SOL    HW116364   2.143   1.298   0.452
 5155SOL    HW216365   2.134   1.429   0.548
 5156SOL     OW16366   5.852   5.154   5.676
 5156SOL    HW116367   5.945   5.179   5.701
 5156SOL    HW216368   5.788   5.191   5.743
 5157SOL     OW16369   3.982   0.771   2.159
 5157SOL    HW116370   4.047   0.839   2.125
 5157SOL    HW216371   3.889   0.798   2.131
 5158SOL     OW16372   4.047   1.232   2.947
 5158SOL    HW116373   4.070   1.224   2.850
 5158SOL    HW216374   4.110   1.296   2.991
 5159SOL     OW16375   5.612   3.590   5.802
 5159SOL    HW116376   5.555   3.518   5.762
 5159SOL    HW216377   5.555   3.647   5.862
 5160SOL     OW16378   6.812   6.606   3.138
 5160SOL    HW116379   6.792   6.535   3.205
 5160SOL    HW216380   6.912   6.613   3.126
 5161SOL     OW16381   0.895   3.165   0.113
 5161SOL    HW116382   0.886   3.120   0.201
 5161SOL    HW216383   0.809   3.210   0.089
 5162SOL     OW16384   6.892   6.690   2.545
 5162SOL    HW116385   6.947   6.629   2.488
 5162SOL    HW216386   6.840   6.636   2.612
 5163SOL     OW16387   3.192   6.612   1.706
 5163SOL    HW116388   3.152   6.687   1.653
 5163SOL    HW216389   3.127   6.582   1.776
 5164SOL     OW16390   2.978   3.753   1.286
 5164SOL    HW116391   2.984   3.677   1.350
 5164SOL    HW216392   2.883   3.785   1.282
 5165SOL     OW16393   1.414   5.023   0.035
 5165SOL    HW116394   1.322   5.048   0.066
 5165SOL    HW216395   1.407   4.970   6.977
 5166SOL     OW16396   2.073   5.677   1.805
 5166SOL    HW116397   2.157   5.643   1.764
 5166SOL    HW216398   2.010   5.600   1.822
 5167SOL     OW16399   4.958   2.964   5.300
 5167SOL    HW116400   5.038   2.978   5.241
 5167SOL    HW216401   4.912   3.052   5.315
 5168SOL     OW16402   4.391   2.420   2.396
 5168SOL    HW116403   4.300   2.459   2.378
 5168SOL    HW216404   4.398   2.331   2.353
 5169SOL     OW16405   3.940   0.232   3.935
 5169SOL    HW116406   3.879   0.294   3.984
 5169SOL    HW216407   3.932   0.140   3.972
 5170SOL     OW16408   1.316   3.643   6.264
 5170SOL    HW116409   1.327   3.634   6.165
 5170SOL    HW216410   1.220   3.655   6.287
 5171SOL     OW16411   1.845   5.939   5.355
 5171SOL    HW116412   1.831   5.867   5.423
 5171SOL    HW216413   1.883   6.020   5.400
 5172SOL     OW16414   0.260   5.693   3.612
 5172SOL    HW116415   0.253   5.696   3.712
 5172SOL    HW216416   0.341   5.745   3.583
 5173SOL     OW16417   4.631   3.723   5.705
 5173SOL    HW116418   4.562   3.787   5.737
 5173SOL    HW216419   4.586   3.641   5.670
 5174SOL     OW16420   2.752   6.784   3.659
 5174SOL    HW116421   2.760   6.687   3.684
 5174SOL    HW216422   2.661   6.801   3.622
 5175SOL     OW16423   2.641   4.303   6.817
 5175SOL    HW116424   2.578   4.348   6.754
 5175SOL    HW216425   2.735   4.332   6.797
 5176SOL     OW16426   5.456   5.579   0.174
 5176SOL    HW116427   5.548   5.545   0.190
 5176SOL    HW216428   5.460   5.675   0.148
 5177SOL     OW16429   4.778   0.618   0.858
 5177SOL    HW116430   4.827   0.662   0.933
 5177SOL    HW216431   4.768   0.682   0.782
 5178SOL     OW16432   1.025   3.544   1.734
 5178SOL    HW116433   0.944   3.504   1.777
 5178SOL    HW216434   0.997   3.618   1.672
 5179SOL     OW16435   6.154   4.403   3.268
 5179SOL    HW116436   6.163   4.343   3.189
 5179SOL    HW216437   6.127   4.495   3.238
 5180SOL     OW16438   2.423   0.211   1.330
 5180SOL    HW116439   2.458   0.274   1.260
 5180SOL    HW216440   2.434   0.253   1.420
 5181SOL     OW16441   0.601   0.455   6.296
 5181SOL    HW116442   0.662   0.511   6.241
 5181SOL    HW216443   0.553   0.390   6.238
 5182SOL     OW16444   4.349   5.226   3.127
 5182SOL    HW116445   4.262   5.274   3.137
 5182SOL    HW216446   4.362   5.162   3.203
 5183SOL     OW16447   4.494   1.673   3.402
 5183SOL    HW116448   4.489   1.773   3.395
 5183SOL    HW216449   4.421   1.641   3.463
 5184SOL     OW16450   2.074   1.500   4.028
 5184SOL    HW116451   2.019   1.433   3.979
 5184SOL    HW216452   2.015   1.562   4.079
 5185SOL     OW16453   5.579   0.583   1.926
 5185SOL    HW116454   5.495   0.631   1.900
 5185SOL    HW216455   5.611   0.528   1.849
 5186SOL     OW16456   6.759   3.069   5.801
 5186SOL    HW116457   6.755   3.167   5.824
 5186SOL    HW216458   6.737   3.056   5.704
 5187SOL     OW16459   1.934   4.884   5.426
 5187SOL    HW116460   2.021   4.930   5.441
 5187SOL    HW216461   1.950   4.788   5.406
 5188SOL     OW16462   0.042   6.952   1.870
 5188SOL    HW116463   6.973   6.934   1.898
 5188SOL    HW216464   0.045   6.967   1.771
 5189SOL     OW16465   5.685   0.249   5.939
 5189SOL    HW116466   5.777   0.270   5.974
 5189SOL    HW216467   5.637   0.192   6.005
 5190SOL     OW16468   1.410   3.257   1.639
 5190SOL    HW116469   1.390   3.188   1.709
 5190SOL    HW216470   1.465   3.215   1.566
 5191SOL     OW16471   3.165   5.811   2.126
 5191SOL    HW116472   3.102   5.735   2.144
 5191SOL    HW216473   3.238   5.780   2.065
 5192SOL     OW16474   2.186   5.412   2.084
 5192SOL    HW116475   2.132   5.345   2.135
 5192SOL    HW216476   2.252   5.455   2.146
 5193SOL     OW16477   6.295   0.695   6.816
 5193SOL    HW116478   6.248   0.611   6.788
 5193SOL    HW216479   6.291   0.704   6.916
 5194SOL     OW16480   4.279   2.184   6.887
 5194SOL    HW116481   4.258   2.243   6.965
 5194SOL    HW216482   4.256   2.232   6.802
 5195SOL     OW16483   6.975   0.806   4.213
 5195SOL    HW116484   6.888   0.818   4.262
 5195SOL    HW216485   6.990   0.709   4.194
 5196SOL     OW16486   4.697   6.148   3.496
 5196SOL    HW116487   4.673   6.116   3.588
 5196SOL    HW216488   4.615   6.145   3.438
 5197SOL     OW16489   1.368   4.603   5.593
 5197SOL    HW116490   1.356   4.701   5.577
 5197SOL    HW216491   1.356   4.583   5.690
 5198SOL     OW16492   5.255   5.612   2.867
 5198SOL    HW116493   5.262   5.515   2.844
 5198SOL    HW216494   5.172   5.628   2.921
 5199SOL     OW16495   6.594   5.167   1.258
 5199SOL    HW116496   6.619   5.209   1.345
 5199SOL    HW216497   6.495   5.172   1.245
 5200SOL     OW16498   0.404   3.561   5.805
 5200SOL    HW116499   0.399   3.654   5.842
 5200SOL    HW216500   0.438   3.499   5.876
 5201SOL     OW16501   1.619   5.549   4.186
 5201SOL    HW116502   1.521   5.554   4.203
 5201SOL    HW216503   1.649   5.631   4.137
 5202SOL     OW16504   6.741   3.596   6.709
 5202SOL    HW116505   6.757   3.693   6.691
 5202SOL    HW216506   6.724   3.548   6.623
 5203SOL     OW16507   0.438   2.433   6.833
 5203SOL    HW116508   0.537   2.444   6.840
 5203SOL    HW216509   0.416   2.335   6.831
 5204SOL     OW16510   4.337   5.297   0.344
 5204SOL    HW116511   4.393   5.363   0.294
 5204SOL    HW216512   4.254   5.277   0.292
 5205SOL     OW16513   1.944   1.098   1.420
 5205SOL    HW116514   1.964   1.020   1.478
 5205SOL    HW216515   2.027   1.153   1.408
 5206SOL     OW16516   0.673   4.464   0.038
 5206SOL    HW116517   0.625   4.543   0.077
 5206SOL    HW216518   0.620   4.381   0.054
 5207SOL     OW16519   1.760   5.409   4.364
 5207SOL    HW116520   1.726   5.319   4.393
 5207SOL    HW216521   1.710   5.439   4.283
 5208SOL     OW16522   3.863   0.401   6.983
 5208SOL    HW116523   3.925   0.448   0.019
 5208SOL    HW216524   3.815   0.329   0.006
 5209SOL     OW16525   6.053   5.895   3.347
 5209SOL    HW116526   5.969   5.873   3.397
 5209SOL    HW216527   6.092   5.979   3.385
 5210SOL     OW16528   4.861   3.866   3.857
 5210SOL    HW116529   4.834   3.841   3.763
 5210SOL    HW216530   4.838   3.791   3.919
 5211SOL     OW16531   3.278   3.583   3.291
 5211SOL    HW116532   3.221   3.628   3.222
 5211SOL    HW216533   3.336   3.515   3.246
 5212SOL     OW16534   0.828   2.061   0.649
 5212SOL    HW116535   0.768   2.077   0.727
 5212SOL    HW216536   0.863   2.148   0.615
 5213SOL     OW16537   5.058   2.574   5.479
 5213SOL    HW116538   5.013   2.646   5.532
 5213SOL    HW216539   5.118   2.616   5.411
 5214SOL     OW16540   5.642   1.749   5.290
 5214SOL    HW116541   5.689   1.666   5.261
 5214SOL    HW216542   5.708   1.816   5.324
 5215SOL     OW16543   5.066   4.328   3.244
 5215SOL    HW116544   5.116   4.396   3.190
 5215SOL    HW216545   5.033   4.370   3.329
 5216SOL     OW16546   5.018   4.492   1.327
 5216SOL    HW116547   5.048   4.475   1.233
 5216SOL    HW216548   4.918   4.496   1.329
 5217SOL     OW16549   3.454   5.231   3.957
 5217SOL    HW116550   3.395   5.224   4.038
 5217SOL    HW216551   3.549   5.239   3.985
 5218SOL     OW16552   1.718   6.573   3.574
 5218SOL    HW116553   1.725   6.602   3.669
 5218SOL    HW216554   1.780   6.496   3.558
 5219SOL     OW16555   3.045   6.793   6.274
 5219SOL    HW116556   3.077   6.886   6.294
 5219SOL    HW216557   3.042   6.741   6.359
 5220SOL     OW16558   1.159   5.873   2.021
 5220SOL    HW116559   1.139   5.783   2.061
 5220SOL    HW216560   1.258   5.886   2.017
 5221SOL     OW16561   5.387   0.948   4.445
 5221SOL    HW116562   5.439   1.003   4.380
 5221SOL    HW216563   5.402   0.984   4.538
 5222SOL     OW16564   2.166   0.492   3.749
 5222SOL    HW116565   2.138   0.424   3.816
 5222SOL    HW216566   2.252   0.533   3.777
 5223SOL     OW16567   4.981   0.158   1.670
 5223SOL    HW116568   5.008   0.206   1.586
 5223SOL    HW216569   5.003   0.214   1.749
 5224SOL     OW16570   6.549   2.061   2.565
 5224SOL    HW116571   6.494   2.058   2.481
 5224SOL    HW216572   6.641   2.092   2.543
 5225SOL     OW16573   6.520   6.897   4.000
 5225SOL    HW116574   6.507   6.833   4.075
 5225SOL    HW216575   6.517   6.848   3.913
 5226SOL     OW16576   1.119   6.401   4.194
 5226SOL    HW116577   1.058   6.459   4.248
 5226SOL    HW216578   1.066   6.324   4.156
 5227SOL     OW16579   6.784   5.573   3.624
 5227SOL    HW116580   6.829   5.484   3.620
 5227SOL    HW216581   6.851   5.646   3.609
 5228SOL     OW16582   5.396   1.652   0.601
 5228SOL    HW116583   5.351   1.590   0.536
 5228SOL    HW216584   5.363   1.632   0.693
 5229SOL     OW16585   1.095   3.901   6.637
 5229SOL    HW116586   1.136   3.948   6.558
 5229SOL    HW216587   1.113   3.803   6.630
 5230SOL     OW16588   0.208   0.905   1.234
 5230SOL    HW116589   0.206   0.999   1.199
 5230SOL    HW216590   0.295   0.862   1.209
 5231SOL     OW16591   3.900   3.121   4.521
 5231SOL    HW116592   3.943   3.133   4.432
 5231SOL    HW216593   3.814   3.173   4.524
 5232SOL     OW16594   4.750   2.183   6.564
 5232SOL    HW116595   4.784   2.102   6.613
 5232SOL    HW216596   4.779   2.266   6.611
 5233SOL     OW16597   6.377   6.025   1.731
 5233SOL    HW116598   6.427   5.945   1.764
 5233SOL    HW216599   6.329   6.068   1.808
 5234SOL     OW16600   3.285   0.478   0.494
 5234SOL    HW116601   3.277   0.396   0.437
 5234SOL    HW216602   3.194   0.518   0.507
 5235SOL     OW16603   1.821   3.377   0.710
 5235SOL    HW116604   1.765   3.317   0.767
 5235SOL    HW216605   1.785   3.470   0.712
 5236SOL     OW16606   5.475   3.168   1.096
 5236SOL    HW116607   5.376   3.182   1.105
 5236SOL    HW216608   5.524   3.244   1.137
 5237SOL     OW16609   2.604   1.863   5.213
 5237SOL    HW116610   2.668   1.889   5.140
 5237SOL    HW216611   2.603   1.934   5.283
 5238SOL     OW16612   1.051   5.297   0.307
 5238SOL    HW116613   1.077   5.299   0.403
 5238SOL    HW216614   0.964   5.345   0.294
 5239SOL     OW16615   3.101   3.022   3.904
 5239SOL    HW116616   3.021   2.963   3.908
 5239SOL    HW216617   3.084   3.105   3.958
 5240SOL     OW16618   2.938   2.462   5.307
 5240SOL    HW116619   2.904   2.382   5.257
 5240SOL    HW216620   3.038   2.469   5.295
 5241SOL     OW16621   0.945   6.253   6.547
 5241SOL    HW116622   0.923   6.231   6.452
 5241SOL    HW216623   0.892   6.193   6.608
 5242SOL     OW16624   5.954   1.432   5.635
 5242SOL    HW116625   5.929   1.336   5.644
 5242SOL    HW216626   5.875   1.485   5.604
 5243SOL     OW16627   0.777   5.856   1.189
 5243SOL    HW116628   0.814   5.934   1.239
 5243SOL    HW216629   0.845   5.784   1.184
 5244SOL     OW16630   3.835   4.054   5.809
 5244SOL    HW116631   3.772   4.093   5.876
 5244SOL    HW216632   3.834   3.954   5.817
 5245SOL     OW16633   4.216   3.975   5.682
 5245SOL    HW116634   4.162   4.015   5.609
 5245SOL    HW216635   4.194   3.878   5.691
 5246SOL     OW16636   0.411   3.342   2.812
 5246SOL    HW116637   0.361   3.284   2.877
 5246SOL    HW216638   0.504   3.306   2.801
 5247SOL     OW16639   6.901   5.345   0.398
 5247SOL    HW116640   6.914   5.424   0.458
 5247SOL    HW216641   6.931   5.368   0.305
 5248SOL     OW16642   5.081   0.719   6.245
 5248SOL    HW116643   4.990   0.739   6.209
 5248SOL    HW216644   5.145   0.789   6.214
 5249SOL     OW16645   0.776   5.364   4.303
 5249SOL    HW116646   0.808   5.326   4.216
 5249SOL    HW216647   0.854   5.385   4.362
 5250SOL     OW16648   0.286   1.373   6.398
 5250SOL    HW116649   0.269   1.356   6.495
 5250SOL    HW216650   0.322   1.465   6.385
 5251SOL     OW16651   6.479   3.781   0.646
 5251SOL    HW116652   6.491   3.737   0.735
 5251SOL    HW216653   6.550   3.850   0.633
 5252SOL     OW16654   2.798   6.353   0.805
 5252SOL    HW116655   2.750   6.407   0.874
 5252SOL    HW216656   2.735   6.329   0.732
 5253SOL     OW16657   5.674   3.632   4.430
 5253SOL    HW116658   5.611   3.670   4.498
 5253SOL    HW216659   5.699   3.703   4.365
 5254SOL     OW16660   4.375   1.379   4.164
 5254SOL    HW116661   4.432   1.324   4.223
 5254SOL    HW216662   4.287   1.396   4.209
 5255SOL     OW16663   3.387   0.353   4.904
 5255SOL    HW116664   3.412   0.397   4.818
 5255SOL    HW216665   3.397   0.419   4.979
 5256SOL     OW16666   5.267   1.112   3.447
 5256SOL    HW116667   5.311   1.111   3.358
 5256SOL    HW216668   5.183   1.167   3.442
 5257SOL     OW16669   3.750   6.967   0.569
 5257SOL    HW116670   3.704   6.924   0.647
 5257SOL    HW216671   3.765   6.899   0.497
 5258SOL     OW16672   5.169   4.245   2.599
 5258SOL    HW116673   5.078   4.286   2.587
 5258SOL    HW216674   5.160   4.145   2.600
 5259SOL     OW16675   4.422   6.231   2.555
 5259SOL    HW116676   4.504   6.212   2.500
 5259SOL    HW216677   4.369   6.304   2.513
 5260SOL     OW16678   5.555   3.628   0.595
 5260SOL    HW116679   5.614   3.700   0.559
 5260SOL    HW216680   5.611   3.550   0.622
 5261SOL     OW16681   6.846   2.159   5.108
 5261SOL    HW116682   6.907   2.232   5.077
 5261SOL    HW216683   6.900   2.086   5.150
 5262SOL     OW16684   2.778   0.295   2.658
 5262SOL    HW116685   2.698   0.235   2.646
 5262SOL    HW216686   2.750   0.379   2.705
 5263SOL     OW16687   1.471   0.290   6.042
 5263SOL    HW116688   1.481   0.191   6.027
 5263SOL    HW216689   1.519   0.339   5.969
 5264SOL     OW16690   6.175   1.470   1.568
 5264SOL    HW116691   6.270   1.450   1.593
 5264SOL    HW216692   6.170   1.561   1.527
 5265SOL     OW16693   5.487   4.318   2.134
 5265SOL    HW116694   5.440   4.252   2.075
 5265SOL    HW216695   5.577   4.338   2.096
 5266SOL     OW16696   1.814   6.382   1.671
 5266SOL    HW116697   1.788   6.456   1.609
 5266SOL    HW216698   1.912   6.386   1.690
 5267SOL     OW16699   4.884   5.028   5.654
 5267SOL    HW116700   4.786   5.039   5.642
 5267SOL    HW216701   4.930   5.050   5.568
 5268SOL     OW16702   6.672   5.409   5.343
 5268SOL    HW116703   6.715   5.499   5.336
 5268SOL    HW216704   6.740   5.338   5.327
 5269SOL     OW16705   1.665   5.617   3.872
 5269SOL    HW116706   1.678   5.666   3.959
 5269SOL    HW216707   1.670   5.519   3.889
 5270SOL     OW16708   5.625   2.401   1.277
 5270SOL    HW116709   5.579   2.355   1.353
 5270SOL    HW216710   5.558   2.422   1.206
 5271SOL     OW16711   4.628   5.022   5.211
 5271SOL    HW116712   4.671   4.934   5.232
 5271SOL    HW216713   4.681   5.069   5.141
 5272SOL     OW16714   0.351   5.782   5.015
 5272SOL    HW116715   0.359   5.881   5.027
 5272SOL    HW216716   0.374   5.736   5.101
 5273SOL     OW16717   0.545   2.154   3.858
 5273SOL    HW116718   0.460   2.116   3.823
 5273SOL    HW216719   0.525   2.215   3.935
 5274SOL     OW16720   6.990   5.074   3.668
 5274SOL    HW116721   0.032   5.011   3.706
 5274SOL    HW216722   6.910   5.076   3.728
 5275SOL     OW16723   2.820   0.012   6.409
 5275SOL    HW116724   2.891   7.026   6.479
 5275SOL    HW216725   2.797   6.950   6.369
 5276SOL     OW16726   0.191   6.906   1.189
 5276SOL    HW116727   0.137   6.897   1.273
 5276SOL    HW216728   0.184   7.000   1.155
 5277SOL     OW16729   1.444   2.073   3.659
 5277SOL    HW116730   1.360   2.039   3.703
 5277SOL    HW216731   1.423   2.105   3.567
 5278SOL     OW16732   6.483   6.755   6.169
 5278SOL    HW116733   6.573   6.786   6.200
 5278SOL    HW216734   6.412   6.791   6.229
 5279SOL     OW16735   1.367   5.784   6.266
 5279SOL    HW116736   1.380   5.853   6.195
 5279SOL    HW216737   1.271   5.780   6.292
 5280SOL     OW16738   3.709   6.193   5.323
 5280SOL    HW116739   3.664   6.128   5.384
 5280SOL    HW216740   3.719   6.152   5.232
 5281SOL     OW16741   1.138   0.247   4.623
 5281SOL    HW116742   1.201   0.180   4.583
 5281SOL    HW216743   1.048   0.205   4.634
 5282SOL     OW16744   1.678   0.306   2.930
 5282SOL    HW116745   1.663   0.209   2.952
 5282SOL    HW216746   1.694   0.357   3.015
 5283SOL     OW16747   0.757   0.599   3.710
 5283SOL    HW116748   0.744   0.538   3.788
 5283SOL    HW216749   0.669   0.614   3.664
 5284SOL     OW16750   4.950   2.308   2.442
 5284SOL    HW116751   4.853   2.285   2.434
 5284SOL    HW216752   5.005   2.238   2.398
 5285SOL     OW16753   0.629   2.926   3.006
 5285SOL    HW116754   0.614   3.017   3.043
 5285SOL    HW216755   0.687   2.931   2.926
 5286SOL     OW16756   6.724   3.712   0.410
 5286SOL    HW116757   6.800   3.736   0.350
 5286SOL    HW216758   6.646   3.681   0.355
 5287SOL     OW16759   3.295   5.445   2.240
 5287SOL    HW116760   3.349   5.473   2.320
 5287SOL    HW216761   3.207   5.492   2.242
 5288SOL     OW16762   5.136   6.986   2.117
 5288SOL    HW116763   5.111   0.014   2.198
 5288SOL    HW216764   5.235   6.973   2.115
 5289SOL     OW16765   2.235   5.323   6.576
 5289SOL    HW116766   2.306   5.382   6.538
 5289SOL    HW216767   2.273   5.272   6.653
 5290SOL     OW16768   1.801   4.430   5.644
 5290SOL    HW116769   1.747   4.435   5.560
 5290SOL    HW216770   1.787   4.513   5.698
 5291SOL     OW16771   2.507   4.580   5.691
 5291SOL    HW116772   2.408   4.566   5.689
 5291SOL    HW216773   2.533   4.648   5.623
 5292SOL     OW16774   6.545   3.798   6.367
 5292SOL    HW116775   6.506   3.777   6.278
 5292SOL    HW216776   6.498   3.877   6.406
 5293SOL     OW16777   2.220   5.300   4.547
 5293SOL    HW116778   2.306   5.252   4.536
 5293SOL    HW216779   2.145   5.242   4.515
 5294SOL     OW16780   4.589   0.746   5.514
 5294SOL    HW116781   4.640   0.756   5.428
 5294SOL    HW216782   4.649   0.707   5.584
 5295SOL     OW16783   4.070   0.868   3.538
 5295SOL    HW116784   4.146   0.852   3.601
 5295SOL    HW216785   4.050   0.784   3.488
 5296SOL     OW16786   3.728   3.948   0.657
 5296SOL    HW116787   3.784   4.030   0.665
 5296SOL    HW216788   3.677   3.950   0.570
 5297SOL     OW16789   2.219   3.493   0.604
 5297SOL    HW116790   2.266   3.567   0.652
 5297SOL    HW216791   2.267   3.473   0.519
 5298SOL     OW16792   2.496   6.123   6.987
 5298SOL    HW116793   2.535   6.064   6.916
 5298SOL    HW216794   2.441   6.194   6.944
 5299SOL     OW16795   3.319   2.416   0.758
 5299SOL    HW116796   3.227   2.454   0.750
 5299SOL    HW216797   3.315   2.317   0.747
 5300SOL     OW16798   0.932   5.080   1.006
 5300SOL    HW116799   1.008   5.098   0.944
 5300SOL    HW216800   0.919   4.982   1.017
 5301SOL     OW16801   4.200   0.020   6.651
 5301SOL    HW116802   4.262   6.993   6.709
 5301SOL    HW216803   4.192   7.002   6.561
 5302SOL     OW16804   4.955   5.865   3.866
 5302SOL    HW116805   4.911   5.837   3.952
 5302SOL    HW216806   4.897   5.841   3.789
 5303SOL     OW16807   0.132   5.286   5.966
 5303SOL    HW116808   0.048   5.315   6.013
 5303SOL    HW216809   0.116   5.281   5.868
 5304SOL     OW16810   6.380   0.876   0.967
 5304SOL    HW116811   6.291   0.831   0.967
 5304SOL    HW216812   6.369   0.973   0.943
 5305SOL     OW16813   1.779   5.235   2.368
 5305SOL    HW116814   1.718   5.243   2.446
 5305SOL    HW216815   1.839   5.156   2.380
 5306SOL     OW16816   0.229   4.509   5.935
 5306SOL    HW116817   0.312   4.525   5.987
 5306SOL    HW216818   0.248   4.447   5.859
 5307SOL     OW16819   4.359   1.920   0.463
 5307SOL    HW116820   4.394   1.870   0.542
 5307SOL    HW216821   4.418   1.999   0.445
 5308SOL     OW16822   1.275   4.480   2.919
 5308SOL    HW116823   1.356   4.478   2.859
 5308SOL    HW216824   1.289   4.548   2.991
 5309SOL     OW16825   3.633   6.136   2.075
 5309SOL    HW116826   3.655   6.066   2.144
 5309SOL    HW216827   3.683   6.220   2.097
 5310SOL     OW16828   6.310   3.243   2.773
 5310SOL    HW116829   6.211   3.257   2.767
 5310SOL    HW216830   6.355   3.290   2.697
 5311SOL     OW16831   5.853   0.693   6.800
 5311SOL    HW116832   5.881   0.690   6.704
 5311SOL    HW216833   5.780   0.626   6.816
 5312SOL     OW16834   0.516   5.843   1.963
 5312SOL    HW116835   0.505   5.939   1.939
 5312SOL    HW216836   0.603   5.809   1.927
 5313SOL     OW16837   0.572   4.625   5.441
 5313SOL    HW116838   0.474   4.614   5.455
 5313SOL    HW216839   0.605   4.704   5.493
 5314SOL     OW16840   4.929   0.158   1.129
 5314SOL    HW116841   4.862   0.155   1.203
 5314SOL    HW216842   4.885   0.187   1.045
 5315SOL     OW16843   4.931   2.715   3.091
 5315SOL    HW116844   4.863   2.691   3.160
 5315SOL    HW216845   4.981   2.633   3.062
 5316SOL     OW16846   1.027   4.042   5.182
 5316SOL    HW116847   1.107   4.012   5.234
 5316SOL    HW216848   0.998   4.131   5.216
 5317SOL     OW16849   6.375   1.377   5.363
 5317SOL    HW116850   6.284   1.345   5.390
 5317SOL    HW216851   6.375   1.402   5.266
 5318SOL     OW16852   0.639   2.833   1.050
 5318SOL    HW116853   0.607   2.906   1.109
 5318SOL    HW216854   0.692   2.767   1.103
 5319SOL     OW16855   4.711   6.387   1.154
 5319SOL    HW116856   4.670   6.405   1.243
 5319SOL    HW216857   4.781   6.316   1.164
 5320SOL     OW16858   4.000   5.593   1.254
 5320SOL    HW116859   3.948   5.541   1.322
 5320SOL    HW216860   4.064   5.654   1.301
 5321SOL     OW16861   2.399   4.500   5.073
 5321SOL    HW116862   2.344   4.581   5.054
 5321SOL    HW216863   2.365   4.423   5.019
 5322SOL     OW16864   5.763   0.016   0.239
 5322SOL    HW116865   5.770   0.044   0.335
 5322SOL    HW216866   5.771   0.097   0.181
 5323SOL     OW16867   4.294   1.030   5.665
 5323SOL    HW116868   4.287   0.931   5.664
 5323SOL    HW216869   4.229   1.069   5.598
 5324SOL     OW16870   3.036   2.254   0.338
 5324SOL    HW116871   3.120   2.306   0.358
 5324SOL    HW216872   2.966   2.278   0.405
 5325SOL     OW16873   2.974   1.510   4.917
 5325SOL    HW116874   3.000   1.568   4.994
 5325SOL    HW216875   3.026   1.425   4.920
 5326SOL     OW16876   6.796   5.814   3.320
 5326SOL    HW116877   6.885   5.856   3.302
 5326SOL    HW216878   6.803   5.715   3.307
 5327SOL     OW16879   5.997   2.529   4.707
 5327SOL    HW116880   6.032   2.608   4.757
 5327SOL    HW216881   6.007   2.446   4.763
 5328SOL     OW16882   3.493   3.539   5.931
 5328SOL    HW116883   3.502   3.540   6.031
 5328SOL    HW216884   3.523   3.627   5.894
 5329SOL     OW16885   0.675   5.351   6.841
 5329SOL    HW116886   0.605   5.420   6.823
 5329SOL    HW216887   0.648   5.263   6.802
 5330SOL     OW16888   3.779   4.685   0.165
 5330SOL    HW116889   3.821   4.594   0.166
 5330SOL    HW216890   3.806   4.734   0.082
 5331SOL     OW16891   6.087   2.296   6.671
 5331SOL    HW116892   6.149   2.220   6.689
 5331SOL    HW216893   6.135   2.366   6.617
 5332SOL     OW16894   1.407   3.821   1.630
 5332SOL    HW116895   1.493   3.783   1.664
 5332SOL    HW216896   1.353   3.748   1.588
 5333SOL     OW16897   1.340   1.241   3.306
 5333SOL    HW116898   1.298   1.191   3.230
 5333SOL    HW216899   1.396   1.316   3.270
 5334SOL     OW16900   3.195   0.633   5.113
 5334SOL    HW116901   3.288   0.597   5.109
 5334SOL    HW216902   3.194   0.728   5.080
 5335SOL     OW16903   6.589   5.962   1.041
 5335SOL    HW116904   6.507   5.948   1.097
 5335SOL    HW216905   6.605   5.881   0.985
 5336SOL     OW16906   1.851   3.482   2.322
 5336SOL    HW116907   1.938   3.524   2.295
 5336SOL    HW216908   1.868   3.397   2.371
 5337SOL     OW16909   5.005   3.957   1.295
 5337SOL    HW116910   4.915   3.937   1.256
 5337SOL    HW216911   5.053   3.872   1.313
 5338SOL     OW16912   5.602   1.425   6.700
 5338SOL    HW116913   5.653   1.505   6.731
 5338SOL    HW216914   5.538   1.396   6.772
 5339SOL     OW16915   6.869   1.189   3.624
 5339SOL    HW116916   6.841   1.189   3.721
 5339SOL    HW216917   6.829   1.268   3.578
 5340SOL     OW16918   6.063   3.356   0.423
 5340SOL    HW116919   6.019   3.403   0.499
 5340SOL    HW216920   6.121   3.283   0.459
 5341SOL     OW16921   3.778   2.282   5.994
 5341SOL    HW116922   3.790   2.193   5.952
 5341SOL    HW216923   3.827   2.351   5.942
 5342SOL     OW16924   3.902   0.489   5.089
 5342SOL    HW116925   3.838   0.562   5.112
 5342SOL    HW216926   3.851   0.407   5.061
 5343SOL     OW16927   3.102   3.723   3.691
 5343SOL    HW116928   3.135   3.761   3.604
 5343SOL    HW216929   3.118   3.625   3.693
 5344SOL     OW16930   1.850   2.635   2.713
 5344SOL    HW116931   1.764   2.619   2.762
 5344SOL    HW216932   1.833   2.694   2.634
 5345SOL     OW16933   4.417   5.777   1.563
 5345SOL    HW116934   4.452   5.803   1.474
 5345SOL    HW216935   4.377   5.685   1.558
 5346SOL     OW16936   3.127   6.356   3.638
 5346SOL    HW116937   3.181   6.439   3.626
 5346SOL    HW216938   3.133   6.299   3.556
 5347SOL     OW16939   6.903   2.238   2.281
 5347SOL    HW116940   6.974   2.167   2.286
 5347SOL    HW216941   6.945   2.327   2.298
 5348SOL     OW16942   0.965   1.627   0.637
 5348SOL    HW116943   1.062   1.646   0.626
 5348SOL    HW216944   0.919   1.638   0.548
 5349SOL     OW16945   1.269   2.410   0.719
 5349SOL    HW116946   1.177   2.379   0.742
 5349SOL    HW216947   1.271   2.439   0.623
 5350SOL     OW16948   2.120   0.434   6.204
 5350SOL    HW116949   2.120   0.435   6.304
 5350SOL    HW216950   2.212   0.417   6.171
 5351SOL     OW16951   5.322   5.569   1.625
 5351SOL    HW116952   5.307   5.486   1.678
 5351SOL    HW216953   5.415   5.602   1.641
 5352SOL     OW16954   1.967   5.775   3.788
 5352SOL    HW116955   1.972   5.798   3.691
 5352SOL    HW216956   1.874   5.790   3.822
 5353SOL     OW16957   3.864   5.880   4.650
 5353SOL    HW116958   3.783   5.839   4.692
 5353SOL    HW216959   3.939   5.880   4.716
 5354SOL     OW16960   2.288   4.692   2.407
 5354SOL    HW116961   2.231   4.612   2.386
 5354SOL    HW216962   2.343   4.673   2.488
 5355SOL     OW16963   4.842   2.428   4.003
 5355SOL    HW116964   4.876   2.436   3.909
 5355SOL    HW216965   4.814   2.333   4.020
 5356SOL     OW16966   5.771   4.156   1.437
 5356SOL    HW116967   5.834   4.233   1.426
 5356SOL    HW216968   5.820   4.078   1.476
 5357SOL     OW16969   3.680   0.430   0.984
 5357SOL    HW116970   3.600   0.417   1.043
 5357SOL    HW216971   3.653   0.419   0.889
 5358SOL     OW16972   4.341   2.138   1.147
 5358SOL    HW116973   4.407   2.210   1.167
 5358SOL    HW216974   4.257   2.179   1.110
 5359SOL     OW16975   2.059   1.818   0.205
 5359SOL    HW116976   2.102   1.845   0.292
 5359SOL    HW216977   1.963   1.844   0.206
 5360SOL     OW16978   4.007   6.573   4.732
 5360SOL    HW116979   4.016   6.595   4.635
 5360SOL    HW216980   4.097   6.567   4.775
 5361SOL     OW16981   2.236   0.025   4.921
 5361SOL    HW116982   2.240   0.122   4.898
 5361SOL    HW216983   2.328   7.013   4.923
 5362SOL     OW16984   4.967   4.355   3.492
 5362SOL    HW116985   5.024   4.284   3.533
 5362SOL    HW216986   5.001   4.445   3.518
 5363SOL     OW16987   0.727   6.258   6.311
 5363SOL    HW116988   0.677   6.172   6.300
 5363SOL    HW216989   0.702   6.321   6.238
 5364SOL     OW16990   6.567   5.683   0.925
 5364SOL    HW116991   6.556   5.658   0.828
 5364SOL    HW216992   6.564   5.600   0.981
 5365SOL     OW16993   4.081   3.222   6.605
 5365SOL    HW116994   4.047   3.150   6.664
 5365SOL    HW216995   4.138   3.285   6.657
 5366SOL     OW16996   5.185   4.607   1.126
 5366SOL    HW116997   5.193   4.707   1.125
 5366SOL    HW216998   5.275   4.567   1.145
 5367SOL     OW16999   0.181   5.386   0.515
 5367SOL    HW117000   0.226   5.471   0.540
 5367SOL    HW217001   0.167   5.384   0.415
 5368SOL     OW17002   5.159   1.452   2.967
 5368SOL    HW117003   5.208   1.366   2.975
 5368SOL    HW217004   5.071   1.445   3.013
 5369SOL     OW17005   2.858   6.378   3.547
 5369SOL    HW117006   2.899   6.419   3.466
 5369SOL    HW217007   2.928   6.332   3.601
 5370SOL     OW17008   3.838   3.212   1.696
 5370SOL    HW117009   3.743   3.232   1.673
 5370SOL    HW217010   3.842   3.130   1.754
 5371SOL     OW17011   1.797   3.788   4.662
 5371SOL    HW117012   1.893   3.796   4.636
 5371SOL    HW217013   1.771   3.691   4.665
 5372SOL     OW17014   2.437   5.502   2.600
 5372SOL    HW117015   2.348   5.533   2.636
 5372SOL    HW217016   2.431   5.406   2.575
 5373SOL     OW17017   3.063   4.862   4.154
 5373SOL    HW117018   3.016   4.951   4.163
 5373SOL    HW217019   3.161   4.875   4.164
 5374SOL     OW17020   1.028   3.471   6.897
 5374SOL    HW117021   1.067   3.482   6.806
 5374SOL    HW217022   1.034   3.558   6.946
 5375SOL     OW17023   1.136   4.751   4.950
 5375SOL    HW117024   1.074   4.747   5.029
 5375SOL    HW217025   1.173   4.659   4.932
 5376SOL     OW17026   1.516   3.081   1.230
 5376SOL    HW117027   1.480   3.159   1.179
 5376SOL    HW217028   1.555   3.114   1.316
 5377SOL     OW17029   0.127   6.971   1.607
 5377SOL    HW117030   0.214   6.922   1.621
 5377SOL    HW217031   0.083   6.936   1.524
 5378SOL     OW17032   6.790   0.278   1.499
 5378SOL    HW117033   6.727   0.226   1.557
 5378SOL    HW217034   6.790   0.374   1.526
 5379SOL     OW17035   0.289   5.326   4.532
 5379SOL    HW117036   0.325   5.418   4.517
 5379SOL    HW217037   0.247   5.321   4.623
 5380SOL     OW17038   1.599   0.996   3.144
 5380SOL    HW117039   1.554   0.983   3.056
 5380SOL    HW217040   1.565   0.929   3.209
 5381SOL     OW17041   6.663   3.770   0.069
 5381SOL    HW117042   6.597   3.740   0.138
 5381SOL    HW217043   6.718   3.692   0.040
 5382SOL     OW17044   3.122   0.117   2.033
 5382SOL    HW117045   3.199   0.172   2.064
 5382SOL    HW217046   3.144   0.020   2.040
 5383SOL     OW17047   3.021   2.103   5.205
 5383SOL    HW117048   3.029   2.088   5.304
 5383SOL    HW217049   3.061   2.192   5.182
 5384SOL     OW17050   6.534   1.176   3.949
 5384SOL    HW117051   6.510   1.205   3.856
 5384SOL    HW217052   6.542   1.076   3.951
 5385SOL     OW17053   2.998   3.963   3.185
 5385SOL    HW117054   2.923   3.934   3.245
 5385SOL    HW217055   3.066   4.013   3.239
 5386SOL     OW17056   4.721   6.513   4.077
 5386SOL    HW117057   4.697   6.606   4.048
 5386SOL    HW217058   4.702   6.503   4.175
 5387SOL     OW17059   1.945   5.627   3.476
 5387SOL    HW117060   1.912   5.569   3.551
 5387SOL    HW217061   1.873   5.691   3.450
 5388SOL     OW17062   5.048   6.567   3.286
 5388SOL    HW117063   4.986   6.514   3.343
 5388SOL    HW217064   5.068   6.654   3.331
 5389SOL     OW17065   4.947   0.755   1.727
 5389SOL    HW117066   5.008   0.834   1.723
 5389SOL    HW217067   4.889   0.762   1.808
 5390SOL     OW17068   4.425   5.088   4.003
 5390SOL    HW117069   4.396   5.183   3.988
 5390SOL    HW217070   4.432   5.071   4.101
 5391SOL     OW17071   2.529   2.078   0.646
 5391SOL    HW117072   2.592   2.002   0.629
 5391SOL    HW217073   2.578   2.153   0.689
 5392SOL     OW17074   6.169   3.975   0.303
 5392SOL    HW117075   6.261   4.003   0.277
 5392SOL    HW217076   6.144   3.892   0.254
 5393SOL     OW17077   6.303   6.596   7.009
 5393SOL    HW117078   6.301   6.564   6.914
 5393SOL    HW217079   6.219   6.567   0.030
 5394SOL     OW17080   6.937   3.730   6.105
 5394SOL    HW117081   6.877   3.795   6.151
 5394SOL    HW217082   6.882   3.663   6.055
 5395SOL     OW17083   4.827   0.817   1.953
 5395SOL    HW117084   4.738   0.860   1.967
 5395SOL    HW217085   4.844   0.751   2.026
 5396SOL     OW17086   4.924   3.591   2.951
 5396SOL    HW117087   4.898   3.502   2.912
 5396SOL    HW217088   4.929   3.584   3.050
 5397SOL     OW17089   6.816   2.945   1.662
 5397SOL    HW117090   6.761   2.900   1.733
 5397SOL    HW217091   6.871   3.017   1.704
 5398SOL     OW17092   3.704   1.616   1.945
 5398SOL    HW117093   3.657   1.663   2.020
 5398SOL    HW217094   3.744   1.684   1.883
 5399SOL     OW17095   2.197   6.425   0.472
 5399SOL    HW117096   2.120   6.479   0.438
 5399SOL    HW217097   2.256   6.483   0.527
 5400SOL     OW17098   3.018   4.149   0.663
 5400SOL    HW117099   2.998   4.052   0.678
 5400SOL    HW217100   3.038   4.164   0.566
 5401SOL     OW17101   5.738   3.496   1.210
 5401SOL    HW117102   5.768   3.549   1.289
 5401SOL    HW217103   5.742   3.553   1.128
 5402SOL     OW17104   2.453   5.952   1.940
 5402SOL    HW117105   2.376   5.918   1.994
 5402SOL    HW217106   2.446   5.917   1.846
 5403SOL     OW17107   6.410   3.181   6.217
 5403SOL    HW117108   6.337   3.129   6.174
 5403SOL    HW217109   6.483   3.197   6.152
 5404SOL     OW17110   0.815   2.059   3.508
 5404SOL    HW117111   0.799   2.133   3.442
 5404SOL    HW217112   0.914   2.046   3.520
 5405SOL     OW17113   6.340   5.651   0.429
 5405SOL    HW117114   6.329   5.589   0.506
 5405SOL    HW217115   6.437   5.667   0.412
 5406SOL     OW17116   2.501   1.672   6.371
 5406SOL    HW117117   2.491   1.672   6.272
 5406SOL    HW217118   2.451   1.749   6.410
 5407SOL     OW17119   4.750   3.449   0.380
 5407SOL    HW117120   4.719   3.515   0.448
 5407SOL    HW217121   4.735   3.356   0.415
 5408SOL     OW17122   2.823   1.328   5.988
 5408SOL    HW117123   2.910   1.287   5.961
 5408SOL    HW217124   2.804   1.407   5.929
 5409SOL     OW17125   5.248   0.152   3.508
 5409SOL    HW117126   5.250   0.162   3.408
 5409SOL    HW217127   5.284   0.236   3.550
 5410SOL     OW17128   2.746   2.441   1.757
 5410SOL    HW117129   2.831   2.462   1.806
 5410SOL    HW217130   2.764   2.367   1.692
 5411SOL     OW17131   6.730   4.877   5.782
 5411SOL    HW117132   6.676   4.958   5.758
 5411SOL    HW217133   6.819   4.905   5.818
 5412SOL     OW17134   5.080   2.036   0.872
 5412SOL    HW117135   5.094   1.944   0.835
 5412SOL    HW217136   5.065   2.100   0.797
 5413SOL     OW17137   3.132   1.290   1.317
 5413SOL    HW117138   3.092   1.230   1.248
 5413SOL    HW217139   3.232   1.287   1.310
 5414SOL     OW17140   5.171   2.178   4.697
 5414SOL    HW117141   5.118   2.256   4.729
 5414SOL    HW217142   5.257   2.172   4.747
 5415SOL     OW17143   0.462   5.851   1.415
 5415SOL    HW117144   0.526   5.835   1.490
 5415SOL    HW217145   0.482   5.787   1.341
 5416SOL     OW17146   5.179   5.598   6.003
 5416SOL    HW117147   5.141   5.612   5.911
 5416SOL    HW217148   5.207   5.503   6.014
 5417SOL     OW17149   3.576   6.807   5.564
 5417SOL    HW117150   3.571   6.903   5.535
 5417SOL    HW217151   3.604   6.751   5.486
 5418SOL     OW17152   3.510   0.464   3.664
 5418SOL    HW117153   3.507   0.554   3.620
 5418SOL    HW217154   3.419   0.421   3.657
 5419SOL     OW17155   3.315   5.553   0.233
 5419SOL    HW117156   3.288   5.624   0.168
 5419SOL    HW217157   3.369   5.483   0.186
 5420SOL     OW17158   1.767   3.341   2.647
 5420SOL    HW117159   1.851   3.362   2.597
 5420SOL    HW217160   1.752   3.242   2.647
 5421SOL     OW17161   1.460   3.637   1.936
 5421SOL    HW117162   1.504   3.696   2.004
 5421SOL    HW217163   1.378   3.682   1.902
 5422SOL     OW17164   0.190   5.115   0.496
 5422SOL    HW117165   0.121   5.044   0.507
 5422SOL    HW217166   0.147   5.205   0.505
 5423SOL     OW17167   6.917   3.222   6.759
 5423SOL    HW117168   6.818   3.220   6.747
 5423SOL    HW217169   6.960   3.265   6.680
 5424SOL     OW17170   5.726   2.948   3.351
 5424SOL    HW117171   5.659   2.911   3.415
 5424SOL    HW217172   5.770   3.028   3.391
 5425SOL     OW17173   4.187   1.013   4.804
 5425SOL    HW117174   4.256   0.986   4.738
 5425SOL    HW217175   4.215   1.098   4.849
 5426SOL     OW17176   6.231   5.689   4.473
 5426SOL    HW117177   6.160   5.633   4.430
 5426SOL    HW217178   6.306   5.631   4.504
 5427SOL     OW17179   5.132   5.379   6.368
 5427SOL    HW117180   5.134   5.401   6.465
 5427SOL    HW217181   5.128   5.464   6.315
 5428SOL     OW17182   6.994   6.894   1.351
 5428SOL    HW117183   6.931   6.898   1.428
 5428SOL    HW217184   6.984   6.806   1.304
 5429SOL     OW17185   2.162   2.154   6.530
 5429SOL    HW117186   2.138   2.091   6.455
 5429SOL    HW217187   2.120   2.243   6.513
 5430SOL     OW17188   0.290   2.938   5.817
 5430SOL    HW117189   0.327   3.021   5.858
 5430SOL    HW217190   0.197   2.955   5.785
 5431SOL     OW17191   3.098   6.409   0.750
 5431SOL    HW117192   3.128   6.314   0.763
 5431SOL    HW217193   2.998   6.412   0.744
 5432SOL     OW17194   5.439   0.642   6.756
 5432SOL    HW117195   5.493   0.673   6.835
 5432SOL    HW217196   5.375   0.714   6.730
 5433SOL     OW17197   0.049   1.787   4.821
 5433SOL    HW117198   0.107   1.773   4.741
 5433SOL    HW217199   6.979   1.775   4.795
 5434SOL     OW17200   3.039   0.756   5.679
 5434SOL    HW117201   3.042   0.661   5.648
 5434SOL    HW217202   2.943   0.784   5.690
 5435SOL     OW17203   5.906   6.827   1.926
 5435SOL    HW117204   5.991   6.775   1.941
 5435SOL    HW217205   5.918   6.920   1.959
 5436SOL     OW17206   5.176   3.772   4.072
 5436SOL    HW117207   5.173   3.871   4.085
 5436SOL    HW217208   5.248   3.733   4.129
 5437SOL     OW17209   2.629   3.918   0.320
 5437SOL    HW117210   2.720   3.901   0.283
 5437SOL    HW217211   2.620   3.872   0.409
 5438SOL     OW17212   6.547   2.781   2.252
 5438SOL    HW117213   6.532   2.878   2.232
 5438SOL    HW217214   6.620   2.772   2.320
 5439SOL     OW17215   0.894   2.532   1.500
 5439SOL    HW117216   0.927   2.469   1.430
 5439SOL    HW217217   0.926   2.625   1.480
 5440SOL     OW17218   1.009   1.327   0.660
 5440SOL    HW117219   1.108   1.335   0.670
 5440SOL    HW217220   0.967   1.417   0.673
 5441SOL     OW17221   4.339   2.336   3.220
 5441SOL    HW117222   4.372   2.422   3.182
 5441SOL    HW217223   4.417   2.275   3.237
 5442SOL     OW17224   3.689   6.387   3.413
 5442SOL    HW117225   3.660   6.482   3.422
 5442SOL    HW217226   3.623   6.337   3.357
 5443SOL     OW17227   3.859   0.205   4.288
 5443SOL    HW117228   3.936   0.176   4.231
 5443SOL    HW217229   3.775   0.161   4.256
 5444SOL     OW17230   1.049   0.592   4.209
 5444SOL    HW117231   1.003   0.516   4.255
 5444SOL    HW217232   1.044   0.579   4.110
 5445SOL     OW17233   6.494   3.962   3.471
 5445SOL    HW117234   6.547   3.925   3.394
 5445SOL    HW217235   6.454   3.886   3.522
 5446SOL     OW17236   6.610   5.061   4.699
 5446SOL    HW117237   6.668   4.980   4.712
 5446SOL    HW217238   6.524   5.034   4.655
 5447SOL     OW17239   3.075   2.278   6.967
 5447SOL    HW117240   3.016   2.352   6.935
 5447SOL    HW217241   3.106   2.224   6.889
 5448SOL     OW17242   4.334   3.096   5.412
 5448SOL    HW117243   4.339   3.090   5.512
 5448SOL    HW217244   4.242   3.069   5.382
 5449SOL     OW17245   1.832   3.257   6.485
 5449SOL    HW117246   1.794   3.299   6.402
 5449SOL    HW217247   1.845   3.159   6.470
 5450SOL     OW17248   2.007   0.940   1.685
 5450SOL    HW117249   2.094   0.980   1.658
 5450SOL    HW217250   2.017   0.895   1.773
 5451SOL     OW17251   1.885   6.041   3.158
 5451SOL    HW117252   1.832   6.073   3.237
 5451SOL    HW217253   1.840   6.069   3.074
 5452SOL     OW17254   2.125   4.631   6.982
 5452SOL    HW117255   2.108   4.571   6.905
 5452SOL    HW217256   2.064   4.607   0.032
 5453SOL     OW17257   6.029   4.143   0.460
 5453SOL    HW117258   6.079   4.229   0.467
 5453SOL    HW217259   6.082   4.077   0.407
 5454SOL     OW17260   0.410   4.379   6.870
 5454SOL    HW117261   0.466   4.461   6.871
 5454SOL    HW217262   0.375   4.363   6.778
 5455SOL     OW17263   6.389   3.543   0.009
 5455SOL    HW117264   6.324   3.613   7.006
 5455SOL    HW217265   6.432   3.570   0.095
 5456SOL     OW17266   3.541   6.336   0.054
 5456SOL    HW117267   3.584   6.423   0.078
 5456SOL    HW217268   3.476   6.350   7.005
 5457SOL     OW17269   5.601   2.444   0.542
 5457SOL    HW117270   5.512   2.404   0.564
 5457SOL    HW217271   5.658   2.445   0.624
 5458SOL     OW17272   0.499   4.654   0.145
 5458SOL    HW117273   0.499   4.736   0.088
 5458SOL    HW217274   0.547   4.672   0.230
 5459SOL     OW17275   1.861   4.458   6.941
 5459SOL    HW117276   1.886   4.362   6.956
 5459SOL    HW217277   1.878   4.510   7.025
 5460SOL     OW17278   2.855   6.886   2.652
 5460SOL    HW117279   2.910   6.914   2.574
 5460SOL    HW217280   2.868   6.951   2.727
 5461SOL     OW17281   6.260   6.360   5.209
 5461SOL    HW117282   6.242   6.262   5.213
 5461SOL    HW217283   6.331   6.378   5.141
 5462SOL     OW17284   1.007   0.304   0.178
 5462SOL    HW117285   0.987   0.234   0.247
 5462SOL    HW217286   1.035   0.388   0.224
 5463SOL     OW17287   6.328   2.216   6.983
 5463SOL    HW117288   6.302   2.312   6.973
 5463SOL    HW217289   6.249   2.162   7.012
 5464SOL     OW17290   1.898   0.680   4.288
 5464SOL    HW117291   1.848   0.724   4.214
 5464SOL    HW217292   1.937   0.750   4.348
 5465SOL     OW17293   3.654   6.891   3.519
 5465SOL    HW117294   3.647   6.988   3.544
 5465SOL    HW217295   3.716   6.882   3.441
 5466SOL     OW17296   5.676   4.631   5.241
 5466SOL    HW117297   5.673   4.567   5.164
 5466SOL    HW217298   5.591   4.684   5.243
 5467SOL     OW17299   5.130   2.278   3.483
 5467SOL    HW117300   5.127   2.233   3.573
 5467SOL    HW217301   5.225   2.282   3.452
 5468SOL     OW17302   5.286   1.882   4.749
 5468SOL    HW117303   5.280   1.783   4.755
 5468SOL    HW217304   5.211   1.916   4.692
 5469SOL     OW17305   3.818   5.313   6.882
 5469SOL    HW117306   3.855   5.397   6.845
 5469SOL    HW217307   3.719   5.309   6.864
 5470SOL     OW17308   2.354   5.492   3.215
 5470SOL    HW117309   2.308   5.403   3.206
 5470SOL    HW217310   2.356   5.538   3.126
 5471SOL     OW17311   5.722   6.894   1.274
 5471SOL    HW117312   5.732   6.832   1.352
 5471SOL    HW217313   5.659   6.854   1.207
 5472SOL     OW17314   3.960   4.293   5.843
 5472SOL    HW117315   4.017   4.288   5.761
 5472SOL    HW217316   3.904   4.210   5.849
 5473SOL     OW17317   0.735   3.793   3.328
 5473SOL    HW117318   0.716   3.794   3.426
 5473SOL    HW217319   0.795   3.870   3.306
 5474SOL     OW17320   1.315   4.188   3.987
 5474SOL    HW117321   1.324   4.090   3.969
 5474SOL    HW217322   1.228   4.206   4.032
 5475SOL     OW17323   3.124   2.704   0.240
 5475SOL    HW117324   3.165   2.713   0.331
 5475SOL    HW217325   3.173   2.634   0.188
 5476SOL     OW17326   2.331   3.708   6.138
 5476SOL    HW117327   2.300   3.793   6.097
 5476SOL    HW217328   2.384   3.727   6.220
 5477SOL     OW17329   1.825   3.631   3.494
 5477SOL    HW117330   1.880   3.677   3.565
 5477SOL    HW217331   1.801   3.696   3.423
 5478SOL     OW17332   5.240   5.327   5.269
 5478SOL    HW117333   5.268   5.320   5.364
 5478SOL    HW217334   5.225   5.423   5.245
 5479SOL     OW17335   4.755   0.872   5.721
 5479SOL    HW117336   4.772   0.891   5.817
 5479SOL    HW217337   4.665   0.908   5.695
 5480SOL     OW17338   0.060   3.361   4.003
 5480SOL    HW117339   0.018   3.311   3.927
 5480SOL    HW217340   0.080   3.297   4.077
 5481SOL     OW17341   3.603   0.950   4.439
 5481SOL    HW117342   3.600   0.905   4.350
 5481SOL    HW217343   3.695   0.942   4.478
 5482SOL     OW17344   3.757   4.389   1.626
 5482SOL    HW117345   3.820   4.451   1.674
 5482SOL    HW217346   3.809   4.318   1.579
 5483SOL     OW17347   0.887   3.059   5.385
 5483SOL    HW117348   0.880   3.156   5.410
 5483SOL    HW217349   0.963   3.017   5.435
 5484SOL     OW17350   4.825   0.369   5.005
 5484SOL    HW117351   4.844   0.400   5.098
 5484SOL    HW217352   4.798   0.273   5.007
 5485SOL     OW17353   3.508   6.584   5.162
 5485SOL    HW117354   3.512   6.559   5.065
 5485SOL    HW217355   3.508   6.501   5.217
 5486SOL     OW17356   2.490   5.895   5.071
 5486SOL    HW117357   2.448   5.949   4.998
 5486SOL    HW217358   2.559   5.834   5.032
 5487SOL     OW17359   2.777   4.573   6.174
 5487SOL    HW117360   2.695   4.532   6.133
 5487SOL    HW217361   2.808   4.650   6.118
 5488SOL     OW17362   6.995   1.375   0.318
 5488SOL    HW117363   7.025   1.395   0.411
 5488SOL    HW217364   0.003   1.285   0.291
 5489SOL     OW17365   6.403   3.605   2.171
 5489SOL    HW117366   6.357   3.581   2.257
 5489SOL    HW217367   6.501   3.593   2.181
 5490SOL     OW17368   1.892   6.718   2.635
 5490SOL    HW117369   1.940   6.711   2.548
 5490SOL    HW217370   1.924   6.799   2.684
 5491SOL     OW17371   6.885   2.865   1.059
 5491SOL    HW117372   6.868   2.963   1.062
 5491SOL    HW217373   6.799   2.815   1.067
 5492SOL     OW17374   1.306   3.639   5.631
 5492SOL    HW117375   1.395   3.616   5.670
 5492SOL    HW217376   1.236   3.635   5.703
 5493SOL     OW17377   4.142   3.659   2.116
 5493SOL    HW117378   4.092   3.623   2.195
 5493SOL    HW217379   4.202   3.733   2.145
 5494SOL     OW17380   5.990   4.362   5.419
 5494SOL    HW117381   5.977   4.303   5.498
 5494SOL    HW217382   6.062   4.428   5.439
 5495SOL     OW17383   5.934   0.953   0.504
 5495SOL    HW117384   5.918   1.038   0.553
 5495SOL    HW217385   6.007   0.966   0.437
 5496SOL     OW17386   4.282   0.651   4.369
 5496SOL    HW117387   4.337   0.734   4.358
 5496SOL    HW217388   4.196   0.674   4.414
 5497SOL     OW17389   0.209   1.046   5.685
 5497SOL    HW117390   0.180   0.950   5.691
 5497SOL    HW217391   0.173   1.096   5.763
 5498SOL     OW17392   0.384   4.961   1.789
 5498SOL    HW117393   0.360   5.047   1.834
 5498SOL    HW217394   0.303   4.922   1.745
 5499SOL     OW17395   0.574   0.857   3.826
 5499SOL    HW117396   0.612   0.865   3.918
 5499SOL    HW217397   0.533   0.944   3.799
 5500SOL     OW17398   1.854   1.292   0.063
 5500SOL    HW117399   1.852   1.194   0.082
 5500SOL    HW217400   1.760   1.326   0.056
 5501SOL     OW17401   4.078   2.095   0.188
 5501SOL    HW117402   4.109   2.013   0.236
 5501SOL    HW217403   4.154   2.159   0.179
 5502SOL     OW17404   4.901   3.718   6.476
 5502SOL    HW117405   4.977   3.743   6.536
 5502SOL    HW217406   4.911   3.765   6.388
 5503SOL     OW17407   0.484   3.882   0.362
 5503SOL    HW117408   0.463   3.885   0.459
 5503SOL    HW217409   0.457   3.968   0.319
 5504SOL     OW17410   4.114   0.764   6.552
 5504SOL    HW117411   4.089   0.725   6.463
 5504SOL    HW217412   4.201   0.725   6.582
 5505SOL     OW17413   2.246   4.038   3.925
 5505SOL    HW117414   2.229   3.956   3.870
 5505SOL    HW217415   2.289   4.108   3.868
 5506SOL     OW17416   0.027   3.559   6.299
 5506SOL    HW117417   0.014   3.638   6.238
 5506SOL    HW217418   0.049   3.478   6.245
 5507SOL     OW17419   3.504   0.559   5.886
 5507SOL    HW117420   3.443   0.522   5.815
 5507SOL    HW217421   3.530   0.652   5.863
 5508SOL     OW17422   1.077   1.068   6.986
 5508SOL    HW117423   1.052   1.053   0.056
 5508SOL    HW217424   1.085   0.981   6.939
 5509SOL     OW17425   0.366   5.344   1.401
 5509SOL    HW117426   0.426   5.298   1.335
 5509SOL    HW217427   0.298   5.279   1.434
 5510SOL     OW17428   5.097   5.600   0.149
 5510SOL    HW117429   5.181   5.591   0.202
 5510SOL    HW217430   5.097   5.688   0.101
 5511SOL     OW17431   0.515   1.592   5.603
 5511SOL    HW117432   0.458   1.580   5.684
 5511SOL    HW217433   0.463   1.566   5.521
 5512SOL     OW17434   3.337   0.901   1.832
 5512SOL    HW117435   3.255   0.846   1.845
 5512SOL    HW217436   3.317   0.976   1.769
 5513SOL     OW17437   3.958   5.080   6.119
 5513SOL    HW117438   3.962   5.170   6.163
 5513SOL    HW217439   4.028   5.075   6.048
 5514SOL     OW17440   3.444   6.365   5.298
 5514SOL    HW117441   3.438   6.303   5.220
 5514SOL    HW217442   3.352   6.390   5.328
 5515SOL     OW17443   2.403   5.638   2.202
 5515SOL    HW117444   2.484   5.695   2.209
 5515SOL    HW217445   2.327   5.682   2.249
 5516SOL     OW17446   2.483   2.684   5.156
 5516SOL    HW117447   2.495   2.648   5.064
 5516SOL    HW217448   2.468   2.782   5.153
 5517SOL     OW17449   2.011   4.079   2.623
 5517SOL    HW117450   2.083   4.088   2.692
 5517SOL    HW217451   1.939   4.146   2.642
 5518SOL     OW17452   5.153   4.490   5.624
 5518SOL    HW117453   5.220   4.554   5.587
 5518SOL    HW217454   5.076   4.480   5.560
 5519SOL     OW17455   4.756   2.734   3.698
 5519SOL    HW117456   4.755   2.724   3.598
 5519SOL    HW217457   4.834   2.684   3.736
 5520SOL     OW17458   5.772   6.299   2.205
 5520SOL    HW117459   5.777   6.271   2.301
 5520SOL    HW217460   5.865   6.311   2.169
 5521SOL     OW17461   5.793   4.853   2.192
 5521SOL    HW117462   5.826   4.869   2.285
 5521SOL    HW217463   5.849   4.783   2.148
 5522SOL     OW17464   5.855   5.275   1.587
 5522SOL    HW117465   5.759   5.281   1.616
 5522SOL    HW217466   5.892   5.367   1.576
 5523SOL     OW17467   5.781   1.009   2.973
 5523SOL    HW117468   5.830   0.942   3.028
 5523SOL    HW217469   5.762   0.971   2.883
 5524SOL     OW17470   3.523   0.626   5.342
 5524SOL    HW117471   3.434   0.658   5.374
 5524SOL    HW217472   3.596   0.662   5.401
 5525SOL     OW17473   6.462   2.786   1.086
 5525SOL    HW117474   6.509   2.870   1.057
 5525SOL    HW217475   6.463   2.720   1.010
 5526SOL     OW17476   4.728   4.170   3.234
 5526SOL    HW117477   4.807   4.149   3.175
 5526SOL    HW217478   4.742   4.128   3.323
 5527SOL     OW17479   5.041   2.731   4.134
 5527SOL    HW117480   5.060   2.820   4.092
 5527SOL    HW217481   4.958   2.737   4.189
 5528SOL     OW17482   1.073   2.314   1.672
 5528SOL    HW117483   1.101   2.267   1.588
 5528SOL    HW217484   0.982   2.281   1.699
 5529SOL     OW17485   2.511   1.062   2.804
 5529SOL    HW117486   2.454   1.092   2.881
 5529SOL    HW217487   2.476   0.975   2.770
 5530SOL     OW17488   6.295   2.395   1.375
 5530SOL    HW117489   6.238   2.474   1.349
 5530SOL    HW217490   6.292   2.383   1.475
 5531SOL     OW17491   3.631   3.772   1.266
 5531SOL    HW117492   3.597   3.693   1.317
 5531SOL    HW217493   3.730   3.765   1.256
 5532SOL     OW17494   2.199   2.269   0.721
 5532SOL    HW117495   2.122   2.226   0.770
 5532SOL    HW217496   2.274   2.286   0.785
 5533SOL     OW17497   4.421   1.284   4.555
 5533SOL    HW117498   4.359   1.361   4.540
 5533SOL    HW217499   4.503   1.296   4.499
 5534SOL     OW17500   0.868   1.203   5.403
 5534SOL    HW117501   0.846   1.142   5.328
 5534SOL    HW217502   0.840   1.162   5.490
 5535SOL     OW17503   1.066   1.797   2.771
 5535SOL    HW117504   1.111   1.713   2.802
 5535SOL    HW217505   1.029   1.847   2.850
 5536SOL     OW17506   2.984   1.147   5.369
 5536SOL    HW117507   2.885   1.133   5.361
 5536SOL    HW217508   3.006   1.241   5.342
 5537SOL     OW17509   3.835   1.393   3.002
 5537SOL    HW117510   3.859   1.475   2.951
 5537SOL    HW217511   3.868   1.312   2.953
 5538SOL     OW17512   4.706   5.701   4.848
 5538SOL    HW117513   4.757   5.755   4.915
 5538SOL    HW217514   4.769   5.639   4.800
 5539SOL     OW17515   2.427   2.633   0.805
 5539SOL    HW117516   2.436   2.713   0.863
 5539SOL    HW217517   2.355   2.649   0.737
 5540SOL     OW17518   5.157   4.851   3.032
 5540SOL    HW117519   5.236   4.864   2.973
 5540SOL    HW217520   5.159   4.918   3.107
 5541SOL     OW17521   4.984   1.561   6.258
 5541SOL    HW117522   5.043   1.487   6.226
 5541SOL    HW217523   5.034   1.648   6.253
 5542SOL     OW17524   3.615   4.918   6.339
 5542SOL    HW117525   3.552   4.977   6.289
 5542SOL    HW217526   3.660   4.855   6.276
 5543SOL     OW17527   6.054   3.408   6.398
 5543SOL    HW117528   6.084   3.344   6.469
 5543SOL    HW217529   5.963   3.381   6.365
 5544SOL     OW17530   5.918   1.170   5.335
 5544SOL    HW117531   5.880   1.178   5.427
 5544SOL    HW217532   6.018   1.171   5.341
 5545SOL     OW17533   4.059   2.112   2.513
 5545SOL    HW117534   4.098   2.104   2.604
 5545SOL    HW217535   4.130   2.141   2.448
 5546SOL     OW17536   1.693   5.509   5.803
 5546SOL    HW117537   1.785   5.529   5.770
 5546SOL    HW217538   1.698   5.480   5.899
 5547SOL     OW17539   3.242   5.169   5.908
 5547SOL    HW117540   3.172   5.121   5.856
 5547SOL    HW217541   3.325   5.177   5.853
 5548SOL     OW17542   6.262   3.760   5.316
 5548SOL    HW117543   6.305   3.694   5.254
 5548SOL    HW217544   6.244   3.716   5.404
 5549SOL     OW17545   2.671   4.663   6.977
 5549SOL    HW117546   2.647   4.654   0.047
 5549SOL    HW217547   2.665   4.574   6.932
 5550SOL     OW17548   3.329   6.065   1.270
 5550SOL    HW117549   3.243   6.046   1.317
 5550SOL    HW217550   3.319   6.144   1.210
 5551SOL     OW17551   1.376   1.841   3.347
 5551SOL    HW117552   1.313   1.901   3.397
 5551SOL    HW217553   1.446   1.897   3.301
 5552SOL     OW17554   7.024   2.347   1.481
 5552SOL    HW117555   0.016   2.254   1.450
 5552SOL    HW217556   0.070   2.376   1.544
 5553SOL     OW17557   4.768   6.061   0.513
 5553SOL    HW117558   4.722   6.122   0.448
 5553SOL    HW217559   4.737   6.082   0.606
 5554SOL     OW17560   2.886   1.878   5.137
 5554SOL    HW117561   2.942   1.959   5.154
 5554SOL    HW217562   2.853   1.879   5.043
 5555SOL     OW17563   0.024   4.954   3.432
 5555SOL    HW117564   0.027   4.983   3.528
 5555SOL    HW217565   6.970   4.995   3.388
 5556SOL     OW17566   0.688   2.036   5.473
 5556SOL    HW117567   0.749   1.984   5.413
 5556SOL    HW217568   0.683   1.990   5.562
 5557SOL     OW17569   1.803   6.560   4.094
 5557SOL    HW117570   1.755   6.513   4.168
 5557SOL    HW217571   1.889   6.598   4.129
 5558SOL     OW17572   5.149   3.007   5.103
 5558SOL    HW117573   5.242   2.981   5.127
 5558SOL    HW217574   5.151   3.086   5.042
 5559SOL     OW17575   1.919   0.719   0.905
 5559SOL    HW117576   1.991   0.773   0.861
 5559SOL    HW217577   1.889   0.766   0.988
 5560SOL     OW17578   0.288   0.979   3.531
 5560SOL    HW117579   0.257   1.069   3.561
 5560SOL    HW217580   0.266   0.912   3.601
 5561SOL     OW17581   1.546   3.100   3.649
 5561SOL    HW117582   1.528   3.004   3.668
 5561SOL    HW217583   1.519   3.121   3.555
 5562SOL     OW17584   2.672   3.333   6.180
 5562SOL    HW117585   2.591   3.373   6.138
 5562SOL    HW217586   2.702   3.254   6.127
 5563SOL     OW17587   4.922   5.728   2.268
 5563SOL    HW117588   4.992   5.746   2.337
 5563SOL    HW217589   4.834   5.761   2.301
 5564SOL     OW17590   5.180   3.835   1.647
 5564SOL    HW117591   5.136   3.911   1.694
 5564SOL    HW217592   5.169   3.751   1.701
 5565SOL     OW17593   3.222   2.421   5.600
 5565SOL    HW117594   3.206   2.507   5.648
 5565SOL    HW217595   3.294   2.369   5.647
 5566SOL     OW17596   1.970   4.873   1.363
 5566SOL    HW117597   2.064   4.846   1.383
 5566SOL    HW217598   1.957   4.878   1.264
 5567SOL     OW17599   1.647   5.382   1.999
 5567SOL    HW117600   1.591   5.308   1.960
 5567SOL    HW217601   1.647   5.460   1.936
 5568SOL     OW17602   3.618   1.115   1.786
 5568SOL    HW117603   3.581   1.071   1.868
 5568SOL    HW217604   3.553   1.183   1.752
 5569SOL     OW17605   4.536   2.042   0.085
 5569SOL    HW117606   4.578   2.045   7.020
 5569SOL    HW217607   4.442   2.077   0.079
 5570SOL     OW17608   6.772   4.244   5.820
 5570SOL    HW117609   6.693   4.230   5.880
 5570SOL    HW217610   6.765   4.332   5.775
 5571SOL     OW17611   6.547   5.547   6.941
 5571SOL    HW117612   6.646   5.547   6.930
 5571SOL    HW217613   6.504   5.582   6.859
 5572SOL     OW17614   4.778   2.544   6.338
 5572SOL    HW117615   4.684   2.511   6.349
 5572SOL    HW217616   4.799   2.553   6.240
 5573SOL     OW17617   1.359   3.753   0.614
 5573SOL    HW117618   1.366   3.657   0.587
 5573SOL    HW217619   1.267   3.771   0.649
 5574SOL     OW17620   0.771   5.860   5.460
 5574SOL    HW117621   0.798   5.941   5.511
 5574SOL    HW217622   0.851   5.804   5.439
 5575SOL     OW17623   1.250   1.435   0.769
 5575SOL    HW117624   1.330   1.378   0.754
 5575SOL    HW217625   1.276   1.515   0.823
 5576SOL     OW17626   6.151   6.417   0.374
 5576SOL    HW117627   6.180   6.511   0.392
 5576SOL    HW217628   6.229   6.355   0.382
 5577SOL     OW17629   1.690   4.008   5.310
 5577SOL    HW117630   1.739   4.006   5.397
 5577SOL    HW217631   1.754   4.031   5.236
 5578SOL     OW17632   4.199   2.545   0.102
 5578SOL    HW117633   4.227   2.622   0.159
 5578SOL    HW217634   4.170   2.578   0.012
 5579SOL     OW17635   4.770   4.010   6.556
 5579SOL    HW117636   4.782   4.009   6.655
 5579SOL    HW217637   4.804   3.925   6.516
 5580SOL     OW17638   5.823   1.489   0.511
 5580SOL    HW117639   5.883   1.557   0.553
 5580SOL    HW217640   5.732   1.528   0.497
 5581SOL     OW17641   2.332   1.880   6.489
 5581SOL    HW117642   2.269   1.917   6.422
 5581SOL    HW217643   2.411   1.941   6.498
 5582SOL     OW17644   3.912   3.005   3.729
 5582SOL    HW117645   3.987   2.948   3.697
 5582SOL    HW217646   3.826   2.970   3.693
 5583SOL     OW17647   3.841   0.019   1.593
 5583SOL    HW117648   3.796   0.069   1.667
 5583SOL    HW217649   3.844   0.077   1.511
 5584SOL     OW17650   6.366   3.075   3.522
 5584SOL    HW117651   6.286   3.087   3.582
 5584SOL    HW217652   6.352   2.995   3.464
 5585SOL     OW17653   5.788   6.996   4.098
 5585SOL    HW117654   5.782   0.050   4.038
 5585SOL    HW217655   5.733   7.011   4.180
 5586SOL     OW17656   1.721   1.070   5.879
 5586SOL    HW117657   1.767   1.146   5.832
 5586SOL    HW217658   1.633   1.101   5.913
 5587SOL     OW17659   3.612   0.116   4.219
 5587SOL    HW117660   3.531   0.107   4.277
 5587SOL    HW217661   3.622   0.033   4.164
 5588SOL     OW17662   3.035   0.071   5.852
 5588SOL    HW117663   2.972   7.021   5.842
 5588SOL    HW217664   3.126   0.037   5.875
 5589SOL     OW17665   4.414   2.897   6.317
 5589SOL    HW117666   4.471   2.960   6.263
 5589SOL    HW217667   4.355   2.950   6.378
 5590SOL     OW17668   6.907   6.098   3.578
 5590SOL    HW117669   6.981   6.073   3.515
 5590SOL    HW217670   6.934   6.076   3.671
 5591SOL     OW17671   5.010   0.963   0.514
 5591SOL    HW117672   5.013   1.021   0.433
 5591SOL    HW217673   4.990   1.020   0.594
 5592SOL     OW17674   1.700   3.636   2.693
 5592SOL    HW117675   1.740   3.544   2.694
 5592SOL    HW217676   1.764   3.699   2.648
 5593SOL     OW17677   1.800   3.208   5.785
 5593SOL    HW117678   1.806   3.167   5.877
 5593SOL    HW217679   1.741   3.152   5.727
 5594SOL     OW17680   1.706   0.970   0.054
 5594SOL    HW117681   1.679   0.874   0.061
 5594SOL    HW217682   1.789   0.985   0.107
 5595SOL     OW17683   6.867   2.323   5.759
 5595SOL    HW117684   6.902   2.306   5.852
 5595SOL    HW217685   6.770   2.346   5.764
 5596SOL     OW17686   4.921   0.749   3.435
 5596SOL    HW117687   4.970   0.666   3.458
 5596SOL    HW217688   4.826   0.727   3.412
 5597SOL     OW17689   0.218   0.705   6.333
 5597SOL    HW117690   0.196   0.701   6.236
 5597SOL    HW217691   0.164   0.636   6.382
 5598SOL     OW17692   6.465   1.621   3.694
 5598SOL    HW117693   6.534   1.682   3.733
 5598SOL    HW217694   6.500   1.581   3.609
 5599SOL     OW17695   4.875   3.324   2.996
 5599SOL    HW117696   4.883   3.230   2.963
 5599SOL    HW217697   4.887   3.326   3.095
 5600SOL     OW17698   2.449   1.620   2.161
 5600SOL    HW117699   2.395   1.620   2.246
 5600SOL    HW217700   2.545   1.635   2.184
 5601SOL     OW17701   5.669   2.426   5.698
 5601SOL    HW117702   5.661   2.504   5.759
 5601SOL    HW217703   5.580   2.409   5.655
 5602SOL     OW17704   0.333   1.900   2.602
 5602SOL    HW117705   0.250   1.868   2.556
 5602SOL    HW217706   0.318   1.899   2.701
 5603SOL     OW17707   3.912   2.164   4.621
 5603SOL    HW117708   3.852   2.175   4.542
 5603SOL    HW217709   3.873   2.096   4.684
 5604SOL     OW17710   0.955   0.332   4.309
 5604SOL    HW117711   0.895   0.383   4.370
 5604SOL    HW217712   0.947   0.234   4.328
 5605SOL     OW17713   2.988   6.135   4.235
 5605SOL    HW117714   3.008   6.098   4.326
 5605SOL    HW217715   2.943   6.224   4.245
 5606SOL     OW17716   4.709   2.295   0.859
 5606SOL    HW117717   4.796   2.304   0.811
 5606SOL    HW217718   4.644   2.246   0.802
 5607SOL     OW17719   6.235   2.338   2.615
 5607SOL    HW117720   6.238   2.360   2.517
 5607SOL    HW217721   6.170   2.264   2.630
 5608SOL     OW17722   4.906   0.766   3.779
 5608SOL    HW117723   4.925   0.791   3.874
 5608SOL    HW217724   4.880   0.848   3.728
 5609SOL     OW17725   6.298   7.007   0.744
 5609SOL    HW117726   6.275   0.027   0.658
 5609SOL    HW217727   6.339   6.918   0.724
 5610SOL     OW17728   5.085   4.599   0.097
 5610SOL    HW117729   5.181   4.620   0.076
 5610SOL    HW217730   5.081   4.523   0.163
 5611SOL     OW17731   0.113   4.751   1.136
 5611SOL    HW117732   0.139   4.720   1.227
 5611SOL    HW217733   0.016   4.729   1.121
 5612SOL     OW17734   2.866   1.338   0.783
 5612SOL    HW117735   2.842   1.241   0.792
 5612SOL    HW217736   2.963   1.346   0.763
 5613SOL     OW17737   6.933   5.562   5.745
 5613SOL    HW117738   6.991   5.589   5.822
 5613SOL    HW217739   6.872   5.638   5.720
 5614SOL     OW17740   5.507   2.424   4.239
 5614SOL    HW117741   5.562   2.477   4.304
 5614SOL    HW217742   5.423   2.393   4.284
 5615SOL     OW17743   0.151   3.098   3.212
 5615SOL    HW117744   0.219   3.129   3.279
 5615SOL    HW217745   0.171   3.139   3.123
 5616SOL     OW17746   1.486   3.641   2.831
 5616SOL    HW117747   1.498   3.581   2.910
 5616SOL    HW217748   1.572   3.651   2.782
 5617SOL     OW17749   1.760   5.162   6.387
 5617SOL    HW117750   1.852   5.196   6.370
 5617SOL    HW217751   1.694   5.215   6.333
 5618SOL     OW17752   6.651   5.834   3.040
 5618SOL    HW117753   6.569   5.888   3.024
 5618SOL    HW217754   6.702   5.871   3.117
 5619SOL     OW17755   3.747   3.018   4.156
 5619SOL    HW117756   3.711   2.957   4.227
 5619SOL    HW217757   3.823   3.071   4.193
 5620SOL     OW17758   4.780   4.786   5.144
 5620SOL    HW117759   4.720   4.709   5.164
 5620SOL    HW217760   4.855   4.787   5.210
 5621SOL     OW17761   1.289   2.247   5.545
 5621SOL    HW117762   1.204   2.297   5.529
 5621SOL    HW217763   1.269   2.163   5.596
 5622SOL     OW17764   4.372   5.981   4.755
 5622SOL    HW117765   4.411   5.976   4.663
 5622SOL    HW217766   4.427   6.041   4.812
 5623SOL     OW17767   4.941   5.686   3.565
 5623SOL    HW117768   4.890   5.610   3.525
 5623SOL    HW217769   5.025   5.651   3.607
 5624SOL     OW17770   6.711   5.178   4.178
 5624SOL    HW117771   6.763   5.115   4.236
 5624SOL    HW217772   6.615   5.152   4.179
 5625SOL     OW17773   0.844   6.101   5.632
 5625SOL    HW117774   0.791   6.148   5.703
 5625SOL    HW217775   0.902   6.031   5.675
 5626SOL     OW17776   1.323   4.225   4.960
 5626SOL    HW117777   1.256   4.150   4.957
 5626SOL    HW217778   1.401   4.197   5.016
 5627SOL     OW17779   1.072   5.740   6.680
 5627SOL    HW117780   1.123   5.755   6.765
 5627SOL    HW217781   1.107   5.801   6.609
 5628SOL     OW17782   2.400   2.291   1.631
 5628SOL    HW117783   2.371   2.371   1.684
 5628SOL    HW217784   2.325   2.225   1.627
 5629SOL     OW17785   5.357   3.850   1.440
 5629SOL    HW117786   5.310   3.937   1.425
 5629SOL    HW217787   5.303   3.793   1.503
 5630SOL     OW17788   1.419   4.458   0.045
 5630SOL    HW117789   1.453   4.533   7.015
 5630SOL    HW217790   1.486   4.439   0.118
 5631SOL     OW17791   4.012   0.781   1.811
 5631SOL    HW117792   4.047   0.693   1.780
 5631SOL    HW217793   4.075   0.854   1.784
 5632SOL     OW17794   5.727   6.937   5.777
 5632SOL    HW117795   5.722   6.904   5.682
 5632SOL    HW217796   5.653   7.001   5.794
 5633SOL     OW17797   0.843   5.463   6.160
 5633SOL    HW117798   0.845   5.365   6.179
 5633SOL    HW217799   0.890   5.480   6.073
 5634SOL     OW17800   2.432   0.027   0.436
 5634SOL    HW117801   2.477   6.981   0.487
 5634SOL    HW217802   2.413   7.021   0.343
 5635SOL     OW17803   1.626   0.837   6.273
 5635SOL    HW117804   1.686   0.823   6.194
 5635SOL    HW217805   1.619   0.935   6.293
 5636SOL     OW17806   6.200   1.579   5.542
 5636SOL    HW117807   6.160   1.504   5.594
 5636SOL    HW217808   6.297   1.588   5.567
 5637SOL     OW17809   4.512   6.173   4.874
 5637SOL    HW117810   4.504   6.240   4.948
 5637SOL    HW217811   4.608   6.159   4.851
 5638SOL     OW17812   5.968   5.428   1.062
 5638SOL    HW117813   6.053   5.380   1.040
 5638SOL    HW217814   5.894   5.362   1.076
 5639SOL     OW17815   1.214   0.568   0.979
 5639SOL    HW117816   1.282   0.641   0.974
 5639SOL    HW217817   1.238   0.495   0.915
 5640SOL     OW17818   2.559   5.915   3.113
 5640SOL    HW117819   2.504   5.913   3.029
 5640SOL    HW217820   2.510   5.868   3.186
 5641SOL     OW17821   0.867   4.414   3.979
 5641SOL    HW117822   0.912   4.429   4.067
 5641SOL    HW217823   0.788   4.353   3.991
 5642SOL     OW17824   1.590   5.023   0.228
 5642SOL    HW117825   1.536   5.032   0.144
 5642SOL    HW217826   1.661   5.095   0.229
 5643SOL     OW17827   4.302   1.812   4.791
 5643SOL    HW117828   4.243   1.841   4.716
 5643SOL    HW217829   4.349   1.891   4.830
 5644SOL     OW17830   4.099   0.591   4.949
 5644SOL    HW117831   4.015   0.562   4.994
 5644SOL    HW217832   4.178   0.556   5.000
 5645SOL     OW17833   5.441   5.090   3.729
 5645SOL    HW117834   5.499   5.020   3.686
 5645SOL    HW217835   5.349   5.054   3.741
 5646SOL     OW17836   0.600   6.576   4.523
 5646SOL    HW117837   0.540   6.543   4.449
 5646SOL    HW217838   0.571   6.535   4.609
 5647SOL     OW17839   5.789   5.555   5.779
 5647SOL    HW117840   5.765   5.562   5.876
 5647SOL    HW217841   5.709   5.573   5.722
 5648SOL     OW17842   1.625   1.907   4.101
 5648SOL    HW117843   1.705   1.964   4.085
 5648SOL    HW217844   1.610   1.847   4.022
 5649SOL     OW17845   0.457   1.302   5.227
 5649SOL    HW117846   0.483   1.287   5.132
 5649SOL    HW217847   0.520   1.368   5.268
 5650SOL     OW17848   6.558   5.016   6.758
 5650SOL    HW117849   6.604   4.943   6.808
 5650SOL    HW217850   6.543   4.988   6.663
 5651SOL     OW17851   0.076   0.619   2.624
 5651SOL    HW117852   0.167   0.646   2.656
 5651SOL    HW217853   0.084   0.541   2.562
 5652SOL     OW17854   4.715   5.310   0.812
 5652SOL    HW117855   4.768   5.277   0.890
 5652SOL    HW217856   4.766   5.294   0.728
 5653SOL     OW17857   0.423   5.811   6.615
 5653SOL    HW117858   0.476   5.805   6.529
 5653SOL    HW217859   0.327   5.790   6.596
 5654SOL     OW17860   6.533   6.944   5.337
 5654SOL    HW117861   6.489   7.016   5.390
 5654SOL    HW217862   6.633   6.955   5.343
 5655SOL     OW17863   6.654   3.525   4.317
 5655SOL    HW117864   6.652   3.448   4.382
 5655SOL    HW217865   6.562   3.544   4.284
 5656SOL     OW17866   3.406   4.514   0.340
 5656SOL    HW117867   3.330   4.567   0.303
 5656SOL    HW217868   3.381   4.477   0.429
 5657SOL     OW17869   3.719   0.145   1.802
 5657SOL    HW117870   3.712   0.221   1.738
 5657SOL    HW217871   3.627   0.113   1.826
 5658SOL     OW17872   3.445   0.097   5.976
 5658SOL    HW117873   3.421   0.191   5.999
 5658SOL    HW217874   3.365   0.038   5.986
 5659SOL     OW17875   2.982   3.799   2.632
 5659SOL    HW117876   2.997   3.860   2.554
 5659SOL    HW217877   3.007   3.846   2.716
 5660SOL     OW17878   5.118   6.609   6.626
 5660SOL    HW117879   5.211   6.608   6.663
 5660SOL    HW217880   5.054   6.580   6.697
 5661SOL     OW17881   5.835   5.556   4.230
 5661SOL    HW117882   5.842   5.643   4.182
 5661SOL    HW217883   5.770   5.497   4.183
 5662SOL     OW17884   2.094   4.600   4.014
 5662SOL    HW117885   2.094   4.655   4.098
 5662SOL    HW217886   2.093   4.660   3.934
 5663SOL     OW17887   1.417   4.403   0.891
 5663SOL    HW117888   1.358   4.482   0.873
 5663SOL    HW217889   1.465   4.378   0.807
 5664SOL     OW17890   6.762   4.499   2.258
 5664SOL    HW117891   6.765   4.466   2.164
 5664SOL    HW217892   6.759   4.599   2.258
 5665SOL     OW17893   2.656   3.228   5.638
 5665SOL    HW117894   2.749   3.262   5.652
 5665SOL    HW217895   2.595   3.303   5.614
 5666SOL     OW17896   5.596   4.437   0.934
 5666SOL    HW117897   5.498   4.424   0.921
 5666SOL    HW217898   5.613   4.527   0.974
 5667SOL     OW17899   6.970   4.887   2.975
 5667SOL    HW117900   6.932   4.956   2.914
 5667SOL    HW217901   6.907   4.809   2.980
 5668SOL     OW17902   5.639   1.836   6.674
 5668SOL    HW117903   5.690   1.765   6.721
 5668SOL    HW217904   5.702   1.896   6.626
 5669SOL     OW17905   0.729   4.558   6.399
 5669SOL    HW117906   0.765   4.652   6.403
 5669SOL    HW217907   0.646   4.557   6.343
 5670SOL     OW17908   0.477   3.571   4.179
 5670SOL    HW117909   0.502   3.668   4.173
 5670SOL    HW217910   0.445   3.539   4.090
 5671SOL     OW17911   1.355   0.585   5.691
 5671SOL    HW117912   1.290   0.635   5.633
 5671SOL    HW217913   1.319   0.581   5.784
 5672SOL     OW17914   4.932   4.722   5.574
 5672SOL    HW117915   4.842   4.763   5.588
 5672SOL    HW217916   5.000   4.767   5.632
 5673SOL     OW17917   0.570   0.564   2.143
 5673SOL    HW117918   0.600   0.513   2.224
 5673SOL    HW217919   0.471   0.556   2.132
 5674SOL     OW17920   6.769   3.329   1.517
 5674SOL    HW117921   6.816   3.330   1.429
 5674SOL    HW217922   6.749   3.422   1.545
 5675SOL     OW17923   4.429   2.267   5.118
 5675SOL    HW117924   4.352   2.245   5.178
 5675SOL    HW217925   4.416   2.358   5.079
 5676SOL     OW17926   1.992   0.628   2.090
 5676SOL    HW117927   1.907   0.625   2.143
 5676SOL    HW217928   1.996   0.549   2.029
 5677SOL     OW17929   6.458   1.073   3.503
 5677SOL    HW117930   6.425   1.003   3.440
 5677SOL    HW217931   6.465   1.160   3.455
 5678SOL     OW17932   3.056   7.014   3.197
 5678SOL    HW117933   3.080   0.013   3.103
 5678SOL    HW217934   3.113   0.040   3.261
 5679SOL     OW17935   1.961   6.717   4.906
 5679SOL    HW117936   1.873   6.765   4.905
 5679SOL    HW217937   1.947   6.623   4.939
 5680SOL     OW17938   2.009   5.280   6.287
 5680SOL    HW117939   2.051   5.291   6.377
 5680SOL    HW217940   2.024   5.363   6.233
 5681SOL     OW17941   1.482   3.228   6.884
 5681SOL    HW117942   1.502   3.143   6.835
 5681SOL    HW217943   1.398   3.217   6.937
 5682SOL     OW17944   1.128   3.156   5.842
 5682SOL    HW117945   1.040   3.114   5.861
 5682SOL    HW217946   1.125   3.201   5.753
 5683SOL     OW17947   3.401   2.493   6.247
 5683SOL    HW117948   3.334   2.566   6.237
 5683SOL    HW217949   3.427   2.459   6.157
 5684SOL     OW17950   3.768   4.017   3.846
 5684SOL    HW117951   3.782   4.033   3.749
 5684SOL    HW217952   3.675   3.981   3.860
 5685SOL     OW17953   6.945   4.907   2.183
 5685SOL    HW117954   6.947   4.956   2.096
 5685SOL    HW217955   7.000   4.824   2.175
 5686SOL     OW17956   3.542   0.168   0.678
 5686SOL    HW117957   3.627   0.168   0.626
 5686SOL    HW217958   3.472   0.115   0.630
 5687SOL     OW17959   5.383   5.312   5.517
 5687SOL    HW117960   5.370   5.214   5.531
 5687SOL    HW217961   5.470   5.327   5.469
 5688SOL     OW17962   5.822   1.948   1.332
 5688SOL    HW117963   5.864   2.030   1.370
 5688SOL    HW217964   5.752   1.975   1.266
 5689SOL     OW17965   3.979   1.897   0.790
 5689SOL    HW117966   3.922   1.969   0.751
 5689SOL    HW217967   3.921   1.834   0.843
 5690SOL     OW17968   4.177   5.797   1.319
 5690SOL    HW117969   4.276   5.812   1.312
 5690SOL    HW217970   4.140   5.852   1.394
 5691SOL     OW17971   1.994   0.152   1.742
 5691SOL    HW117972   1.963   0.128   1.650
 5691SOL    HW217973   2.093   0.166   1.742
 5692SOL     OW17974   6.725   3.176   6.266
 5692SOL    HW117975   6.738   3.122   6.349
 5692SOL    HW217976   6.723   3.273   6.290
 5693SOL     OW17977   4.415   2.430   2.830
 5693SOL    HW117978   4.332   2.397   2.876
 5693SOL    HW217979   4.487   2.443   2.898
 5694SOL     OW17980   0.411   0.779   3.391
 5694SOL    HW117981   0.348   0.795   3.315
 5694SOL    HW217982   0.394   0.845   3.463
 5695SOL     OW17983   1.669   3.424   3.433
 5695SOL    HW117984   1.738   3.486   3.471
 5695SOL    HW217985   1.587   3.477   3.409
 5696SOL     OW17986   2.832   0.748   5.030
 5696SOL    HW117987   2.880   0.695   4.960
 5696SOL    HW217988   2.878   0.736   5.118
 5697SOL     OW17989   6.681   2.843   0.187
 5697SOL    HW117990   6.747   2.907   0.148
 5697SOL    HW217991   6.728   2.783   0.252
 5698SOL     OW17992   0.502   3.773   2.003
 5698SOL    HW117993   0.424   3.819   2.045
 5698SOL    HW217994   0.470   3.697   1.947
 5699SOL     OW17995   5.762   0.831   4.812
 5699SOL    HW117996   5.735   0.791   4.900
 5699SOL    HW217997   5.849   0.879   4.823
 5700SOL     OW17998   1.692   6.075   5.147
 5700SOL    HW117999   1.743   6.025   5.216
 5700SOL    HW218000   1.643   6.011   5.088
 5701SOL     OW18001   6.626   5.610   2.315
 5701SOL    HW118002   6.528   5.619   2.298
 5701SOL    HW218003   6.675   5.683   2.268
 5702SOL     OW18004   2.300   6.555   6.425
 5702SOL    HW118005   2.346   6.549   6.514
 5702SOL    HW218006   2.276   6.463   6.395
 5703SOL     OW18007   4.226   4.855   0.323
 5703SOL    HW118008   4.235   4.804   0.237
 5703SOL    HW218009   4.136   4.838   0.363
 5704SOL     OW18010   4.727   5.164   3.665
 5704SOL    HW118011   4.738   5.184   3.763
 5704SOL    HW218012   4.661   5.228   3.626
 5705SOL     OW18013   6.114   0.150   1.309
 5705SOL    HW118014   6.066   0.063   1.323
 5705SOL    HW218015   6.047   0.222   1.293
 5706SOL     OW18016   1.350   1.557   6.799
 5706SOL    HW118017   1.307   1.511   6.721
 5706SOL    HW218018   1.326   1.509   6.883
 5707SOL     OW18019   1.877   1.310   6.241
 5707SOL    HW118020   1.821   1.378   6.288
 5707SOL    HW218021   1.944   1.272   6.305
 5708SOL     OW18022   5.057   6.823   2.751
 5708SOL    HW118023   4.961   6.835   2.726
 5708SOL    HW218024   5.067   6.826   2.851
 5709SOL     OW18025   0.569   6.377   3.085
 5709SOL    HW118026   0.659   6.372   3.128
 5709SOL    HW218027   0.532   6.284   3.073
 5710SOL     OW18028   2.978   3.180   5.868
 5710SOL    HW118029   3.006   3.275   5.883
 5710SOL    HW218030   3.050   3.119   5.900
 5711SOL     OW18031   4.736   1.346   4.036
 5711SOL    HW118032   4.654   1.403   4.047
 5711SOL    HW218033   4.715   1.271   3.973
 5712SOL     OW18034   0.223   6.324   5.713
 5712SOL    HW118035   0.162   6.373   5.776
 5712SOL    HW218036   0.207   6.355   5.620
 5713SOL     OW18037   0.002   2.759   2.508
 5713SOL    HW118038   0.081   2.716   2.464
 5713SOL    HW218039   0.016   2.763   2.607
 5714SOL     OW18040   1.081   0.750   5.628
 5714SOL    HW118041   1.062   0.693   5.708
 5714SOL    HW218042   1.052   0.701   5.546
 5715SOL     OW18043   1.494   6.491   2.415
 5715SOL    HW118044   1.560   6.522   2.484
 5715SOL    HW218045   1.506   6.545   2.332
 5716SOL     OW18046   1.610   3.952   6.079
 5716SOL    HW118047   1.552   3.943   5.998
 5716SOL    HW218048   1.686   3.888   6.073
 5717SOL     OW18049   1.036   4.201   0.989
 5717SOL    HW118050   1.096   4.120   0.996
 5717SOL    HW218051   1.062   4.254   0.908
 5718SOL     OW18052   2.917   4.697   6.618
 5718SOL    HW118053   2.873   4.611   6.592
 5718SOL    HW218054   2.935   4.751   6.536
 5719SOL     OW18055   3.428   0.290   6.630
 5719SOL    HW118056   3.386   0.308   6.541
 5719SOL    HW218057   3.516   0.244   6.617
 5720SOL     OW18058   1.355   5.568   5.237
 5720SOL    HW118059   1.305   5.512   5.303
 5720SOL    HW218060   1.425   5.621   5.284
 5721SOL     OW18061   0.416   3.210   1.420
 5721SOL    HW118062   0.317   3.203   1.421
 5721SOL    HW218063   0.455   3.147   1.488
 5722SOL     OW18064   5.351   0.005   4.925
 5722SOL    HW118065   5.320   7.022   5.019
 5722SOL    HW218066   5.446   0.035   4.924
 5723SOL     OW18067   3.860   5.729   0.575
 5723SOL    HW118068   3.871   5.672   0.493
 5723SOL    HW218069   3.790   5.799   0.558
 5724SOL     OW18070   5.535   1.961   6.267
 5724SOL    HW118071   5.610   2.024   6.286
 5724SOL    HW218072   5.571   1.869   6.251
 5725SOL     OW18073   5.550   5.123   4.806
 5725SOL    HW118074   5.610   5.043   4.802
 5725SOL    HW218075   5.573   5.185   4.730
 5726SOL     OW18076   5.887   3.859   5.706
 5726SOL    HW118077   5.875   3.868   5.804
 5726SOL    HW218078   5.835   3.929   5.658
 5727SOL     OW18079   5.671   1.891   3.490
 5727SOL    HW118080   5.578   1.856   3.500
 5727SOL    HW218081   5.685   1.925   3.397
 5728SOL     OW18082   5.982   0.761   5.007
 5728SOL    HW118083   6.053   0.692   5.023
 5728SOL    HW218084   5.892   0.718   5.014
 5729SOL     OW18085   0.094   1.161   6.341
 5729SOL    HW118086   0.073   1.144   6.437
 5729SOL    HW218087   0.157   1.238   6.334
 5730SOL     OW18088   4.001   5.292   5.816
 5730SOL    HW118089   4.033   5.300   5.722
 5730SOL    HW218090   4.047   5.215   5.860
 5731SOL     OW18091   2.960   1.008   4.219
 5731SOL    HW118092   2.992   0.958   4.139
 5731SOL    HW218093   2.903   0.948   4.276
 5732SOL     OW18094   6.255   4.977   5.149
 5732SOL    HW118095   6.187   4.968   5.221
 5732SOL    HW218096   6.239   5.061   5.097
 5733SOL     OW18097   3.576   0.662   6.734
 5733SOL    HW118098   3.606   0.728   6.803
 5733SOL    HW218099   3.612   0.572   6.756
 5734SOL     OW18100   1.556   6.941   5.747
 5734SOL    HW118101   1.585   6.905   5.836
 5734SOL    HW218102   1.594   0.007   5.735
 5735SOL     OW18103   4.323   0.607   2.089
 5735SOL    HW118104   4.293   0.661   2.167
 5735SOL    HW218105   4.421   0.619   2.075
 5736SOL     OW18106   4.566   4.277   6.908
 5736SOL    HW118107   4.532   4.365   6.877
 5736SOL    HW218108   4.658   4.287   6.946
 5737SOL     OW18109   4.892   5.361   1.522
 5737SOL    HW118110   4.980   5.403   1.499
 5737SOL    HW218111   4.854   5.317   1.441
 5738SOL     OW18112   3.534   1.212   6.506
 5738SOL    HW118113   3.612   1.150   6.512
 5738SOL    HW218114   3.517   1.234   6.410
 5739SOL     OW18115   2.739   0.821   6.032
 5739SOL    HW118116   2.708   0.879   5.956
 5739SOL    HW218117   2.660   0.778   6.075
 5740SOL     OW18118   5.490   3.507   0.917
 5740SOL    HW118119   5.436   3.489   0.835
 5740SOL    HW218120   5.432   3.498   0.998
 5741SOL     OW18121   0.679   3.416   4.249
 5741SOL    HW118122   0.604   3.476   4.221
 5741SOL    HW218123   0.653   3.366   4.332
 5742SOL     OW18124   4.410   0.254   3.360
 5742SOL    HW118125   4.392   0.158   3.381
 5742SOL    HW218126   4.362   0.313   3.425
 5743SOL     OW18127   3.384   4.022   5.417
 5743SOL    HW118128   3.479   4.053   5.417
 5743SOL    HW218129   3.336   4.061   5.339
 5744SOL     OW18130   5.779   6.551   2.977
 5744SOL    HW118131   5.816   6.482   3.040
 5744SOL    HW218132   5.750   6.631   3.029
 5745SOL     OW18133   2.301   2.561   3.715
 5745SOL    HW118134   2.236   2.570   3.640
 5745SOL    HW218135   2.333   2.651   3.743
 5746SOL     OW18136   4.309   0.413   3.560
 5746SOL    HW118137   4.284   0.490   3.500
 5746SOL    HW218138   4.236   0.396   3.625
 5747SOL     OW18139   1.193   5.752   1.757
 5747SOL    HW118140   1.177   5.659   1.789
 5747SOL    HW218141   1.158   5.817   1.825
 5748SOL     OW18142   0.343   6.134   0.784
 5748SOL    HW118143   0.380   6.147   0.876
 5748SOL    HW218144   0.251   6.095   0.789
 5749SOL     OW18145   1.543   6.499   4.977
 5749SOL    HW118146   1.521   6.484   5.073
 5749SOL    HW218147   1.585   6.416   4.939
 5750SOL     OW18148   0.046   4.149   4.376
 5750SOL    HW118149   0.021   4.056   4.350
 5750SOL    HW218150   7.022   4.176   4.458
 5751SOL     OW18151   2.088   3.693   4.458
 5751SOL    HW118152   2.112   3.609   4.505
 5751SOL    HW218153   2.081   3.768   4.524
 5752SOL     OW18154   5.792   0.379   0.512
 5752SOL    HW118155   5.700   0.412   0.532
 5752SOL    HW218156   5.834   0.344   0.595
 5753SOL     OW18157   3.159   4.098   4.892
 5753SOL    HW118158   3.078   4.042   4.873
 5753SOL    HW218159   3.135   4.195   4.884
 5754SOL     OW18160   1.164   6.074   1.764
 5754SOL    HW118161   1.115   6.087   1.850
 5754SOL    HW218162   1.128   5.994   1.717
 5755SOL     OW18163   2.315   2.318   0.048
 5755SOL    HW118164   2.347   2.269   6.993
 5755SOL    HW218165   2.279   2.253   0.115
 5756SOL     OW18166   5.852   6.304   1.846
 5756SOL    HW118167   5.873   6.276   1.753
 5756SOL    HW218168   5.935   6.340   1.889
 5757SOL     OW18169   6.923   6.562   3.749
 5757SOL    HW118170   6.912   6.631   3.678
 5757SOL    HW218171   6.852   6.492   3.739
 5758SOL     OW18172   1.404   6.352   3.259
 5758SOL    HW118173   1.458   6.278   3.298
 5758SOL    HW218174   1.415   6.352   3.159
 5759SOL     OW18175   4.292   6.917   2.125
 5759SOL    HW118176   4.260   6.828   2.093
 5759SOL    HW218177   4.306   6.914   2.224
 5760SOL     OW18178   6.538   3.064   2.211
 5760SOL    HW118179   6.466   3.133   2.216
 5760SOL    HW218180   6.588   3.075   2.125
 5761SOL     OW18181   5.404   5.694   4.707
 5761SOL    HW118182   5.388   5.660   4.614
 5761SOL    HW218183   5.469   5.634   4.754
 5762SOL     OW18184   5.744   4.232   6.696
 5762SOL    HW118185   5.740   4.192   6.788
 5762SOL    HW218186   5.814   4.184   6.643
 5763SOL     OW18187   5.313   0.476   0.529
 5763SOL    HW118188   5.343   0.492   0.623
 5763SOL    HW218189   5.376   0.413   0.484
 5764SOL     OW18190   4.292   5.223   3.624
 5764SOL    HW118191   4.367   5.289   3.609
 5764SOL    HW218192   4.260   5.188   3.536
 5765SOL     OW18193   6.220   5.271   1.062
 5765SOL    HW118194   6.260   5.180   1.075
 5765SOL    HW218195   6.244   5.330   1.139
 5766SOL     OW18196   1.024   1.608   4.616
 5766SOL    HW118197   0.949   1.638   4.557
 5766SOL    HW218198   1.033   1.509   4.612
 5767SOL     OW18199   1.920   0.815   0.300
 5767SOL    HW118200   1.900   0.718   0.285
 5767SOL    HW218201   1.909   0.836   0.397
 5768SOL     OW18202   6.542   6.400   4.084
 5768SOL    HW118203   6.579   6.311   4.058
 5768SOL    HW218204   6.442   6.398   4.075
 5769SOL     OW18205   1.781   5.181   6.675
 5769SOL    HW118206   1.748   5.174   6.580
 5769SOL    HW218207   1.762   5.095   6.723
 5770SOL     OW18208   0.688   5.948   0.944
 5770SOL    HW118209   0.704   5.909   1.035
 5770SOL    HW218210   0.641   6.036   0.952
 5771SOL     OW18211   1.966   5.518   3.761
 5771SOL    HW118212   2.010   5.599   3.797
 5771SOL    HW218213   1.908   5.477   3.831
 5772SOL     OW18214   4.298   0.267   1.909
 5772SOL    HW118215   4.238   0.319   1.970
 5772SOL    HW218216   4.362   0.214   1.964
 5773SOL     OW18217   4.231   1.977   1.889
 5773SOL    HW118218   4.137   1.986   1.857
 5773SOL    HW218219   4.287   2.049   1.847
 5774SOL     OW18220   1.149   6.441   3.810
 5774SOL    HW118221   1.230   6.498   3.793
 5774SOL    HW218222   1.137   6.378   3.734
 5775SOL     OW18223   0.986   5.628   3.044
 5775SOL    HW118224   0.932   5.684   3.106
 5775SOL    HW218225   1.065   5.681   3.011
 5776SOL     OW18226   2.097   0.158   3.326
 5776SOL    HW118227   2.176   0.179   3.269
 5776SOL    HW218228   2.128   0.135   3.419
 5777SOL     OW18229   1.695   0.376   3.238
 5777SOL    HW118230   1.598   0.363   3.220
 5777SOL    HW218231   1.732   0.293   3.281
 5778SOL     OW18232   0.853   1.739   6.701
 5778SOL    HW118233   0.894   1.739   6.792
 5778SOL    HW218234   0.849   1.645   6.667
 5779SOL     OW18235   4.567   2.447   6.741
 5779SOL    HW118236   4.477   2.437   6.698
 5779SOL    HW218237   4.638   2.420   6.676
 5780SOL     OW18238   5.253   5.148   4.125
 5780SOL    HW118239   5.184   5.138   4.197
 5780SOL    HW218240   5.344   5.141   4.166
 5781SOL     OW18241   6.951   4.438   5.104
 5781SOL    HW118242   6.919   4.364   5.164
 5781SOL    HW218243   6.954   4.524   5.156
 5782SOL     OW18244   1.049   1.636   0.149
 5782SOL    HW118245   1.105   1.559   0.120
 5782SOL    HW218246   1.107   1.705   0.191
 5783SOL     OW18247   1.603   1.683   1.800
 5783SOL    HW118248   1.660   1.628   1.739
 5783SOL    HW218249   1.657   1.712   1.879
 5784SOL     OW18250   0.340   6.269   6.913
 5784SOL    HW118251   0.243   6.269   6.889
 5784SOL    HW218252   0.395   6.263   6.830
 5785SOL     OW18253   2.794   1.811   0.765
 5785SOL    HW118254   2.803   1.797   0.667
 5785SOL    HW218255   2.835   1.899   0.790
 5786SOL     OW18256   0.108   4.186   6.763
 5786SOL    HW118257   0.010   4.206   6.773
 5786SOL    HW218258   0.146   4.157   6.851
 5787SOL     OW18259   1.947   2.141   5.414
 5787SOL    HW118260   1.952   2.190   5.501
 5787SOL    HW218261   1.988   2.196   5.341
 5788SOL     OW18262   2.327   1.298   2.707
 5788SOL    HW118263   2.326   1.299   2.607
 5788SOL    HW218264   2.318   1.204   2.740
 5789SOL     OW18265   3.206   5.578   6.873
 5789SOL    HW118266   3.183   5.484   6.898
 5789SOL    HW218267   3.182   5.593   6.776
 5790SOL     OW18268   0.258   3.264   4.610
 5790SOL    HW118269   0.265   3.334   4.681
 5790SOL    HW218270   0.215   3.303   4.529
 5791SOL     OW18271   3.086   0.404   2.756
 5791SOL    HW118272   3.021   0.349   2.705
 5791SOL    HW218273   3.067   0.501   2.741
 5792SOL     OW18274   0.111   2.196   3.165
 5792SOL    HW118275   0.106   2.139   3.247
 5792SOL    HW218276   0.026   2.249   3.156
 5793SOL     OW18277   6.883   0.902   3.732
 5793SOL    HW118278   6.844   0.876   3.821
 5793SOL    HW218279   6.869   1.000   3.717
 5794SOL     OW18280   3.733   2.625   0.092
 5794SOL    HW118281   3.684   2.696   0.041
 5794SOL    HW218282   3.674   2.590   0.166
 5795SOL     OW18283   6.177   5.202   5.488
 5795SOL    HW118284   6.229   5.200   5.573
 5795SOL    HW218285   6.116   5.282   5.488
 5796SOL     OW18286   3.396   0.676   0.307
 5796SOL    HW118287   3.349   0.592   0.281
 5796SOL    HW218288   3.483   0.684   0.259
 5797SOL     OW18289   3.699   1.910   5.372
 5797SOL    HW118290   3.693   1.824   5.323
 5797SOL    HW218291   3.788   1.953   5.355
 5798SOL     OW18292   0.699   4.185   5.264
 5798SOL    HW118293   0.707   4.215   5.169
 5798SOL    HW218294   0.709   4.263   5.326
 5799SOL     OW18295   5.651   0.531   3.582
 5799SOL    HW118296   5.587   0.471   3.630
 5799SOL    HW218297   5.636   0.522   3.483
 5800SOL     OW18298   5.600   5.820   0.980
 5800SOL    HW118299   5.694   5.855   0.979
 5800SOL    HW218300   5.597   5.733   0.930
 5801SOL     OW18301   0.821   2.090   4.076
 5801SOL    HW118302   0.784   2.043   3.996
 5801SOL    HW218303   0.872   2.025   4.133
 5802SOL     OW18304   0.577   4.244   6.490
 5802SOL    HW118305   0.501   4.262   6.554
 5802SOL    HW218306   0.628   4.329   6.475
 5803SOL     OW18307   1.714   5.070   1.771
 5803SOL    HW118308   1.713   5.001   1.843
 5803SOL    HW218309   1.737   5.026   1.684
 5804SOL     OW18310   6.300   4.082   3.938
 5804SOL    HW118311   6.394   4.115   3.948
 5804SOL    HW218312   6.238   4.144   3.987
 5805SOL     OW18313   3.815   4.284   6.581
 5805SOL    HW118314   3.742   4.340   6.540
 5805SOL    HW218315   3.775   4.218   6.645
 5806SOL     OW18316   0.874   6.929   0.146
 5806SOL    HW118317   0.834   6.883   0.067
 5806SOL    HW218318   0.870   0.002   0.132
 5807SOL     OW18319   1.143   3.979   1.776
 5807SOL    HW118320   1.151   3.888   1.815
 5807SOL    HW218321   1.232   4.009   1.742
 5808SOL     OW18322   5.542   3.660   2.612
 5808SOL    HW118323   5.615   3.696   2.555
 5808SOL    HW218324   5.534   3.561   2.597
 5809SOL     OW18325   6.383   2.695   4.136
 5809SOL    HW118326   6.429   2.783   4.122
 5809SOL    HW218327   6.345   2.691   4.228
 5810SOL     OW18328   3.308   1.193   4.241
 5810SOL    HW118329   3.300   1.099   4.275
 5810SOL    HW218330   3.381   1.198   4.173
 5811SOL     OW18331   3.181   0.160   4.867
 5811SOL    HW118332   3.143   0.147   4.959
 5811SOL    HW218333   3.221   0.252   4.860
 5812SOL     OW18334   5.118   0.062   4.479
 5812SOL    HW118335   5.156   0.108   4.559
 5812SOL    HW218336   5.169   0.089   4.397
 5813SOL     OW18337   1.116   0.964   5.928
 5813SOL    HW118338   1.104   1.060   5.902
 5813SOL    HW218339   1.210   0.937   5.912
 5814SOL     OW18340   6.405   4.094   0.235
 5814SOL    HW118341   6.435   4.160   0.305
 5814SOL    HW218342   6.483   4.070   0.177
 5815SOL     OW18343   4.570   2.221   3.322
 5815SOL    HW118344   4.651   2.276   3.304
 5815SOL    HW218345   4.535   2.242   3.414
 5816SOL     OW18346   5.968   6.781   0.381
 5816SOL    HW118347   5.914   6.720   0.440
 5816SOL    HW218348   5.909   6.854   0.346
 5817SOL     OW18349   5.799   2.835   5.616
 5817SOL    HW118350   5.712   2.786   5.620
 5817SOL    HW218351   5.783   2.933   5.605
 5818SOL     OW18352   6.517   5.761   4.653
 5818SOL    HW118353   6.492   5.723   4.742
 5818SOL    HW218354   6.479   5.704   4.581
 5819SOL     OW18355   4.358   0.287   0.973
 5819SOL    HW118356   4.455   0.291   0.947
 5819SOL    HW218357   4.303   0.331   0.903
 5820SOL     OW18358   5.000   0.049   3.621
 5820SOL    HW118359   4.963   0.106   3.695
 5820SOL    HW218360   5.071   0.099   3.572
 5821SOL     OW18361   2.269   0.721   1.780
 5821SOL    HW118362   2.201   0.690   1.712
 5821SOL    HW218363   2.242   0.810   1.815
 5822SOL     OW18364   0.683   2.539   2.031
 5822SOL    HW118365   0.660   2.578   1.942
 5822SOL    HW218366   0.600   2.508   2.077
 5823SOL     OW18367   0.674   0.891   5.332
 5823SOL    HW118368   0.722   0.942   5.261
 5823SOL    HW218369   0.595   0.844   5.292
 5824SOL     OW18370   6.753   6.615   2.876
 5824SOL    HW118371   6.737   6.714   2.879
 5824SOL    HW218372   6.755   6.579   2.970
 5825SOL     OW18373   1.931   1.952   5.875
 5825SOL    HW118374   2.028   1.975   5.880
 5825SOL    HW218375   1.879   2.035   5.855
 5826SOL     OW18376   6.747   6.002   5.588
 5826SOL    HW118377   6.709   6.006   5.681
 5826SOL    HW218378   6.728   6.087   5.540
 5827SOL     OW18379   1.026   5.637   4.926
 5827SOL    HW118380   0.978   5.593   5.002
 5827SOL    HW218381   1.061   5.726   4.955
 5828SOL     OW18382   0.390   3.607   1.802
 5828SOL    HW118383   0.472   3.640   1.755
 5828SOL    HW218384   0.309   3.628   1.748
 5829SOL     OW18385   2.854   1.351   2.573
 5829SOL    HW118386   2.941   1.319   2.535
 5829SOL    HW218387   2.853   1.337   2.672
 5830SOL     OW18388   3.732   0.475   6.002
 5830SOL    HW118389   3.647   0.496   5.955
 5830SOL    HW218390   3.727   0.383   6.042
 5831SOL     OW18391   6.000   6.569   3.833
 5831SOL    HW118392   5.938   6.637   3.872
 5831SOL    HW218393   5.991   6.483   3.883
 5832SOL     OW18394   4.244   3.620   5.263
 5832SOL    HW118395   4.302   3.702   5.264
 5832SOL    HW218396   4.203   3.610   5.172
 5833SOL     OW18397   3.215   3.418   4.242
 5833SOL    HW118398   3.242   3.444   4.150
 5833SOL    HW218399   3.140   3.476   4.273
 5834SOL     OW18400   5.982   1.698   0.636
 5834SOL    HW118401   5.973   1.786   0.590
 5834SOL    HW218402   6.001   1.712   0.733
 5835SOL     OW18403   5.317   2.721   3.181
 5835SOL    HW118404   5.253   2.760   3.115
 5835SOL    HW218405   5.323   2.782   3.260
 5836SOL     OW18406   2.751   5.696   3.081
 5836SOL    HW118407   2.704   5.784   3.068
 5836SOL    HW218408   2.809   5.700   3.162
 5837SOL     OW18409   4.382   4.469   6.777
 5837SOL    HW118410   4.314   4.542   6.781
 5837SOL    HW218411   4.352   4.399   6.712
 5838SOL     OW18412   1.806   1.845   6.134
 5838SOL    HW118413   1.838   1.856   6.040
 5838SOL    HW218414   1.825   1.928   6.186
 5839SOL     OW18415   0.250   2.603   2.448
 5839SOL    HW118416   0.303   2.684   2.423
 5839SOL    HW218417   0.313   2.527   2.466
 5840SOL     OW18418   1.299   5.567   0.127
 5840SOL    HW118419   1.362   5.636   0.094
 5840SOL    HW218420   1.284   5.579   0.225
 5841SOL     OW18421   5.838   3.160   2.146
 5841SOL    HW118422   5.778   3.162   2.226
 5841SOL    HW218423   5.921   3.107   2.167
 5842SOL     OW18424   3.711   2.948   0.663
 5842SOL    HW118425   3.620   2.986   0.651
 5842SOL    HW218426   3.751   2.985   0.748
 5843SOL     OW18427   2.145   3.827   2.349
 5843SOL    HW118428   2.087   3.808   2.428
 5843SOL    HW218429   2.174   3.741   2.307
 5844SOL     OW18430   0.215   6.727   5.942
 5844SOL    HW118431   0.133   6.781   5.960
 5844SOL    HW218432   0.295   6.787   5.937
 5845SOL     OW18433   0.926   1.128   3.085
 5845SOL    HW118434   1.023   1.105   3.097
 5845SOL    HW218435   0.872   1.082   3.155
 5846SOL     OW18436   6.823   2.819   5.012
 5846SOL    HW118437   6.750   2.760   4.976
 5846SOL    HW218438   6.866   2.868   4.936
 5847SOL     OW18439   1.947   1.790   2.340
 5847SOL    HW118440   1.848   1.797   2.352
 5847SOL    HW218441   1.987   1.752   2.423
 5848SOL     OW18442   2.510   4.824   3.731
 5848SOL    HW118443   2.479   4.821   3.636
 5848SOL    HW218444   2.453   4.887   3.784
 5849SOL     OW18445   0.579   0.545   5.815
 5849SOL    HW118446   0.607   0.619   5.754
 5849SOL    HW218447   0.487   0.563   5.849
 5850SOL     OW18448   0.776   3.567   2.042
 5850SOL    HW118449   0.706   3.629   2.075
 5850SOL    HW218450   0.758   3.545   1.946
 5851SOL     OW18451   5.534   3.353   2.585
 5851SOL    HW118452   5.483   3.275   2.622
 5851SOL    HW218453   5.623   3.359   2.631
 5852SOL     OW18454   4.148   6.333   2.755
 5852SOL    HW118455   4.153   6.419   2.805
 5852SOL    HW218456   4.201   6.340   2.670
 5853SOL     OW18457   2.852   5.697   6.117
 5853SOL    HW118458   2.922   5.626   6.111
 5853SOL    HW218459   2.800   5.701   6.032
 5854SOL     OW18460   6.598   3.310   5.688
 5854SOL    HW118461   6.565   3.384   5.747
 5854SOL    HW218462   6.529   3.288   5.620
 5855SOL     OW18463   1.211   0.877   4.642
 5855SOL    HW118464   1.202   0.827   4.729
 5855SOL    HW218465   1.120   0.898   4.606
 5856SOL     OW18466   2.044   5.449   3.288
 5856SOL    HW118467   2.023   5.533   3.339
 5856SOL    HW218468   1.976   5.436   3.216
 5857SOL     OW18469   6.093   2.697   4.904
 5857SOL    HW118470   6.041   2.683   4.989
 5857SOL    HW218471   6.156   2.773   4.916
 5858SOL     OW18472   2.636   1.997   1.788
 5858SOL    HW118473   2.630   2.096   1.774
 5858SOL    HW218474   2.611   1.975   1.883
 5859SOL     OW18475   5.756   6.271   0.906
 5859SOL    HW118476   5.656   6.278   0.908
 5859SOL    HW218477   5.791   6.308   0.821
 5860SOL     OW18478   2.105   4.301   1.922
 5860SOL    HW118479   2.119   4.396   1.892
 5860SOL    HW218480   2.194   4.256   1.933
 5861SOL     OW18481   5.175   1.536   3.810
 5861SOL    HW118482   5.240   1.491   3.871
 5861SOL    HW218483   5.224   1.599   3.750
 5862SOL     OW18484   4.116   5.382   3.095
 5862SOL    HW118485   4.110   5.380   2.995
 5862SOL    HW218486   4.097   5.474   3.128
 5863SOL     OW18487   2.422   0.720   5.518
 5863SOL    HW118488   2.511   0.705   5.559
 5863SOL    HW218489   2.372   0.634   5.512
 5864SOL     OW18490   4.160   3.828   1.743
 5864SOL    HW118491   4.151   3.734   1.775
 5864SOL    HW218492   4.251   3.863   1.768
 5865SOL     OW18493   5.591   0.725   4.042
 5865SOL    HW118494   5.520   0.675   4.091
 5865SOL    HW218495   5.553   0.810   4.005
 5866SOL     OW18496   4.243   6.211   6.719
 5866SOL    HW118497   4.267   6.138   6.656
 5866SOL    HW218498   4.148   6.200   6.748
 5867SOL     OW18499   0.323   2.749   0.595
 5867SOL    HW118500   0.283   2.698   0.671
 5867SOL    HW218501   0.275   2.724   0.510
 5868SOL     OW18502   0.278   0.350   5.194
 5868SOL    HW118503   0.282   0.449   5.210
 5868SOL    HW218504   0.211   0.310   5.256
 5869SOL     OW18505   2.295   4.963   3.813
 5869SOL    HW118506   2.280   4.981   3.716
 5869SOL    HW218507   2.252   4.877   3.839
 5870SOL     OW18508   4.981   5.241   4.789
 5870SOL    HW118509   4.995   5.158   4.843
 5870SOL    HW218510   5.070   5.276   4.758
 5871SOL     OW18511   3.869   4.234   0.021
 5871SOL    HW118512   3.955   4.277   0.048
 5871SOL    HW218513   3.793   4.291   0.050
 5872SOL     OW18514   4.306   5.648   0.004
 5872SOL    HW118515   4.328   5.735   6.987
 5872SOL    HW218516   4.207   5.640   0.015
 5873SOL     OW18517   2.289   2.890   0.327
 5873SOL    HW118518   2.215   2.892   0.260
 5873SOL    HW218519   2.265   2.949   0.404
 5874SOL     OW18520   2.631   3.123   1.258
 5874SOL    HW118521   2.590   3.206   1.297
 5874SOL    HW218522   2.559   3.058   1.234
 5875SOL     OW18523   3.679   1.283   0.269
 5875SOL    HW118524   3.599   1.321   0.222
 5875SOL    HW218525   3.654   1.196   0.312
 5876SOL     OW18526   3.262   3.281   6.653
 5876SOL    HW118527   3.184   3.335   6.624
 5876SOL    HW218528   3.232   3.187   6.673
 5877SOL     OW18529   6.244   6.467   1.446
 5877SOL    HW118530   6.334   6.432   1.471
 5877SOL    HW218531   6.233   6.560   1.482
 5878SOL     OW18532   5.302   5.851   2.757
 5878SOL    HW118533   5.220   5.908   2.750
 5878SOL    HW218534   5.282   5.772   2.815
 5879SOL     OW18535   3.811   3.188   6.140
 5879SOL    HW118536   3.831   3.285   6.154
 5879SOL    HW218537   3.848   3.158   6.052
 5880SOL     OW18538   4.847   3.520   5.518
 5880SOL    HW118539   4.800   3.609   5.512
 5880SOL    HW218540   4.863   3.486   5.425
 5881SOL     OW18541   1.263   6.465   2.551
 5881SOL    HW118542   1.195   6.419   2.493
 5881SOL    HW218543   1.349   6.473   2.500
 5882SOL     OW18544   1.070   6.580   5.733
 5882SOL    HW118545   1.039   6.667   5.770
 5882SOL    HW218546   1.145   6.595   5.668
 5883SOL     OW18547   0.050   3.073   0.887
 5883SOL    HW118548   0.114   3.120   0.826
 5883SOL    HW218549   0.086   2.982   0.909
 5884SOL     OW18550   6.376   1.268   3.710
 5884SOL    HW118551   6.294   1.296   3.759
 5884SOL    HW218552   6.354   1.249   3.614
 5885SOL     OW18553   0.376   5.560   0.746
 5885SOL    HW118554   0.406   5.594   0.657
 5885SOL    HW218555   0.420   5.613   0.819
 5886SOL     OW18556   1.383   3.055   3.088
 5886SOL    HW118557   1.429   3.082   3.173
 5886SOL    HW218558   1.284   3.064   3.100
 5887SOL     OW18559   2.358   1.800   1.455
 5887SOL    HW118560   2.282   1.745   1.418
 5887SOL    HW218561   2.352   1.893   1.419
 5888SOL     OW18562   2.737   0.114   0.771
 5888SOL    HW118563   2.819   0.121   0.827
 5888SOL    HW218564   2.713   0.204   0.735
 5889SOL     OW18565   6.988   1.523   1.221
 5889SOL    HW118566   6.995   1.427   1.194
 5889SOL    HW218567   6.964   1.529   1.318
 5890SOL     OW18568   2.487   6.342   2.411
 5890SOL    HW118569   2.519   6.437   2.415
 5890SOL    HW218570   2.486   6.304   2.504
 5891SOL     OW18571   3.074   3.379   0.543
 5891SOL    HW118572   3.062   3.313   0.469
 5891SOL    HW218573   3.015   3.353   0.620
 5892SOL     OW18574   0.356   3.899   0.685
 5892SOL    HW118575   0.337   3.802   0.679
 5892SOL    HW218576   0.453   3.913   0.701
 5893SOL     OW18577   1.114   5.480   1.810
 5893SOL    HW118578   1.041   5.457   1.745
 5893SOL    HW218579   1.167   5.398   1.830
 5894SOL     OW18580   0.868   5.770   5.921
 5894SOL    HW118581   0.908   5.804   5.835
 5894SOL    HW218582   0.909   5.682   5.944
 5895SOL     OW18583   6.145   3.057   5.010
 5895SOL    HW118584   6.084   3.007   5.071
 5895SOL    HW218585   6.180   3.138   5.057
 5896SOL     OW18586   5.344   1.762   1.699
 5896SOL    HW118587   5.336   1.775   1.600
 5896SOL    HW218588   5.436   1.787   1.728
 5897SOL     OW18589   3.948   1.283   1.805
 5897SOL    HW118590   3.951   1.310   1.902
 5897SOL    HW218591   3.853   1.286   1.773
 5898SOL     OW18592   1.634   1.535   5.559
 5898SOL    HW118593   1.627   1.494   5.468
 5898SOL    HW218594   1.591   1.476   5.626
 5899SOL     OW18595   6.422   5.750   6.359
 5899SOL    HW118596   6.495   5.681   6.360
 5899SOL    HW218597   6.448   5.823   6.296
 5900SOL     OW18598   0.110   5.645   3.277
 5900SOL    HW118599   0.103   5.570   3.211
 5900SOL    HW218600   0.061   5.621   3.360
 5901SOL     OW18601   1.367   7.025   6.696
 5901SOL    HW118602   1.274   7.026   6.734
 5901SOL    HW218603   1.363   7.008   6.598
 5902SOL     OW18604   5.862   3.772   4.595
 5902SOL    HW118605   5.842   3.785   4.497
 5902SOL    HW218606   5.821   3.846   4.647
 5903SOL     OW18607   5.435   2.737   6.892
 5903SOL    HW118608   5.481   2.681   6.960
 5903SOL    HW218609   5.502   2.795   6.845
 5904SOL     OW18610   1.537   4.968   2.101
 5904SOL    HW118611   1.631   4.934   2.094
 5904SOL    HW218612   1.474   4.895   2.076
 5905SOL     OW18613   5.439   0.908   3.604
 5905SOL    HW118614   5.413   0.979   3.537
 5905SOL    HW218615   5.356   0.874   3.648
 5906SOL     OW18616   5.405   1.267   5.246
 5906SOL    HW118617   5.496   1.231   5.221
 5906SOL    HW218618   5.363   1.207   5.314
 5907SOL     OW18619   1.417   1.205   0.439
 5907SOL    HW118620   1.479   1.205   0.361
 5907SOL    HW218621   1.324   1.223   0.408
 5908SOL     OW18622   4.192   3.370   0.027
 5908SOL    HW118623   4.140   3.453   0.049
 5908SOL    HW218624   4.214   3.370   6.956
 5909SOL     OW18625   0.310   4.600   5.568
 5909SOL    HW118626   0.279   4.678   5.621
 5909SOL    HW218627   0.294   4.515   5.619
 5910SOL     OW18628   1.647   3.869   1.819
 5910SOL    HW118629   1.724   3.933   1.821
 5910SOL    HW218630   1.627   3.839   1.913
 5911SOL     OW18631   6.722   5.343   6.411
 5911SOL    HW118632   6.674   5.257   6.393
 5911SOL    HW218633   6.733   5.356   6.510
 5912SOL     OW18634   6.017   3.183   6.800
 5912SOL    HW118635   5.937   3.173   6.741
 5912SOL    HW218636   5.997   3.147   6.891
 5913SOL     OW18637   2.205   2.614   5.671
 5913SOL    HW118638   2.251   2.682   5.614
 5913SOL    HW218639   2.245   2.524   5.656
 5914SOL     OW18640   2.599   5.913   0.515
 5914SOL    HW118641   2.670   5.951   0.455
 5914SOL    HW218642   2.593   5.968   0.599
 5915SOL     OW18643   5.466   2.726   2.836
 5915SOL    HW118644   5.443   2.731   2.739
 5915SOL    HW218645   5.382   2.723   2.890
 5916SOL     OW18646   4.144   0.234   5.847
 5916SOL    HW118647   4.238   0.265   5.859
 5916SOL    HW218648   4.119   0.240   5.751
 5917SOL     OW18649   3.594   2.899   3.208
 5917SOL    HW118650   3.544   2.817   3.236
 5917SOL    HW218651   3.531   2.976   3.199
 5918SOL     OW18652   1.524   3.589   4.234
 5918SOL    HW118653   1.480   3.659   4.178
 5918SOL    HW218654   1.591   3.539   4.179
 5919SOL     OW18655   3.045   2.525   0.698
 5919SOL    HW118656   2.972   2.469   0.658
 5919SOL    HW218657   3.005   2.589   0.763
 5920SOL     OW18658   3.240   6.855   6.917
 5920SOL    HW118659   3.191   6.871   7.003
 5920SOL    HW218660   3.291   6.938   6.892
 5921SOL     OW18661   3.724   5.236   5.920
 5921SOL    HW118662   3.820   5.210   5.915
 5921SOL    HW218663   3.698   5.286   5.837
 5922SOL     OW18664   6.601   4.874   3.153
 5922SOL    HW118665   6.597   4.775   3.170
 5922SOL    HW218666   6.696   4.905   3.164
 5923SOL     OW18667   6.519   0.447   3.774
 5923SOL    HW118668   6.490   0.474   3.866
 5923SOL    HW218669   6.618   0.457   3.765
 5924SOL     OW18670   5.248   2.580   4.921
 5924SOL    HW118671   5.196   2.518   4.862
 5924SOL    HW218672   5.185   2.630   4.981
 5925SOL     OW18673   5.383   5.814   2.100
 5925SOL    HW118674   5.428   5.884   2.155
 5925SOL    HW218675   5.355   5.854   2.012
 5926SOL     OW18676   3.740   5.290   1.615
 5926SOL    HW118677   3.723   5.192   1.610
 5926SOL    HW218678   3.742   5.320   1.710
 5927SOL     OW18679   2.741   5.624   1.372
 5927SOL    HW118680   2.646   5.630   1.341
 5927SOL    HW218681   2.742   5.610   1.471
 5928SOL     OW18682   1.653   0.843   2.127
 5928SOL    HW118683   1.610   0.850   2.216
 5928SOL    HW218684   1.731   0.906   2.123
 5929SOL     OW18685   0.938   6.824   5.680
 5929SOL    HW118686   0.947   6.908   5.625
 5929SOL    HW218687   0.893   6.754   5.625
 5930SOL     OW18688   6.228   1.507   4.163
 5930SOL    HW118689   6.323   1.476   4.157
 5930SOL    HW218690   6.226   1.601   4.196
 5931SOL     OW18691   6.037   5.384   2.017
 5931SOL    HW118692   5.982   5.462   1.988
 5931SOL    HW218693   6.014   5.304   1.962
 5932SOL     OW18694   2.213   6.600   0.937
 5932SOL    HW118695   2.300   6.561   0.906
 5932SOL    HW218696   2.160   6.530   0.986
 5933SOL     OW18697   0.210   3.842   2.122
 5933SOL    HW118698   0.158   3.765   2.085
 5933SOL    HW218699   0.209   3.838   2.222
 5934SOL     OW18700   3.855   3.580   3.071
 5934SOL    HW118701   3.852   3.493   3.021
 5934SOL    HW218702   3.837   3.563   3.168
 5935SOL     OW18703   3.363   4.077   4.690
 5935SOL    HW118704   3.283   4.092   4.748
 5935SOL    HW218705   3.445   4.110   4.738
 5936SOL     OW18706   5.098   4.439   6.515
 5936SOL    HW118707   5.023   4.374   6.503
 5936SOL    HW218708   5.068   4.531   6.491
 5937SOL     OW18709   0.685   3.846   1.159
 5937SOL    HW118710   0.725   3.899   1.234
 5937SOL    HW218711   0.707   3.749   1.172
 5938SOL     OW18712   1.978   4.506   3.608
 5938SOL    HW118713   2.041   4.443   3.652
 5938SOL    HW218714   1.891   4.459   3.590
 5939SOL     OW18715   3.345   0.860   3.313
 5939SOL    HW118716   3.278   0.934   3.307
 5939SOL    HW218717   3.359   0.821   3.223
 5940SOL     OW18718   3.453   6.681   2.502
 5940SOL    HW118719   3.356   6.678   2.478
 5940SOL    HW218720   3.500   6.750   2.446
 5941SOL     OW18721   6.158   4.913   2.025
 5941SOL    HW118722   6.156   5.004   2.067
 5941SOL    HW218723   6.226   4.910   1.952
 5942SOL     OW18724   4.037   3.160   5.960
 5942SOL    HW118725   4.137   3.151   5.961
 5942SOL    HW218726   4.003   3.145   5.867
 5943SOL     OW18727   2.140   5.542   0.455
 5943SOL    HW118728   2.083   5.464   0.434
 5943SOL    HW218729   2.227   5.534   0.406
 5944SOL     OW18730   4.646   1.450   2.550
 5944SOL    HW118731   4.554   1.489   2.557
 5944SOL    HW218732   4.711   1.509   2.597
 5945SOL     OW18733   6.587   4.848   5.176
 5945SOL    HW118734   6.674   4.817   5.136
 5945SOL    HW218735   6.541   4.770   5.218
 5946SOL     OW18736   3.334   4.117   5.725
 5946SOL    HW118737   3.341   4.072   5.637
 5946SOL    HW218738   3.326   4.049   5.798
 5947SOL     OW18739   4.259   3.310   1.870
 5947SOL    HW118740   4.301   3.223   1.844
 5947SOL    HW218741   4.163   3.295   1.894
 5948SOL     OW18742   3.558   5.063   3.104
 5948SOL    HW118743   3.627   5.010   3.153
 5948SOL    HW218744   3.603   5.132   3.047
 5949SOL     OW18745   3.819   4.826   1.232
 5949SOL    HW118746   3.734   4.779   1.209
 5949SOL    HW218747   3.800   4.922   1.250
 5950SOL     OW18748   5.951   2.148   4.331
 5950SOL    HW118749   5.979   2.244   4.334
 5950SOL    HW218750   6.005   2.095   4.396
 5951SOL     OW18751   1.395   6.419   4.138
 5951SOL    HW118752   1.439   6.425   4.228
 5951SOL    HW218753   1.297   6.436   4.148
 5952SOL     OW18754   6.574   5.842   3.809
 5952SOL    HW118755   6.544   5.747   3.797
 5952SOL    HW218756   6.634   5.868   3.734
 5953SOL     OW18757   6.729   3.209   5.294
 5953SOL    HW118758   6.781   3.270   5.354
 5953SOL    HW218759   6.788   3.179   5.218
 5954SOL     OW18760   0.003   4.633   5.821
 5954SOL    HW118761   0.081   4.586   5.861
 5954SOL    HW218762   6.962   4.653   5.892
 5955SOL     OW18763   5.680   5.395   1.770
 5955SOL    HW118764   5.756   5.444   1.812
 5955SOL    HW218765   5.639   5.333   1.837
 5956SOL     OW18766   3.899   2.155   7.000
 5956SOL    HW118767   3.939   2.077   6.952
 5956SOL    HW218768   3.939   2.161   0.065
 5957SOL     OW18769   5.262   6.448   6.335
 5957SOL    HW118770   5.287   6.475   6.428
 5957SOL    HW218771   5.342   6.451   6.276
 5958SOL     OW18772   6.604   6.400   1.968
 5958SOL    HW118773   6.673   6.329   1.982
 5958SOL    HW218774   6.579   6.404   1.871
 5959SOL     OW18775   2.877   1.943   5.753
 5959SOL    HW118776   2.824   2.025   5.731
 5959SOL    HW218777   2.867   1.876   5.679
 5960SOL     OW18778   2.991   0.221   3.908
 5960SOL    HW118779   3.045   0.256   3.832
 5960SOL    HW218780   2.896   0.249   3.899
 5961SOL     OW18781   3.427   0.986   4.813
 5961SOL    HW118782   3.362   0.916   4.785
 5961SOL    HW218783   3.393   1.076   4.784
 5962SOL     OW18784   4.981   5.710   2.632
 5962SOL    HW118785   4.979   5.806   2.602
 5962SOL    HW218786   4.922   5.699   2.712
 5963SOL     OW18787   4.073   3.702   2.967
 5963SOL    HW118788   4.149   3.650   3.007
 5963SOL    HW218789   3.987   3.659   2.993
 5964SOL     OW18790   6.749   5.195   6.886
 5964SOL    HW118791   6.711   5.139   6.813
 5964SOL    HW218792   6.715   5.163   6.975
 5965SOL     OW18793   1.589   2.599   6.366
 5965SOL    HW118794   1.547   2.517   6.405
 5965SOL    HW218795   1.593   2.671   6.435
 5966SOL     OW18796   3.069   5.490   4.948
 5966SOL    HW118797   3.072   5.414   4.883
 5966SOL    HW218798   3.136   5.475   5.020
 5967SOL     OW18799   4.262   6.563   2.851
 5967SOL    HW118800   4.353   6.578   2.890
 5967SOL    HW218801   4.226   6.649   2.816
 5968SOL     OW18802   6.611   1.876   2.964
 5968SOL    HW118803   6.668   1.810   2.915
 5968SOL    HW218804   6.529   1.896   2.911
 5969SOL     OW18805   5.994   3.160   4.162
 5969SOL    HW118806   5.996   3.199   4.255
 5969SOL    HW218807   5.904   3.120   4.145
 5970SOL     OW18808   1.180   3.610   3.072
 5970SOL    HW118809   1.148   3.577   3.161
 5970SOL    HW218810   1.218   3.702   3.082
 5971SOL     OW18811   2.170   6.862   3.092
 5971SOL    HW118812   2.177   6.934   3.022
 5971SOL    HW218813   2.079   6.865   3.134
 5972SOL     OW18814   4.624   6.398   0.881
 5972SOL    HW118815   4.650   6.408   0.977
 5972SOL    HW218816   4.658   6.477   0.829
 5973SOL     OW18817   1.881   4.693   2.749
 5973SOL    HW118818   1.899   4.644   2.835
 5973SOL    HW218819   1.901   4.633   2.672
 5974SOL     OW18820   6.735   3.899   6.197
 5974SOL    HW118821   6.705   3.987   6.159
 5974SOL    HW218822   6.682   3.878   6.279
 5975SOL     OW18823   3.872   2.350   1.066
 5975SOL    HW118824   3.786   2.311   1.101
 5975SOL    HW218825   3.918   2.399   1.140
 5976SOL     OW18826   3.189   3.017   4.428
 5976SOL    HW118827   3.199   2.977   4.519
 5976SOL    HW218828   3.261   2.982   4.368
 5977SOL     OW18829   1.669   4.186   2.157
 5977SOL    HW118830   1.589   4.205   2.100
 5977SOL    HW218831   1.748   4.235   2.122
 5978SOL     OW18832   5.467   4.119   2.655
 5978SOL    HW118833   5.517   4.038   2.684
 5978SOL    HW218834   5.372   4.095   2.637
 5979SOL     OW18835   6.109   0.469   3.822
 5979SOL    HW118836   6.170   0.405   3.776
 5979SOL    HW218837   6.157   0.555   3.838
 5980SOL     OW18838   4.671   4.390   0.236
 5980SOL    HW118839   4.711   4.437   0.157
 5980SOL    HW218840   4.611   4.452   0.286
 5981SOL     OW18841   6.307   1.559   1.966
 5981SOL    HW118842   6.404   1.581   1.961
 5981SOL    HW218843   6.293   1.463   1.945
 5982SOL     OW18844   6.403   2.236   6.529
 5982SOL    HW118845   6.395   2.291   6.446
 5982SOL    HW218846   6.354   2.150   6.517
 5983SOL     OW18847   1.757   2.410   4.186
 5983SOL    HW118848   1.773   2.315   4.158
 5983SOL    HW218849   1.671   2.416   4.236
 5984SOL     OW18850   6.745   6.385   4.629
 5984SOL    HW118851   6.821   6.385   4.694
 5984SOL    HW218852   6.767   6.325   4.552
 5985SOL     OW18853   5.430   2.094   3.558
 5985SOL    HW118854   5.423   2.078   3.657
 5985SOL    HW218855   5.521   2.129   3.536
 5986SOL     OW18856   3.040   3.101   3.446
 5986SOL    HW118857   3.114   3.068   3.505
 5986SOL    HW218858   2.994   3.178   3.491
 5987SOL     OW18859   4.574   0.231   5.308
 5987SOL    HW118860   4.652   0.286   5.278
 5987SOL    HW218861   4.603   0.168   5.380
 5988SOL     OW18862   4.453   6.951   4.818
 5988SOL    HW118863   4.379   6.887   4.839
 5988SOL    HW218864   4.510   6.913   4.746
 5989SOL     OW18865   2.248   6.943   6.401
 5989SOL    HW118866   2.219   6.997   6.480
 5989SOL    HW218867   2.246   7.000   6.319
 5990SOL     OW18868   3.602   4.277   0.577
 5990SOL    HW118869   3.506   4.305   0.576
 5990SOL    HW218870   3.628   4.244   0.487
 5991SOL     OW18871   3.954   5.321   5.139
 5991SOL    HW118872   3.888   5.280   5.201
 5991SOL    HW218873   3.926   5.304   5.044
 5992SOL     OW18874   3.838   1.209   4.279
 5992SOL    HW118875   3.787   1.263   4.345
 5992SOL    HW218876   3.881   1.269   4.212
 5993SOL     OW18877   2.795   6.229   5.638
 5993SOL    HW118878   2.733   6.267   5.570
 5993SOL    HW218879   2.838   6.303   5.690
 5994SOL     OW18880   6.022   2.155   2.076
 5994SOL    HW118881   5.979   2.235   2.034
 5994SOL    HW218882   6.084   2.112   2.011
 5995SOL     OW18883   6.847   5.209   1.157
 5995SOL    HW118884   6.758   5.210   1.204
 5995SOL    HW218885   6.920   5.225   1.223
 5996SOL     OW18886   0.092   5.957   7.022
 5996SOL    HW118887   0.071   6.051   6.997
 5996SOL    HW218888   0.190   5.940   7.008
 5997SOL     OW18889   0.586   0.050   1.800
 5997SOL    HW118890   0.521   0.093   1.862
 5997SOL    HW218891   0.678   0.061   1.835
 5998SOL     OW18892   5.129   2.141   2.336
 5998SOL    HW118893   5.179   2.122   2.420
 5998SOL    HW218894   5.194   2.153   2.261
 5999SOL     OW18895   1.430   1.603   3.447
 5999SOL    HW118896   1.397   1.689   3.409
 5999SOL    HW218897   1.352   1.541   3.462
 6000SOL     OW18898   4.137   4.740   2.144
 6000SOL    HW118899   4.045   4.739   2.105
 6000SOL    HW218900   4.197   4.684   2.088
 6001SOL     OW18901   0.094   3.036   6.852
 6001SOL    HW118902   0.178   3.077   6.887
 6001SOL    HW218903   0.026   3.108   6.835
 6002SOL     OW18904   0.946   0.188   1.495
 6002SOL    HW118905   1.038   0.229   1.499
 6002SOL    HW218906   0.955   0.090   1.475
 6003SOL     OW18907   5.785   3.945   4.787
 6003SOL    HW118908   5.699   3.910   4.823
 6003SOL    HW218909   5.859   3.925   4.851
 6004SOL     OW18910   0.478   3.443   3.091
 6004SOL    HW118911   0.501   3.498   3.171
 6004SOL    HW218912   0.399   3.484   3.044
 6005SOL     OW18913   4.128   5.231   4.051
 6005SOL    HW118914   4.123   5.145   4.000
 6005SOL    HW218915   4.177   5.300   3.997
 6006SOL     OW18916   2.820   6.747   6.547
 6006SOL    HW118917   2.808   6.649   6.565
 6006SOL    HW218918   2.777   6.770   6.459
 6007SOL     OW18919   5.184   2.597   3.630
 6007SOL    HW118920   5.259   2.531   3.641
 6007SOL    HW218921   5.153   2.595   3.535
 6008SOL     OW18922   3.336   5.396   6.040
 6008SOL    HW118923   3.378   5.443   5.963
 6008SOL    HW218924   3.282   5.318   6.006
 6009SOL     OW18925   2.959   1.844   4.769
 6009SOL    HW118926   3.034   1.777   4.774
 6009SOL    HW218927   2.981   1.923   4.826
 6010SOL     OW18928   2.330   4.337   2.621
 6010SOL    HW118929   2.421   4.331   2.663
 6010SOL    HW218930   2.330   4.287   2.535
 6011SOL     OW18931   5.343   2.784   1.680
 6011SOL    HW118932   5.307   2.701   1.724
 6011SOL    HW218933   5.371   2.763   1.587
 6012SOL     OW18934   0.017   2.148   6.798
 6012SOL    HW118935   6.990   2.233   6.794
 6012SOL    HW218936   0.107   2.164   6.759
 6013SOL     OW18937   6.409   0.981   2.060
 6013SOL    HW118938   6.504   1.005   2.079
 6013SOL    HW218939   6.351   1.061   2.076
 6014SOL     OW18940   6.164   1.449   0.645
 6014SOL    HW118941   6.155   1.361   0.600
 6014SOL    HW218942   6.125   1.521   0.588
 6015SOL     OW18943   5.712   2.259   4.581
 6015SOL    HW118944   5.622   2.301   4.594
 6015SOL    HW218945   5.771   2.322   4.531
 6016SOL     OW18946   0.432   0.682   5.433
 6016SOL    HW118947   0.460   0.761   5.488
 6016SOL    HW218948   0.477   0.686   5.344
 6017SOL     OW18949   5.770   5.411   3.636
 6017SOL    HW118950   5.781   5.505   3.669
 6017SOL    HW218951   5.726   5.357   3.707
 6018SOL     OW18952   3.347   3.104   0.293
 6018SOL    HW118953   3.400   3.022   0.272
 6018SOL    HW218954   3.320   3.103   0.389
 6019SOL     OW18955   4.719   1.540   3.727
 6019SOL    HW118956   4.741   1.543   3.824
 6019SOL    HW218957   4.790   1.589   3.676
 6020SOL     OW18958   3.552   0.161   2.596
 6020SOL    HW118959   3.633   0.214   2.619
 6020SOL    HW218960   3.471   0.204   2.636
 6021SOL     OW18961   4.810   0.692   2.791
 6021SOL    HW118962   4.738   0.719   2.855
 6021SOL    HW218963   4.807   0.593   2.778
 6022SOL     OW18964   4.871   1.273   2.935
 6022SOL    HW118965   4.897   1.309   2.845
 6022SOL    HW218966   4.779   1.235   2.930
 6023SOL     OW18967   6.547   0.792   3.359
 6023SOL    HW118968   6.574   0.846   3.279
 6023SOL    HW218969   6.628   0.752   3.401
 6024SOL     OW18970   0.529   4.926   2.520
 6024SOL    HW118971   0.539   4.952   2.616
 6024SOL    HW218972   0.500   5.005   2.466
 6025SOL     OW18973   4.626   0.970   1.983
 6025SOL    HW118974   4.671   1.057   2.002
 6025SOL    HW218975   4.561   0.948   2.056
 6026SOL     OW18976   0.121   5.025   5.161
 6026SOL    HW118977   0.161   5.096   5.103
 6026SOL    HW218978   0.167   4.938   5.144
 6027SOL     OW18979   2.079   4.180   6.036
 6027SOL    HW118980   2.040   4.267   6.006
 6027SOL    HW218981   2.025   4.105   5.999
 6028SOL     OW18982   1.591   4.329   0.676
 6028SOL    HW118983   1.529   4.271   0.624
 6028SOL    HW218984   1.606   4.415   0.628
 6029SOL     OW18985   1.944   5.998   0.478
 6029SOL    HW118986   1.864   5.967   0.426
 6029SOL    HW218987   1.938   6.097   0.492
 6030SOL     OW18988   2.765   1.164   2.292
 6030SOL    HW118989   2.698   1.109   2.241
 6030SOL    HW218990   2.740   1.165   2.388
 6031SOL     OW18991   5.359   6.549   6.022
 6031SOL    HW118992   5.437   6.587   6.073
 6031SOL    HW218993   5.280   6.608   6.033
 6032SOL     OW18994   1.581   4.090   2.671
 6032SOL    HW118995   1.554   4.125   2.581
 6032SOL    HW218996   1.527   4.007   2.691
 6033SOL     OW18997   2.069   1.909   3.297
 6033SOL    HW118998   2.110   1.993   3.262
 6033SOL    HW218999   1.985   1.931   3.347
 6034SOL     OW19000   2.477   4.665   4.675
 6034SOL    HW119001   2.496   4.644   4.771
 6034SOL    HW219002   2.514   4.592   4.617
 6035SOL     OW19003   4.994   0.869   4.025
 6035SOL    HW119004   4.898   0.890   4.041
 6035SOL    HW219005   5.039   0.846   4.112
 6036SOL     OW19006   7.006   6.791   5.020
 6036SOL    HW119007   0.016   6.791   5.113
 6036SOL    HW219008   0.042   6.840   4.960
 6037SOL     OW19009   4.680   4.779   5.630
 6037SOL    HW119010   4.642   4.696   5.669
 6037SOL    HW219011   4.645   4.859   5.680
 6038SOL     OW19012   6.903   3.326   5.955
 6038SOL    HW119013   6.943   3.410   5.917
 6038SOL    HW219014   6.837   3.350   6.026
 6039SOL     OW19015   3.338   3.700   2.447
 6039SOL    HW119016   3.299   3.736   2.363
 6039SOL    HW219017   3.418   3.644   2.426
 6040SOL     OW19018   1.148   1.547   6.096
 6040SOL    HW119019   1.147   1.447   6.086
 6040SOL    HW219020   1.199   1.587   6.019
 6041SOL     OW19021   0.932   1.997   0.010
 6041SOL    HW119022   0.920   1.902   7.009
 6041SOL    HW219023   0.851   2.050   7.012
 6042SOL     OW19024   5.566   4.987   2.224
 6042SOL    HW119025   5.530   4.941   2.305
 6042SOL    HW219026   5.651   4.944   2.196
 6043SOL     OW19027   1.395   5.041   4.307
 6043SOL    HW119028   1.367   5.124   4.260
 6043SOL    HW219029   1.493   5.028   4.297
 6044SOL     OW19030   0.308   1.387   1.023
 6044SOL    HW119031   0.306   1.474   1.072
 6044SOL    HW219032   0.266   1.316   1.081
 6045SOL     OW19033   5.838   5.468   0.492
 6045SOL    HW119034   5.755   5.523   0.492
 6045SOL    HW219035   5.846   5.419   0.579
 6046SOL     OW19036   2.871   2.580   0.142
 6046SOL    HW119037   2.952   2.624   0.180
 6046SOL    HW219038   2.898   2.512   0.074
 6047SOL     OW19039   6.321   0.707   4.160
 6047SOL    HW119040   6.224   0.695   4.139
 6047SOL    HW219041   6.362   0.771   4.094
 6048SOL     OW19042   3.847   0.661   3.916
 6048SOL    HW119043   3.902   0.690   3.994
 6048SOL    HW219044   3.898   0.676   3.832
 6049SOL     OW19045   4.542   3.697   6.500
 6049SOL    HW119046   4.557   3.699   6.599
 6049SOL    HW219047   4.555   3.604   6.466
 6050SOL     OW19048   3.635   4.338   5.566
 6050SOL    HW119049   3.615   4.364   5.471
 6050SOL    HW219050   3.708   4.270   5.567
 6051SOL     OW19051   2.119   2.340   2.454
 6051SOL    HW119052   2.060   2.366   2.378
 6051SOL    HW219053   2.199   2.400   2.456
 6052SOL     OW19054   0.060   1.143   0.204
 6052SOL    HW119055   7.019   1.096   0.146
 6052SOL    HW219056   0.149   1.143   0.158
 6053SOL     OW19057   3.629   0.414   6.870
 6053SOL    HW119058   3.721   0.425   6.908
 6053SOL    HW219059   3.628   0.336   6.807
 6054SOL     OW19060   1.645   4.923   1.110
 6054SOL    HW119061   1.715   4.980   1.067
 6054SOL    HW219062   1.680   4.830   1.123
 6055SOL     OW19063   5.273   1.102   5.463
 6055SOL    HW119064   5.211   1.113   5.541
 6055SOL    HW219065   5.221   1.076   5.382
 6056SOL     OW19066   4.373   1.109   5.955
 6056SOL    HW119067   4.338   1.062   5.874
 6056SOL    HW219068   4.336   1.066   6.037
 6057SOL     OW19069   4.426   0.690   5.161
 6057SOL    HW119070   4.362   0.614   5.172
 6057SOL    HW219071   4.379   0.770   5.126
 6058SOL     OW19072   5.299   3.265   4.476
 6058SOL    HW119073   5.201   3.263   4.457
 6058SOL    HW219074   5.349   3.275   4.391
 6059SOL     OW19075   4.722   5.263   6.301
 6059SOL    HW119076   4.725   5.324   6.221
 6059SOL    HW219077   4.806   5.208   6.304
 6060SOL     OW19078   3.999   4.486   5.567
 6060SOL    HW119079   3.945   4.497   5.484
 6060SOL    HW219080   4.004   4.572   5.616
 6061SOL     OW19081   3.572   2.122   6.531
 6061SOL    HW119082   3.486   2.072   6.537
 6061SOL    HW219083   3.585   2.154   6.437
 6062SOL     OW19084   2.066   0.994   5.004
 6062SOL    HW119085   2.043   0.899   5.025
 6062SOL    HW219086   2.160   1.013   5.034
 6063SOL     OW19087   4.320   0.241   6.505
 6063SOL    HW119088   4.282   0.329   6.530
 6063SOL    HW219089   4.298   0.173   6.575
 6064SOL     OW19090   1.595   5.600   2.939
 6064SOL    HW119091   1.640   5.671   2.995
 6064SOL    HW219092   1.665   5.547   2.891
 6065SOL     OW19093   6.092   6.939   1.044
 6065SOL    HW119094   6.110   0.003   1.005
 6065SOL    HW219095   6.087   6.871   0.971
 6066SOL     OW19096   4.340   1.893   1.261
 6066SOL    HW119097   4.358   1.973   1.204
 6066SOL    HW219098   4.360   1.810   1.208
 6067SOL     OW19099   6.516   1.386   5.926
 6067SOL    HW119100   6.508   1.305   5.984
 6067SOL    HW219101   6.613   1.406   5.910
 6068SOL     OW19102   4.886   3.161   4.729
 6068SOL    HW119103   4.914   3.080   4.781
 6068SOL    HW219104   4.795   3.147   4.691
 6069SOL     OW19105   0.059   3.641   5.584
 6069SOL    HW119106   0.080   3.737   5.602
 6069SOL    HW219107   0.081   3.619   5.489
 6070SOL     OW19108   4.170   1.788   6.432
 6070SOL    HW119109   4.104   1.862   6.420
 6070SOL    HW219110   4.263   1.825   6.435
 6071SOL     OW19111   4.218   5.802   5.822
 6071SOL    HW119112   4.170   5.869   5.766
 6071SOL    HW219113   4.274   5.744   5.764
 6072SOL     OW19114   1.336   2.392   1.684
 6072SOL    HW119115   1.336   2.487   1.715
 6072SOL    HW219116   1.242   2.361   1.671
 6073SOL     OW19117   6.478   3.238   0.173
 6073SOL    HW119118   6.477   3.144   0.205
 6073SOL    HW219119   6.431   3.244   0.084
 6074SOL     OW19120   0.822   6.732   4.518
 6074SOL    HW119121   0.889   6.669   4.481
 6074SOL    HW219122   0.736   6.684   4.537
 6075SOL     OW19123   6.744   3.261   0.022
 6075SOL    HW119124   6.676   3.204   0.066
 6075SOL    HW219125   6.807   3.204   6.995
 6076SOL     OW19126   2.184   6.608   4.761
 6076SOL    HW119127   2.194   6.665   4.680
 6076SOL    HW219128   2.136   6.659   4.832
 6077SOL     OW19129   6.044   5.815   2.744
 6077SOL    HW119130   5.953   5.810   2.785
 6077SOL    HW219131   6.107   5.857   2.809
 6078SOL     OW19132   3.297   5.261   3.722
 6078SOL    HW119133   3.392   5.267   3.752
 6078SOL    HW219134   3.282   5.325   3.647
 6079SOL     OW19135   2.350   3.228   0.048
 6079SOL    HW119136   2.301   3.241   6.988
 6079SOL    HW219137   2.286   3.237   0.125
 6080SOL     OW19138   6.382   1.753   0.991
 6080SOL    HW119139   6.473   1.737   1.028
 6080SOL    HW219140   6.386   1.754   0.891
 6081SOL     OW19141   6.501   3.308   3.996
 6081SOL    HW119142   6.472   3.311   3.900
 6081SOL    HW219143   6.448   3.373   4.049
 6082SOL     OW19144   3.884   0.247   2.830
 6082SOL    HW119145   3.876   0.270   2.927
 6082SOL    HW219146   3.907   0.151   2.820
 6083SOL     OW19147   1.200   5.511   6.673
 6083SOL    HW119148   1.161   5.601   6.651
 6083SOL    HW219149   1.298   5.511   6.651
 6084SOL     OW19150   6.331   5.216   4.953
 6084SOL    HW119151   6.422   5.175   4.949
 6084SOL    HW219152   6.314   5.250   5.046
 6085SOL     OW19153   7.010   3.872   6.972
 6085SOL    HW119154   7.012   3.875   6.872
 6085SOL    HW219155   0.006   3.780   7.003
 6086SOL     OW19156   4.160   1.526   4.266
 6086SOL    HW119157   4.091   1.485   4.207
 6086SOL    HW219158   4.159   1.625   4.256
 6087SOL     OW19159   5.438   6.801   7.022
 6087SOL    HW119160   5.532   6.824   0.023
 6087SOL    HW219161   5.411   6.858   6.945
 6088SOL     OW19162   0.355   6.761   4.788
 6088SOL    HW119163   0.328   6.791   4.697
 6088SOL    HW219164   0.291   6.797   4.856
 6089SOL     OW19165   0.748   3.705   0.722
 6089SOL    HW119166   0.840   3.674   0.743
 6089SOL    HW219167   0.681   3.641   0.760
 6090SOL     OW19168   0.707   6.126   6.060
 6090SOL    HW119169   0.720   6.075   5.976
 6090SOL    HW219170   0.612   6.117   6.090
 6091SOL     OW19171   6.575   1.590   1.894
 6091SOL    HW119172   6.619   1.500   1.897
 6091SOL    HW219173   6.643   1.660   1.874
 6092SOL     OW19174   2.658   1.077   2.553
 6092SOL    HW119175   2.717   1.130   2.615
 6092SOL    HW219176   2.568   1.064   2.595
 6093SOL     OW19177   1.826   3.334   1.169
 6093SOL    HW119178   1.887   3.406   1.136
 6093SOL    HW219179   1.874   3.278   1.237
 6094SOL     OW19180   1.351   1.690   1.126
 6094SOL    HW119181   1.381   1.614   1.069
 6094SOL    HW219182   1.430   1.730   1.173
 6095SOL     OW19183   5.388   3.049   6.880
 6095SOL    HW119184   5.296   3.079   6.857
 6095SOL    HW219185   5.387   3.002   6.968
 6096SOL     OW19186   5.284   1.273   3.938
 6096SOL    HW119187   5.197   1.225   3.944
 6096SOL    HW219188   5.308   1.289   3.843
 6097SOL     OW19189   2.323   0.882   2.676
 6097SOL    HW119190   2.257   0.933   2.621
 6097SOL    HW219191   2.278   0.802   2.715
 6098SOL     OW19192   2.256   2.656   6.264
 6098SOL    HW119193   2.239   2.719   6.188
 6098SOL    HW219194   2.352   2.629   6.264
 6099SOL     OW19195   5.752   5.707   5.149
 6099SOL    HW119196   5.766   5.804   5.170
 6099SOL    HW219197   5.757   5.694   5.050
 6100SOL     OW19198   6.483   3.273   6.467
 6100SOL    HW119199   6.449   3.254   6.375
 6100SOL    HW219200   6.423   3.341   6.511
 6101SOL     OW19201   6.862   1.970   5.508
 6101SOL    HW119202   6.824   1.878   5.503
 6101SOL    HW219203   6.788   2.036   5.519
 6102SOL     OW19204   3.193   0.880   5.023
 6102SOL    HW119205   3.113   0.938   5.009
 6102SOL    HW219206   3.252   0.883   4.942
 6103SOL     OW19207   0.187   0.624   4.018
 6103SOL    HW119208   0.178   0.723   4.019
 6103SOL    HW219209   0.257   0.597   3.952
 6104SOL     OW19210   5.665   1.962   6.942
 6104SOL    HW119211   5.753   1.916   6.953
 6104SOL    HW219212   5.664   2.012   6.855
 6105SOL     OW19213   3.717   5.750   6.290
 6105SOL    HW119214   3.712   5.829   6.229
 6105SOL    HW219215   3.668   5.770   6.375
 6106SOL     OW19216   2.934   5.011   6.684
 6106SOL    HW119217   2.923   4.913   6.667
 6106SOL    HW219218   2.870   5.062   6.626
 6107SOL     OW19219   2.289   4.777   5.018
 6107SOL    HW119220   2.192   4.776   5.045
 6107SOL    HW219221   2.305   4.853   4.955
 6108SOL     OW19222   0.754   2.341   4.070
 6108SOL    HW119223   0.826   2.377   4.011
 6108SOL    HW219224   0.758   2.241   4.071
 6109SOL     OW19225   4.961   2.728   0.393
 6109SOL    HW119226   5.049   2.775   0.403
 6109SOL    HW219227   4.903   2.779   0.329
 6110SOL     OW19228   3.407   2.160   5.980
 6110SOL    HW119229   3.465   2.240   5.995
 6110SOL    HW219230   3.313   2.189   5.961
 6111SOL     OW19231   0.969   4.725   2.997
 6111SOL    HW119232   0.950   4.784   3.075
 6111SOL    HW219233   0.966   4.629   3.027
 6112SOL     OW19234   1.744   1.729   3.188
 6112SOL    HW119235   1.748   1.651   3.125
 6112SOL    HW219236   1.788   1.703   3.275
 6113SOL     OW19237   1.043   0.566   5.835
 6113SOL    HW119238   0.987   0.632   5.886
 6113SOL    HW219239   1.122   0.540   5.891
 6114SOL     OW19240   5.388   5.479   6.940
 6114SOL    HW119241   5.420   5.489   0.008
 6114SOL    HW219242   5.465   5.458   6.880
 6115SOL     OW19243   5.071   5.205   3.017
 6115SOL    HW119244   5.117   5.202   2.929
 6115SOL    HW219245   4.997   5.272   3.014
 6116SOL     OW19246   3.089   1.002   1.480
 6116SOL    HW119247   3.161   1.020   1.547
 6116SOL    HW219248   3.120   1.030   1.389
 6117SOL     OW19249   5.714   6.850   4.467
 6117SOL    HW119250   5.737   6.948   4.470
 6117SOL    HW219251   5.625   6.839   4.424
 6118SOL     OW19252   6.414   1.531   2.884
 6118SOL    HW119253   6.321   1.542   2.918
 6118SOL    HW219254   6.473   1.600   2.926
 6119SOL     OW19255   0.464   4.896   4.798
 6119SOL    HW119256   0.468   4.916   4.896
 6119SOL    HW219257   0.486   4.979   4.746
 6120SOL     OW19258   3.587   0.075   3.721
 6120SOL    HW119259   3.491   0.103   3.709
 6120SOL    HW219260   3.647   0.145   3.684
 6121SOL     OW19261   0.449   2.730   3.475
 6121SOL    HW119262   0.452   2.786   3.391
 6121SOL    HW219263   0.449   2.790   3.555
 6122SOL     OW19264   3.932   6.107   3.080
 6122SOL    HW119265   3.869   6.077   3.009
 6122SOL    HW219266   3.924   6.205   3.093
 6123SOL     OW19267   6.859   0.955   1.486
 6123SOL    HW119268   6.782   0.907   1.443
 6123SOL    HW219269   6.861   1.050   1.455
 6124SOL     OW19270   3.312   0.388   5.346
 6124SOL    HW119271   3.360   0.321   5.291
 6124SOL    HW219272   3.354   0.478   5.334
 6125SOL     OW19273   1.670   6.127   1.657
 6125SOL    HW119274   1.674   6.223   1.684
 6125SOL    HW219275   1.746   6.106   1.596
 6126SOL     OW19276   4.997   4.783   3.776
 6126SOL    HW119277   4.924   4.817   3.716
 6126SOL    HW219278   5.086   4.810   3.738
 6127SOL     OW19279   2.082   6.627   1.339
 6127SOL    HW119280   2.181   6.625   1.331
 6127SOL    HW219281   2.047   6.715   1.307
 6128SOL     OW19282   0.372   3.094   0.455
 6128SOL    HW119283   0.382   3.074   0.552
 6128SOL    HW219284   0.305   3.032   0.415
 6129SOL     OW19285   6.115   3.547   2.829
 6129SOL    HW119286   6.028   3.519   2.788
 6129SOL    HW219287   6.187   3.483   2.802
 6130SOL     OW19288   5.586   2.824   3.561
 6130SOL    HW119289   5.512   2.828   3.628
 6130SOL    HW219290   5.666   2.778   3.601
 6131SOL     OW19291   0.092   1.529   5.967
 6131SOL    HW119292   0.021   1.598   5.977
 6131SOL    HW219293   0.174   1.559   6.016
 6132SOL     OW19294   3.688   2.352   0.019
 6132SOL    HW119295   3.765   2.293   7.020
 6132SOL    HW219296   3.721   2.446   0.030
 6133SOL     OW19297   0.580   3.560   1.583
 6133SOL    HW119298   0.540   3.544   1.493
 6133SOL    HW219299   0.587   3.658   1.601
 6134SOL     OW19300   3.343   3.607   6.769
 6134SOL    HW119301   3.405   3.682   6.743
 6134SOL    HW219302   3.277   3.640   6.837
 6135SOL     OW19303   6.315   6.878   1.193
 6135SOL    HW119304   6.329   6.973   1.220
 6135SOL    HW219305   6.234   6.872   1.133
 6136SOL     OW19306   1.473   1.560   2.507
 6136SOL    HW119307   1.455   1.475   2.457
 6136SOL    HW219308   1.502   1.631   2.443
 6137SOL     OW19309   3.371   6.693   5.750
 6137SOL    HW119310   3.396   6.597   5.763
 6137SOL    HW219311   3.438   6.738   5.691
 6138SOL     OW19312   3.756   6.572   2.504
 6138SOL    HW119313   3.663   6.547   2.476
 6138SOL    HW219314   3.759   6.670   2.524
 6139SOL     OW19315   1.612   4.314   5.290
 6139SOL    HW119316   1.551   4.251   5.338
 6139SOL    HW219317   1.706   4.297   5.318
 6140SOL     OW19318   1.116   0.120   1.833
 6140SOL    HW119319   1.156   0.167   1.911
 6140SOL    HW219320   1.186   0.106   1.762
 6141SOL     OW19321   0.126   5.770   5.844
 6141SOL    HW119322   0.170   5.852   5.880
 6141SOL    HW219323   0.091   5.715   5.919
 6142SOL     OW19324   6.761   3.817   0.856
 6142SOL    HW119325   6.839   3.847   0.910
 6142SOL    HW219326   6.774   3.722   0.828
 6143SOL     OW19327   6.280   5.068   6.211
 6143SOL    HW119328   6.278   5.060   6.111
 6143SOL    HW219329   6.335   4.994   6.249
 6144SOL     OW19330   0.202   4.013   3.124
 6144SOL    HW119331   0.299   4.013   3.100
 6144SOL    HW219332   0.163   3.923   3.105
 6145SOL     OW19333   5.164   5.046   3.224
 6145SOL    HW119334   5.159   5.083   3.317
 6145SOL    HW219335   5.114   5.106   3.161
 6146SOL     OW19336   5.364   1.449   3.202
 6146SOL    HW119337   5.353   1.540   3.162
 6146SOL    HW219338   5.394   1.384   3.131
 6147SOL     OW19339   2.290   4.609   3.120
 6147SOL    HW119340   2.388   4.628   3.124
 6147SOL    HW219341   2.268   4.564   3.034
 6148SOL     OW19342   5.807   6.245   4.412
 6148SOL    HW119343   5.761   6.251   4.500
 6148SOL    HW219344   5.884   6.309   4.410
 6149SOL     OW19345   3.300   4.992   3.057
 6149SOL    HW119346   3.392   5.023   3.080
 6149SOL    HW219347   3.259   4.949   3.138
 6150SOL     OW19348   4.646   5.747   6.890
 6150SOL    HW119349   4.643   5.817   6.819
 6150SOL    HW219350   4.603   5.664   6.857
 6151SOL     OW19351   4.743   2.433   5.396
 6151SOL    HW119352   4.699   2.519   5.370
 6151SOL    HW219353   4.717   2.361   5.332
 6152SOL     OW19354   5.666   4.729   6.449
 6152SOL    HW119355   5.707   4.645   6.411
 6152SOL    HW219356   5.630   4.710   6.540
 6153SOL     OW19357   4.598   3.943   1.418
 6153SOL    HW119358   4.536   3.999   1.364
 6153SOL    HW219359   4.603   3.851   1.378
 6154SOL     OW19360   5.684   1.773   2.208
 6154SOL    HW119361   5.659   1.729   2.294
 6154SOL    HW219362   5.784   1.768   2.196
 6155SOL     OW19363   0.247   3.436   4.314
 6155SOL    HW119364   0.232   3.350   4.266
 6155SOL    HW219365   0.331   3.478   4.281
 6156SOL     OW19366   5.376   6.587   3.318
 6156SOL    HW119367   5.403   6.538   3.236
 6156SOL    HW219368   5.303   6.652   3.296
 6157SOL     OW19369   1.866   2.136   3.807
 6157SOL    HW119370   1.912   2.196   3.741
 6157SOL    HW219371   1.801   2.077   3.758
 6158SOL     OW19372   4.254   0.526   6.644
 6158SOL    HW119373   4.347   0.549   6.616
 6158SOL    HW219374   4.254   0.493   6.738
 6159SOL     OW19375   5.345   2.172   0.037
 6159SOL    HW119376   5.273   2.121   0.082
 6159SOL    HW219377   5.306   2.254   7.020
 6160SOL     OW19378   5.218   5.797   0.865
 6160SOL    HW119379   5.167   5.729   0.917
 6160SOL    HW219380   5.222   5.883   0.917
 6161SOL     OW19381   5.961   0.579   5.864
 6161SOL    HW119382   5.862   0.571   5.876
 6161SOL    HW219383   6.001   0.627   5.942
 6162SOL     OW19384   1.176   5.527   4.143
 6162SOL    HW119385   1.150   5.492   4.052
 6162SOL    HW219386   1.263   5.576   4.136
 6163SOL     OW19387   5.952   3.960   0.630
 6163SOL    HW119388   6.047   3.936   0.650
 6163SOL    HW219389   5.951   4.040   0.569
 6164SOL     OW19390   2.711   1.486   1.151
 6164SOL    HW119391   2.741   1.510   1.059
 6164SOL    HW219392   2.757   1.402   1.180
 6165SOL     OW19393   4.226   5.975   0.321
 6165SOL    HW119394   4.318   5.956   0.289
 6165SOL    HW219395   4.229   6.007   0.415
 6166SOL     OW19396   3.053   2.006   6.053
 6166SOL    HW119397   3.047   1.956   6.139
 6166SOL    HW219398   2.999   2.090   6.059
 6167SOL     OW19399   0.431   4.457   2.519
 6167SOL    HW119400   0.388   4.367   2.512
 6167SOL    HW219401   0.360   4.528   2.514
 6168SOL     OW19402   0.224   4.031   1.638
 6168SOL    HW119403   0.241   3.974   1.557
 6168SOL    HW219404   0.300   4.023   1.701
 6169SOL     OW19405   2.322   4.179   2.036
 6169SOL    HW119406   2.411   4.154   1.998
 6169SOL    HW219407   2.280   4.099   2.079
 6170SOL     OW19408   0.022   3.251   5.249
 6170SOL    HW119409   0.109   3.201   5.249
 6170SOL    HW219410   7.019   3.266   5.155
 6171SOL     OW19411   0.836   0.390   0.529
 6171SOL    HW119412   0.841   0.367   0.627
 6171SOL    HW219413   0.915   0.350   0.482
 6172SOL     OW19414   0.650   2.649   3.018
 6172SOL    HW119415   0.695   2.610   2.938
 6172SOL    HW219416   0.639   2.748   3.007
 6173SOL     OW19417   6.687   6.876   2.856
 6173SOL    HW119418   6.625   6.950   2.830
 6173SOL    HW219419   6.761   6.913   2.912
 6174SOL     OW19420   5.341   4.455   2.464
 6174SOL    HW119421   5.305   4.515   2.536
 6174SOL    HW219422   5.332   4.501   2.376
 6175SOL     OW19423   2.578   1.319   5.209
 6175SOL    HW119424   2.527   1.294   5.127
 6175SOL    HW219425   2.551   1.410   5.240
 6176SOL     OW19426   4.166   4.243   5.317
 6176SOL    HW119427   4.215   4.313   5.264
 6176SOL    HW219428   4.232   4.187   5.367
 6177SOL     OW19429   5.444   1.157   1.783
 6177SOL    HW119430   5.410   1.120   1.697
 6177SOL    HW219431   5.526   1.213   1.765
 6178SOL     OW19432   5.076   4.035   2.290
 6178SOL    HW119433   5.120   4.111   2.338
 6178SOL    HW219434   5.094   3.950   2.339
 6179SOL     OW19435   6.561   5.107   1.984
 6179SOL    HW119436   6.539   5.132   2.079
 6179SOL    HW219437   6.597   5.186   1.936
 6180SOL     OW19438   2.909   5.018   0.656
 6180SOL    HW119439   2.890   4.920   0.648
 6180SOL    HW219440   3.003   5.036   0.626
 6181SOL     OW19441   4.690   5.149   6.735
 6181SOL    HW119442   4.611   5.103   6.775
 6181SOL    HW219443   4.659   5.220   6.672
 6182SOL     OW19444   2.934   3.221   0.317
 6182SOL    HW119445   2.927   3.236   0.218
 6182SOL    HW219446   2.845   3.238   0.359
 6183SOL     OW19447   1.243   2.283   0.992
 6183SOL    HW119448   1.281   2.297   0.901
 6183SOL    HW219449   1.146   2.258   0.984
 6184SOL     OW19450   2.785   0.812   6.338
 6184SOL    HW119451   2.785   0.719   6.374
 6184SOL    HW219452   2.810   0.811   6.242
 6185SOL     OW19453   3.642   2.868   5.188
 6185SOL    HW119454   3.650   2.883   5.090
 6185SOL    HW219455   3.638   2.770   5.207
 6186SOL     OW19456   6.070   2.023   1.820
 6186SOL    HW119457   6.089   1.942   1.875
 6186SOL    HW219458   6.129   2.024   1.740
 6187SOL     OW19459   5.011   2.410   5.180
 6187SOL    HW119460   5.109   2.397   5.166
 6187SOL    HW219461   4.988   2.393   5.276
 6188SOL     OW19462   2.050   1.993   5.148
 6188SOL    HW119463   2.074   1.932   5.223
 6188SOL    HW219464   2.060   2.088   5.177
 6189SOL     OW19465   4.895   6.292   1.931
 6189SOL    HW119466   4.843   6.248   1.858
 6189SOL    HW219467   4.847   6.374   1.962
 6190SOL     OW19468   6.218   2.395   5.571
 6190SOL    HW119469   6.258   2.307   5.545
 6190SOL    HW219470   6.145   2.380   5.638
 6191SOL     OW19471   3.121   3.675   6.581
 6191SOL    HW119472   3.063   3.596   6.561
 6191SOL    HW219473   3.183   3.652   6.656
 6192SOL     OW19474   2.461   1.831   0.210
 6192SOL    HW119475   2.454   1.755   0.275
 6192SOL    HW219476   2.485   1.915   0.259
 6193SOL     OW19477   5.315   5.565   0.421
 6193SOL    HW119478   5.365   5.557   0.335
 6193SOL    HW219479   5.356   5.638   0.477
 6194SOL     OW19480   6.937   0.641   6.203
 6194SOL    HW119481   6.991   0.578   6.259
 6194SOL    HW219482   6.903   0.716   6.259
 6195SOL     OW19483   6.482   0.422   5.444
 6195SOL    HW119484   6.527   0.426   5.533
 6195SOL    HW219485   6.542   0.461   5.374
 6196SOL     OW19486   5.256   3.655   2.644
 6196SOL    HW119487   5.354   3.652   2.626
 6196SOL    HW219488   5.237   3.611   2.731
 6197SOL     OW19489   2.681   5.616   2.555
 6197SOL    HW119490   2.683   5.710   2.591
 6197SOL    HW219491   2.588   5.581   2.562
 6198SOL     OW19492   5.915   6.376   6.751
 6198SOL    HW119493   5.853   6.354   6.675
 6198SOL    HW219494   5.881   6.334   6.835
 6199SOL     OW19495   1.014   0.136   0.800
 6199SOL    HW119496   0.999   0.076   0.879
 6199SOL    HW219497   1.062   0.085   0.729
 6200SOL     OW19498   2.020   2.268   1.892
 6200SOL    HW119499   2.042   2.301   1.983
 6200SOL    HW219500   2.045   2.337   1.824
 6201SOL     OW19501   6.488   3.783   3.733
 6201SOL    HW119502   6.541   3.728   3.798
 6201SOL    HW219503   6.396   3.746   3.724
 6202SOL     OW19504   6.394   1.319   3.088
 6202SOL    HW119505   6.377   1.244   3.024
 6202SOL    HW219506   6.406   1.404   3.038
 6203SOL     OW19507   6.566   5.586   1.870
 6203SOL    HW119508   6.511   5.599   1.952
 6203SOL    HW219509   6.517   5.620   1.790
 6204SOL     OW19510   1.535   6.990   5.437
 6204SOL    HW119511   1.594   6.957   5.363
 6204SOL    HW219512   1.559   0.058   5.458
 6205SOL     OW19513   4.814   4.115   2.267
 6205SOL    HW119514   4.771   4.044   2.323
 6205SOL    HW219515   4.911   4.093   2.255
 6206SOL     OW19516   4.989   2.209   4.372
 6206SOL    HW119517   5.013   2.271   4.297
 6206SOL    HW219518   4.929   2.256   4.437
 6207SOL     OW19519   1.710   5.700   4.452
 6207SOL    HW119520   1.610   5.703   4.454
 6207SOL    HW219521   1.740   5.605   4.437
 6208SOL     OW19522   3.636   2.458   5.714
 6208SOL    HW119523   3.726   2.464   5.758
 6208SOL    HW219524   3.589   2.546   5.723
 6209SOL     OW19525   3.941   4.016   1.242
 6209SOL    HW119526   3.968   4.074   1.319
 6209SOL    HW219527   3.944   3.920   1.270
 6210SOL     OW19528   4.655   2.712   3.240
 6210SOL    HW119529   4.634   2.673   3.150
 6210SOL    HW219530   4.606   2.662   3.311
 6211SOL     OW19531   4.807   5.426   5.128
 6211SOL    HW119532   4.854   5.448   5.042
 6211SOL    HW219533   4.785   5.510   5.177
 6212SOL     OW19534   3.706   5.360   6.175
 6212SOL    HW119535   3.729   5.329   6.083
 6212SOL    HW219536   3.745   5.451   6.190
 6213SOL     OW19537   4.569   6.034   0.742
 6213SOL    HW119538   4.527   6.112   0.789
 6213SOL    HW219539   4.502   5.960   0.733
 6214SOL     OW19540   6.265   6.082   5.122
 6214SOL    HW119541   6.232   6.020   5.194
 6214SOL    HW219542   6.365   6.081   5.121
 6215SOL     OW19543   5.239   2.404   6.363
 6215SOL    HW119544   5.331   2.365   6.363
 6215SOL    HW219545   5.181   2.352   6.301
 6216SOL     OW19546   4.926   3.006   3.074
 6216SOL    HW119547   4.864   3.029   3.149
 6216SOL    HW219548   4.916   2.909   3.051
 6217SOL     OW19549   0.984   4.333   2.620
 6217SOL    HW119550   0.904   4.338   2.559
 6217SOL    HW219551   1.067   4.325   2.565
 6218SOL     OW19552   4.703   6.615   0.731
 6218SOL    HW119553   4.644   6.591   0.654
 6218SOL    HW219554   4.788   6.656   0.696
 6219SOL     OW19555   1.230   1.285   5.549
 6219SOL    HW119556   1.176   1.333   5.480
 6219SOL    HW219557   1.199   1.190   5.556
 6220SOL     OW19558   4.180   0.950   0.835
 6220SOL    HW119559   4.109   0.884   0.810
 6220SOL    HW219560   4.229   0.916   0.915
 6221SOL     OW19561   6.410   6.213   6.697
 6221SOL    HW119562   6.394   6.162   6.612
 6221SOL    HW219563   6.322   6.230   6.742
 6222SOL     OW19564   6.355   1.505   2.399
 6222SOL    HW119565   6.424   1.432   2.408
 6222SOL    HW219566   6.265   1.463   2.385
 6223SOL     OW19567   0.162   5.313   4.196
 6223SOL    HW119568   0.150   5.381   4.268
 6223SOL    HW219569   0.259   5.297   4.182
 6224SOL     OW19570   4.702   1.849   6.469
 6224SOL    HW119571   4.768   1.869   6.397
 6224SOL    HW219572   4.731   1.893   6.554
 6225SOL     OW19573   3.858   6.580   6.307
 6225SOL    HW119574   3.854   6.497   6.364
 6225SOL    HW219575   3.825   6.558   6.215
 6226SOL     OW19576   1.302   1.419   3.888
 6226SOL    HW119577   1.303   1.353   3.813
 6226SOL    HW219578   1.211   1.424   3.928
 6227SOL     OW19579   2.980   3.949   5.475
 6227SOL    HW119580   3.019   3.998   5.397
 6227SOL    HW219581   2.914   4.008   5.522
 6228SOL     OW19582   1.968   2.860   4.157
 6228SOL    HW119583   1.955   2.939   4.097
 6228SOL    HW219584   1.937   2.883   4.250
 6229SOL     OW19585   0.109   3.631   4.453
 6229SOL    HW119586   0.012   3.620   4.478
 6229SOL    HW219587   0.142   3.546   4.413
 6230SOL     OW19588   0.587   0.882   1.960
 6230SOL    HW119589   0.559   0.789   1.937
 6230SOL    HW219590   0.510   0.944   1.949
 6231SOL     OW19591   6.576   4.681   0.080
 6231SOL    HW119592   6.487   4.637   0.096
 6231SOL    HW219593   6.648   4.629   0.126
 6232SOL     OW19594   5.372   1.224   0.097
 6232SOL    HW119595   5.434   1.149   0.119
 6232SOL    HW219596   5.336   1.212   0.004
 6233SOL     OW19597   0.227   3.321   1.096
 6233SOL    HW119598   0.275   3.359   1.017
 6233SOL    HW219599   0.163   3.389   1.132
 6234SOL     OW19600   6.672   7.025   4.470
 6234SOL    HW119601   6.723   6.975   4.541
 6234SOL    HW219602   6.598   6.968   4.436
 6235SOL     OW19603   6.743   1.118   2.367
 6235SOL    HW119604   6.771   1.067   2.449
 6235SOL    HW219605   6.796   1.203   2.361
 6236SOL     OW19606   0.357   4.297   0.773
 6236SOL    HW119607   0.353   4.198   0.760
 6236SOL    HW219608   0.268   4.337   0.752
 6237SOL     OW19609   3.791   0.604   1.489
 6237SOL    HW119610   3.863   0.599   1.419
 6237SOL    HW219611   3.749   0.695   1.486
 6238SOL     OW19612   2.339   6.605   4.453
 6238SOL    HW119613   2.388   6.672   4.509
 6238SOL    HW219614   2.391   6.520   4.451
 6239SOL     OW19615   4.960   0.546   3.157
 6239SOL    HW119616   4.914   0.492   3.227
 6239SOL    HW219617   4.905   0.628   3.137
 6240SOL     OW19618   3.891   3.096   4.812
 6240SOL    HW119619   3.814   3.042   4.845
 6240SOL    HW219620   3.899   3.086   4.713
 6241SOL     OW19621   2.952   6.816   3.854
 6241SOL    HW119622   2.880   6.803   3.786
 6241SOL    HW219623   2.927   6.891   3.915
 6242SOL     OW19624   2.887   1.632   3.693
 6242SOL    HW119625   2.889   1.731   3.681
 6242SOL    HW219626   2.855   1.609   3.785
 6243SOL     OW19627   5.665   1.411   5.946
 6243SOL    HW119628   5.650   1.365   5.859
 6243SOL    HW219629   5.753   1.385   5.984
 6244SOL     OW19630   4.220   4.754   2.401
 6244SOL    HW119631   4.179   4.753   2.309
 6244SOL    HW219632   4.273   4.671   2.415
 6245SOL     OW19633   0.730   4.826   2.375
 6245SOL    HW119634   0.693   4.833   2.283
 6245SOL    HW219635   0.663   4.860   2.441
 6246SOL     OW19636   0.635   6.773   4.284
 6246SOL    HW119637   0.677   6.824   4.209
 6246SOL    HW219638   0.701   6.764   4.359
 6247SOL     OW19639   0.002   5.731   3.571
 6247SOL    HW119640   7.003   5.817   3.527
 6247SOL    HW219641   0.101   5.730   3.588
 6248SOL     OW19642   3.506   3.308   6.925
 6248SOL    HW119643   3.497   3.371   7.002
 6248SOL    HW219644   3.461   3.221   6.948
 6249SOL     OW19645   6.511   2.616   0.864
 6249SOL    HW119646   6.481   2.522   0.846
 6249SOL    HW219647   6.512   2.667   0.779
 6250SOL     OW19648   0.503   0.560   0.859
 6250SOL    HW119649   0.459   0.476   0.827
 6250SOL    HW219650   0.438   0.635   0.855
 6251SOL     OW19651   2.948   6.767   4.783
 6251SOL    HW119652   3.046   6.759   4.803
 6251SOL    HW219653   2.909   6.841   4.838
 6252SOL     OW19654   2.968   5.566   0.156
 6252SOL    HW119655   2.962   5.577   0.056
 6252SOL    HW219656   2.990   5.472   0.178
 6253SOL     OW19657   3.222   5.140   4.992
 6253SOL    HW119658   3.139   5.193   4.975
 6253SOL    HW219659   3.232   5.125   5.091
 6254SOL     OW19660   0.119   6.135   1.345
 6254SOL    HW119661   0.083   6.199   1.413
 6254SOL    HW219662   0.207   6.168   1.311
 6255SOL     OW19663   0.186   1.858   1.389
 6255SOL    HW119664   0.282   1.842   1.367
 6255SOL    HW219665   0.171   1.839   1.486
 6256SOL     OW19666   4.822   5.309   2.751
 6256SOL    HW119667   4.732   5.265   2.747
 6256SOL    HW219668   4.841   5.336   2.845
 6257SOL     OW19669   4.302   3.997   1.383
 6257SOL    HW119670   4.290   4.036   1.292
 6257SOL    HW219671   4.247   4.047   1.448
 6258SOL     OW19672   4.711   6.285   6.213
 6258SOL    HW119673   4.620   6.325   6.221
 6258SOL    HW219674   4.777   6.342   6.263
 6259SOL     OW19675   1.934   0.052   5.205
 6259SOL    HW119676   2.027   0.068   5.237
 6259SOL    HW219677   1.937   0.014   5.113
 6260SOL     OW19678   2.406   1.095   0.467
 6260SOL    HW119679   2.502   1.087   0.493
 6260SOL    HW219680   2.399   1.102   0.367
 6261SOL     OW19681   3.895   6.211   1.815
 6261SOL    HW119682   3.906   6.308   1.792
 6261SOL    HW219683   3.864   6.161   1.734
 6262SOL     OW19684   6.712   6.657   1.988
 6262SOL    HW119685   6.635   6.704   2.029
 6262SOL    HW219686   6.686   6.564   1.963
 6263SOL     OW19687   6.804   5.905   4.981
 6263SOL    HW119688   6.861   5.978   4.944
 6263SOL    HW219689   6.785   5.837   4.910
 6264SOL     OW19690   1.129   0.357   1.149
 6264SOL    HW119691   1.154   0.401   1.064
 6264SOL    HW219692   1.041   0.393   1.181
 6265SOL     OW19693   4.650   2.072   0.328
 6265SOL    HW119694   4.680   1.987   0.372
 6265SOL    HW219695   4.596   2.050   0.247
 6266SOL     OW19696   2.906   5.522   3.461
 6266SOL    HW119697   2.822   5.492   3.416
 6266SOL    HW219698   2.908   5.485   3.554
 6267SOL     OW19699   0.989   0.031   4.982
 6267SOL    HW119700   1.016   0.101   5.048
 6267SOL    HW219701   1.066   6.996   4.965
 6268SOL     OW19702   2.927   0.164   1.821
 6268SOL    HW119703   2.845   0.112   1.844
 6268SOL    HW219704   3.002   0.136   1.880
 6269SOL     OW19705   5.809   5.935   1.250
 6269SOL    HW119706   5.771   5.851   1.289
 6269SOL    HW219707   5.847   5.916   1.159
 6270SOL     OW19708   1.710   5.929   0.365
 6270SOL    HW119709   1.626   5.886   0.400
 6270SOL    HW219710   1.687   6.015   0.321
 6271SOL     OW19711   6.288   3.258   6.753
 6271SOL    HW119712   6.297   3.326   6.681
 6271SOL    HW219713   6.193   3.227   6.759
 6272SOL     OW19714   6.178   0.197   0.257
 6272SOL    HW119715   6.246   0.252   0.304
 6272SOL    HW219716   6.094   0.195   0.312
 6273SOL     OW19717   0.010   0.203   1.615
 6273SOL    HW119718   6.959   0.210   1.552
 6273SOL    HW219719   0.043   0.108   1.618
 6274SOL     OW19720   3.484   5.955   5.080
 6274SOL    HW119721   3.451   5.861   5.064
 6274SOL    HW219722   3.579   5.952   5.110
 6275SOL     OW19723   1.859   5.424   0.163
 6275SOL    HW119724   1.904   5.417   0.252
 6275SOL    HW219725   1.760   5.415   0.175
 6276SOL     OW19726   2.036   5.751   3.049
 6276SOL    HW119727   2.083   5.804   3.119
 6276SOL    HW219728   1.937   5.754   3.065
 6277SOL     OW19729   5.627   2.918   1.350
 6277SOL    HW119730   5.545   2.910   1.294
 6277SOL    HW219731   5.700   2.960   1.295
 6278SOL     OW19732   2.849   6.766   6.046
 6278SOL    HW119733   2.819   6.772   5.950
 6278SOL    HW219734   2.949   6.776   6.050
 6279SOL     OW19735   2.796   6.810   1.847
 6279SOL    HW119736   2.759   6.902   1.834
 6279SOL    HW219737   2.891   6.808   1.817
 6280SOL     OW19738   6.763   1.820   6.553
 6280SOL    HW119739   6.800   1.836   6.645
 6280SOL    HW219740   6.664   1.830   6.555
 6281SOL     OW19741   6.007   4.276   5.150
 6281SOL    HW119742   5.928   4.308   5.099
 6281SOL    HW219743   5.999   4.305   5.246
 6282SOL     OW19744   0.714   3.586   6.033
 6282SOL    HW119745   0.686   3.675   6.068
 6282SOL    HW219746   0.675   3.514   6.091
 6283SOL     OW19747   0.918   6.403   5.566
 6283SOL    HW119748   0.910   6.325   5.628
 6283SOL    HW219749   0.975   6.474   5.607
 6284SOL     OW19750   2.052   4.476   6.745
 6284SOL    HW119751   2.029   4.428   6.660
 6284SOL    HW219752   1.973   4.476   6.806
 6285SOL     OW19753   1.311   3.287   3.403
 6285SOL    HW119754   1.250   3.331   3.336
 6285SOL    HW219755   1.297   3.329   3.493
 6286SOL     OW19756   0.593   3.290   4.820
 6286SOL    HW119757   0.638   3.238   4.746
 6286SOL    HW219758   0.538   3.229   4.876
 6287SOL     OW19759   4.401   4.854   5.201
 6287SOL    HW119760   4.453   4.938   5.184
 6287SOL    HW219761   4.432   4.812   5.286
 6288SOL     OW19762   3.590   3.232   6.556
 6288SOL    HW119763   3.573   3.140   6.593
 6288SOL    HW219764   3.673   3.230   6.500
 6289SOL     OW19765   2.324   4.925   6.363
 6289SOL    HW119766   2.349   4.929   6.460
 6289SOL    HW219767   2.355   4.839   6.323
 6290SOL     OW19768   5.270   5.593   5.247
 6290SOL    HW119769   5.308   5.644   5.324
 6290SOL    HW219770   5.328   5.607   5.166
 6291SOL     OW19771   3.038   3.078   2.718
 6291SOL    HW119772   3.095   3.004   2.753
 6291SOL    HW219773   2.961   3.040   2.668
 6292SOL     OW19774   2.042   3.209   4.770
 6292SOL    HW119775   1.953   3.192   4.811
 6292SOL    HW219776   2.077   3.125   4.729
 6293SOL     OW19777   4.546   1.013   6.890
 6293SOL    HW119778   4.565   1.054   6.979
 6293SOL    HW219779   4.618   1.038   6.825
 6294SOL     OW19780   2.582   1.478   3.601
 6294SOL    HW119781   2.561   1.527   3.685
 6294SOL    HW219782   2.527   1.516   3.526
 6295SOL     OW19783   5.472   4.335   5.273
 6295SOL    HW119784   5.426   4.261   5.321
 6295SOL    HW219785   5.562   4.351   5.313
 6296SOL     OW19786   0.295   2.633   6.626
 6296SOL    HW119787   0.207   2.678   6.610
 6296SOL    HW219788   0.293   2.586   6.715
 6297SOL     OW19789   5.974   0.347   4.029
 6297SOL    HW119790   5.878   0.374   4.028
 6297SOL    HW219791   6.018   0.377   3.944
 6298SOL     OW19792   6.129   4.559   0.242
 6298SOL    HW119793   6.182   4.570   0.158
 6298SOL    HW219794   6.110   4.649   0.281
 6299SOL     OW19795   4.861   2.093   2.950
 6299SOL    HW119796   4.865   2.065   2.854
 6299SOL    HW219797   4.766   2.090   2.982
 6300SOL     OW19798   3.055   0.230   5.637
 6300SOL    HW119799   3.027   0.207   5.730
 6300SOL    HW219800   3.150   0.203   5.623
 6301SOL     OW19801   3.487   6.865   0.749
 6301SOL    HW119802   3.547   6.786   0.755
 6301SOL    HW219803   3.506   6.928   0.825
 6302SOL     OW19804   2.730   1.300   5.688
 6302SOL    HW119805   2.738   1.274   5.591
 6302SOL    HW219806   2.751   1.397   5.698
 6303SOL     OW19807   1.281   5.832   5.913
 6303SOL    HW119808   1.346   5.760   5.932
 6303SOL    HW219809   1.194   5.812   5.957
 6304SOL     OW19810   4.092   1.004   3.124
 6304SOL    HW119811   4.015   0.970   3.177
 6304SOL    HW219812   4.060   1.063   3.051
 6305SOL     OW19813   0.412   6.065   6.092
 6305SOL    HW119814   0.436   5.985   6.038
 6305SOL    HW219815   0.377   6.137   6.032
 6306SOL     OW19816   7.007   4.655   3.729
 6306SOL    HW119817   6.955   4.571   3.747
 6306SOL    HW219818   0.015   4.653   3.635
 6307SOL     OW19819   4.134   3.591   3.427
 6307SOL    HW119820   4.197   3.598   3.349
 6307SOL    HW219821   4.081   3.675   3.435
 6308SOL     OW19822   0.188   2.896   0.265
 6308SOL    HW119823   0.167   2.826   0.333
 6308SOL    HW219824   0.138   2.877   0.180
 6309SOL     OW19825   1.514   6.136   4.361
 6309SOL    HW119826   1.462   6.124   4.277
 6309SOL    HW219827   1.456   6.178   4.431
 6310SOL     OW19828   1.974   6.385   3.188
 6310SOL    HW119829   1.944   6.461   3.246
 6310SOL    HW219830   2.074   6.388   3.180
 6311SOL     OW19831   5.243   0.944   6.189
 6311SOL    HW119832   5.341   0.948   6.205
 6311SOL    HW219833   5.208   1.036   6.169
 6312SOL     OW19834   3.090   6.702   6.755
 6312SOL    HW119835   3.000   6.685   6.795
 6312SOL    HW219836   3.143   6.762   6.815
 6313SOL     OW19837   5.842   6.373   3.182
 6313SOL    HW119838   5.836   6.304   3.110
 6313SOL    HW219839   5.760   6.367   3.240
 6314SOL     OW19840   2.267   0.092   1.641
 6314SOL    HW119841   2.312   0.170   1.596
 6314SOL    HW219842   2.330   0.048   1.704
 6315SOL     OW19843   2.359   2.820   3.739
 6315SOL    HW119844   2.312   2.895   3.785
 6315SOL    HW219845   2.448   2.851   3.706
 6316SOL     OW19846   5.727   1.598   4.343
 6316SOL    HW119847   5.710   1.500   4.338
 6316SOL    HW219848   5.682   1.644   4.267
 6317SOL     OW19849   4.864   4.600   1.823
 6317SOL    HW119850   4.831   4.662   1.753
 6317SOL    HW219851   4.806   4.607   1.904
 6318SOL     OW19852   6.453   0.278   5.837
 6318SOL    HW119853   6.446   0.200   5.899
 6318SOL    HW219854   6.362   0.315   5.820
 6319SOL     OW19855   5.626   2.016   4.370
 6319SOL    HW119856   5.683   2.094   4.395
 6319SOL    HW219857   5.604   1.964   4.453
 6320SOL     OW19858   6.766   1.179   4.282
 6320SOL    HW119859   6.694   1.218   4.341
 6320SOL    HW219860   6.844   1.242   4.280
 6321SOL     OW19861   5.948   2.192   0.508
 6321SOL    HW119862   5.896   2.108   0.492
 6321SOL    HW219863   5.964   2.203   0.606
 6322SOL     OW19864   1.833   0.786   1.322
 6322SOL    HW119865   1.778   0.799   1.404
 6322SOL    HW219866   1.930   0.784   1.347
 6323SOL     OW19867   2.772   2.917   1.445
 6323SOL    HW119868   2.751   2.985   1.375
 6323SOL    HW219869   2.810   2.962   1.525
 6324SOL     OW19870   4.516   1.398   0.848
 6324SOL    HW119871   4.526   1.360   0.757
 6324SOL    HW219872   4.607   1.411   0.888
 6325SOL     OW19873   1.904   2.488   3.577
 6325SOL    HW119874   1.814   2.530   3.585
 6325SOL    HW219875   1.896   2.400   3.530
 6326SOL     OW19876   5.382   4.825   6.087
 6326SOL    HW119877   5.443   4.899   6.058
 6326SOL    HW219878   5.376   4.822   6.186
 6327SOL     OW19879   0.087   0.308   3.138
 6327SOL    HW119880   0.082   0.209   3.150
 6327SOL    HW219881   0.015   0.337   3.075
 6328SOL     OW19882   4.199   3.500   5.780
 6328SOL    HW119883   4.138   3.448   5.720
 6328SOL    HW219884   4.231   3.582   5.732
 6329SOL     OW19885   1.473   2.955   5.787
 6329SOL    HW119886   1.460   3.039   5.838
 6329SOL    HW219887   1.540   2.970   5.714
 6330SOL     OW19888   5.596   0.504   3.320
 6330SOL    HW119889   5.601   0.451   3.235
 6330SOL    HW219890   5.540   0.586   3.305
 6331SOL     OW19891   6.866   3.332   2.685
 6331SOL    HW119892   6.884   3.401   2.755
 6331SOL    HW219893   6.773   3.297   2.696
 6332SOL     OW19894   2.452   1.518   1.089
 6332SOL    HW119895   2.546   1.513   1.123
 6332SOL    HW219896   2.454   1.513   0.989
 6333SOL     OW19897   4.810   1.253   0.391
 6333SOL    HW119898   4.819   1.238   0.489
 6333SOL    HW219899   4.714   1.247   0.365
 6334SOL     OW19900   2.376   1.280   2.164
 6334SOL    HW119901   2.399   1.336   2.085
 6334SOL    HW219902   2.422   1.192   2.158
 6335SOL     OW19903   6.012   1.427   0.330
 6335SOL    HW119904   5.936   1.444   0.393
 6335SOL    HW219905   6.081   1.372   0.375
 6336SOL     OW19906   0.650   3.274   6.195
 6336SOL    HW119907   0.687   3.184   6.217
 6336SOL    HW219908   0.699   3.344   6.247
 6337SOL     OW19909   4.608   5.715   5.439
 6337SOL    HW119910   4.572   5.804   5.466
 6337SOL    HW219911   4.545   5.672   5.374
 6338SOL     OW19912   3.190   1.741   4.143
 6338SOL    HW119913   3.210   1.812   4.210
 6338SOL    HW219914   3.119   1.680   4.179
 6339SOL     OW19915   1.406   4.475   3.343
 6339SOL    HW119916   1.399   4.377   3.325
 6339SOL    HW219917   1.322   4.520   3.314
 6340SOL     OW19918   2.261   4.121   1.562
 6340SOL    HW119919   2.197   4.140   1.488
 6340SOL    HW219920   2.258   4.024   1.585
 6341SOL     OW19921   1.042   4.454   3.538
 6341SOL    HW119922   1.099   4.403   3.603
 6341SOL    HW219923   0.983   4.517   3.589
 6342SOL     OW19924   2.015   1.765   2.075
 6342SOL    HW119925   2.004   1.776   2.174
 6342SOL    HW219926   2.045   1.852   2.035
 6343SOL     OW19927   2.358   6.173   1.081
 6343SOL    HW119928   2.454   6.169   1.054
 6343SOL    HW219929   2.340   6.100   1.147
 6344SOL     OW19930   0.115   1.208   3.581
 6344SOL    HW119931   0.025   1.175   3.607
 6344SOL    HW219932   0.106   1.283   3.515
 6345SOL     OW19933   5.824   3.656   1.399
 6345SOL    HW119934   5.909   3.705   1.421
 6345SOL    HW219935   5.746   3.718   1.411
 6346SOL     OW19936   0.017   4.160   5.393
 6346SOL    HW119937   0.029   4.088   5.325
 6346SOL    HW219938   6.946   4.178   5.405
 6347SOL     OW19939   2.528   2.047   2.611
 6347SOL    HW119940   2.435   2.072   2.584
 6347SOL    HW219941   2.578   2.014   2.530
 6348SOL     OW19942   0.221   2.318   5.539
 6348SOL    HW119943   0.301   2.372   5.512
 6348SOL    HW219944   0.194   2.258   5.464
 6349SOL     OW19945   0.293   0.845   0.017
 6349SOL    HW119946   0.349   0.799   6.974
 6349SOL    HW219947   0.197   0.838   7.019
 6350SOL     OW19948   1.313   4.576   1.637
 6350SOL    HW119949   1.378   4.587   1.563
 6350SOL    HW219950   1.238   4.641   1.625
 6351SOL     OW19951   5.611   3.445   2.210
 6351SOL    HW119952   5.618   3.467   2.112
 6351SOL    HW219953   5.557   3.362   2.222
 6352SOL     OW19954   2.494   0.386   4.914
 6352SOL    HW119955   2.404   0.344   4.923
 6352SOL    HW219956   2.513   0.441   4.996
 6353SOL     OW19957   3.201   6.059   6.526
 6353SOL    HW119958   3.188   6.146   6.479
 6353SOL    HW219959   3.298   6.033   6.524
 6354SOL     OW19960   4.838   4.865   2.589
 6354SOL    HW119961   4.867   4.872   2.494
 6354SOL    HW219962   4.917   4.882   2.649
 6355SOL     OW19963   3.130   4.946   0.896
 6355SOL    HW119964   3.058   4.881   0.924
 6355SOL    HW219965   3.190   4.902   0.829
 6356SOL     OW19966   5.657   4.036   6.398
 6356SOL    HW119967   5.594   4.068   6.469
 6356SOL    HW219968   5.695   3.947   6.425
 6357SOL     OW19969   5.480   1.433   1.384
 6357SOL    HW119970   5.468   1.502   1.313
 6357SOL    HW219971   5.536   1.472   1.458
 6358SOL     OW19972   1.394   2.486   6.812
 6358SOL    HW119973   1.482   2.467   6.856
 6358SOL    HW219974   1.405   2.485   6.713
 6359SOL     OW19975   5.914   6.089   0.087
 6359SOL    HW119976   5.950   6.116   0.176
 6359SOL    HW219977   5.829   6.038   0.099
 6360SOL     OW19978   0.811   2.410   2.579
 6360SOL    HW119979   0.741   2.456   2.524
 6360SOL    HW219980   0.842   2.328   2.531
 6361SOL     OW19981   0.537   0.638   0.154
 6361SOL    HW119982   0.575   0.641   0.246
 6361SOL    HW219983   0.535   0.543   0.122
 6362SOL     OW19984   0.862   5.393   0.011
 6362SOL    HW119985   0.800   5.360   0.082
 6362SOL    HW219986   0.815   5.391   6.949
 6363SOL     OW19987   3.122   5.357   3.913
 6363SOL    HW119988   3.205   5.328   3.865
 6363SOL    HW219989   3.098   5.288   3.981
 6364SOL     OW19990   2.453   2.541   4.914
 6364SOL    HW119991   2.353   2.538   4.917
 6364SOL    HW219992   2.483   2.614   4.851
 6365SOL     OW19993   5.860   5.009   3.738
 6365SOL    HW119994   5.848   4.937   3.806
 6365SOL    HW219995   5.871   4.968   3.647
 6366SOL     OW19996   5.549   6.695   4.725
 6366SOL    HW119997   5.600   6.705   4.810
 6366SOL    HW219998   5.476   6.763   4.722
 6367SOL     OW19999   2.855   1.905   2.929
 6367SOL    HW120000   2.857   1.896   2.830
 6367SOL    HW220001   2.779   1.965   2.956
 6368SOL     OW20002   5.006   3.410   4.786
 6368SOL    HW120003   4.985   3.481   4.719
 6368SOL    HW220004   4.950   3.329   4.767
 6369SOL     OW20005   2.922   6.033   6.294
 6369SOL    HW120006   2.857   5.978   6.242
 6369SOL    HW220007   2.873   6.087   6.363
 6370SOL     OW20008   5.596   3.505   3.830
 6370SOL    HW120009   5.519   3.461   3.784
 6370SOL    HW220010   5.633   3.444   3.899
 6371SOL     OW20011   5.481   4.018   1.667
 6371SOL    HW120012   5.513   3.924   1.676
 6371SOL    HW220013   5.449   4.034   1.573
 6372SOL     OW20014   6.983   0.737   2.833
 6372SOL    HW120015   6.886   0.760   2.835
 6372SOL    HW220016   7.006   0.696   2.745
 6373SOL     OW20017   5.368   3.634   1.290
 6373SOL    HW120018   5.434   3.576   1.338
 6373SOL    HW220019   5.343   3.711   1.348
 6374SOL     OW20020   4.855   2.784   0.652
 6374SOL    HW120021   4.891   2.731   0.575
 6374SOL    HW220022   4.764   2.750   0.676
 6375SOL     OW20023   6.537   2.548   2.068
 6375SOL    HW120024   6.571   2.598   1.988
 6375SOL    HW220025   6.531   2.611   2.145
 6376SOL     OW20026   3.406   0.625   6.539
 6376SOL    HW120027   3.395   0.526   6.529
 6376SOL    HW220028   3.477   0.645   6.606
 6377SOL     OW20029   0.052   0.678   0.581
 6377SOL    HW120030   6.990   0.677   0.628
 6377SOL    HW220031   0.045   0.732   0.497
 6378SOL     OW20032   5.600   5.789   3.177
 6378SOL    HW120033   5.669   5.724   3.147
 6378SOL    HW220034   5.511   5.763   3.139
 6379SOL     OW20035   2.847   6.141   0.357
 6379SOL    HW120036   2.814   6.092   0.276
 6379SOL    HW220037   2.937   6.179   0.338
 6380SOL     OW20038   1.318   3.192   5.431
 6380SOL    HW120039   1.255   3.137   5.485
 6380SOL    HW220040   1.269   3.236   5.356
 6381SOL     OW20041   4.564   2.971   0.184
 6381SOL    HW120042   4.502   3.030   0.236
 6381SOL    HW220043   4.567   3.004   0.089
 6382SOL     OW20044   2.069   1.762   1.277
 6382SOL    HW120045   1.987   1.725   1.321
 6382SOL    HW220046   2.095   1.703   1.200
 6383SOL     OW20047   1.742   2.107   2.329
 6383SOL    HW120048   1.715   2.194   2.369
 6383SOL    HW220049   1.799   2.124   2.248
 6384SOL     OW20050   6.171   2.447   2.065
 6384SOL    HW120051   6.225   2.475   2.144
 6384SOL    HW220052   6.230   2.395   2.002
 6385SOL     OW20053   0.096   2.871   1.177
 6385SOL    HW120054   0.095   2.902   1.272
 6385SOL    HW220055   0.002   2.854   1.146
 6386SOL     OW20056   2.044   3.483   0.105
 6386SOL    HW120057   2.064   3.390   0.135
 6386SOL    HW220058   2.128   3.529   0.078
 6387SOL     OW20059   6.599   0.308   6.752
 6387SOL    HW120060   6.651   0.354   6.824
 6387SOL    HW220061   6.660   0.291   6.674
 6388SOL     OW20062   6.312   5.555   2.790
 6388SOL    HW120063   6.335   5.458   2.782
 6388SOL    HW220064   6.213   5.566   2.793
 6389SOL     OW20065   1.303   0.820   6.610
 6389SOL    HW120066   1.314   0.906   6.561
 6389SOL    HW220067   1.295   0.745   6.545
 6390SOL     OW20068   6.691   1.350   6.514
 6390SOL    HW120069   6.738   1.329   6.600
 6390SOL    HW220070   6.759   1.369   6.443
 6391SOL     OW20071   1.233   1.622   5.163
 6391SOL    HW120072   1.212   1.701   5.219
 6391SOL    HW220073   1.302   1.646   5.094
 6392SOL     OW20074   4.189   6.279   3.739
 6392SOL    HW120075   4.172   6.210   3.809
 6392SOL    HW220076   4.157   6.368   3.771
 6393SOL     OW20077   6.665   5.715   1.325
 6393SOL    HW120078   6.598   5.770   1.374
 6393SOL    HW220079   6.619   5.636   1.283
 6394SOL     OW20080   1.272   5.544   1.028
 6394SOL    HW120081   1.346   5.477   1.024
 6394SOL    HW220082   1.184   5.497   1.028
 6395SOL     OW20083   1.994   4.187   3.524
 6395SOL    HW120084   1.980   4.114   3.592
 6395SOL    HW220085   1.910   4.241   3.515
 6396SOL     OW20086   0.341   3.633   0.668
 6396SOL    HW120087   0.389   3.566   0.610
 6396SOL    HW220088   0.243   3.612   0.668
 6397SOL     OW20089   5.796   2.309   3.759
 6397SOL    HW120090   5.774   2.358   3.844
 6397SOL    HW220091   5.778   2.211   3.772
 6398SOL     OW20092   1.418   0.067   1.049
 6398SOL    HW120093   1.504   0.040   1.092
 6398SOL    HW220094   1.375   7.013   1.008
 6399SOL     OW20095   2.517   0.662   6.096
 6399SOL    HW120096   2.456   0.696   6.024
 6399SOL    HW220097   2.479   0.686   6.186
 6400SOL     OW20098   1.433   5.516   3.164
 6400SOL    HW120099   1.484   5.543   3.083
 6400SOL    HW220100   1.496   5.485   3.235
 6401SOL     OW20101   3.892   6.052   3.338
 6401SOL    HW120102   3.856   5.959   3.349
 6401SOL    HW220103   3.910   6.070   3.242
 6402SOL     OW20104   2.447   4.846   5.236
 6402SOL    HW120105   2.376   4.813   5.175
 6402SOL    HW220106   2.464   4.943   5.218
 6403SOL     OW20107   4.785   6.153   4.861
 6403SOL    HW120108   4.803   6.180   4.955
 6403SOL    HW220109   4.860   6.097   4.827
 6404SOL     OW20110   4.022   0.530   2.679
 6404SOL    HW120111   3.988   0.621   2.658
 6404SOL    HW220112   3.978   0.496   2.763
 6405SOL     OW20113   5.448   1.468   2.362
 6405SOL    HW120114   5.368   1.487   2.418
 6405SOL    HW220115   5.435   1.505   2.270
 6406SOL     OW20116   1.222   2.783   2.843
 6406SOL    HW120117   1.267   2.828   2.766
 6406SOL    HW220118   1.131   2.753   2.815
 6407SOL     OW20119   2.103   6.117   2.937
 6407SOL    HW120120   2.079   6.185   2.868
 6407SOL    HW220121   2.040   6.124   3.014
 6408SOL     OW20122   6.622   1.106   0.475
 6408SOL    HW120123   6.671   1.024   0.504
 6408SOL    HW220124   6.642   1.181   0.539
 6409SOL     OW20125   6.775   4.836   3.768
 6409SOL    HW120126   6.769   4.890   3.852
 6409SOL    HW220127   6.866   4.795   3.762
 6410SOL     OW20128   3.149   1.962   5.813
 6410SOL    HW120129   3.062   1.938   5.770
 6410SOL    HW220130   3.135   1.977   5.911
 6411SOL     OW20131   0.397   2.159   2.542
 6411SOL    HW120132   0.362   2.065   2.544
 6411SOL    HW220133   0.480   2.164   2.598
 6412SOL     OW20134   2.942   0.575   0.084
 6412SOL    HW120135   2.968   0.504   0.018
 6412SOL    HW220136   2.868   0.630   0.046
 6413SOL     OW20137   4.474   4.940   3.750
 6413SOL    HW120138   4.476   5.012   3.820
 6413SOL    HW220139   4.532   4.967   3.673
 6414SOL     OW20140   1.456   6.768   0.406
 6414SOL    HW120141   1.507   6.823   0.341
 6414SOL    HW220142   1.358   6.784   0.395
 6415SOL     OW20143   0.964   2.623   3.326
 6415SOL    HW120144   0.885   2.676   3.357
 6415SOL    HW220145   0.985   2.646   3.231
 6416SOL     OW20146   2.558   0.668   6.678
 6416SOL    HW120147   2.617   0.709   6.748
 6416SOL    HW220148   2.552   0.570   6.694
 6417SOL     OW20149   4.147   1.517   0.584
 6417SOL    HW120150   4.120   1.445   0.647
 6417SOL    HW220151   4.071   1.581   0.571
 6418SOL     OW20152   4.502   5.145   1.271
 6418SOL    HW120153   4.509   5.055   1.315
 6418SOL    HW220154   4.463   5.211   1.336
 6419SOL     OW20155   0.625   6.578   7.008
 6419SOL    HW120156   0.669   6.499   6.965
 6419SOL    HW220157   0.687   6.656   7.005
 6420SOL     OW20158   2.073   3.456   4.233
 6420SOL    HW120159   2.093   3.440   4.330
 6420SOL    HW220160   1.979   3.490   4.223
 6421SOL     OW20161   5.056   6.892   1.665
 6421SOL    HW120162   5.023   6.932   1.750
 6421SOL    HW220163   5.058   6.961   1.593
 6422SOL     OW20164   6.207   2.285   4.738
 6422SOL    HW120165   6.142   2.302   4.812
 6422SOL    HW220166   6.234   2.188   4.738
 6423SOL     OW20167   2.500   4.483   4.477
 6423SOL    HW120168   2.466   4.417   4.410
 6423SOL    HW220169   2.556   4.552   4.430
 6424SOL     OW20170   0.097   4.490   4.705
 6424SOL    HW120171   0.186   4.468   4.665
 6424SOL    HW220172   0.096   4.461   4.800
 6425SOL     OW20173   0.299   5.971   2.800
 6425SOL    HW120174   0.225   5.968   2.867
 6425SOL    HW220175   0.370   5.905   2.826
 6426SOL     OW20176   4.543   4.528   4.764
 6426SOL    HW120177   4.480   4.545   4.840
 6426SOL    HW220178   4.637   4.534   4.797
 6427SOL     OW20179   2.867   3.567   3.448
 6427SOL    HW120180   2.914   3.654   3.439
 6427SOL    HW220181   2.885   3.509   3.369
 6428SOL     OW20182   5.200   2.642   0.218
 6428SOL    HW120183   5.160   2.585   0.290
 6428SOL    HW220184   5.261   2.709   0.259
 6429SOL     OW20185   2.107   0.688   5.690
 6429SOL    HW120186   2.136   0.710   5.597
 6429SOL    HW220187   2.123   0.591   5.708
 6430SOL     OW20188   6.716   0.460   4.927
 6430SOL    HW120189   6.774   0.378   4.925
 6430SOL    HW220190   6.630   0.439   4.973
 6431SOL     OW20191   3.923   4.593   1.677
 6431SOL    HW120192   3.994   4.625   1.739
 6431SOL    HW220193   3.842   4.651   1.686
 6432SOL     OW20194   4.475   4.629   5.975
 6432SOL    HW120195   4.376   4.638   5.979
 6432SOL    HW220196   4.517   4.720   5.972
 6433SOL     OW20197   2.266   5.853   6.497
 6433SOL    HW120198   2.293   5.931   6.553
 6433SOL    HW220199   2.198   5.798   6.546
 6434SOL     OW20200   3.278   5.644   5.596
 6434SOL    HW120201   3.209   5.608   5.658
 6434SOL    HW220202   3.365   5.597   5.611
 6435SOL     OW20203   5.317   1.458   0.970
 6435SOL    HW120204   5.407   1.500   0.963
 6435SOL    HW220205   5.325   1.359   0.959
 6436SOL     OW20206   0.260   3.929   4.069
 6436SOL    HW120207   0.278   3.854   4.006
 6436SOL    HW220208   0.318   3.920   4.150
 6437SOL     OW20209   0.428   1.413   5.890
 6437SOL    HW120210   0.359   1.344   5.909
 6437SOL    HW220211   0.384   1.501   5.872
 6438SOL     OW20212   0.463   5.638   0.513
 6438SOL    HW120213   0.506   5.726   0.537
 6438SOL    HW220214   0.424   5.645   0.421
 6439SOL     OW20215   5.470   0.042   3.211
 6439SOL    HW120216   5.527   0.106   3.264
 6439SOL    HW220217   5.374   0.064   3.224
 6440SOL     OW20218   2.306   1.312   6.272
 6440SOL    HW120219   2.275   1.220   6.251
 6440SOL    HW220220   2.359   1.348   6.195
 6441SOL     OW20221   0.290   1.083   2.705
 6441SOL    HW120222   0.336   1.014   2.761
 6441SOL    HW220223   0.297   1.059   2.609
 6442SOL     OW20224   3.120   2.805   5.607
 6442SOL    HW120225   3.134   2.774   5.513
 6442SOL    HW220226   3.041   2.758   5.647
 6443SOL     OW20227   4.702   2.597   1.255
 6443SOL    HW120228   4.730   2.633   1.344
 6443SOL    HW220229   4.745   2.651   1.183
 6444SOL     OW20230   7.000   3.308   5.000
 6444SOL    HW120231   7.004   3.408   4.996
 6444SOL    HW220232   0.063   3.270   4.974
 6445SOL     OW20233   3.162   4.038   3.405
 6445SOL    HW120234   3.259   4.050   3.387
 6445SOL    HW220235   3.149   3.999   3.497
 6446SOL     OW20236   2.297   1.708   6.730
 6446SOL    HW120237   2.271   1.766   6.652
 6446SOL    HW220238   2.356   1.634   6.699
 6447SOL     OW20239   6.585   4.016   0.975
 6447SOL    HW120240   6.662   3.955   0.956
 6447SOL    HW220241   6.590   4.096   0.916
 6448SOL     OW20242   4.920   5.192   1.731
 6448SOL    HW120243   4.905   5.259   1.659
 6448SOL    HW220244   4.928   5.100   1.691
 6449SOL     OW20245   2.531   6.210   1.430
 6449SOL    HW120246   2.466   6.185   1.501
 6449SOL    HW220247   2.623   6.182   1.457
 6450SOL     OW20248   0.136   3.865   0.844
 6450SOL    HW120249   0.216   3.907   0.800
 6450SOL    HW220250   0.081   3.818   0.775
 6451SOL     OW20251   3.451   2.181   1.459
 6451SOL    HW120252   3.355   2.205   1.444
 6451SOL    HW220253   3.472   2.098   1.408
 6452SOL     OW20254   5.487   2.521   3.167
 6452SOL    HW120255   5.411   2.574   3.204
 6452SOL    HW220256   5.566   2.530   3.228
 6453SOL     OW20257   3.744   6.850   0.921
 6453SOL    HW120258   3.695   6.923   0.967
 6453SOL    HW220259   3.743   6.768   0.977
 6454SOL     OW20260   5.735   2.883   2.630
 6454SOL    HW120261   5.752   2.831   2.713
 6454SOL    HW220262   5.813   2.944   2.613
 6455SOL     OW20263   6.756   3.722   3.594
 6455SOL    HW120264   6.772   3.625   3.577
 6455SOL    HW220265   6.666   3.735   3.636
 6456SOL     OW20266   6.178   1.567   3.008
 6456SOL    HW120267   6.164   1.661   3.037
 6456SOL    HW220268   6.140   1.505   3.077
 6457SOL     OW20269   4.608   0.383   2.197
 6457SOL    HW120270   4.554   0.457   2.156
 6457SOL    HW220271   4.553   0.337   2.267
 6458SOL     OW20272   0.919   4.758   3.519
 6458SOL    HW120273   0.928   4.741   3.618
 6458SOL    HW220274   1.003   4.799   3.485
 6459SOL     OW20275   6.515   2.806   2.659
 6459SOL    HW120276   6.547   2.864   2.585
 6459SOL    HW220277   6.431   2.759   2.632
 6460SOL     OW20278   7.024   5.641   6.777
 6460SOL    HW120279   0.093   5.626   6.803
 6460SOL    HW220280   6.979   5.693   6.850
 6461SOL     OW20281   2.842   4.890   1.245
 6461SOL    HW120282   2.761   4.854   1.200
 6461SOL    HW220283   2.816   4.958   1.313
 6462SOL     OW20284   1.457   3.878   5.127
 6462SOL    HW120285   1.480   3.864   5.031
 6462SOL    HW220286   1.507   3.812   5.183
 6463SOL     OW20287   4.251   1.175   1.722
 6463SOL    HW120288   4.338   1.222   1.706
 6463SOL    HW220289   4.179   1.242   1.741
 6464SOL     OW20290   0.787   6.034   4.317
 6464SOL    HW120291   0.761   5.961   4.380
 6464SOL    HW220292   0.730   6.030   4.235
 6465SOL     OW20293   4.782   1.699   3.405
 6465SOL    HW120294   4.831   1.670   3.487
 6465SOL    HW220295   4.684   1.705   3.425
 6466SOL     OW20296   0.574   3.168   6.844
 6466SOL    HW120297   0.542   3.092   6.788
 6466SOL    HW220298   0.639   3.223   6.791
 6467SOL     OW20299   3.244   1.168   0.768
 6467SOL    HW120300   3.314   1.125   0.825
 6467SOL    HW220301   3.288   1.221   0.695
 6468SOL     OW20302   3.121   0.280   0.212
 6468SOL    HW120303   3.144   0.200   0.267
 6468SOL    HW220304   3.030   0.314   0.239
 6469SOL     OW20305   3.792   1.771   3.083
 6469SOL    HW120306   3.799   1.702   3.154
 6469SOL    HW220307   3.884   1.793   3.049
 6470SOL     OW20308   6.525   2.033   6.957
 6470SOL    HW120309   6.457   2.106   6.957
 6470SOL    HW220310   6.504   1.968   0.005
 6471SOL     OW20311   0.113   5.828   5.413
 6471SOL    HW120312   0.035   5.837   5.351
 6471SOL    HW220313   0.114   5.736   5.453
 6472SOL     OW20314   7.003   5.506   2.765
 6472SOL    HW120315   7.000   5.409   2.792
 6472SOL    HW220316   6.924   5.553   2.804
 6473SOL     OW20317   2.872   0.922   4.484
 6473SOL    HW120318   2.801   0.991   4.495
 6473SOL    HW220319   2.835   0.832   4.505
 6474SOL     OW20320   3.810   5.843   5.163
 6474SOL    HW120321   3.888   5.856   5.225
 6474SOL    HW220322   3.811   5.749   5.127
 6475SOL     OW20323   5.573   4.709   2.837
 6475SOL    HW120324   5.592   4.799   2.878
 6475SOL    HW220325   5.659   4.667   2.809
 6476SOL     OW20326   3.810   1.262   6.277
 6476SOL    HW120327   3.716   1.261   6.244
 6476SOL    HW220328   3.858   1.342   6.238
 6477SOL     OW20329   6.661   6.151   1.619
 6477SOL    HW120330   6.650   6.114   1.711
 6477SOL    HW220331   6.732   6.100   1.570
 6478SOL     OW20332   3.590   5.481   1.896
 6478SOL    HW120333   3.599   5.523   1.987
 6478SOL    HW220334   3.508   5.423   1.894
 6479SOL     OW20335   3.433   6.337   3.985
 6479SOL    HW120336   3.416   6.240   3.971
 6479SOL    HW220337   3.464   6.352   4.079
 6480SOL     OW20338   3.506   1.360   6.982
 6480SOL    HW120339   3.508   1.457   6.960
 6480SOL    HW220340   3.420   1.320   6.950
 6481SOL     OW20341   3.283   2.680   1.733
 6481SOL    HW120342   3.269   2.719   1.824
 6481SOL    HW220343   3.269   2.581   1.738
 6482SOL     OW20344   6.660   3.633   5.118
 6482SOL    HW120345   6.646   3.543   5.076
 6482SOL    HW220346   6.610   3.702   5.065
 6483SOL     OW20347   0.983   5.706   5.400
 6483SOL    HW120348   0.951   5.612   5.395
 6483SOL    HW220349   1.076   5.708   5.438
 6484SOL     OW20350   2.801   0.718   4.185
 6484SOL    HW120351   2.857   0.639   4.212
 6484SOL    HW220352   2.845   0.764   4.107
 6485SOL     OW20353   2.172   6.840   4.589
 6485SOL    HW120354   2.094   6.890   4.627
 6485SOL    HW220355   2.256   6.871   4.632
 6486SOL     OW20356   1.814   5.470   3.158
 6486SOL    HW120357   1.785   5.561   3.128
 6486SOL    HW220358   1.763   5.400   3.108
 6487SOL     OW20359   0.098   4.618   3.999
 6487SOL    HW120360   0.142   4.535   4.032
 6487SOL    HW220361   0.060   4.603   3.908
 6488SOL     OW20362   4.539   5.124   4.673
 6488SOL    HW120363   4.444   5.142   4.647
 6488SOL    HW220364   4.542   5.057   4.747
 6489SOL     OW20365   4.287   3.288   5.970
 6489SOL    HW120366   4.351   3.244   5.907
 6489SOL    HW220367   4.232   3.355   5.920
 6490SOL     OW20368   1.801   2.109   6.621
 6490SOL    HW120369   1.869   2.175   6.652
 6490SOL    HW220370   1.769   2.054   6.698
 6491SOL     OW20371   1.661   0.703   0.141
 6491SOL    HW120372   1.582   0.719   0.200
 6491SOL    HW220373   1.733   0.657   0.194
 6492SOL     OW20374   3.435   3.823   4.804
 6492SOL    HW120375   3.483   3.788   4.723
 6492SOL    HW220376   3.411   3.919   4.789
 6493SOL     OW20377   1.120   4.369   5.806
 6493SOL    HW120378   1.053   4.376   5.879
 6493SOL    HW220379   1.144   4.273   5.791
 6494SOL     OW20380   6.262   6.815   2.241
 6494SOL    HW120381   6.184   6.753   2.250
 6494SOL    HW220382   6.233   6.899   2.197
 6495SOL     OW20383   0.011   7.016   3.408
 6495SOL    HW120384   0.037   7.005   3.504
 6495SOL    HW220385   7.006   0.083   3.393
 6496SOL     OW20386   4.872   0.622   2.127
 6496SOL    HW120387   4.955   0.666   2.160
 6496SOL    HW220388   4.893   0.530   2.097
 6497SOL     OW20389   0.062   1.958   0.481
 6497SOL    HW120390   0.001   2.034   0.505
 6497SOL    HW220391   0.143   1.960   0.540
 6498SOL     OW20392   1.038   4.114   3.854
 6498SOL    HW120393   1.018   4.201   3.899
 6498SOL    HW220394   1.025   4.039   3.920
 6499SOL     OW20395   5.688   3.577   3.537
 6499SOL    HW120396   5.709   3.600   3.632
 6499SOL    HW220397   5.601   3.527   3.533
 6500SOL     OW20398   1.510   4.344   3.063
 6500SOL    HW120399   1.445   4.329   2.988
 6500SOL    HW220400   1.479   4.294   3.144
 6501SOL     OW20401   6.525   2.041   0.821
 6501SOL    HW120402   6.472   2.092   0.888
 6501SOL    HW220403   6.470   1.965   0.786
 6502SOL     OW20404   6.038   3.808   1.442
 6502SOL    HW120405   6.025   3.894   1.394
 6502SOL    HW220406   6.129   3.806   1.485
 6503SOL     OW20407   6.488   3.073   5.286
 6503SOL    HW120408   6.562   3.139   5.301
 6503SOL    HW220409   6.518   3.005   5.219
 6504SOL     OW20410   4.631   6.225   6.760
 6504SOL    HW120411   4.639   6.253   6.664
 6504SOL    HW220412   4.642   6.305   6.819
 6505SOL     OW20413   5.741   5.502   6.746
 6505SOL    HW120414   5.718   5.563   6.670
 6505SOL    HW220415   5.737   5.554   6.832
 6506SOL     OW20416   0.205   3.027   2.413
 6506SOL    HW120417   0.248   3.039   2.503
 6506SOL    HW220418   0.261   2.967   2.357
 6507SOL     OW20419   3.942   4.670   6.715
 6507SOL    HW120420   3.945   4.571   6.731
 6507SOL    HW220421   3.883   4.690   6.636
 6508SOL     OW20422   1.229   6.302   2.096
 6508SOL    HW120423   1.151   6.246   2.069
 6508SOL    HW220424   1.255   6.362   2.020
 6509SOL     OW20425   3.696   1.593   6.024
 6509SOL    HW120426   3.628   1.617   6.093
 6509SOL    HW220427   3.658   1.610   5.933
 6510SOL     OW20428   4.554   6.048   5.846
 6510SOL    HW120429   4.556   5.955   5.811
 6510SOL    HW220430   4.581   6.049   5.942
 6511SOL     OW20431   3.182   0.870   0.345
 6511SOL    HW120432   3.192   0.968   0.359
 6511SOL    HW220433   3.272   0.826   0.356
 6512SOL     OW20434   3.425   0.554   1.410
 6512SOL    HW120435   3.393   0.648   1.415
 6512SOL    HW220436   3.359   0.494   1.455
 6513SOL     OW20437   2.788   5.464   4.128
 6513SOL    HW120438   2.758   5.521   4.052
 6513SOL    HW220439   2.884   5.482   4.147
 6514SOL     OW20440   5.538   0.136   5.736
 6514SOL    HW120441   5.527   0.195   5.656
 6514SOL    HW220442   5.585   0.186   5.809
 6515SOL     OW20443   2.083   5.225   2.590
 6515SOL    HW120444   2.049   5.146   2.538
 6515SOL    HW220445   2.035   5.229   2.678
 6516SOL     OW20446   6.750   3.526   0.847
 6516SOL    HW120447   6.740   3.501   0.751
 6516SOL    HW220448   6.662   3.557   0.883
 6517SOL     OW20449   0.079   2.768   0.027
 6517SOL    HW120450   0.091   2.809   6.963
 6517SOL    HW220451   0.162   2.718   0.052
 6518SOL     OW20452   1.224   1.572   2.883
 6518SOL    HW120453   1.232   1.632   2.963
 6518SOL    HW220454   1.190   1.483   2.912
 6519SOL     OW20455   1.342   1.722   3.083
 6519SOL    HW120456   1.364   1.775   3.165
 6519SOL    HW220457   1.427   1.692   3.039
 6520SOL     OW20458   0.266   5.676   0.280
 6520SOL    HW120459   0.185   5.723   0.316
 6520SOL    HW220460   0.340   5.742   0.271
 6521SOL     OW20461   1.204   3.057   4.428
 6521SOL    HW120462   1.284   3.103   4.466
 6521SOL    HW220463   1.125   3.119   4.430
 6522SOL     OW20464   2.681   3.940   5.291
 6522SOL    HW120465   2.591   3.943   5.248
 6522SOL    HW220466   2.748   3.905   5.225
 6523SOL     OW20467   6.349   0.738   0.041
 6523SOL    HW120468   6.441   0.777   0.041
 6523SOL    HW220469   6.332   0.695   0.130
 6524SOL     OW20470   2.116   2.210   1.562
 6524SOL    HW120471   2.087   2.130   1.509
 6524SOL    HW220472   2.042   2.277   1.564
 6525SOL     OW20473   1.183   4.604   3.350
 6525SOL    HW120474   1.136   4.543   3.413
 6525SOL    HW220475   1.174   4.698   3.382
 6526SOL     OW20476   6.816   0.021   0.502
 6526SOL    HW120477   6.758   0.090   0.544
 6526SOL    HW220478   6.883   7.014   0.568
 6527SOL     OW20479   0.663   2.474   0.449
 6527SOL    HW120480   0.588   2.408   0.441
 6527SOL    HW220481   0.633   2.552   0.505
 6528SOL     OW20482   5.913   0.661   5.600
 6528SOL    HW120483   6.000   0.702   5.572
 6528SOL    HW220484   5.901   0.673   5.699
 6529SOL     OW20485   6.877   1.370   2.351
 6529SOL    HW120486   6.972   1.351   2.375
 6529SOL    HW220487   6.853   1.462   2.384
 6530SOL     OW20488   0.651   2.487   2.381
 6530SOL    HW120489   0.641   2.428   2.300
 6530SOL    HW220490   0.642   2.582   2.353
 6531SOL     OW20491   3.780   3.454   5.560
 6531SOL    HW120492   3.724   3.422   5.483
 6531SOL    HW220493   3.732   3.435   5.646
 6532SOL     OW20494   1.336   0.721   0.730
 6532SOL    HW120495   1.420   0.770   0.753
 6532SOL    HW220496   1.259   0.763   0.777
 6533SOL     OW20497   4.401   3.705   0.306
 6533SOL    HW120498   4.453   3.762   0.370
 6533SOL    HW220499   4.313   3.747   0.288
 6534SOL     OW20500   6.119   4.767   2.639
 6534SOL    HW120501   6.174   4.684   2.627
 6534SOL    HW220502   6.173   4.847   2.613
 6535SOL     OW20503   6.245   3.244   5.211
 6535SOL    HW120504   6.198   3.284   5.289
 6535SOL    HW220505   6.322   3.188   5.243
 6536SOL     OW20506   0.576   3.686   5.148
 6536SOL    HW120507   0.650   3.748   5.175
 6536SOL    HW220508   0.503   3.691   5.216
 6537SOL     OW20509   5.978   4.966   4.093
 6537SOL    HW120510   6.062   4.931   4.134
 6537SOL    HW220511   6.001   5.026   4.017
 6538SOL     OW20512   2.496   3.592   5.316
 6538SOL    HW120513   2.474   3.648   5.397
 6538SOL    HW220514   2.577   3.628   5.271
 6539SOL     OW20515   6.654   0.323   6.028
 6539SOL    HW120516   6.632   0.245   6.086
 6539SOL    HW220517   6.599   0.318   5.944
 6540SOL     OW20518   4.775   2.628   6.058
 6540SOL    HW120519   4.815   2.599   5.971
 6540SOL    HW220520   4.698   2.689   6.040
 6541SOL     OW20521   5.761   1.066   4.617
 6541SOL    HW120522   5.808   1.081   4.530
 6541SOL    HW220523   5.770   0.969   4.643
 6542SOL     OW20524   1.385   3.740   4.663
 6542SOL    HW120525   1.292   3.757   4.696
 6542SOL    HW220526   1.381   3.690   4.577
 6543SOL     OW20527   3.936   2.263   5.257
 6543SOL    HW120528   3.884   2.240   5.340
 6543SOL    HW220529   3.954   2.361   5.255
 6544SOL     OW20530   1.070   6.348   2.300
 6544SOL    HW120531   1.039   6.439   2.275
 6544SOL    HW220532   1.153   6.326   2.249
 6545SOL     OW20533   4.761   0.089   1.347
 6545SOL    HW120534   4.687   0.054   1.290
 6545SOL    HW220535   4.771   0.032   1.428
 6546SOL     OW20536   5.153   3.739   6.205
 6546SOL    HW120537   5.159   3.740   6.105
 6546SOL    HW220538   5.066   3.780   6.234
 6547SOL     OW20539   5.723   5.837   0.110
 6547SOL    HW120540   5.680   5.861   0.197
 6547SOL    HW220541   5.812   5.795   0.127
 6548SOL     OW20542   0.609   2.296   5.467
 6548SOL    HW120543   0.630   2.199   5.459
 6548SOL    HW220544   0.655   2.334   5.547
 6549SOL     OW20545   5.263   6.648   2.010
 6549SOL    HW120546   5.191   6.591   1.971
 6549SOL    HW220547   5.289   6.719   1.945
 6550SOL     OW20548   6.576   6.759   3.110
 6550SOL    HW120549   6.609   6.845   3.071
 6550SOL    HW220550   6.654   6.700   3.130
 6551SOL     OW20551   3.284   3.359   1.587
 6551SOL    HW120552   3.205   3.415   1.610
 6551SOL    HW220553   3.357   3.417   1.552
 6552SOL     OW20554   2.185   0.088   7.012
 6552SOL    HW120555   2.241   0.170   0.001
 6552SOL    HW220556   2.240   0.018   6.967
 6553SOL     OW20557   0.297   0.427   2.994
 6553SOL    HW120558   0.256   0.509   2.954
 6553SOL    HW220559   0.231   0.383   3.054
 6554SOL     OW20560   3.142   1.312   4.875
 6554SOL    HW120561   3.166   1.242   4.807
 6554SOL    HW220562   3.187   1.292   4.962
 6555SOL     OW20563   6.412   2.109   4.424
 6555SOL    HW120564   6.396   2.104   4.325
 6555SOL    HW220565   6.330   2.147   4.468
 6556SOL     OW20566   4.976   2.629   3.812
 6556SOL    HW120567   5.002   2.634   3.908
 6556SOL    HW220568   5.053   2.596   3.758
 6557SOL     OW20569   1.712   6.985   2.193
 6557SOL    HW120570   1.648   0.000   2.129
 6557SOL    HW220571   1.662   6.950   2.272
 6558SOL     OW20572   5.560   4.909   0.368
 6558SOL    HW120573   5.470   4.950   0.384
 6558SOL    HW220574   5.630   4.980   0.370
 6559SOL     OW20575   6.324   2.897   5.987
 6559SOL    HW120576   6.309   2.810   5.940
 6559SOL    HW220577   6.312   2.972   5.922
 6560SOL     OW20578   5.174   4.792   0.539
 6560SOL    HW120579   5.108   4.717   0.531
 6560SOL    HW220580   5.182   4.818   0.636
 6561SOL     OW20581   3.661   4.763   0.533
 6561SOL    HW120582   3.602   4.791   0.457
 6561SOL    HW220583   3.664   4.663   0.537
 6562SOL     OW20584   6.055   2.627   1.063
 6562SOL    HW120585   6.108   2.658   1.143
 6562SOL    HW220586   5.993   2.700   1.035
 6563SOL     OW20587   5.185   6.567   4.768
 6563SOL    HW120588   5.268   6.544   4.716
 6563SOL    HW220589   5.182   6.666   4.783
 6564SOL     OW20590   6.959   3.914   2.428
 6564SOL    HW120591   6.982   3.971   2.507
 6564SOL    HW220592   6.996   3.822   2.443
 6565SOL     OW20593   5.732   0.374   2.532
 6565SOL    HW120594   5.824   0.382   2.568
 6565SOL    HW220595   5.735   0.371   2.432
 6566SOL     OW20596   3.583   6.101   2.494
 6566SOL    HW120597   3.648   6.128   2.565
 6566SOL    HW220598   3.576   6.174   2.426
 6567SOL     OW20599   4.444   0.459   1.289
 6567SOL    HW120600   4.348   0.464   1.262
 6567SOL    HW220601   4.455   0.392   1.363
 6568SOL     OW20602   3.745   0.750   1.872
 6568SOL    HW120603   3.840   0.767   1.847
 6568SOL    HW220604   3.688   0.753   1.790
 6569SOL     OW20605   0.843   3.759   5.851
 6569SOL    HW120606   0.804   3.839   5.896
 6569SOL    HW220607   0.798   3.677   5.885
 6570SOL     OW20608   3.786   6.458   1.739
 6570SOL    HW120609   3.703   6.406   1.757
 6570SOL    HW220610   3.764   6.538   1.684
 6571SOL     OW20611   2.748   5.021   3.408
 6571SOL    HW120612   2.811   5.075   3.353
 6571SOL    HW220613   2.759   4.924   3.385
 6572SOL     OW20614   0.297   5.958   3.914
 6572SOL    HW120615   0.374   5.907   3.950
 6572SOL    HW220616   0.221   5.955   3.979
 6573SOL     OW20617   2.160   1.532   2.740
 6573SOL    HW120618   2.255   1.505   2.721
 6573SOL    HW220619   2.120   1.469   2.806
 6574SOL     OW20620   2.004   6.100   1.985
 6574SOL    HW120621   2.101   6.106   1.964
 6574SOL    HW220622   1.955   6.063   1.905
 6575SOL     OW20623   6.770   0.175   2.541
 6575SOL    HW120624   6.774   0.197   2.639
 6575SOL    HW220625   6.706   0.237   2.496
 6576SOL     OW20626   3.559   6.054   0.635
 6576SOL    HW120627   3.539   5.962   0.668
 6576SOL    HW220628   3.541   6.120   0.707
 6577SOL     OW20629   2.169   2.093   3.911
 6577SOL    HW120630   2.076   2.120   3.934
 6577SOL    HW220631   2.197   2.015   3.968
 6578SOL     OW20632   1.857   5.511   1.818
 6578SOL    HW120633   1.873   5.425   1.771
 6578SOL    HW220634   1.864   5.498   1.917
 6579SOL     OW20635   0.299   1.209   3.785
 6579SOL    HW120636   0.237   1.220   3.707
 6579SOL    HW220637   0.258   1.249   3.867
 6580SOL     OW20638   0.926   0.137   6.964
 6580SOL    HW120639   0.977   0.188   0.006
 6580SOL    HW220640   0.828   0.151   6.978
 6581SOL     OW20641   1.696   1.914   6.805
 6581SOL    HW120642   1.614   1.857   6.811
 6581SOL    HW220643   1.774   1.864   6.842
 6582SOL     OW20644   6.441   0.823   2.906
 6582SOL    HW120645   6.465   0.755   2.837
 6582SOL    HW220646   6.386   0.780   2.978
 6583SOL     OW20647   4.077   6.067   0.117
 6583SOL    HW120648   4.014   6.003   0.073
 6583SOL    HW220649   4.121   6.023   0.194
 6584SOL     OW20650   3.305   2.276   1.117
 6584SOL    HW120651   3.378   2.315   1.061
 6584SOL    HW220652   3.330   2.182   1.142
 6585SOL     OW20653   5.939   0.385   1.181
 6585SOL    HW120654   5.874   0.362   1.254
 6585SOL    HW220655   6.000   0.457   1.214
 6586SOL     OW20656   6.380   2.282   6.002
 6586SOL    HW120657   6.354   2.372   6.036
 6586SOL    HW220658   6.306   2.217   6.018
 6587SOL     OW20659   1.267   4.002   5.290
 6587SOL    HW120660   1.325   3.971   5.215
 6587SOL    HW220661   1.304   4.085   5.330
 6588SOL     OW20662   0.636   3.030   0.471
 6588SOL    HW120663   0.543   3.058   0.447
 6588SOL    HW220664   0.665   3.079   0.554
 6589SOL     OW20665   6.788   1.007   1.747
 6589SOL    HW120666   6.817   0.981   1.655
 6589SOL    HW220667   6.696   0.972   1.764
 6590SOL     OW20668   1.291   0.721   4.230
 6590SOL    HW120669   1.196   0.691   4.232
 6590SOL    HW220670   1.350   0.648   4.264
 6591SOL     OW20671   5.332   4.675   3.974
 6591SOL    HW120672   5.333   4.676   3.874
 6591SOL    HW220673   5.240   4.653   4.007
 6592SOL     OW20674   4.623   6.323   3.037
 6592SOL    HW120675   4.579   6.292   2.952
 6592SOL    HW220676   4.554   6.366   3.096
 6593SOL     OW20677   2.646   2.349   2.625
 6593SOL    HW120678   2.606   2.259   2.642
 6593SOL    HW220679   2.603   2.417   2.685
 6594SOL     OW20680   3.929   1.870   6.196
 6594SOL    HW120681   3.987   1.940   6.237
 6594SOL    HW220682   3.985   1.809   6.140
 6595SOL     OW20683   1.828   2.112   4.788
 6595SOL    HW120684   1.804   2.016   4.774
 6595SOL    HW220685   1.877   2.147   4.708
 6596SOL     OW20686   5.686   6.041   2.468
 6596SOL    HW120687   5.654   6.035   2.562
 6596SOL    HW220688   5.734   6.128   2.455
 6597SOL     OW20689   1.330   4.974   2.528
 6597SOL    HW120690   1.382   5.045   2.480
 6597SOL    HW220691   1.380   4.946   2.610
 6598SOL     OW20692   1.984   4.778   4.201
 6598SOL    HW120693   1.886   4.762   4.201
 6598SOL    HW220694   2.003   4.875   4.186
 6599SOL     OW20695   5.990   6.118   6.089
 6599SOL    HW120696   6.069   6.067   6.121
 6599SOL    HW220697   6.020   6.194   6.032
 6600SOL     OW20698   4.702   6.727   5.424
 6600SOL    HW120699   4.614   6.766   5.399
 6600SOL    HW220700   4.767   6.740   5.349
 6601SOL     OW20701   1.445   3.069   2.446
 6601SOL    HW120702   1.410   3.118   2.527
 6601SOL    HW220703   1.537   3.036   2.465
 6602SOL     OW20704   2.145   0.123   1.245
 6602SOL    HW120705   2.220   0.156   1.302
 6602SOL    HW220706   2.079   0.197   1.231
 6603SOL     OW20707   0.506   2.885   3.250
 6603SOL    HW120708   0.552   2.904   3.163
 6603SOL    HW220709   0.499   2.970   3.303
 6604SOL     OW20710   1.987   6.825   1.835
 6604SOL    HW120711   2.026   6.847   1.746
 6604SOL    HW220712   1.969   6.727   1.841
 6605SOL     OW20713   6.223   5.436   1.647
 6605SOL    HW120714   6.264   5.366   1.589
 6605SOL    HW220715   6.127   5.448   1.621
 6606SOL     OW20716   1.819   3.393   3.789
 6606SOL    HW120717   1.794   3.316   3.730
 6606SOL    HW220718   1.913   3.382   3.821
 6607SOL     OW20719   5.646   3.811   3.400
 6607SOL    HW120720   5.660   3.738   3.467
 6607SOL    HW220721   5.700   3.792   3.318
 6608SOL     OW20722   7.004   6.882   6.177
 6608SOL    HW120723   0.072   6.849   6.171
 6608SOL    HW220724   6.991   6.961   6.116
 6609SOL     OW20725   4.691   2.117   5.702
 6609SOL    HW120726   4.709   2.024   5.735
 6609SOL    HW220727   4.638   2.112   5.617
 6610SOL     OW20728   2.950   5.254   1.230
 6610SOL    HW120729   2.915   5.172   1.184
 6610SOL    HW220730   2.989   5.229   1.318
 6611SOL     OW20731   4.792   2.185   4.140
 6611SOL    HW120732   4.878   2.137   4.161
 6611SOL    HW220733   4.720   2.118   4.124
 6612SOL     OW20734   5.836   1.903   6.416
 6612SOL    HW120735   5.902   1.828   6.408
 6612SOL    HW220736   5.875   1.976   6.472
 6613SOL     OW20737   4.978   0.520   6.880
 6613SOL    HW120738   4.911   0.476   6.939
 6613SOL    HW220739   5.037   0.450   6.839
 6614SOL     OW20740   4.418   5.877   2.226
 6614SOL    HW120741   4.389   5.963   2.267
 6614SOL    HW220742   4.338   5.825   2.198
 6615SOL     OW20743   2.833   6.049   0.843
 6615SOL    HW120744   2.788   6.056   0.932
 6615SOL    HW220745   2.786   6.108   0.777
 6616SOL     OW20746   4.686   0.837   6.371
 6616SOL    HW120747   4.726   0.746   6.380
 6616SOL    HW220748   4.592   0.835   6.404
 6617SOL     OW20749   4.033   0.594   3.689
 6617SOL    HW120750   4.008   0.575   3.594
 6617SOL    HW220751   4.114   0.653   3.691
 6618SOL     OW20752   0.549   2.127   3.167
 6618SOL    HW120753   0.597   2.214   3.157
 6618SOL    HW220754   0.467   2.127   3.110
 6619SOL     OW20755   4.683   6.267   3.972
 6619SOL    HW120756   4.725   6.248   3.883
 6619SOL    HW220757   4.685   6.365   3.989
 6620SOL     OW20758   0.363   3.652   3.562
 6620SOL    HW120759   0.336   3.557   3.574
 6620SOL    HW220760   0.282   3.710   3.553
 6621SOL     OW20761   3.872   3.291   5.026
 6621SOL    HW120762   3.887   3.207   4.974
 6621SOL    HW220763   3.853   3.367   4.963
 6622SOL     OW20764   0.063   6.042   0.845
 6622SOL    HW120765   0.032   6.025   0.939
 6622SOL    HW220766   7.024   6.101   0.799
 6623SOL     OW20767   3.023   4.621   5.797
 6623SOL    HW120768   2.926   4.600   5.799
 6623SOL    HW220769   3.075   4.548   5.842
 6624SOL     OW20770   0.707   2.288   4.555
 6624SOL    HW120771   0.802   2.288   4.587
 6624SOL    HW220772   0.697   2.354   4.481
 6625SOL     OW20773   5.880   2.559   5.588
 6625SOL    HW120774   5.804   2.495   5.599
 6625SOL    HW220775   5.847   2.653   5.597
 6626SOL     OW20776   2.803   6.548   4.816
 6626SOL    HW120777   2.851   6.636   4.808
 6626SOL    HW220778   2.814   6.512   4.908
 6627SOL     OW20779   1.075   6.104   4.498
 6627SOL    HW120780   1.083   6.018   4.549
 6627SOL    HW220781   0.979   6.130   4.490
 6628SOL     OW20782   4.846   5.825   4.121
 6628SOL    HW120783   4.870   5.825   4.218
 6628SOL    HW220784   4.778   5.897   4.104
 6629SOL     OW20785   5.367   6.132   6.878
 6629SOL    HW120786   5.316   6.119   6.963
 6629SOL    HW220787   5.426   6.054   6.861
 6630SOL     OW20788   2.113   1.596   1.678
 6630SOL    HW120789   2.101   1.553   1.589
 6630SOL    HW220790   2.077   1.689   1.675
 6631SOL     OW20791   1.577   4.978   5.917
 6631SOL    HW120792   1.642   5.032   5.971
 6631SOL    HW220793   1.570   5.017   5.825
 6632SOL     OW20794   0.928   0.144   0.393
 6632SOL    HW120795   0.998   0.131   0.463
 6632SOL    HW220796   0.847   0.089   0.415
 6633SOL     OW20797   3.158   5.596   6.597
 6633SOL    HW120798   3.099   5.675   6.579
 6633SOL    HW220799   3.117   5.514   6.556
 6634SOL     OW20800   5.083   1.536   4.987
 6634SOL    HW120801   5.031   1.563   5.068
 6634SOL    HW220802   5.123   1.446   5.002
 6635SOL     OW20803   5.369   4.667   1.955
 6635SOL    HW120804   5.431   4.599   1.915
 6635SOL    HW220805   5.276   4.648   1.924
 6636SOL     OW20806   3.439   0.047   1.808
 6636SOL    HW120807   3.420   0.136   1.767
 6636SOL    HW220808   3.419   7.001   1.742
 6637SOL     OW20809   1.614   0.959   0.566
 6637SOL    HW120810   1.599   0.950   0.665
 6637SOL    HW220811   1.572   1.044   0.534
 6638SOL     OW20812   3.082   3.987   3.704
 6638SOL    HW120813   3.077   3.889   3.720
 6638SOL    HW220814   3.163   4.025   3.750
 6639SOL     OW20815   4.760   3.062   1.307
 6639SOL    HW120816   4.753   3.153   1.267
 6639SOL    HW220817   4.671   3.017   1.304
 6640SOL     OW20818   0.899   2.728   5.351
 6640SOL    HW120819   0.825   2.704   5.414
 6640SOL    HW220820   0.879   2.815   5.307
 6641SOL     OW20821   3.762   1.986   1.064
 6641SOL    HW120822   3.662   1.981   1.067
 6641SOL    HW220823   3.798   1.998   1.157
 6642SOL     OW20824   1.273   5.609   0.399
 6642SOL    HW120825   1.213   5.616   0.479
 6642SOL    HW220826   1.350   5.673   0.409
 6643SOL     OW20827   4.766   6.721   0.203
 6643SOL    HW120828   4.793   6.748   0.295
 6643SOL    HW220829   4.685   6.661   0.209
 6644SOL     OW20830   1.773   6.295   2.718
 6644SOL    HW120831   1.710   6.281   2.642
 6644SOL    HW220832   1.731   6.357   2.785
 6645SOL     OW20833   6.440   2.972   0.217
 6645SOL    HW120834   6.392   2.983   0.130
 6645SOL    HW220835   6.510   2.901   0.207
 6646SOL     OW20836   3.982   6.927   6.840
 6646SOL    HW120837   3.901   6.889   6.796
 6646SOL    HW220838   3.985   7.026   6.825
 6647SOL     OW20839   4.439   4.920   1.066
 6647SOL    HW120840   4.511   4.882   1.009
 6647SOL    HW220841   4.471   5.006   1.107
 6648SOL     OW20842   3.254   6.447   4.961
 6648SOL    HW120843   3.211   6.457   5.051
 6648SOL    HW220844   3.353   6.440   4.973
 6649SOL     OW20845   5.892   2.428   6.781
 6649SOL    HW120846   5.955   2.355   6.754
 6649SOL    HW220847   5.866   2.415   6.877
 6650SOL     OW20848   3.037   1.412   5.301
 6650SOL    HW120849   2.993   1.482   5.246
 6650SOL    HW220850   3.136   1.418   5.290
 6651SOL     OW20851   0.634   1.632   6.985
 6651SOL    HW120852   0.553   1.573   6.983
 6651SOL    HW220853   0.634   1.690   6.903
 6652SOL     OW20854   1.110   4.871   0.219
 6652SOL    HW120855   1.131   4.876   0.317
 6652SOL    HW220856   1.096   4.776   0.193
 6653SOL     OW20857   5.532   2.827   0.542
 6653SOL    HW120858   5.544   2.807   0.639
 6653SOL    HW220859   5.585   2.761   0.488
 6654SOL     OW20860   0.670   4.373   2.917
 6654SOL    HW120861   0.632   4.441   2.853
 6654SOL    HW220862   0.617   4.375   3.002
 6655SOL     OW20863   6.877   5.271   1.796
 6655SOL    HW120864   6.941   5.338   1.757
 6655SOL    HW220865   6.821   5.315   1.866
 6656SOL     OW20866   4.355   1.411   2.523
 6656SOL    HW120867   4.338   1.332   2.465
 6656SOL    HW220868   4.279   1.475   2.516
 6657SOL     OW20869   5.394   2.375   4.689
 6657SOL    HW120870   5.377   2.473   4.674
 6657SOL    HW220871   5.308   2.325   4.680
 6658SOL     OW20872   6.045   6.449   4.737
 6658SOL    HW120873   6.096   6.400   4.808
 6658SOL    HW220874   5.948   6.428   4.744
 6659SOL     OW20875   1.390   4.787   1.972
 6659SOL    HW120876   1.386   4.691   1.945
 6659SOL    HW220877   1.298   4.820   1.993
 6660SOL     OW20878   0.625   5.423   3.043
 6660SOL    HW120879   0.679   5.499   3.008
 6660SOL    HW220880   0.598   5.441   3.138
 6661SOL     OW20881   3.056   6.637   4.033
 6661SOL    HW120882   2.985   6.700   4.001
 6661SOL    HW220883   3.055   6.555   3.975
 6662SOL     OW20884   2.668   0.030   1.813
 6662SOL    HW120885   2.652   0.108   1.754
 6662SOL    HW220886   2.581   7.007   1.828
 6663SOL     OW20887   1.392   4.838   6.041
 6663SOL    HW120888   1.457   4.904   6.004
 6663SOL    HW220889   1.422   4.809   6.132
 6664SOL     OW20890   2.653   0.890   1.743
 6664SOL    HW120891   2.713   0.825   1.697
 6664SOL    HW220892   2.597   0.937   1.675
 6665SOL     OW20893   2.411   0.524   5.730
 6665SOL    HW120894   2.387   0.480   5.816
 6665SOL    HW220895   2.509   0.546   5.729
 6666SOL     OW20896   5.896   5.936   4.730
 6666SOL    HW120897   5.987   5.953   4.693
 6666SOL    HW220898   5.851   5.863   4.679
 6667SOL     OW20899   6.290   6.411   5.849
 6667SOL    HW120900   6.305   6.505   5.879
 6667SOL    HW220901   6.243   6.411   5.760
 6668SOL     OW20902   6.992   6.589   1.402
 6668SOL    HW120903   6.935   6.611   1.481
 6668SOL    HW220904   6.944   6.616   1.318
 6669SOL     OW20905   2.080   1.463   2.054
 6669SOL    HW120906   2.172   1.426   2.071
 6669SOL    HW220907   2.080   1.561   2.070
 6670SOL     OW20908   3.423   2.092   6.915
 6670SOL    HW120909   3.493   2.055   6.976
 6670SOL    HW220910   3.424   2.042   6.829
 6671SOL     OW20911   5.045   6.642   0.060
 6671SOL    HW120912   4.959   6.686   0.086
 6671SOL    HW220913   5.030   6.583   7.007
 6672SOL     OW20914   1.362   2.478   0.453
 6672SOL    HW120915   1.368   2.576   0.438
 6672SOL    HW220916   1.399   2.429   0.374
 6673SOL     OW20917   5.327   3.548   4.347
 6673SOL    HW120918   5.346   3.586   4.256
 6673SOL    HW220919   5.394   3.477   4.368
 6674SOL     OW20920   0.248   2.924   6.568
 6674SOL    HW120921   0.162   2.878   6.590
 6674SOL    HW220922   0.252   2.941   6.469
 6675SOL     OW20923   4.479   3.019   6.963
 6675SOL    HW120924   4.392   2.995   7.005
 6675SOL    HW220925   4.490   2.969   6.877
 6676SOL     OW20926   1.255   3.857   3.574
 6676SOL    HW120927   1.348   3.828   3.596
 6676SOL    HW220928   1.203   3.870   3.659
 6677SOL     OW20929   0.561   1.235   0.334
 6677SOL    HW120930   0.520   1.144   0.325
 6677SOL    HW220931   0.619   1.237   0.415
 6678SOL     OW20932   1.639   4.575   0.576
 6678SOL    HW120933   1.720   4.632   0.564
 6678SOL    HW220934   1.558   4.625   0.545
 6679SOL     OW20935   2.624   0.816   3.567
 6679SOL    HW120936   2.631   0.904   3.519
 6679SOL    HW220937   2.622   0.832   3.665
 6680SOL     OW20938   5.489   6.838   0.316
 6680SOL    HW120939   5.547   6.757   0.328
 6680SOL    HW220940   5.403   6.811   0.273
 6681SOL     OW20941   4.495   5.479   1.558
 6681SOL    HW120942   4.560   5.525   1.618
 6681SOL    HW220943   4.518   5.382   1.551
 6682SOL     OW20944   3.260   5.768   0.038
 6682SOL    HW120945   3.227   5.713   6.987
 6682SOL    HW220946   3.184   5.819   0.077
 6683SOL     OW20947   6.024   3.631   6.591
 6683SOL    HW120948   6.001   3.577   6.672
 6683SOL    HW220949   6.067   3.572   6.523
 6684SOL     OW20950   3.248   6.958   1.614
 6684SOL    HW120951   3.245   0.006   1.547
 6684SOL    HW220952   3.242   6.870   1.568
 6685SOL     OW20953   4.034   3.588   6.678
 6685SOL    HW120954   4.118   3.619   6.722
 6685SOL    HW220955   3.995   3.511   6.729
 6686SOL     OW20956   5.692   5.220   3.804
 6686SOL    HW120957   5.613   5.179   3.848
 6686SOL    HW220958   5.765   5.153   3.796
 6687SOL     OW20959   6.662   2.279   1.840
 6687SOL    HW120960   6.689   2.345   1.770
 6687SOL    HW220961   6.658   2.187   1.800
 6688SOL     OW20962   3.705   5.081   1.223
 6688SOL    HW120963   3.615   5.092   1.180
 6688SOL    HW220964   3.751   5.169   1.228
 6689SOL     OW20965   2.911   5.058   6.323
 6689SOL    HW120966   2.964   5.095   6.248
 6689SOL    HW220967   2.830   5.012   6.288
 6690SOL     OW20968   0.791   0.293   6.118
 6690SOL    HW120969   0.754   0.273   6.209
 6690SOL    HW220970   0.793   0.392   6.105
 6691SOL     OW20971   2.041   1.724   2.578
 6691SOL    HW120972   2.072   1.637   2.615
 6691SOL    HW220973   2.079   1.799   2.632
 6692SOL     OW20974   4.268   4.789   1.523
 6692SOL    HW120975   4.168   4.792   1.517
 6692SOL    HW220976   4.297   4.839   1.605
 6693SOL     OW20977   4.482   1.441   5.167
 6693SOL    HW120978   4.543   1.404   5.098
 6693SOL    HW220979   4.403   1.484   5.123
 6694SOL     OW20980   3.840   5.948   1.290
 6694SOL    HW120981   3.804   5.927   1.199
 6694SOL    HW220982   3.915   6.013   1.282
 6695SOL     OW20983   2.950   2.117   0.130
 6695SOL    HW120984   2.977   2.150   0.220
 6695SOL    HW220985   3.012   2.153   0.061
 6696SOL     OW20986   3.891   3.904   4.340
 6696SOL    HW120987   3.905   3.875   4.435
 6696SOL    HW220988   3.865   4.001   4.339
 6697SOL     OW20989   4.738   1.996   2.237
 6697SOL    HW120990   4.653   2.035   2.201
 6697SOL    HW220991   4.743   2.013   2.335
 6698SOL     OW20992   3.602   4.190   1.762
 6698SOL    HW120993   3.509   4.193   1.725
 6698SOL    HW220994   3.655   4.266   1.727
 6699SOL     OW20995   1.147   5.046   5.594
 6699SOL    HW120996   1.170   5.087   5.505
 6699SOL    HW220997   1.221   4.986   5.623
 6700SOL     OW20998   6.106   0.761   0.668
 6700SOL    HW120999   6.092   0.747   0.766
 6700SOL    HW221000   6.033   0.715   0.617
 6701SOL     OW21001   5.726   6.715   1.470
 6701SOL    HW121002   5.801   6.706   1.536
 6701SOL    HW221003   5.705   6.625   1.431
 6702SOL     OW21004   2.524   1.782   0.894
 6702SOL    HW121005   2.571   1.698   0.922
 6702SOL    HW221006   2.591   1.855   0.884
 6703SOL     OW21007   1.757   2.150   5.847
 6703SOL    HW121008   1.765   2.248   5.827
 6703SOL    HW221009   1.670   2.116   5.812
 6704SOL     OW21010   3.784   1.687   5.229
 6704SOL    HW121011   3.867   1.632   5.228
 6704SOL    HW221012   3.769   1.726   5.138
 6705SOL     OW21013   6.540   3.507   1.415
 6705SOL    HW121014   6.489   3.505   1.330
 6705SOL    HW221015   6.580   3.598   1.428
 6706SOL     OW21016   0.876   6.108   1.321
 6706SOL    HW121017   0.817   6.188   1.330
 6706SOL    HW221018   0.901   6.075   1.412
 6707SOL     OW21019   6.295   0.497   2.473
 6707SOL    HW121020   6.255   0.416   2.516
 6707SOL    HW221021   6.235   0.530   2.400
 6708SOL     OW21022   6.774   4.323   1.177
 6708SOL    HW121023   6.755   4.235   1.220
 6708SOL    HW221024   6.776   4.313   1.078
 6709SOL     OW21025   1.512   4.555   2.148
 6709SOL    HW121026   1.427   4.607   2.147
 6709SOL    HW221027   1.499   4.468   2.100
 6710SOL     OW21028   4.135   0.980   2.074
 6710SOL    HW121029   4.037   0.998   2.065
 6710SOL    HW221030   4.184   1.067   2.084
 6711SOL     OW21031   4.593   5.963   6.735
 6711SOL    HW121032   4.624   5.954   6.641
 6711SOL    HW221033   4.613   6.055   6.768
 6712SOL     OW21034   5.859   3.579   0.420
 6712SOL    HW121035   5.879   3.495   0.370
 6712SOL    HW221036   5.892   3.570   0.514
 6713SOL     OW21037   1.895   0.386   4.110
 6713SOL    HW121038   1.842   0.311   4.149
 6713SOL    HW221039   1.952   0.427   4.181
 6714SOL     OW21040   5.782   1.218   0.522
 6714SOL    HW121041   5.797   1.317   0.518
 6714SOL    HW221042   5.736   1.195   0.608
 6715SOL     OW21043   1.330   1.177   1.037
 6715SOL    HW121044   1.300   1.218   1.124
 6715SOL    HW221045   1.292   1.085   1.028
 6716SOL     OW21046   6.649   5.345   2.828
 6716SOL    HW121047   6.552   5.328   2.809
 6716SOL    HW221048   6.665   5.443   2.837
 6717SOL     OW21049   3.274   2.702   6.842
 6717SOL    HW121050   3.249   2.625   6.784
 6717SOL    HW221051   3.219   2.700   6.926
 6718SOL     OW21052   3.498   0.994   2.013
 6718SOL    HW121053   3.502   0.923   2.084
 6718SOL    HW221054   3.447   0.960   1.935
 6719SOL     OW21055   1.912   0.047   0.020
 6719SOL    HW121056   1.861   0.080   0.100
 6719SOL    HW221057   2.008   0.073   0.028
 6720SOL     OW21058   2.327   0.767   5.918
 6720SOL    HW121059   2.350   0.862   5.896
 6720SOL    HW221060   2.282   0.724   5.840
 6721SOL     OW21061   0.447   1.568   0.505
 6721SOL    HW121062   0.521   1.525   0.557
 6721SOL    HW221063   0.365   1.573   0.562
 6722SOL     OW21064   6.329   3.000   7.008
 6722SOL    HW121065   6.420   3.004   6.966
 6722SOL    HW221066   6.282   3.087   6.995
 6723SOL     OW21067   1.531   1.944   6.093
 6723SOL    HW121068   1.539   1.948   5.993
 6723SOL    HW221069   1.584   1.866   6.127
 6724SOL     OW21070   2.254   3.212   5.829
 6724SOL    HW121071   2.252   3.123   5.785
 6724SOL    HW221072   2.185   3.272   5.787
 6725SOL     OW21073   5.821   2.809   3.134
 6725SOL    HW121074   5.777   2.881   3.189
 6725SOL    HW221075   5.919   2.809   3.152
 6726SOL     OW21076   0.160   1.234   5.484
 6726SOL    HW121077   0.229   1.238   5.412
 6726SOL    HW221078   0.184   1.163   5.551
 6727SOL     OW21079   0.992   4.552   5.532
 6727SOL    HW121080   1.032   4.638   5.500
 6727SOL    HW221081   1.056   4.506   5.594
 6728SOL     OW21082   3.999   1.675   3.460
 6728SOL    HW121083   4.058   1.701   3.384
 6728SOL    HW221084   3.956   1.587   3.440
 6729SOL     OW21085   5.398   1.928   1.017
 6729SOL    HW121086   5.337   1.945   1.095
 6729SOL    HW221087   5.472   1.994   1.017
 6730SOL     OW21088   1.450   1.226   0.771
 6730SOL    HW121089   1.408   1.240   0.861
 6730SOL    HW221090   1.388   1.174   0.713
 6731SOL     OW21091   2.356   6.618   1.348
 6731SOL    HW121092   2.407   6.548   1.298
 6731SOL    HW221093   2.403   6.706   1.342
 6732SOL     OW21094   5.800   4.171   4.356
 6732SOL    HW121095   5.847   4.085   4.336
 6732SOL    HW221096   5.835   4.243   4.297
 6733SOL     OW21097   3.340   6.190   0.189
 6733SOL    HW121098   3.404   6.258   0.154
 6733SOL    HW221099   3.386   6.101   0.197
 6734SOL     OW21100   5.261   1.610   4.770
 6734SOL    HW121101   5.206   1.568   4.842
 6734SOL    HW221102   5.216   1.595   4.681
 6735SOL     OW21103   5.731   3.356   4.015
 6735SOL    HW121104   5.802   3.366   3.945
 6735SOL    HW221105   5.734   3.263   4.052
 6736SOL     OW21106   3.298   4.032   1.094
 6736SOL    HW121107   3.380   4.002   1.045
 6736SOL    HW221108   3.238   4.080   1.030
 6737SOL     OW21109   0.984   2.816   1.497
 6737SOL    HW121110   0.933   2.878   1.555
 6737SOL    HW221111   1.082   2.830   1.512
 6738SOL     OW21112   1.614   5.437   3.381
 6738SOL    HW121113   1.689   5.490   3.340
 6738SOL    HW221114   1.613   5.450   3.480
 6739SOL     OW21115   6.735   7.021   3.878
 6739SOL    HW121116   6.657   7.016   3.941
 6739SOL    HW221117   6.781   6.932   3.875
 6740SOL     OW21118   6.493   6.844   4.337
 6740SOL    HW121119   6.448   6.801   4.415
 6740SOL    HW221120   6.507   6.776   4.265
 6741SOL     OW21121   4.796   1.848   5.794
 6741SOL    HW121122   4.764   1.822   5.885
 6741SOL    HW221123   4.892   1.876   5.799
 6742SOL     OW21124   5.409   4.453   3.243
 6742SOL    HW121125   5.502   4.458   3.279
 6742SOL    HW221126   5.397   4.524   3.173
 6743SOL     OW21127   4.028   4.375   6.733
 6743SOL    HW121128   3.933   4.354   6.708
 6743SOL    HW221129   4.090   4.324   6.673
 6744SOL     OW21130   6.554   5.437   6.123
 6744SOL    HW121131   6.584   5.514   6.180
 6744SOL    HW221132   6.628   5.411   6.061
 6745SOL     OW21133   7.017   6.240   4.179
 6745SOL    HW121134   0.034   6.168   4.232
 6745SOL    HW221135   6.935   6.273   4.226
 6746SOL     OW21136   1.627   1.566   2.946
 6746SOL    HW121137   1.727   1.570   2.947
 6746SOL    HW221138   1.592   1.621   2.870
 6747SOL     OW21139   0.302   6.753   6.404
 6747SOL    HW121140   0.332   6.664   6.372
 6747SOL    HW221141   0.330   6.765   6.500
 6748SOL     OW21142   3.010   1.569   4.250
 6748SOL    HW121143   2.998   1.648   4.310
 6748SOL    HW221144   3.075   1.506   4.291
 6749SOL     OW21145   3.297   4.038   0.703
 6749SOL    HW121146   3.389   4.059   0.739
 6749SOL    HW221147   3.229   4.093   0.752
 6750SOL     OW21148   2.728   1.332   4.473
 6750SOL    HW121149   2.801   1.327   4.404
 6750SOL    HW221150   2.768   1.360   4.561
 6751SOL     OW21151   4.506   0.225   3.685
 6751SOL    HW121152   4.481   0.136   3.724
 6751SOL    HW221153   4.470   0.232   3.592
 6752SOL     OW21154   1.650   6.613   2.605
 6752SOL    HW121155   1.746   6.642   2.607
 6752SOL    HW221156   1.595   6.675   2.661
 6753SOL     OW21157   3.831   2.246   5.533
 6753SOL    HW121158   3.752   2.190   5.557
 6753SOL    HW221159   3.828   2.333   5.583
 6754SOL     OW21160   6.137   0.749   0.990
 6754SOL    HW121161   6.198   0.674   1.016
 6754SOL    HW221162   6.048   0.736   1.033
 6755SOL     OW21163   3.121   4.998   1.217
 6755SOL    HW121164   3.060   4.922   1.194
 6755SOL    HW221165   3.126   5.061   1.140
 6756SOL     OW21166   2.479   1.315   5.841
 6756SOL    HW121167   2.385   1.345   5.822
 6756SOL    HW221168   2.535   1.330   5.759
 6757SOL     OW21169   3.453   1.057   0.915
 6757SOL    HW121170   3.529   1.122   0.925
 6757SOL    HW221171   3.439   1.009   1.002
 6758SOL     OW21172   5.064   2.633   1.056
 6758SOL    HW121173   5.134   2.705   1.060
 6758SOL    HW221174   4.977   2.673   1.028
 6759SOL     OW21175   6.904   3.320   3.042
 6759SOL    HW121176   6.853   3.253   2.989
 6759SOL    HW221177   6.910   3.406   2.990
 6760SOL     OW21178   6.032   3.245   2.769
 6760SOL    HW121179   5.969   3.187   2.820
 6760SOL    HW221180   6.007   3.245   2.672
 6761SOL     OW21181   4.819   2.371   4.593
 6761SOL    HW121182   4.805   2.466   4.620
 6761SOL    HW221183   4.749   2.314   4.635
 6762SOL     OW21184   0.374   5.047   4.069
 6762SOL    HW121185   0.307   5.084   4.004
 6762SOL    HW221186   0.343   4.958   4.101
 6763SOL     OW21187   5.013   5.864   5.291
 6763SOL    HW121188   5.084   5.932   5.271
 6763SOL    HW221189   5.049   5.796   5.355
 6764SOL     OW21190   1.373   5.535   1.991
 6764SOL    HW121191   1.343   5.474   1.917
 6764SOL    HW221192   1.453   5.586   1.961
 6765SOL     OW21193   6.406   4.804   3.895
 6765SOL    HW121194   6.478   4.873   3.900
 6765SOL    HW221195   6.343   4.827   3.821
 6766SOL     OW21196   4.197   6.363   0.095
 6766SOL    HW121197   4.272   6.331   0.038
 6766SOL    HW221198   4.198   6.314   0.182
 6767SOL     OW21199   3.133   0.718   0.584
 6767SOL    HW121200   3.224   0.741   0.620
 6767SOL    HW221201   3.122   0.759   0.493
 6768SOL     OW21202   1.790   0.842   6.049
 6768SOL    HW121203   1.780   0.926   5.996
 6768SOL    HW221204   1.887   0.825   6.067
 6769SOL     OW21205   3.216   2.495   0.056
 6769SOL    HW121206   3.300   2.450   0.026
 6769SOL    HW221207   3.138   2.434   0.042
 6770SOL     OW21208   6.892   0.713   2.146
 6770SOL    HW121209   6.828   0.707   2.223
 6770SOL    HW221210   6.884   0.803   2.103
 6771SOL     OW21211   4.780   2.352   3.060
 6771SOL    HW121212   4.829   2.317   2.980
 6771SOL    HW221213   4.838   2.341   3.141
 6772SOL     OW21214   3.232   1.415   2.877
 6772SOL    HW121215   3.182   1.469   2.809
 6772SOL    HW221216   3.177   1.337   2.906
 6773SOL     OW21217   6.529   4.404   1.641
 6773SOL    HW121218   6.467   4.331   1.670
 6773SOL    HW221219   6.590   4.369   1.570
 6774SOL     OW21220   7.021   2.558   6.041
 6774SOL    HW121221   6.991   2.462   6.047
 6774SOL    HW221222   0.014   2.593   6.132
 6775SOL     OW21223   2.492   3.361   0.657
 6775SOL    HW121224   2.432   3.306   0.599
 6775SOL    HW221225   2.484   3.329   0.752
 6776SOL     OW21226   4.193   4.710   0.033
 6776SOL    HW121227   4.263   4.744   6.997
 6776SOL    HW221228   4.198   4.611   0.040
 6777SOL     OW21229   3.877   4.546   6.184
 6777SOL    HW121230   3.829   4.501   6.109
 6777SOL    HW221231   3.911   4.476   6.248
 6778SOL     OW21232   0.351   4.481   2.006
 6778SOL    HW121233   0.408   4.403   2.031
 6778SOL    HW221234   0.282   4.497   2.077
 6779SOL     OW21235   6.525   4.277   6.387
 6779SOL    HW121236   6.559   4.321   6.471
 6779SOL    HW221237   6.502   4.348   6.320
 6780SOL     OW21238   0.832   2.153   2.460
 6780SOL    HW121239   0.747   2.109   2.429
 6780SOL    HW221240   0.905   2.133   2.394
 6781SOL     OW21241   5.479   6.407   5.163
 6781SOL    HW121242   5.502   6.459   5.245
 6781SOL    HW221243   5.390   6.437   5.128
 6782SOL     OW21244   0.247   0.308   2.728
 6782SOL    HW121245   0.223   0.212   2.719
 6782SOL    HW221246   0.235   0.336   2.823
 6783SOL     OW21247   0.200   0.027   6.103
 6783SOL    HW121248   0.259   0.045   6.181
 6783SOL    HW221249   0.195   0.108   6.044
 6784SOL     OW21250   3.583   3.945   0.418
 6784SOL    HW121251   3.654   3.885   0.380
 6784SOL    HW221252   3.566   4.020   0.354
 6785SOL     OW21253   5.503   4.793   2.407
 6785SOL    HW121254   5.444   4.734   2.353
 6785SOL    HW221255   5.566   4.737   2.461
 6786SOL     OW21256   1.102   1.887   6.693
 6786SOL    HW121257   1.010   1.864   6.664
 6786SOL    HW221258   1.167   1.868   6.619
 6787SOL     OW21259   1.638   3.557   0.874
 6787SOL    HW121260   1.618   3.654   0.862
 6787SOL    HW221261   1.726   3.547   0.920
 6788SOL     OW21262   2.794   3.887   1.612
 6788SOL    HW121263   2.863   3.869   1.682
 6788SOL    HW221264   2.724   3.815   1.614
 6789SOL     OW21265   0.523   6.770   2.349
 6789SOL    HW121266   0.424   6.764   2.337
 6789SOL    HW221267   0.543   6.830   2.427
 6790SOL     OW21268   1.169   4.127   0.553
 6790SOL    HW121269   1.209   4.111   0.643
 6790SOL    HW221270   1.185   4.048   0.495
 6791SOL     OW21271   3.972   2.537   0.741
 6791SOL    HW121272   3.895   2.564   0.799
 6791SOL    HW221273   4.000   2.615   0.685
 6792SOL     OW21274   6.590   6.396   5.791
 6792SOL    HW121275   6.540   6.311   5.810
 6792SOL    HW221276   6.688   6.377   5.793
 6793SOL     OW21277   0.813   2.511   0.896
 6793SOL    HW121278   0.826   2.583   0.828
 6793SOL    HW221279   0.727   2.463   0.878
 6794SOL     OW21280   5.074   1.079   4.914
 6794SOL    HW121281   5.123   1.135   4.848
 6794SOL    HW221282   5.119   0.990   4.924
 6795SOL     OW21283   2.564   6.116   0.725
 6795SOL    HW121284   2.550   6.034   0.779
 6795SOL    HW221285   2.477   6.162   0.709
 6796SOL     OW21286   6.168   0.903   2.678
 6796SOL    HW121287   6.200   0.995   2.656
 6796SOL    HW221288   6.244   0.838   2.671
 6797SOL     OW21289   4.860   3.349   1.706
 6797SOL    HW121290   4.854   3.335   1.805
 6797SOL    HW221291   4.863   3.260   1.660
 6798SOL     OW21292   5.554   6.049   3.126
 6798SOL    HW121293   5.584   5.953   3.130
 6798SOL    HW221294   5.615   6.100   3.066
 6799SOL     OW21295   5.703   5.607   6.986
 6799SOL    HW121296   5.733   5.689   0.007
 6799SOL    HW221297   5.680   5.536   0.027
 6800SOL     OW21298   2.011   4.569   1.092
 6800SOL    HW121299   2.004   4.669   1.095
 6800SOL    HW221300   1.993   4.536   0.999
 6801SOL     OW21301   1.691   1.287   2.398
 6801SOL    HW121302   1.715   1.328   2.310
 6801SOL    HW221303   1.760   1.311   2.466
 6802SOL     OW21304   2.540   5.878   0.812
 6802SOL    HW121305   2.450   5.834   0.814
 6802SOL    HW221306   2.612   5.808   0.808
 6803SOL     OW21307   4.507   2.492   6.375
 6803SOL    HW121308   4.466   2.569   6.425
 6803SOL    HW221309   4.481   2.406   6.419
 6804SOL     OW21310   2.599   5.275   3.710
 6804SOL    HW121311   2.557   5.242   3.795
 6804SOL    HW221312   2.563   5.366   3.689
 6805SOL     OW21313   5.594   6.253   4.652
 6805SOL    HW121314   5.507   6.298   4.635
 6805SOL    HW221315   5.582   6.181   4.721
 6806SOL     OW21316   5.737   1.211   3.569
 6806SOL    HW121317   5.738   1.112   3.556
 6806SOL    HW221318   5.658   1.250   3.521
 6807SOL     OW21319   2.309   3.533   0.359
 6807SOL    HW121320   2.348   3.616   0.319
 6807SOL    HW221321   2.374   3.458   0.348
 6808SOL     OW21322   0.676   3.015   5.214
 6808SOL    HW121323   0.628   2.935   5.249
 6808SOL    HW221324   0.747   3.042   5.278
 6809SOL     OW21325   1.579   4.157   6.982
 6809SOL    HW121326   1.479   4.154   6.983
 6809SOL    HW221327   1.611   4.198   0.041
 6810SOL     OW21328   1.821   0.590   1.654
 6810SOL    HW121329   1.744   0.642   1.616
 6810SOL    HW221330   1.831   0.504   1.604
 6811SOL     OW21331   4.371   4.354   0.197
 6811SOL    HW121332   4.467   4.328   0.186
 6811SOL    HW221333   4.315   4.302   0.132
 6812SOL     OW21334   3.799   3.271   3.409
 6812SOL    HW121335   3.801   3.172   3.399
 6812SOL    HW221336   3.706   3.302   3.428
 6813SOL     OW21337   4.391   1.781   1.781
 6813SOL    HW121338   4.328   1.852   1.813
 6813SOL    HW221339   4.407   1.792   1.682
 6814SOL     OW21340   3.294   3.093   0.544
 6814SOL    HW121341   3.198   3.114   0.561
 6814SOL    HW221342   3.319   3.011   0.595
 6815SOL     OW21343   3.140   0.047   1.214
 6815SOL    HW121344   3.193   0.089   1.287
 6815SOL    HW221345   3.057   0.101   1.197
 6816SOL     OW21346   7.008   5.705   0.043
 6816SOL    HW121347   6.909   5.713   0.055
 6816SOL    HW221348   0.025   5.794   0.057
 6817SOL     OW21349   6.618   1.806   5.372
 6817SOL    HW121350   6.647   1.744   5.299
 6817SOL    HW221351   6.522   1.832   5.357
 6818SOL     OW21352   2.628   5.831   2.096
 6818SOL    HW121353   2.671   5.863   2.180
 6818SOL    HW221354   2.572   5.904   2.057
 6819SOL     OW21355   3.978   0.982   4.329
 6819SOL    HW121356   4.069   1.013   4.355
 6819SOL    HW221357   3.927   1.059   4.290
 6820SOL     OW21358   1.525   5.107   3.369
 6820SOL    HW121359   1.514   5.176   3.440
 6820SOL    HW221360   1.619   5.107   3.336
 6821SOL     OW21361   3.338   1.987   5.389
 6821SOL    HW121362   3.304   2.078   5.414
 6821SOL    HW221363   3.346   1.981   5.290
 6822SOL     OW21364   5.765   1.733   5.829
 6822SOL    HW121365   5.760   1.814   5.887
 6822SOL    HW221366   5.826   1.666   5.871
 6823SOL     OW21367   3.968   3.056   3.980
 6823SOL    HW121368   3.878   3.028   4.013
 6823SOL    HW221369   3.971   3.046   3.881
 6824SOL     OW21370   0.759   2.907   6.510
 6824SOL    HW121371   0.819   2.828   6.501
 6824SOL    HW221372   0.746   2.949   6.419
 6825SOL     OW21373   5.394   6.666   2.854
 6825SOL    HW121374   5.467   6.715   2.806
 6825SOL    HW221375   5.395   6.692   2.951
 6826SOL     OW21376   2.263   4.218   3.012
 6826SOL    HW121377   2.319   4.243   3.092
 6826SOL    HW221378   2.209   4.297   2.985
 6827SOL     OW21379   5.016   5.973   0.465
 6827SOL    HW121380   4.928   6.006   0.498
 6827SOL    HW221381   5.052   5.905   0.528
 6828SOL     OW21382   2.192   2.007   1.355
 6828SOL    HW121383   2.203   2.078   1.286
 6828SOL    HW221384   2.183   1.918   1.311
 6829SOL     OW21385   4.892   6.421   3.823
 6829SOL    HW121386   4.923   6.386   3.911
 6829SOL    HW221387   4.851   6.511   3.834
 6830SOL     OW21388   5.695   1.254   3.162
 6830SOL    HW121389   5.695   1.156   3.145
 6830SOL    HW221390   5.649   1.272   3.249
 6831SOL     OW21391   1.025   0.162   6.514
 6831SOL    HW121392   1.052   0.222   6.439
 6831SOL    HW221393   0.980   0.080   6.478
 6832SOL     OW21394   2.452   4.280   1.421
 6832SOL    HW121395   2.392   4.240   1.490
 6832SOL    HW221396   2.402   4.350   1.371
 6833SOL     OW21397   4.397   5.041   0.098
 6833SOL    HW121398   4.454   4.959   0.099
 6833SOL    HW221399   4.301   5.015   0.112
 6834SOL     OW21400   4.671   6.738   1.780
 6834SOL    HW121401   4.664   6.742   1.880
 6834SOL    HW221402   4.768   6.746   1.754
 6835SOL     OW21403   4.372   6.719   5.149
 6835SOL    HW121404   4.373   6.665   5.233
 6835SOL    HW221405   4.409   6.665   5.073
 6836SOL     OW21406   3.279   6.600   0.719
 6836SOL    HW121407   3.217   6.523   0.731
 6836SOL    HW221408   3.300   6.641   0.808
 6837SOL     OW21409   1.094   3.269   2.343
 6837SOL    HW121410   1.021   3.331   2.313
 6837SOL    HW221411   1.146   3.311   2.417
 6838SOL     OW21412   1.677   0.612   0.821
 6838SOL    HW121413   1.635   0.567   0.900
 6838SOL    HW221414   1.771   0.639   0.845
 6839SOL     OW21415   5.151   1.478   0.532
 6839SOL    HW121416   5.099   1.553   0.491
 6839SOL    HW221417   5.179   1.414   0.459
 6840SOL     OW21418   2.272   1.995   4.970
 6840SOL    HW121419   2.294   1.913   4.916
 6840SOL    HW221420   2.182   1.983   5.012
 6841SOL     OW21421   5.189   3.759   5.936
 6841SOL    HW121422   5.170   3.722   5.845
 6841SOL    HW221423   5.287   3.757   5.953
 6842SOL     OW21424   2.655   4.739   1.152
 6842SOL    HW121425   2.589   4.697   1.089
 6842SOL    HW221426   2.626   4.720   1.246
 6843SOL     OW21427   5.395   6.972   6.827
 6843SOL    HW121428   5.475   6.998   6.772
 6843SOL    HW221429   5.312   6.999   6.779
 6844SOL     OW21430   5.846   0.832   4.037
 6844SOL    HW121431   5.858   0.902   3.966
 6844SOL    HW221432   5.754   0.795   4.032
 6845SOL     OW21433   6.088   2.882   2.727
 6845SOL    HW121434   6.040   2.955   2.775
 6845SOL    HW221435   6.030   2.848   2.653
 6846SOL     OW21436   3.128   4.247   0.046
 6846SOL    HW121437   3.153   4.166   7.018
 6846SOL    HW221438   3.133   4.328   7.014
 6847SOL     OW21439   6.548   3.626   4.692
 6847SOL    HW121440   6.591   3.701   4.643
 6847SOL    HW221441   6.526   3.655   4.785
 6848SOL     OW21442   5.536   4.124   4.024
 6848SOL    HW121443   5.442   4.134   3.993
 6848SOL    HW221444   5.537   4.093   4.119
 6849SOL     OW21445   3.230   4.612   5.575
 6849SOL    HW121446   3.139   4.604   5.615
 6849SOL    HW221447   3.292   4.548   5.620
 6850SOL     OW21448   4.219   2.312   2.949
 6850SOL    HW121449   4.125   2.316   2.916
 6850SOL    HW221450   4.219   2.295   3.048
 6851SOL     OW21451   1.785   3.050   2.738
 6851SOL    HW121452   1.860   3.020   2.796
 6851SOL    HW221453   1.700   3.048   2.790
 6852SOL     OW21454   2.655   5.345   1.255
 6852SOL    HW121455   2.724   5.274   1.244
 6852SOL    HW221456   2.682   5.407   1.328
 6853SOL     OW21457   5.379   3.175   5.819
 6853SOL    HW121458   5.404   3.272   5.806
 6853SOL    HW221459   5.280   3.166   5.820
 6854SOL     OW21460   5.407   6.279   5.549
 6854SOL    HW121461   5.383   6.323   5.636
 6854SOL    HW221462   5.494   6.314   5.517
 6855SOL     OW21463   4.655   5.459   3.752
 6855SOL    HW121464   4.627   5.421   3.664
 6855SOL    HW221465   4.753   5.443   3.765
 6856SOL     OW21466   0.481   2.319   6.035
 6856SOL    HW121467   0.436   2.265   5.965
 6856SOL    HW221468   0.528   2.396   5.992
 6857SOL     OW21469   0.729   3.510   6.312
 6857SOL    HW121470   0.772   3.600   6.308
 6857SOL    HW221471   0.768   3.457   6.388
 6858SOL     OW21472   3.323   4.261   1.697
 6858SOL    HW121473   3.233   4.293   1.727
 6858SOL    HW221474   3.388   4.337   1.697
 6859SOL     OW21475   0.896   1.451   1.879
 6859SOL    HW121476   0.849   1.390   1.815
 6859SOL    HW221477   0.868   1.429   1.972
 6860SOL     OW21478   6.968   4.976   2.456
 6860SOL    HW121479   0.040   4.962   2.471
 6860SOL    HW221480   6.949   4.973   2.358
 6861SOL     OW21481   4.938   3.390   6.141
 6861SOL    HW121482   5.032   3.409   6.113
 6861SOL    HW221483   4.930   3.403   6.240
 6862SOL     OW21484   0.842   5.167   6.164
 6862SOL    HW121485   0.800   5.097   6.107
 6862SOL    HW221486   0.939   5.144   6.178
 6863SOL     OW21487   0.113   5.664   5.016
 6863SOL    HW121488   0.132   5.601   5.091
 6863SOL    HW221489   0.192   5.724   5.002
 6864SOL     OW21490   1.742   4.140   5.707
 6864SOL    HW121491   1.649   4.127   5.741
 6864SOL    HW221492   1.751   4.231   5.666
 6865SOL     OW21493   2.118   0.729   5.247
 6865SOL    HW121494   2.130   0.809   5.307
 6865SOL    HW221495   2.053   0.666   5.288
 6866SOL     OW21496   6.043   4.213   2.184
 6866SOL    HW121497   6.136   4.191   2.155
 6866SOL    HW221498   6.043   4.237   2.281
 6867SOL     OW21499   1.942   4.455   1.342
 6867SOL    HW121500   1.993   4.490   1.263
 6867SOL    HW221501   2.005   4.413   1.407
 6868SOL     OW21502   2.039   5.578   5.113
 6868SOL    HW121503   2.072   5.493   5.153
 6868SOL    HW221504   2.025   5.565   5.015
 6869SOL     OW21505   3.803   0.069   5.786
 6869SOL    HW121506   3.772   7.008   5.824
 6869SOL    HW221507   3.800   0.140   5.857
 6870SOL     OW21508   0.984   3.410   0.216
 6870SOL    HW121509   1.004   3.458   0.131
 6870SOL    HW221510   0.976   3.312   0.198
 6871SOL     OW21511   0.088   3.582   2.082
 6871SOL    HW121512   0.055   3.596   1.989
 6871SOL    HW221513   0.070   3.487   2.109
 6872SOL     OW21514   1.426   2.692   2.335
 6872SOL    HW121515   1.402   2.775   2.285
 6872SOL    HW221516   1.378   2.614   2.294
 6873SOL     OW21517   1.307   3.932   3.940
 6873SOL    HW121518   1.245   3.874   3.886
 6873SOL    HW221519   1.390   3.881   3.960
 6874SOL     OW21520   6.162   5.470   3.465
 6874SOL    HW121521   6.148   5.463   3.367
 6874SOL    HW221522   6.195   5.561   3.488
 6875SOL     OW21523   1.694   2.899   1.782
 6875SOL    HW121524   1.776   2.944   1.747
 6875SOL    HW221525   1.645   2.963   1.842
 6876SOL     OW21526   3.450   0.533   3.240
 6876SOL    HW121527   3.351   0.521   3.241
 6876SOL    HW221528   3.472   0.630   3.238
 6877SOL     OW21529   2.707   4.340   1.441
 6877SOL    HW121530   2.611   4.322   1.460
 6877SOL    HW221531   2.738   4.416   1.499
 6878SOL     OW21532   2.219   1.712   3.891
 6878SOL    HW121533   2.185   1.627   3.931
 6878SOL    HW221534   2.186   1.790   3.944
 6879SOL     OW21535   2.111   2.520   0.432
 6879SOL    HW121536   2.038   2.507   0.499
 6879SOL    HW221537   2.080   2.489   0.342
 6880SOL     OW21538   1.182   5.950   6.540
 6880SOL    HW121539   1.271   5.976   6.501
 6880SOL    HW221540   1.155   6.018   6.609
 6881SOL     OW21541   1.559   3.829   1.078
 6881SOL    HW121542   1.610   3.743   1.083
 6881SOL    HW221543   1.612   3.896   1.026
 6882SOL     OW21544   2.825   1.383   0.158
 6882SOL    HW121545   2.839   1.481   0.143
 6882SOL    HW221546   2.732   1.367   0.190
 6883SOL     OW21547   5.182   0.628   6.600
 6883SOL    HW121548   5.154   0.563   6.671
 6883SOL    HW221549   5.221   0.579   6.523
 6884SOL     OW21550   2.046   4.630   3.245
 6884SOL    HW121551   2.134   4.607   3.203
 6884SOL    HW221552   1.986   4.550   3.246
 6885SOL     OW21553   4.769   4.767   4.338
 6885SOL    HW121554   4.831   4.689   4.333
 6885SOL    HW221555   4.698   4.758   4.268
 6886SOL     OW21556   5.991   1.331   4.844
 6886SOL    HW121557   6.059   1.271   4.886
 6886SOL    HW221558   5.899   1.297   4.866
 6887SOL     OW21559   4.868   5.556   0.303
 6887SOL    HW121560   4.956   5.558   0.256
 6887SOL    HW221561   4.801   5.509   0.246
 6888SOL     OW21562   5.615   4.265   6.246
 6888SOL    HW121563   5.616   4.230   6.340
 6888SOL    HW221564   5.655   4.357   6.244
 6889SOL     OW21565   1.672   2.785   5.877
 6889SOL    HW121566   1.609   2.854   5.843
 6889SOL    HW221567   1.632   2.740   5.957
 6890SOL     OW21568   3.754   5.718   2.971
 6890SOL    HW121569   3.688   5.737   2.899
 6890SOL    HW221570   3.847   5.717   2.932
 6891SOL     OW21571   2.356   2.705   1.254
 6891SOL    HW121572   2.417   2.712   1.333
 6891SOL    HW221573   2.307   2.618   1.257
 6892SOL     OW21574   3.461   1.582   4.218
 6892SOL    HW121575   3.435   1.597   4.123
 6892SOL    HW221576   3.382   1.548   4.269
 6893SOL     OW21577   6.052   3.461   6.804
 6893SOL    HW121578   6.046   3.362   6.804
 6893SOL    HW221579   5.971   3.500   6.847
 6894SOL     OW21580   5.449   3.779   1.063
 6894SOL    HW121581   5.502   3.734   0.992
 6894SOL    HW221582   5.449   3.723   1.146
 6895SOL     OW21583   1.217   5.817   1.075
 6895SOL    HW121584   1.222   5.719   1.055
 6895SOL    HW221585   1.142   5.858   1.024
 6896SOL     OW21586   3.691   1.639   4.364
 6896SOL    HW121587   3.714   1.555   4.414
 6896SOL    HW221588   3.597   1.634   4.331
 6897SOL     OW21589   4.899   3.795   4.812
 6897SOL    HW121590   4.867   3.767   4.903
 6897SOL    HW221591   4.985   3.748   4.791
 6898SOL     OW21592   3.253   1.103   1.674
 6898SOL    HW121593   3.211   1.188   1.708
 6898SOL    HW221594   3.332   1.126   1.617
 6899SOL     OW21595   5.527   6.032   2.713
 6899SOL    HW121596   5.511   6.105   2.780
 6899SOL    HW221597   5.451   5.967   2.715
 6900SOL     OW21598   6.639   4.643   6.141
 6900SOL    HW121599   6.685   4.730   6.155
 6900SOL    HW221600   6.704   4.568   6.157
 6901SOL     OW21601   4.419   5.015   6.835
 6901SOL    HW121602   4.438   5.043   6.929
 6901SOL    HW221603   4.465   4.928   6.816
 6902SOL     OW21604   6.639   6.012   5.830
 6902SOL    HW121605   6.573   6.077   5.868
 6902SOL    HW221606   6.607   5.919   5.848
 6903SOL     OW21607   2.883   4.923   5.573
 6903SOL    HW121608   2.866   4.827   5.549
 6903SOL    HW221609   2.799   4.976   5.562
 6904SOL     OW21610   0.472   6.121   5.475
 6904SOL    HW121611   0.529   6.181   5.531
 6904SOL    HW221612   0.527   6.043   5.443
 6905SOL     OW21613   5.543   5.213   0.077
 6905SOL    HW121614   5.603   5.237   0.153
 6905SOL    HW221615   5.585   5.241   7.017
 6906SOL     OW21616   3.442   1.848   3.607
 6906SOL    HW121617   3.524   1.791   3.598
 6906SOL    HW221618   3.467   1.936   3.646
 6907SOL     OW21619   6.120   2.071   1.534
 6907SOL    HW121620   6.149   1.979   1.559
 6907SOL    HW221621   6.123   2.081   1.434
 6908SOL     OW21622   2.241   4.276   6.841
 6908SOL    HW121623   2.289   4.254   6.756
 6908SOL    HW221624   2.184   4.357   6.827
 6909SOL     OW21625   5.153   4.809   2.246
 6909SOL    HW121626   5.058   4.839   2.238
 6909SOL    HW221627   5.209   4.859   2.180
 6910SOL     OW21628   1.537   3.144   3.317
 6910SOL    HW121629   1.620   3.199   3.330
 6910SOL    HW221630   1.458   3.197   3.347
 6911SOL     OW21631   3.729   0.250   5.340
 6911SOL    HW121632   3.818   0.244   5.294
 6911SOL    HW221633   3.719   0.341   5.381
 6912SOL     OW21634   2.333   3.249   6.094
 6912SOL    HW121635   2.316   3.254   5.996
 6912SOL    HW221636   2.384   3.165   6.115
 6913SOL     OW21637   5.467   6.147   5.267
 6913SOL    HW121638   5.508   6.199   5.341
 6913SOL    HW221639   5.447   6.208   5.190
 6914SOL     OW21640   6.237   3.925   1.753
 6914SOL    HW121641   6.236   3.863   1.831
 6914SOL    HW221642   6.164   3.993   1.763
 6915SOL     OW21643   1.058   3.020   2.217
 6915SOL    HW121644   1.148   2.978   2.211
 6915SOL    HW221645   1.063   3.103   2.274
 6916SOL     OW21646   5.374   1.206   5.802
 6916SOL    HW121647   5.287   1.172   5.765
 6916SOL    HW221648   5.355   1.282   5.865
 6917SOL     OW21649   4.967   5.614   1.830
 6917SOL    HW121650   5.015   5.532   1.797
 6917SOL    HW221651   5.008   5.645   1.915
 6918SOL     OW21652   0.563   3.051   2.418
 6918SOL    HW121653   0.493   2.993   2.377
 6918SOL    HW221654   0.585   3.018   2.509
 6919SOL     OW21655   6.016   6.566   2.691
 6919SOL    HW121656   6.070   6.650   2.700
 6919SOL    HW221657   6.077   6.488   2.685
 6920SOL     OW21658   4.750   0.083   5.478
 6920SOL    HW121659   4.734   0.061   5.382
 6920SOL    HW221660   4.769   7.026   5.529
 6921SOL     OW21661   4.112   0.179   4.177
 6921SOL    HW121662   4.167   0.211   4.254
 6921SOL    HW221663   4.168   0.121   4.118
 6922SOL     OW21664   1.591   6.139   4.637
 6922SOL    HW121665   1.629   6.047   4.639
 6922SOL    HW221666   1.615   6.183   4.550
 6923SOL     OW21667   6.142   6.328   2.643
 6923SOL    HW121668   6.225   6.342   2.589
 6923SOL    HW221669   6.114   6.232   2.638
 6924SOL     OW21670   3.094   5.952   1.361
 6924SOL    HW121671   3.088   5.931   1.263
 6924SOL    HW221672   3.002   5.967   1.397
 6925SOL     OW21673   4.674   5.938   6.472
 6925SOL    HW121674   4.748   5.904   6.414
 6925SOL    HW221675   4.617   5.861   6.503
 6926SOL     OW21676   2.359   1.512   0.115
 6926SOL    HW121677   2.271   1.471   0.089
 6926SOL    HW221678   2.370   1.510   0.214
 6927SOL     OW21679   3.708   0.818   0.262
 6927SOL    HW121680   3.722   0.875   0.181
 6927SOL    HW221681   3.785   0.755   0.272
 6928SOL     OW21682   4.823   5.575   0.878
 6928SOL    HW121683   4.774   5.651   0.837
 6928SOL    HW221684   4.766   5.493   0.877
 6929SOL     OW21685   5.597   5.241   1.332
 6929SOL    HW121686   5.594   5.190   1.418
 6929SOL    HW221687   5.551   5.329   1.344
 6930SOL     OW21688   0.661   1.498   0.663
 6930SOL    HW121689   0.630   1.480   0.757
 6930SOL    HW221690   0.713   1.584   0.661
 6931SOL     OW21691   2.180   1.512   1.120
 6931SOL    HW121692   2.154   1.498   1.025
 6931SOL    HW221693   2.280   1.517   1.127
 6932SOL     OW21694   4.579   4.830   0.592
 6932SOL    HW121695   4.532   4.881   0.520
 6932SOL    HW221696   4.650   4.886   0.633
 6933SOL     OW21697   3.832   6.192   6.032
 6933SOL    HW121698   3.860   6.175   6.126
 6933SOL    HW221699   3.912   6.193   5.972
 6934SOL     OW21700   4.902   3.681   6.752
 6934SOL    HW121701   4.946   3.603   6.797
 6934SOL    HW221702   4.912   3.672   6.653
 6935SOL     OW21703   4.801   5.489   2.479
 6935SOL    HW121704   4.779   5.426   2.554
 6935SOL    HW221705   4.838   5.574   2.517
 6936SOL     OW21706   0.178   2.050   4.484
 6936SOL    HW121707   0.108   2.066   4.553
 6936SOL    HW221708   0.135   2.020   4.399
 6937SOL     OW21709   6.060   6.137   0.306
 6937SOL    HW121710   6.053   6.234   0.328
 6937SOL    HW221711   6.114   6.091   0.376
 6938SOL     OW21712   0.511   0.983   4.739
 6938SOL    HW121713   0.415   1.004   4.720
 6938SOL    HW221714   0.547   0.923   4.667
 6939SOL     OW21715   6.109   5.108   3.601
 6939SOL    HW121716   6.069   5.184   3.652
 6939SOL    HW221717   6.199   5.135   3.566
 6940SOL     OW21718   4.939   6.808   0.436
 6940SOL    HW121719   5.026   6.851   0.462
 6940SOL    HW221720   4.866   6.847   0.492
 6941SOL     OW21721   2.995   3.670   2.201
 6941SOL    HW121722   3.016   3.576   2.226
 6941SOL    HW221723   2.936   3.672   2.121
 6942SOL     OW21724   6.143   6.669   1.947
 6942SOL    HW121725   6.180   6.585   1.985
 6942SOL    HW221726   6.212   6.713   1.889
 6943SOL     OW21727   3.969   4.975   0.130
 6943SOL    HW121728   3.914   4.909   0.180
 6943SOL    HW221729   3.955   4.963   0.032
 6944SOL     OW21730   1.145   4.837   6.351
 6944SOL    HW121731   1.101   4.910   6.403
 6944SOL    HW221732   1.107   4.834   6.258
 6945SOL     OW21733   6.373   2.408   0.750
 6945SOL    HW121734   6.303   2.363   0.805
 6945SOL    HW221735   6.380   2.363   0.661
 6946SOL     OW21736   3.903   5.962   1.957
 6946SOL    HW121737   3.853   6.025   2.017
 6946SOL    HW221738   3.934   6.012   1.876
 6947SOL     OW21739   4.166   5.095   5.914
 6947SOL    HW121740   4.216   5.136   5.991
 6947SOL    HW221741   4.227   5.086   5.836
 6948SOL     OW21742   0.222   6.696   1.021
 6948SOL    HW121743   0.201   6.786   1.060
 6948SOL    HW221744   0.288   6.649   1.078
 6949SOL     OW21745   2.515   2.478   3.208
 6949SOL    HW121746   2.515   2.521   3.298
 6949SOL    HW221747   2.577   2.399   3.209
 6950SOL     OW21748   1.053   0.294   3.871
 6950SOL    HW121749   1.073   0.392   3.880
 6950SOL    HW221750   1.094   0.260   3.786
 6951SOL     OW21751   6.302   5.653   6.604
 6951SOL    HW121752   6.317   5.674   6.507
 6951SOL    HW221753   6.259   5.731   6.649
 6952SOL     OW21754   3.091   4.889   3.317
 6952SOL    HW121755   3.138   4.920   3.399
 6952SOL    HW221756   3.016   4.829   3.341
 6953SOL     OW21757   5.192   6.880   0.849
 6953SOL    HW121758   5.233   6.971   0.849
 6953SOL    HW221759   5.262   6.812   0.828
 6954SOL     OW21760   0.101   3.529   1.197
 6954SOL    HW121761   0.050   3.544   1.112
 6954SOL    HW221762   0.186   3.581   1.194
 6955SOL     OW21763   5.222   0.147   2.609
 6955SOL    HW121764   5.287   0.202   2.556
 6955SOL    HW221765   5.198   0.195   2.693
 6956SOL     OW21766   6.133   5.661   2.517
 6956SOL    HW121767   6.127   5.717   2.600
 6956SOL    HW221768   6.060   5.594   2.517
 6957SOL     OW21769   5.062   6.060   6.542
 6957SOL    HW121770   5.024   6.003   6.469
 6957SOL    HW221771   5.069   6.006   6.626
 6958SOL     OW21772   3.620   3.427   4.074
 6958SOL    HW121773   3.601   3.351   4.012
 6958SOL    HW221774   3.719   3.439   4.084
 6959SOL     OW21775   1.826   3.805   3.278
 6959SOL    HW121776   1.819   3.766   3.186
 6959SOL    HW221777   1.922   3.811   3.304
 6960SOL     OW21778   1.436   4.774   0.794
 6960SOL    HW121779   1.461   4.841   0.725
 6960SOL    HW221780   1.440   4.816   0.885
 6961SOL     OW21781   4.773   1.226   4.746
 6961SOL    HW121782   4.698   1.259   4.802
 6961SOL    HW221783   4.825   1.157   4.797
 6962SOL     OW21784   3.587   6.553   0.497
 6962SOL    HW121785   3.488   6.562   0.486
 6962SOL    HW221786   3.611   6.456   0.503
 6963SOL     OW21787   5.291   5.740   6.964
 6963SOL    HW121788   5.330   5.648   6.953
 6963SOL    HW221789   5.194   5.738   6.938
 6964SOL     OW21790   2.904   0.339   5.383
 6964SOL    HW121791   2.932   0.376   5.294
 6964SOL    HW221792   2.985   0.309   5.433
 6965SOL     OW21793   1.041   2.354   0.025
 6965SOL    HW121794   0.952   2.348   0.070
 6965SOL    HW221795   1.048   2.442   7.004
 6966SOL     OW21796   1.483   1.024   1.760
 6966SOL    HW121797   1.581   1.008   1.764
 6966SOL    HW221798   1.464   1.108   1.710
 6967SOL     OW21799   3.657   1.301   5.759
 6967SOL    HW121800   3.743   1.294   5.811
 6967SOL    HW221801   3.626   1.396   5.759
 6968SOL     OW21802   3.184   0.510   3.160
 6968SOL    HW121803   3.117   0.584   3.159
 6968SOL    HW221804   3.199   0.478   3.066
 6969SOL     OW21805   3.185   1.962   1.152
 6969SOL    HW121806   3.147   1.871   1.134
 6969SOL    HW221807   3.111   2.025   1.173
 6970SOL     OW21808   2.949   4.813   6.396
 6970SOL    HW121809   2.950   4.740   6.327
 6970SOL    HW221810   2.936   4.901   6.351
 6971SOL     OW21811   5.447   4.297   1.290
 6971SOL    HW121812   5.461   4.198   1.282
 6971SOL    HW221813   5.410   4.318   1.380
 6972SOL     OW21814   5.195   3.530   2.874
 6972SOL    HW121815   5.105   3.533   2.917
 6972SOL    HW221816   5.251   3.459   2.918
 6973SOL     OW21817   1.061   2.235   2.781
 6973SOL    HW121818   1.086   2.272   2.691
 6973SOL    HW221819   1.047   2.310   2.845
 6974SOL     OW21820   3.023   3.902   2.378
 6974SOL    HW121821   2.971   3.820   2.356
 6974SOL    HW221822   3.041   3.954   2.295
 6975SOL     OW21823   3.038   5.758   4.570
 6975SOL    HW121824   2.997   5.674   4.533
 6975SOL    HW221825   3.061   5.743   4.666
 6976SOL     OW21826   5.028   4.359   5.209
 6976SOL    HW121827   5.028   4.400   5.300
 6976SOL    HW221828   5.012   4.260   5.217
 6977SOL     OW21829   4.061   4.062   1.596
 6977SOL    HW121830   4.083   3.997   1.669
 6977SOL    HW221831   3.965   4.052   1.571
 6978SOL     OW21832   5.708   3.305   0.851
 6978SOL    HW121833   5.635   3.319   0.917
 6978SOL    HW221834   5.796   3.316   0.896
 6979SOL     OW21835   1.291   3.501   1.612
 6979SOL    HW121836   1.201   3.506   1.654
 6979SOL    HW221837   1.323   3.406   1.611
 6980SOL     OW21838   1.570   0.847   3.374
 6980SOL    HW121839   1.604   0.761   3.412
 6980SOL    HW221840   1.595   0.923   3.434
 6981SOL     OW21841   3.704   3.507   6.712
 6981SOL    HW121842   3.777   3.494   6.779
 6981SOL    HW221843   3.732   3.468   6.624
 6982SOL     OW21844   1.237   1.180   3.705
 6982SOL    HW121845   1.163   1.121   3.738
 6982SOL    HW221846   1.324   1.135   3.720
 6983SOL     OW21847   4.467   1.215   5.314
 6983SOL    HW121848   4.468   1.305   5.270
 6983SOL    HW221849   4.546   1.162   5.283
 6984SOL     OW21850   1.644   2.403   2.911
 6984SOL    HW121851   1.688   2.331   2.858
 6984SOL    HW221852   1.554   2.372   2.941
 6985SOL     OW21853   6.579   4.452   0.296
 6985SOL    HW121854   6.610   4.538   0.336
 6985SOL    HW221855   6.522   4.470   0.216
 6986SOL     OW21856   3.895   6.118   6.304
 6986SOL    HW121857   3.935   6.059   6.373
 6986SOL    HW221858   3.883   6.210   6.342
 6987SOL     OW21859   0.207   1.767   5.423
 6987SOL    HW121860   0.133   1.782   5.488
 6987SOL    HW221861   0.190   1.682   5.372
 6988SOL     OW21862   2.633   0.378   5.977
 6988SOL    HW121863   2.627   0.396   6.076
 6988SOL    HW221864   2.637   0.465   5.928
 6989SOL     OW21865   6.690   4.363   1.879
 6989SOL    HW121866   6.751   4.434   1.914
 6989SOL    HW221867   6.637   4.399   1.802
 6990SOL     OW21868   3.863   2.978   1.825
 6990SOL    HW121869   3.817   2.889   1.817
 6990SOL    HW221870   3.909   2.984   1.914
 6991SOL     OW21871   5.083   4.771   3.353
 6991SOL    HW121872   5.095   4.695   3.289
 6991SOL    HW221873   5.160   4.835   3.344
 6992SOL     OW21874   0.309   6.673   0.557
 6992SOL    HW121875   0.234   6.737   0.539
 6992SOL    HW221876   0.353   6.696   0.643
 6993SOL     OW21877   6.096   0.533   1.795
 6993SOL    HW121878   6.008   0.527   1.842
 6993SOL    HW221879   6.139   0.621   1.816
 6994SOL     OW21880   1.667   6.965   3.456
 6994SOL    HW121881   1.652   0.032   3.489
 6994SOL    HW221882   1.729   6.917   3.518
 6995SOL     OW21883   0.653   3.744   0.215
 6995SOL    HW121884   0.583   3.769   0.282
 6995SOL    HW221885   0.644   3.803   0.134
 6996SOL     OW21886   1.514   0.744   6.750
 6996SOL    HW121887   1.432   0.752   6.693
 6996SOL    HW221888   1.487   0.727   6.845
 6997SOL     OW21889   0.095   4.884   5.457
 6997SOL    HW121890   0.187   4.874   5.420
 6997SOL    HW221891   0.088   4.833   5.543
 6998SOL     OW21892   0.892   1.681   1.678
 6998SOL    HW121893   0.908   1.607   1.743
 6998SOL    HW221894   0.794   1.692   1.664
 6999SOL     OW21895   0.557   2.630   6.591
 6999SOL    HW121896   0.457   2.626   6.603
 6999SOL    HW221897   0.600   2.646   6.679
 7000SOL     OW21898   5.995   0.406   2.598
 7000SOL    HW121899   6.086   0.374   2.627
 7000SOL    HW221900   6.002   0.500   2.565
 7001SOL     OW21901   0.898   1.528   4.165
 7001SOL    HW121902   0.803   1.518   4.137
 7001SOL    HW221903   0.906   1.510   4.263
 7002SOL     OW21904   0.865   5.530   3.977
 7002SOL    HW121905   0.878   5.545   3.879
 7002SOL    HW221906   0.870   5.432   3.997
 7003SOL     OW21907   5.850   4.612   1.054
 7003SOL    HW121908   5.925   4.571   1.003
 7003SOL    HW221909   5.848   4.574   1.147
 7004SOL     OW21910   1.469   5.665   0.680
 7004SOL    HW121911   1.450   5.727   0.604
 7004SOL    HW221912   1.526   5.712   0.748
 7005SOL     OW21913   1.033   0.384   6.839
 7005SOL    HW121914   1.077   0.315   6.896
 7005SOL    HW221915   1.096   0.415   6.768
 7006SOL     OW21916   6.703   6.284   3.512
 7006SOL    HW121917   6.791   6.238   3.500
 7006SOL    HW221918   6.703   6.333   3.599
 7007SOL     OW21919   4.406   0.365   5.772
 7007SOL    HW121920   4.474   0.431   5.804
 7007SOL    HW221921   4.425   0.340   5.677
 7008SOL     OW21922   6.704   4.483   3.510
 7008SOL    HW121923   6.765   4.455   3.585
 7008SOL    HW221924   6.642   4.407   3.488
 7009SOL     OW21925   3.944   6.530   2.269
 7009SOL    HW121926   3.869   6.518   2.334
 7009SOL    HW221927   3.968   6.627   2.263
 7010SOL     OW21928   5.782   4.199   2.596
 7010SOL    HW121929   5.729   4.142   2.533
 7010SOL    HW221930   5.803   4.148   2.679
 7011SOL     OW21931   3.710   6.778   0.387
 7011SOL    HW121932   3.647   6.706   0.417
 7011SOL    HW221933   3.797   6.737   0.359
 7012SOL     OW21934   1.442   3.199   1.011
 7012SOL    HW121935   1.415   3.273   0.949
 7012SOL    HW221936   1.407   3.112   0.977
 7013SOL     OW21937   2.652   1.097   6.563
 7013SOL    HW121938   2.606   1.102   6.652
 7013SOL    HW221939   2.583   1.100   6.490
 7014SOL     OW21940   6.145   3.871   1.051
 7014SOL    HW121941   6.169   3.918   0.966
 7014SOL    HW221942   6.067   3.810   1.036
 7015SOL     OW21943   5.936   4.529   2.291
 7015SOL    HW121944   5.978   4.449   2.334
 7015SOL    HW221945   5.998   4.566   2.221
 7016SOL     OW21946   3.379   4.926   1.213
 7016SOL    HW121947   3.432   5.007   1.189
 7016SOL    HW221948   3.283   4.950   1.221
 7017SOL     OW21949   3.732   4.906   3.267
 7017SOL    HW121950   3.669   4.914   3.344
 7017SOL    HW221951   3.810   4.849   3.293
 7018SOL     OW21952   4.869   3.113   4.262
 7018SOL    HW121953   4.890   3.131   4.166
 7018SOL    HW221954   4.861   3.201   4.311
 7019SOL     OW21955   4.856   5.231   2.371
 7019SOL    HW121956   4.945   5.187   2.366
 7019SOL    HW221957   4.865   5.322   2.413
 7020SOL     OW21958   0.585   3.183   6.480
 7020SOL    HW121959   0.580   3.106   6.543
 7020SOL    HW221960   0.507   3.180   6.417
 7021SOL     OW21961   0.535   2.775   4.928
 7021SOL    HW121962   0.439   2.770   4.955
 7021SOL    HW221963   0.571   2.683   4.915
 7022SOL     OW21964   4.231   0.318   0.276
 7022SOL    HW121965   4.199   0.254   0.206
 7022SOL    HW221966   4.178   0.305   0.359
 7023SOL     OW21967   0.461   1.956   1.748
 7023SOL    HW121968   0.410   1.875   1.718
 7023SOL    HW221969   0.538   1.972   1.685
 7024SOL     OW21970   3.640   2.943   3.899
 7024SOL    HW121971   3.542   2.952   3.918
 7024SOL    HW221972   3.692   2.958   3.983
 7025SOL     OW21973   3.270   0.104   6.757
 7025SOL    HW121974   3.315   0.181   6.712
 7025SOL    HW221975   3.286   0.108   6.855
 7026SOL     OW21976   3.622   1.424   1.549
 7026SOL    HW121977   3.638   1.432   1.647
 7026SOL    HW221978   3.659   1.505   1.503
 7027SOL     OW21979   2.381   5.799   3.283
 7027SOL    HW121980   2.303   5.861   3.275
 7027SOL    HW221981   2.349   5.711   3.319
 7028SOL     OW21982   2.610   0.402   3.617
 7028SOL    HW121983   2.546   0.332   3.587
 7028SOL    HW221984   2.590   0.489   3.571
 7029SOL     OW21985   3.215   3.541   5.855
 7029SOL    HW121986   3.224   3.529   5.756
 7029SOL    HW221987   3.306   3.545   5.896
 7030SOL     OW21988   0.733   1.896   4.627
 7030SOL    HW121989   0.817   1.930   4.669
 7030SOL    HW221990   0.731   1.920   4.530
 7031SOL     OW21991   4.188   6.236   0.339
 7031SOL    HW121992   4.214   6.224   0.435
 7031SOL    HW221993   4.155   6.149   0.302
 7032SOL     OW21994   4.035   0.451   4.132
 7032SOL    HW121995   4.070   0.369   4.178
 7032SOL    HW221996   3.947   0.429   4.088
 7033SOL     OW21997   1.137   2.703   4.715
 7033SOL    HW121998   1.230   2.736   4.698
 7033SOL    HW221999   1.139   2.606   4.739
 7034SOL     OW22000   6.330   2.517   3.406
 7034SOL    HW122001   6.237   2.489   3.384
 7034SOL    HW222002   6.395   2.466   3.349
 7035SOL     OW22003   1.747   0.191   1.883
 7035SOL    HW122004   1.758   0.285   1.917
 7035SOL    HW222005   1.834   0.161   1.843
 7036SOL     OW22006   0.272   1.297   2.095
 7036SOL    HW122007   0.192   1.327   2.043
 7036SOL    HW222008   0.289   1.360   2.171
 7037SOL     OW22009   0.074   0.285   5.400
 7037SOL    HW122010   0.027   0.196   5.402
 7037SOL    HW222011   0.142   0.288   5.473
 7038SOL     OW22012   2.600   4.309   5.747
 7038SOL    HW122013   2.579   4.407   5.751
 7038SOL    HW222014   2.517   4.258   5.727
 7039SOL     OW22015   0.870   5.115   3.417
 7039SOL    HW122016   0.829   5.024   3.429
 7039SOL    HW222017   0.956   5.119   3.468
 7040SOL     OW22018   4.414   2.036   4.888
 7040SOL    HW122019   4.399   2.133   4.867
 7040SOL    HW222020   4.469   2.029   4.971
 7041SOL     OW22021   0.994   1.362   3.367
 7041SOL    HW122022   1.004   1.394   3.273
 7041SOL    HW222023   1.009   1.263   3.370
 7042SOL     OW22024   4.363   5.943   5.189
 7042SOL    HW122025   4.277   5.978   5.153
 7042SOL    HW222026   4.421   5.912   5.113
 7043SOL     OW22027   2.421   4.400   3.986
 7043SOL    HW122028   2.356   4.327   3.964
 7043SOL    HW222029   2.461   4.435   3.902
 7044SOL     OW22030   4.667   6.656   4.660
 7044SOL    HW122031   4.698   6.620   4.748
 7044SOL    HW222032   4.588   6.604   4.629
 7045SOL     OW22033   5.947   5.475   2.484
 7045SOL    HW122034   5.876   5.494   2.551
 7045SOL    HW222035   5.914   5.408   2.418
 7046SOL     OW22036   3.297   2.163   4.426
 7046SOL    HW122037   3.224   2.155   4.495
 7046SOL    HW222038   3.376   2.210   4.466
 7047SOL     OW22039   0.394   0.654   1.753
 7047SOL    HW122040   0.407   0.726   1.685
 7047SOL    HW222041   0.483   0.617   1.780
 7048SOL     OW22042   6.606   6.271   5.232
 7048SOL    HW122043   6.573   6.300   5.321
 7048SOL    HW222044   6.563   6.326   5.161
 7049SOL     OW22045   3.947   1.406   2.042
 7049SOL    HW122046   4.043   1.422   2.017
 7049SOL    HW222047   3.908   1.491   2.078
 7050SOL     OW22048   3.493   4.823   0.956
 7050SOL    HW122049   3.431   4.823   0.877
 7050SOL    HW222050   3.444   4.851   1.038
 7051SOL     OW22051   0.411   0.132   2.013
 7051SOL    HW122052   0.330   0.187   2.031
 7051SOL    HW222053   0.465   0.123   2.097
 7052SOL     OW22054   5.434   6.799   3.103
 7052SOL    HW122055   5.529   6.766   3.106
 7052SOL    HW222056   5.431   6.895   3.129
 7053SOL     OW22057   1.540   3.170   4.142
 7053SOL    HW122058   1.542   3.122   4.055
 7053SOL    HW222059   1.546   3.103   4.217
 7054SOL     OW22060   6.965   0.155   1.059
 7054SOL    HW122061   6.918   0.125   1.142
 7054SOL    HW222062   0.025   0.107   1.050
 7055SOL     OW22063   1.802   0.168   6.394
 7055SOL    HW122064   1.804   0.235   6.468
 7055SOL    HW222065   1.845   0.083   6.425
 7056SOL     OW22066   6.273   5.949   0.894
 7056SOL    HW122067   6.201   6.014   0.871
 7056SOL    HW222068   6.262   5.920   0.989
 7057SOL     OW22069   3.302   4.990   4.765
 7057SOL    HW122070   3.251   4.906   4.749
 7057SOL    HW222071   3.262   5.038   4.843
 7058SOL     OW22072   5.084   2.176   6.726
 7058SOL    HW122073   5.152   2.242   6.693
 7058SOL    HW222074   5.053   2.119   6.651
 7059SOL     OW22075   2.085   1.735   4.414
 7059SOL    HW122076   2.042   1.775   4.333
 7059SOL    HW222077   2.128   1.808   4.468
 7060SOL     OW22078   2.927   6.684   2.805
 7060SOL    HW122079   2.890   6.767   2.763
 7060SOL    HW222080   3.014   6.660   2.762
 7061SOL     OW22081   1.500   1.991   2.438
 7061SOL    HW122082   1.563   2.058   2.396
 7061SOL    HW222083   1.522   1.900   2.403
 7062SOL     OW22084   4.394   1.844   4.206
 7062SOL    HW122085   4.400   1.780   4.129
 7062SOL    HW222086   4.298   1.854   4.233
 7063SOL     OW22087   0.525   6.523   2.490
 7063SOL    HW122088   0.472   6.535   2.574
 7063SOL    HW222089   0.537   6.612   2.445
 7064SOL     OW22090   5.125   1.566   5.646
 7064SOL    HW122091   5.161   1.625   5.718
 7064SOL    HW222092   5.079   1.488   5.687
 7065SOL     OW22093   3.454   4.666   5.270
 7065SOL    HW122094   3.368   4.647   5.317
 7065SOL    HW222095   3.516   4.588   5.283
 7066SOL     OW22096   4.821   0.079   6.909
 7066SOL    HW122097   4.762   0.117   6.980
 7066SOL    HW222098   4.813   0.133   6.825
 7067SOL     OW22099   1.746   3.429   6.863
 7067SOL    HW122100   1.802   3.506   6.894
 7067SOL    HW222101   1.649   3.456   6.863
 7068SOL     OW22102   5.867   4.352   4.142
 7068SOL    HW122103   5.853   4.291   4.065
 7068SOL    HW222104   5.852   4.446   4.114
 7069SOL     OW22105   6.151   1.245   5.502
 7069SOL    HW122106   6.168   1.165   5.560
 7069SOL    HW222107   6.077   1.300   5.542
 7070SOL     OW22108   6.879   6.373   5.038
 7070SOL    HW122109   6.927   6.338   5.118
 7070SOL    HW222110   6.786   6.337   5.035
 7071SOL     OW22111   5.108   6.322   6.520
 7071SOL    HW122112   5.088   6.224   6.513
 7071SOL    HW222113   5.156   6.351   6.437
 7072SOL     OW22114   0.961   4.342   6.756
 7072SOL    HW122115   0.991   4.280   6.684
 7072SOL    HW222116   0.887   4.400   6.722
 7073SOL     OW22117   4.305   0.587   3.321
 7073SOL    HW122118   4.314   0.538   3.235
 7073SOL    HW222119   4.396   0.608   3.357
 7074SOL     OW22120   6.708   3.208   3.597
 7074SOL    HW122121   6.719   3.115   3.633
 7074SOL    HW222122   6.612   3.235   3.600
 7075SOL     OW22123   3.063   4.835   5.129
 7075SOL    HW122124   3.102   4.788   5.208
 7075SOL    HW222125   3.025   4.769   5.066
 7076SOL     OW22126   5.963   3.261   1.933
 7076SOL    HW122127   5.980   3.360   1.935
 7076SOL    HW222128   5.924   3.233   2.021
 7077SOL     OW22129   2.749   4.868   2.449
 7077SOL    HW122130   2.738   4.956   2.494
 7077SOL    HW222131   2.846   4.851   2.431
 7078SOL     OW22132   5.530   7.022   0.514
 7078SOL    HW122133   5.509   6.948   0.450
 7078SOL    HW222134   5.629   0.003   0.527
 7079SOL     OW22135   1.193   7.008   3.853
 7079SOL    HW122136   1.171   6.957   3.936
 7079SOL    HW222137   1.279   6.974   3.815
 7080SOL     OW22138   4.019   1.797   5.016
 7080SOL    HW122139   4.008   1.705   5.054
 7080SOL    HW222140   4.012   1.793   4.916
 7081SOL     OW22141   1.314   1.211   6.962
 7081SOL    HW122142   1.241   1.143   6.961
 7081SOL    HW222143   1.401   1.166   6.942
 7082SOL     OW22144   6.736   3.678   1.787
 7082SOL    HW122145   6.711   3.590   1.828
 7082SOL    HW222146   6.751   3.745   1.860
 7083SOL     OW22147   6.661   2.462   2.363
 7083SOL    HW122148   6.598   2.416   2.301
 7083SOL    HW222149   6.733   2.508   2.310
 7084SOL     OW22150   0.558   5.609   6.814
 7084SOL    HW122151   0.617   5.688   6.833
 7084SOL    HW222152   0.492   5.633   6.742
 7085SOL     OW22153   0.013   2.444   2.414
 7085SOL    HW122154   0.099   2.495   2.418
 7085SOL    HW222155   7.013   2.415   2.506
 7086SOL     OW22156   6.185   0.485   6.709
 7086SOL    HW122157   6.118   0.536   6.655
 7086SOL    HW222158   6.274   0.488   6.664
 7087SOL     OW22159   5.340   3.170   2.658
 7087SOL    HW122160   5.268   3.138   2.720
 7087SOL    HW222161   5.298   3.216   2.580
 7088SOL     OW22162   5.772   1.528   5.217
 7088SOL    HW122163   5.860   1.561   5.249
 7088SOL    HW222164   5.765   1.543   5.118
 7089SOL     OW22165   4.366   5.510   2.373
 7089SOL    HW122166   4.331   5.574   2.304
 7089SOL    HW222167   4.453   5.472   2.342
 7090SOL     OW22168   3.643   1.309   0.674
 7090SOL    HW122169   3.690   1.390   0.640
 7090SOL    HW222170   3.635   1.313   0.773
 7091SOL     OW22171   0.532   0.099   0.177
 7091SOL    HW122172   0.517   0.013   0.130
 7091SOL    HW222173   0.601   0.086   0.248
 7092SOL     OW22174   4.214   2.276   6.591
 7092SOL    HW122175   4.140   2.214   6.616
 7092SOL    HW222176   4.192   2.319   6.503
 7093SOL     OW22177   3.199   3.525   1.020
 7093SOL    HW122178   3.200   3.558   1.114
 7093SOL    HW222179   3.189   3.602   0.958
 7094SOL     OW22180   2.123   6.678   5.469
 7094SOL    HW122181   2.107   6.642   5.561
 7094SOL    HW222182   2.037   6.684   5.420
 7095SOL     OW22183   3.289   4.887   5.573
 7095SOL    HW122184   3.263   4.942   5.652
 7095SOL    HW222185   3.265   4.791   5.589
 7096SOL     OW22186   6.890   0.672   1.070
 7096SOL    HW122187   6.930   0.620   1.145
 7096SOL    HW222188   6.957   0.738   1.035
 7097SOL     OW22189   5.655   6.932   1.748
 7097SOL    HW122190   5.737   6.962   1.700
 7097SOL    HW222191   5.651   6.832   1.750
 7098SOL     OW22192   1.721   0.159   4.210
 7098SOL    HW122193   1.636   0.113   4.235
 7098SOL    HW222194   1.797   0.119   4.263
 7099SOL     OW22195   3.509   2.112   4.245
 7099SOL    HW122196   3.499   2.044   4.173
 7099SOL    HW222197   3.419   2.131   4.286
 7100SOL     OW22198   0.819   3.161   0.667
 7100SOL    HW122199   0.813   3.132   0.763
 7100SOL    HW222200   0.801   3.260   0.662
 7101SOL     OW22201   1.819   6.633   5.208
 7101SOL    HW122202   1.883   6.641   5.131
 7101SOL    HW222203   1.785   6.539   5.213
 7102SOL     OW22204   4.855   1.207   0.677
 7102SOL    HW122205   4.941   1.234   0.719
 7102SOL    HW222206   4.789   1.283   0.685
 7103SOL     OW22207   5.113   5.082   2.414
 7103SOL    HW122208   5.181   5.128   2.356
 7103SOL    HW222209   5.104   4.987   2.385
 7104SOL     OW22210   5.591   3.026   2.857
 7104SOL    HW122211   5.546   2.995   2.941
 7104SOL    HW222212   5.568   2.963   2.783
 7105SOL     OW22213   3.432   4.130   4.033
 7105SOL    HW122214   3.406   4.227   4.039
 7105SOL    HW222215   3.393   4.091   3.950
 7106SOL     OW22216   3.619   2.848   1.467
 7106SOL    HW122217   3.551   2.875   1.535
 7106SOL    HW222218   3.654   2.929   1.421
 7107SOL     OW22219   4.463   6.863   0.118
 7107SOL    HW122220   4.382   6.918   0.101
 7107SOL    HW222221   4.450   6.771   0.082
 7108SOL     OW22222   2.782   6.296   2.941
 7108SOL    HW122223   2.756   6.268   3.033
 7108SOL    HW222224   2.728   6.376   2.914
 7109SOL     OW22225   1.279   0.516   5.947
 7109SOL    HW122226   1.323   0.572   6.017
 7109SOL    HW222227   1.326   0.428   5.940
 7110SOL     OW22228   2.993   6.488   4.525
 7110SOL    HW122229   2.976   6.569   4.582
 7110SOL    HW222230   3.058   6.428   4.572
 7111SOL     OW22231   1.419   0.856   4.027
 7111SOL    HW122232   1.400   0.820   4.119
 7111SOL    HW222233   1.415   0.956   4.029
 7112SOL     OW22234   2.126   4.432   4.419
 7112SOL    HW122235   2.080   4.508   4.465
 7112SOL    HW222236   2.182   4.382   4.485
 7113SOL     OW22237   2.821   4.893   5.224
 7113SOL    HW122238   2.915   4.882   5.191
 7113SOL    HW222239   2.801   4.822   5.291
 7114SOL     OW22240   4.859   5.212   1.035
 7114SOL    HW122241   4.826   5.253   1.121
 7114SOL    HW222242   4.944   5.162   1.053
 7115SOL     OW22243   5.842   4.524   6.666
 7115SOL    HW122244   5.802   4.435   6.690
 7115SOL    HW222245   5.863   4.526   6.569
 7116SOL     OW22246   6.580   3.654   3.955
 7116SOL    HW122247   6.512   3.604   4.009
 7116SOL    HW222248   6.671   3.617   3.973
 7117SOL     OW22249   6.059   0.011   3.358
 7117SOL    HW122250   6.066   6.941   3.331
 7117SOL    HW222251   6.014   0.063   3.285
 7118SOL     OW22252   3.866   4.429   5.305
 7118SOL    HW122253   3.959   4.465   5.314
 7118SOL    HW222254   3.870   4.331   5.287
 7119SOL     OW22255   5.048   0.389   4.840
 7119SOL    HW122256   5.008   0.385   4.931
 7119SOL    HW222257   5.146   0.404   4.847
 7120SOL     OW22258   5.065   1.510   1.002
 7120SOL    HW122259   5.160   1.478   1.004
 7120SOL    HW222260   5.029   1.515   1.095
 7121SOL     OW22261   1.075   6.338   3.563
 7121SOL    HW122262   1.128   6.340   3.479
 7121SOL    HW222263   0.978   6.348   3.541
 7122SOL     OW22264   2.790   6.905   5.796
 7122SOL    HW122265   2.856   6.863   5.734
 7122SOL    HW222266   2.697   6.883   5.766
 7123SOL     OW22267   6.315   4.885   4.857
 7123SOL    HW122268   6.308   4.889   4.957
 7123SOL    HW222269   6.378   4.813   4.830
 7124SOL     OW22270   0.918   2.939   2.000
 7124SOL    HW122271   0.914   2.839   2.003
 7124SOL    HW222272   0.957   2.973   2.086
 7125SOL     OW22273   0.812   0.187   1.865
 7125SOL    HW122274   0.908   0.161   1.863
 7125SOL    HW222275   0.804   0.286   1.877
 7126SOL     OW22276   4.192   6.235   1.622
 7126SOL    HW122277   4.137   6.155   1.598
 7126SOL    HW222278   4.266   6.206   1.684
 7127SOL     OW22279   3.062   6.104   5.336
 7127SOL    HW122280   3.077   6.108   5.435
 7127SOL    HW222281   3.032   6.194   5.303
 7128SOL     OW22282   3.535   4.579   6.392
 7128SOL    HW122283   3.479   4.627   6.325
 7128SOL    HW222284   3.476   4.543   6.465
 7129SOL     OW22285   0.545   1.424   1.456
 7129SOL    HW122286   0.594   1.432   1.369
 7129SOL    HW222287   0.594   1.360   1.516
 7130SOL     OW22288   2.721   6.803   4.631
 7130SOL    HW122289   2.811   6.780   4.668
 7130SOL    HW222290   2.706   6.750   4.547
 7131SOL     OW22291   3.847   0.685   2.888
 7131SOL    HW122292   3.792   0.663   2.808
 7131SOL    HW222293   3.868   0.783   2.889
 7132SOL     OW22294   5.444   3.739   6.495
 7132SOL    HW122295   5.454   3.822   6.439
 7132SOL    HW222296   5.403   3.667   6.440
 7133SOL     OW22297   3.275   5.927   3.328
 7133SOL    HW122298   3.360   5.883   3.355
 7133SOL    HW222299   3.206   5.916   3.399
 7134SOL     OW22300   5.934   5.525   1.572
 7134SOL    HW122301   5.921   5.589   1.647
 7134SOL    HW222302   5.925   5.574   1.485
 7135SOL     OW22303   2.079   3.280   2.115
 7135SOL    HW122304   1.983   3.290   2.091
 7135SOL    HW222305   2.129   3.362   2.088
 7136SOL     OW22306   3.026   1.779   1.933
 7136SOL    HW122307   2.985   1.793   1.843
 7136SOL    HW222308   3.123   1.804   1.930
 7137SOL     OW22309   2.938   1.820   1.683
 7137SOL    HW122310   2.901   1.784   1.598
 7137SOL    HW222311   2.965   1.916   1.669
 7138SOL     OW22312   1.870   1.831   0.479
 7138SOL    HW122313   1.797   1.836   0.546
 7138SOL    HW222314   1.891   1.735   0.459
 7139SOL     OW22315   5.758   5.723   2.105
 7139SOL    HW122316   5.790   5.816   2.085
 7139SOL    HW222317   5.741   5.715   2.203
 7140SOL     OW22318   6.331   3.675   0.435
 7140SOL    HW122319   6.409   3.686   0.497
 7140SOL    HW222320   6.251   3.646   0.486
 7141SOL     OW22321   4.033   6.610   0.982
 7141SOL    HW122322   3.974   6.577   1.057
 7141SOL    HW222323   3.983   6.677   0.928
 7142SOL     OW22324   3.434   0.683   4.314
 7142SOL    HW122325   3.444   0.680   4.414
 7142SOL    HW222326   3.394   0.597   4.282
 7143SOL     OW22327   2.583   4.958   6.568
 7143SOL    HW122328   2.612   4.867   6.537
 7143SOL    HW222329   2.656   5.024   6.552
 7144SOL     OW22330   6.674   0.912   4.311
 7144SOL    HW122331   6.696   0.993   4.258
 7144SOL    HW222332   6.689   0.931   4.409
 7145SOL     OW22333   4.862   2.172   0.457
 7145SOL    HW122334   4.874   2.270   0.447
 7145SOL    HW222335   4.782   2.142   0.405
 7146SOL     OW22336   2.123   0.930   5.422
 7146SOL    HW122337   2.213   0.972   5.414
 7146SOL    HW222338   2.052   1.001   5.423
 7147SOL     OW22339   5.749   4.652   2.492
 7147SOL    HW122340   5.691   4.573   2.511
 7147SOL    HW222341   5.822   4.625   2.429
 7148SOL     OW22342   6.500   5.822   1.537
 7148SOL    HW122343   6.475   5.772   1.619
 7148SOL    HW222344   6.520   5.917   1.560
 7149SOL     OW22345   6.969   5.208   4.463
 7149SOL    HW122346   6.938   5.296   4.427
 7149SOL    HW222347   6.889   5.156   4.495
 7150SOL     OW22348   4.030   3.579   0.104
 7150SOL    HW122349   3.986   3.501   0.148
 7150SOL    HW222350   3.967   3.619   0.037
 7151SOL     OW22351   3.997   0.123   1.093
 7151SOL    HW122352   3.956   0.214   1.091
 7151SOL    HW222353   4.085   0.127   1.140
 7152SOL     OW22354   0.184   1.080   6.851
 7152SOL    HW122355   0.163   1.143   6.926
 7152SOL    HW222356   0.270   1.108   6.807
 7153SOL     OW22357   4.336   6.318   1.144
 7153SOL    HW122358   4.316   6.315   1.242
 7153SOL    HW222359   4.378   6.407   1.122
 7154SOL     OW22360   4.284   1.166   2.379
 7154SOL    HW122361   4.245   1.085   2.423
 7154SOL    HW222362   4.301   1.148   2.283
 7155SOL     OW22363   3.588   1.835   2.503
 7155SOL    HW122364   3.679   1.860   2.470
 7155SOL    HW222365   3.526   1.827   2.425
 7156SOL     OW22366   6.019   3.516   0.658
 7156SOL    HW122367   5.991   3.440   0.716
 7156SOL    HW222368   6.101   3.559   0.696
 7157SOL     OW22369   6.240   4.102   6.231
 7157SOL    HW122370   6.338   4.111   6.212
 7157SOL    HW222371   6.224   4.105   6.329
 7158SOL     OW22372   5.016   0.030   4.031
 7158SOL    HW122373   5.022   6.973   3.976
 7158SOL    HW222374   5.108   0.066   4.047
 7159SOL     OW22375   0.290   5.633   3.893
 7159SOL    HW122376   0.313   5.684   3.976
 7159SOL    HW222377   0.201   5.588   3.904
 7160SOL     OW22378   5.488   0.127   2.943
 7160SOL    HW122379   5.542   0.210   2.931
 7160SOL    HW222380   5.525   0.074   3.020
 7161SOL     OW22381   3.982   3.415   3.291
 7161SOL    HW122382   3.903   3.370   3.333
 7161SOL    HW222383   4.034   3.464   3.361
 7162SOL     OW22384   0.058   5.453   2.421
 7162SOL    HW122385   0.073   5.534   2.479
 7162SOL    HW222386   0.144   5.404   2.411
 7163SOL     OW22387   1.178   1.692   2.034
 7163SOL    HW122388   1.204   1.649   1.947
 7163SOL    HW222389   1.156   1.788   2.018
 7164SOL     OW22390   1.470   1.127   6.086
 7164SOL    HW122391   1.503   1.078   6.167
 7164SOL    HW222392   1.499   1.223   6.090
 7165SOL     OW22393   5.979   0.461   0.025
 7165SOL    HW122394   6.050   0.402   7.013
 7165SOL    HW222395   5.923   0.500   6.977
 7166SOL     OW22396   5.394   6.863   6.235
 7166SOL    HW122397   5.443   6.782   6.269
 7166SOL    HW222398   5.311   6.877   6.288
 7167SOL     OW22399   5.681   2.106   4.869
 7167SOL    HW122400   5.703   2.070   4.778
 7167SOL    HW222401   5.747   2.073   4.935
 7168SOL     OW22402   2.577   1.021   2.146
 7168SOL    HW122403   2.567   0.924   2.167
 7168SOL    HW222404   2.550   1.038   2.052
 7169SOL     OW22405   1.902   4.006   5.515
 7169SOL    HW122406   1.845   4.020   5.596
 7169SOL    HW222407   1.973   3.939   5.535
 7170SOL     OW22408   4.381   0.657   1.583
 7170SOL    HW122409   4.396   0.561   1.605
 7170SOL    HW222410   4.452   0.713   1.627
 7171SOL     OW22411   5.626   5.208   0.732
 7171SOL    HW122412   5.570   5.252   0.662
 7171SOL    HW222413   5.569   5.148   0.788
 7172SOL     OW22414   1.747   1.194   4.377
 7172SOL    HW122415   1.755   1.162   4.283
 7172SOL    HW222416   1.716   1.120   4.435
 7173SOL     OW22417   5.471   5.756   6.614
 7173SOL    HW122418   5.382   5.725   6.649
 7173SOL    HW222419   5.478   5.855   6.625
 7174SOL     OW22420   6.013   4.420   0.920
 7174SOL    HW122421   5.990   4.327   0.894
 7174SOL    HW222422   6.080   4.419   0.994
 7175SOL     OW22423   5.877   3.763   5.292
 7175SOL    HW122424   5.824   3.839   5.255
 7175SOL    HW222425   5.968   3.794   5.318
 7176SOL     OW22426   0.052   1.287   4.284
 7176SOL    HW122427   0.069   1.385   4.273
 7176SOL    HW222428   0.066   1.261   4.379
 7177SOL     OW22429   1.800   5.100   4.934
 7177SOL    HW122430   1.877   5.068   4.989
 7177SOL    HW222431   1.761   5.182   4.975
 7178SOL     OW22432   0.346   1.074   5.326
 7178SOL    HW122433   0.405   1.153   5.306
 7178SOL    HW222434   0.377   1.030   5.411
 7179SOL     OW22435   3.099   5.884   6.839
 7179SOL    HW122436   3.065   5.866   6.931
 7179SOL    HW222437   3.194   5.912   6.843
 7180SOL     OW22438   1.362   5.126   1.524
 7180SOL    HW122439   1.373   5.062   1.600
 7180SOL    HW222440   1.381   5.080   1.438
 7181SOL     OW22441   2.164   1.786   6.163
 7181SOL    HW122442   2.259   1.770   6.136
 7181SOL    HW222443   2.109   1.801   6.081
 7182SOL     OW22444   0.865   3.262   4.119
 7182SOL    HW122445   0.949   3.296   4.161
 7182SOL    HW222446   0.786   3.305   4.163
 7183SOL     OW22447   1.509   6.451   1.558
 7183SOL    HW122448   1.436   6.392   1.593
 7183SOL    HW222449   1.565   6.399   1.494
 7184SOL     OW22450   6.788   0.263   3.796
 7184SOL    HW122451   6.752   0.306   3.879
 7184SOL    HW222452   6.761   0.166   3.796
 7185SOL     OW22453   4.482   0.567   4.912
 7185SOL    HW122454   4.454   0.656   4.875
 7185SOL    HW222455   4.562   0.579   4.971
 7186SOL     OW22456   0.319   0.075   6.995
 7186SOL    HW122457   0.350   0.156   0.017
 7186SOL    HW222458   0.397   0.015   6.975
 7187SOL     OW22459   3.288   2.898   5.100
 7187SOL    HW122460   3.287   2.848   5.013
 7187SOL    HW222461   3.316   2.992   5.083
 7188SOL     OW22462   4.089   5.244   0.234
 7188SOL    HW122463   4.068   5.151   0.204
 7188SOL    HW222464   4.021   5.307   0.197
 7189SOL     OW22465   6.311   2.173   5.468
 7189SOL    HW122466   6.330   2.192   5.371
 7189SOL    HW222467   6.299   2.075   5.481
 7190SOL     OW22468   5.690   5.684   1.382
 7190SOL    HW122469   5.661   5.666   1.476
 7190SOL    HW222470   5.622   5.649   1.319
 7191SOL     OW22471   0.437   3.882   2.983
 7191SOL    HW122472   0.406   3.846   3.071
 7191SOL    HW222473   0.524   3.840   2.958
 7192SOL     OW22474   1.944   4.808   6.829
 7192SOL    HW122475   2.030   4.767   6.859
 7192SOL    HW222476   1.901   4.750   6.760
 7193SOL     OW22477   2.299   2.456   2.916
 7193SOL    HW122478   2.204   2.463   2.885
 7193SOL    HW222479   2.311   2.371   2.967
 7194SOL     OW22480   2.647   2.897   6.343
 7194SOL    HW122481   2.571   2.860   6.397
 7194SOL    HW222482   2.621   2.897   6.246
 7195SOL     OW22483   0.269   3.209   6.628
 7195SOL    HW122484   0.259   3.112   6.647
 7195SOL    HW222485   0.230   3.262   6.704
 7196SOL     OW22486   3.369   4.112   2.165
 7196SOL    HW122487   3.446   4.165   2.131
 7196SOL    HW222488   3.350   4.136   2.260
 7197SOL     OW22489   1.613   3.697   5.238
 7197SOL    HW122490   1.594   3.650   5.325
 7197SOL    HW222491   1.679   3.771   5.254
 7198SOL     OW22492   6.896   0.979   0.700
 7198SOL    HW122493   6.834   1.018   0.768
 7198SOL    HW222494   6.846   0.915   0.642
 7199SOL     OW22495   0.827   1.137   2.309
 7199SOL    HW122496   0.787   1.053   2.345
 7199SOL    HW222497   0.781   1.216   2.349
 7200SOL     OW22498   2.260   2.685   0.594
 7200SOL    HW122499   2.233   2.638   0.510
 7200SOL    HW222500   2.319   2.763   0.572
 7201SOL     OW22501   5.570   5.654   4.355
 7201SOL    HW122502   5.553   5.724   4.286
 7201SOL    HW222503   5.648   5.598   4.328
 7202SOL     OW22504   4.904   7.018   5.851
 7202SOL    HW122505   4.899   6.933   5.798
 7202SOL    HW222506   4.811   0.027   5.867
 7203SOL     OW22507   6.882   1.652   2.107
 7203SOL    HW122508   6.833   1.656   2.194
 7203SOL    HW222509   6.846   1.721   2.044
 7204SOL     OW22510   0.293   1.570   1.225
 7204SOL    HW122511   0.298   1.561   1.325
 7204SOL    HW222512   0.202   1.602   1.199
 7205SOL     OW22513   2.077   2.256   5.195
 7205SOL    HW122514   2.009   2.261   5.122
 7205SOL    HW222515   2.168   2.248   5.155
 7206SOL     OW22516   1.676   2.162   1.170
 7206SOL    HW122517   1.769   2.194   1.155
 7206SOL    HW222518   1.678   2.079   1.225
 7207SOL     OW22519   1.885   2.543   3.963
 7207SOL    HW122520   1.809   2.527   3.899
 7207SOL    HW222521   1.858   2.512   4.055
 7208SOL     OW22522   3.843   0.855   4.536
 7208SOL    HW122523   3.888   0.890   4.454
 7208SOL    HW222524   3.900   0.872   4.616
 7209SOL     OW22525   2.374   2.462   2.441
 7209SOL    HW122526   2.461   2.494   2.479
 7209SOL    HW222527   2.391   2.388   2.377
 7210SOL     OW22528   2.579   1.817   2.766
 7210SOL    HW122529   2.673   1.784   2.759
 7210SOL    HW222530   2.574   1.911   2.731
 7211SOL     OW22531   3.142   5.878   5.229
 7211SOL    HW122532   3.230   5.867   5.275
 7211SOL    HW222533   3.094   5.958   5.265
 7212SOL     OW22534   6.108   5.124   5.827
 7212SOL    HW122535   6.073   5.123   5.920
 7212SOL    HW222536   6.187   5.186   5.821
 7213SOL     OW22537   3.620   0.716   0.497
 7213SOL    HW122538   3.661   0.741   0.409
 7213SOL    HW222539   3.522   0.702   0.486
 7214SOL     OW22540   0.708   0.864   6.513
 7214SOL    HW122541   0.789   0.828   6.467
 7214SOL    HW222542   0.626   0.822   6.473
 7215SOL     OW22543   0.101   2.829   3.191
 7215SOL    HW122544   0.168   2.896   3.223
 7215SOL    HW222545   0.029   2.875   3.139
 7216SOL     OW22546   2.915   6.445   3.302
 7216SOL    HW122547   2.963   6.533   3.305
 7216SOL    HW222548   2.974   6.377   3.260
 7217SOL     OW22549   1.477   4.360   3.726
 7217SOL    HW122550   1.498   4.449   3.686
 7217SOL    HW222551   1.530   4.289   3.680
 7218SOL     OW22552   6.635   3.295   4.470
 7218SOL    HW122553   6.565   3.316   4.538
 7218SOL    HW222554   6.685   3.213   4.498
 7219SOL     OW22555   3.000   6.788   1.553
 7219SOL    HW122556   2.960   6.880   1.552
 7219SOL    HW222557   2.962   6.734   1.478
 7220SOL     OW22558   6.890   4.270   4.576
 7220SOL    HW122559   6.911   4.327   4.656
 7220SOL    HW222560   6.799   4.293   4.543
 7221SOL     OW22561   3.210   6.008   4.954
 7221SOL    HW122562   3.129   6.050   4.995
 7221SOL    HW222563   3.280   5.996   5.025
 7222SOL     OW22564   6.407   6.502   3.308
 7222SOL    HW122565   6.372   6.565   3.378
 7222SOL    HW222566   6.336   6.436   3.284
 7223SOL     OW22567   2.330   1.923   0.762
 7223SOL    HW122568   2.370   1.991   0.701
 7223SOL    HW222569   2.401   1.885   0.821
 7224SOL     OW22570   4.500   2.276   3.596
 7224SOL    HW122571   4.410   2.315   3.618
 7224SOL    HW222572   4.516   2.195   3.654
 7225SOL     OW22573   1.674   7.009   0.574
 7225SOL    HW122574   1.665   6.942   0.648
 7225SOL    HW222575   1.743   6.977   0.508
 7226SOL     OW22576   5.640   1.028   0.373
 7226SOL    HW122577   5.698   1.085   0.431
 7226SOL    HW222578   5.560   0.998   0.425
 7227SOL     OW22579   2.290   0.743   2.369
 7227SOL    HW122580   2.318   0.783   2.456
 7227SOL    HW222581   2.360   0.761   2.299
 7228SOL     OW22582   0.601   1.822   2.572
 7228SOL    HW122583   0.503   1.844   2.581
 7228SOL    HW222584   0.630   1.836   2.478
 7229SOL     OW22585   6.641   0.250   4.632
 7229SOL    HW122586   6.724   0.306   4.627
 7229SOL    HW222587   6.657   0.164   4.584
 7230SOL     OW22588   2.985   5.196   4.096
 7230SOL    HW122589   2.955   5.149   4.013
 7230SOL    HW222590   2.941   5.155   4.175
 7231SOL     OW22591   4.199   1.418   6.675
 7231SOL    HW122592   4.208   1.470   6.590
 7231SOL    HW222593   4.105   1.423   6.708
 7232SOL     OW22594   5.260   6.896   2.604
 7232SOL    HW122595   5.181   6.844   2.636
 7232SOL    HW222596   5.243   6.994   2.615
 7233SOL     OW22597   5.829   1.956   6.080
 7233SOL    HW122598   5.838   1.860   6.107
 7233SOL    HW222599   5.803   2.011   6.159
 7234SOL     OW22600   5.058   3.599   3.202
 7234SOL    HW122601   5.004   3.594   3.286
 7234SOL    HW222602   5.050   3.691   3.162
 7235SOL     OW22603   6.348   5.666   1.729
 7235SOL    HW122604   6.282   5.693   1.800
 7235SOL    HW222605   6.305   5.599   1.668
 7236SOL     OW22606   1.770   2.928   3.080
 7236SOL    HW122607   1.672   2.937   3.060
 7236SOL    HW222608   1.783   2.910   3.177
 7237SOL     OW22609   5.137   0.335   6.767
 7237SOL    HW122610   5.111   0.241   6.792
 7237SOL    HW222611   5.236   0.343   6.766
 7238SOL     OW22612   4.668   2.700   6.697
 7238SOL    HW122613   4.759   2.710   6.737
 7238SOL    HW222614   4.640   2.604   6.699
 7239SOL     OW22615   0.344   3.520   2.194
 7239SOL    HW122616   0.293   3.570   2.124
 7239SOL    HW222617   0.316   3.424   2.194
 7240SOL     OW22618   6.941   1.761   6.038
 7240SOL    HW122619   6.937   1.741   6.136
 7240SOL    HW222620   6.849   1.763   6.000
 7241SOL     OW22621   2.073   0.888   0.761
 7241SOL    HW122622   2.110   0.967   0.810
 7241SOL    HW222623   2.128   0.872   0.679
 7242SOL     OW22624   0.358   5.910   4.679
 7242SOL    HW122625   0.433   5.966   4.716
 7242SOL    HW222626   0.270   5.949   4.708
 7243SOL     OW22627   0.177   3.644   6.029
 7243SOL    HW122628   0.080   3.653   6.052
 7243SOL    HW222629   0.188   3.572   5.961
 7244SOL     OW22630   0.320   6.603   0.269
 7244SOL    HW122631   0.303   6.699   0.294
 7244SOL    HW222632   0.294   6.544   0.347
 7245SOL     OW22633   1.645   2.445   7.022
 7245SOL    HW122634   1.710   2.516   6.995
 7245SOL    HW222635   1.692   2.357   0.002
 7246SOL     OW22636   3.235   0.806   4.720
 7246SOL    HW122637   3.192   0.715   4.725
 7246SOL    HW222638   3.205   0.852   4.637
 7247SOL     OW22639   2.964   2.391   5.581
 7247SOL    HW122640   3.063   2.405   5.579
 7247SOL    HW222641   2.927   2.402   5.488
 7248SOL     OW22642   3.126   0.435   4.121
 7248SOL    HW122643   3.192   0.494   4.073
 7248SOL    HW222644   3.173   0.353   4.153
 7249SOL     OW22645   4.311   4.639   1.946
 7249SOL    HW122646   4.338   4.604   1.857
 7249SOL    HW222647   4.373   4.602   2.016
 7250SOL     OW22648   5.247   4.648   5.928
 7250SOL    HW122649   5.307   4.720   5.966
 7250SOL    HW222650   5.293   4.560   5.935
 7251SOL     OW22651   0.971   6.429   5.955
 7251SOL    HW122652   0.925   6.497   6.011
 7251SOL    HW222653   1.017   6.474   5.878
 7252SOL     OW22654   3.110   4.009   2.134
 7252SOL    HW122655   3.089   3.976   2.042
 7252SOL    HW222656   3.191   4.067   2.131
 7253SOL     OW22657   1.582   6.392   6.071
 7253SOL    HW122658   1.484   6.385   6.049
 7253SOL    HW222659   1.632   6.422   5.989
 7254SOL     OW22660   5.707   4.460   3.568
 7254SOL    HW122661   5.689   4.530   3.636
 7254SOL    HW222662   5.683   4.370   3.604
 7255SOL     OW22663   5.444   3.137   6.527
 7255SOL    HW122664   5.498   3.064   6.569
 7255SOL    HW222665   5.402   3.192   6.598
 7256SOL     OW22666   3.703   6.712   5.318
 7256SOL    HW122667   3.735   6.632   5.368
 7256SOL    HW222668   3.637   6.685   5.249
 7257SOL     OW22669   0.281   1.796   5.074
 7257SOL    HW122670   0.228   1.872   5.036
 7257SOL    HW222671   0.339   1.829   5.149
 7258SOL     OW22672   5.714   2.811   1.617
 7258SOL    HW122673   5.689   2.851   1.529
 7258SOL    HW222674   5.808   2.777   1.612
 7259SOL     OW22675   1.428   3.569   3.351
 7259SOL    HW122676   1.481   3.584   3.267
 7259SOL    HW222677   1.343   3.522   3.328
 7260SOL     OW22678   5.301   2.560   1.226
 7260SOL    HW122679   5.228   2.566   1.158
 7260SOL    HW222680   5.322   2.464   1.245
 7261SOL     OW22681   0.399   3.699   0.933
 7261SOL    HW122682   0.433   3.793   0.942
 7261SOL    HW222683   0.351   3.689   0.846
 7262SOL     OW22684   5.555   1.406   6.216
 7262SOL    HW122685   5.588   1.386   6.123
 7262SOL    HW222686   5.541   1.320   6.264
 7263SOL     OW22687   0.530   6.849   0.513
 7263SOL    HW122688   0.584   6.779   0.468
 7263SOL    HW222689   0.443   6.810   0.543
 7264SOL     OW22690   5.866   0.904   0.964
 7264SOL    HW122691   5.813   0.957   1.029
 7264SOL    HW222692   5.946   0.956   0.935
 7265SOL     OW22693   5.343   5.529   4.471
 7265SOL    HW122694   5.405   5.554   4.397
 7265SOL    HW222695   5.345   5.430   4.486
 7266SOL     OW22696   6.976   0.423   3.694
 7266SOL    HW122697   6.908   0.357   3.726
 7266SOL    HW222698   6.931   0.510   3.673
 7267SOL     OW22699   6.444   6.449   5.034
 7267SOL    HW122700   6.385   6.527   5.051
 7267SOL    HW222701   6.455   6.437   4.935
 7268SOL     OW22702   6.808   5.433   4.371
 7268SOL    HW122703   6.752   5.395   4.444
 7268SOL    HW222704   6.751   5.450   4.291
 7269SOL     OW22705   1.924   6.186   5.969
 7269SOL    HW122706   1.969   6.098   5.952
 7269SOL    HW222707   1.851   6.174   6.036
 7270SOL     OW22708   6.913   1.811   4.065
 7270SOL    HW122709   6.964   1.782   3.984
 7270SOL    HW222710   6.839   1.873   4.038
 7271SOL     OW22711   1.758   4.990   3.949
 7271SOL    HW122712   1.847   5.013   3.909
 7271SOL    HW222713   1.736   4.895   3.928
 7272SOL     OW22714   6.348   6.131   2.035
 7272SOL    HW122715   6.315   6.080   2.115
 7272SOL    HW222716   6.430   6.088   1.999
 7273SOL     OW22717   5.230   3.342   6.094
 7273SOL    HW122718   5.278   3.420   6.135
 7273SOL    HW222719   5.264   3.257   6.133
 7274SOL     OW22720   0.332   4.278   6.629
 7274SOL    HW122721   0.318   4.183   6.601
 7274SOL    HW222722   0.245   4.327   6.629
 7275SOL     OW22723   0.102   6.676   2.744
 7275SOL    HW122724   0.012   6.644   2.775
 7275SOL    HW222725   0.090   6.751   2.678
 7276SOL     OW22726   5.368   6.900   3.836
 7276SOL    HW122727   5.402   6.967   3.902
 7276SOL    HW222728   5.331   6.948   3.756
 7277SOL     OW22729   5.114   0.585   5.737
 7277SOL    HW122730   5.152   0.655   5.677
 7277SOL    HW222731   5.188   0.542   5.789
 7278SOL     OW22732   3.148   3.992   1.814
 7278SOL    HW122733   3.237   4.023   1.847
 7278SOL    HW222734   3.088   4.071   1.800
 7279SOL     OW22735   3.888   6.330   0.064
 7279SOL    HW122736   3.915   6.385   0.143
 7279SOL    HW222737   3.961   6.264   0.043
 7280SOL     OW22738   5.578   6.869   5.177
 7280SOL    HW122739   5.490   6.837   5.143
 7280SOL    HW222740   5.615   6.938   5.114
 7281SOL     OW22741   2.892   1.674   0.197
 7281SOL    HW122742   2.918   1.758   0.246
 7281SOL    HW222743   2.882   1.694   0.099
 7282SOL     OW22744   6.270   5.035   2.811
 7282SOL    HW122745   6.175   5.021   2.840
 7282SOL    HW222746   6.325   4.957   2.841
 7283SOL     OW22747   2.965   1.107   3.506
 7283SOL    HW122748   2.910   1.179   3.549
 7283SOL    HW222749   2.935   1.018   3.541
 7284SOL     OW22750   0.341   3.729   5.326
 7284SOL    HW122751   0.387   3.695   5.407
 7284SOL    HW222752   0.262   3.672   5.305
 7285SOL     OW22753   5.305   4.195   2.349
 7285SOL    HW122754   5.368   4.229   2.279
 7285SOL    HW222755   5.296   4.263   2.421
 7286SOL     OW22756   3.049   1.753   1.026
 7286SOL    HW122757   3.027   1.728   0.931
 7286SOL    HW222758   3.017   1.680   1.087
 7287SOL     OW22759   0.795   2.371   6.631
 7287SOL    HW122760   0.865   2.300   6.644
 7287SOL    HW222761   0.838   2.454   6.596
 7288SOL     OW22762   3.794   0.356   6.432
 7288SOL    HW122763   3.862   0.377   6.502
 7288SOL    HW222764   3.760   0.441   6.392
 7289SOL     OW22765   6.049   1.524   3.479
 7289SOL    HW122766   6.052   1.589   3.554
 7289SOL    HW222767   6.051   1.431   3.515
 7290SOL     OW22768   2.528   5.959   5.438
 7290SOL    HW122769   2.532   5.860   5.423
 7290SOL    HW222770   2.592   5.984   5.510
 7291SOL     OW22771   1.949   0.301   1.245
 7291SOL    HW122772   1.946   0.387   1.195
 7291SOL    HW222773   1.874   0.297   1.310
 7292SOL     OW22774   2.429   0.748   4.485
 7292SOL    HW122775   2.470   0.702   4.407
 7292SOL    HW222776   2.444   0.846   4.478
 7293SOL     OW22777   1.500   1.406   4.963
 7293SOL    HW122778   1.598   1.393   4.977
 7293SOL    HW222779   1.454   1.417   5.051
 7294SOL     OW22780   2.797   5.407   0.952
 7294SOL    HW122781   2.844   5.320   0.935
 7294SOL    HW222782   2.830   5.447   1.037
 7295SOL     OW22783   1.059   2.668   0.521
 7295SOL    HW122784   1.146   2.655   0.473
 7295SOL    HW222785   1.046   2.765   0.540
 7296SOL     OW22786   2.971   4.721   1.049
 7296SOL    HW122787   2.915   4.638   1.051
 7296SOL    HW222788   2.937   4.786   1.116
 7297SOL     OW22789   3.797   5.978   0.759
 7297SOL    HW122790   3.766   6.007   0.669
 7297SOL    HW222791   3.719   5.974   0.822
 7298SOL     OW22792   5.025   4.243   5.672
 7298SOL    HW122793   5.073   4.331   5.674
 7298SOL    HW222794   5.013   4.214   5.577
 7299SOL     OW22795   0.388   1.936   6.982
 7299SOL    HW122796   0.486   1.938   7.003
 7299SOL    HW222797   0.338   1.893   0.031
 7300SOL     OW22798   5.825   5.127   2.058
 7300SOL    HW122799   5.870   5.136   1.969
 7300SOL    HW222800   5.799   5.032   2.073
 7301SOL     OW22801   6.220   0.927   4.774
 7301SOL    HW122802   6.131   0.950   4.813
 7301SOL    HW222803   6.207   0.868   4.693
 7302SOL     OW22804   0.318   1.374   6.678
 7302SOL    HW122805   0.363   1.294   6.717
 7302SOL    HW222806   0.382   1.451   6.677
 7303SOL     OW22807   4.958   0.720   6.671
 7303SOL    HW122808   5.048   0.704   6.632
 7303SOL    HW222809   4.948   0.666   6.755
 7304SOL     OW22810   3.504   4.669   0.101
 7304SOL    HW122811   3.599   4.697   0.114
 7304SOL    HW222812   3.467   4.635   0.187
 7305SOL     OW22813   4.505   1.876   0.712
 7305SOL    HW122814   4.496   1.841   0.805
 7305SOL    HW222815   4.490   1.975   0.712
 7306SOL     OW22816   5.179   3.193   1.125
 7306SOL    HW122817   5.192   3.280   1.079
 7306SOL    HW222818   5.221   3.196   1.216
 7307SOL     OW22819   2.951   0.042   1.552
 7307SOL    HW122820   2.917   0.088   1.634
 7307SOL    HW222821   3.028   0.093   1.515
 7308SOL     OW22822   0.109   3.936   5.609
 7308SOL    HW122823   0.124   3.983   5.521
 7308SOL    HW222824   0.030   3.977   5.655
 7309SOL     OW22825   5.301   6.159   0.598
 7309SOL    HW122826   5.263   6.143   0.507
 7309SOL    HW222827   5.230   6.198   0.657
 7310SOL     OW22828   1.713   3.842   1.512
 7310SOL    HW122829   1.707   3.864   1.609
 7310SOL    HW222830   1.638   3.886   1.463
 7311SOL     OW22831   3.616   2.045   2.129
 7311SOL    HW122832   3.667   2.105   2.067
 7311SOL    HW222833   3.518   2.052   2.110
 7312SOL     OW22834   0.445   3.188   5.811
 7312SOL    HW122835   0.451   3.225   5.903
 7312SOL    HW222836   0.389   3.248   5.754
 7313SOL     OW22837   4.324   2.508   6.169
 7313SOL    HW122838   4.385   2.493   6.247
 7313SOL    HW222839   4.343   2.597   6.128
 7314SOL     OW22840   6.588   3.557   5.409
 7314SOL    HW122841   6.616   3.603   5.324
 7314SOL    HW222842   6.647   3.478   5.424
 7315SOL     OW22843   6.767   0.245   2.803
 7315SOL    HW122844   6.725   0.255   2.893
 7315SOL    HW222845   6.846   0.307   2.796
 7316SOL     OW22846   3.171   3.362   6.279
 7316SOL    HW122847   3.134   3.377   6.187
 7316SOL    HW222848   3.188   3.451   6.323
 7317SOL     OW22849   4.554   0.942   2.238
 7317SOL    HW122850   4.645   0.957   2.277
 7317SOL    HW222851   4.495   0.901   2.307
 7318SOL     OW22852   0.911   1.662   0.909
 7318SOL    HW122853   0.940   1.571   0.937
 7318SOL    HW222854   0.929   1.674   0.811
 7319SOL     OW22855   6.374   3.710   6.146
 7319SOL    HW122856   6.326   3.638   6.197
 7319SOL    HW222857   6.306   3.768   6.100
 7320SOL     OW22858   6.499   3.750   1.643
 7320SOL    HW122859   6.589   3.728   1.681
 7320SOL    HW222860   6.510   3.802   1.558
 7321SOL     OW22861   3.198   6.375   5.414
 7321SOL    HW122862   3.153   6.356   5.501
 7321SOL    HW222863   3.130   6.411   5.349
 7322SOL     OW22864   0.829   2.560   2.790
 7322SOL    HW122865   0.833   2.507   2.875
 7322SOL    HW222866   0.808   2.499   2.714
 7323SOL     OW22867   1.879   2.332   1.660
 7323SOL    HW122868   1.822   2.412   1.640
 7323SOL    HW222869   1.853   2.294   1.749
 7324SOL     OW22870   5.346   6.335   2.609
 7324SOL    HW122871   5.299   6.417   2.643
 7324SOL    HW222872   5.314   6.314   2.517
 7325SOL     OW22873   3.945   6.864   6.263
 7325SOL    HW122874   3.882   6.942   6.275
 7325SOL    HW222875   3.901   6.781   6.298
 7326SOL     OW22876   2.392   6.414   5.277
 7326SOL    HW122877   2.366   6.338   5.216
 7326SOL    HW222878   2.344   6.497   5.249
 7327SOL     OW22879   6.561   2.919   5.082
 7327SOL    HW122880   6.480   2.866   5.056
 7327SOL    HW222881   6.641   2.858   5.082
 7328SOL     OW22882   3.317   0.369   6.401
 7328SOL    HW122883   3.227   0.328   6.391
 7328SOL    HW222884   3.382   0.321   6.341
 7329SOL     OW22885   4.539   3.676   1.662
 7329SOL    HW122886   4.553   3.772   1.686
 7329SOL    HW222887   4.616   3.643   1.607
 7330SOL     OW22888   3.140   2.098   6.780
 7330SOL    HW122889   3.062   2.037   6.794
 7330SOL    HW222890   3.219   2.063   6.830
 7331SOL     OW22891   5.411   7.021   1.708
 7331SOL    HW122892   5.404   0.045   1.622
 7331SOL    HW222893   5.502   6.982   1.717
 7332SOL     OW22894   2.324   5.920   0.585
 7332SOL    HW122895   2.266   5.871   0.520
 7332SOL    HW222896   2.419   5.894   0.571
 7333SOL     OW22897   0.201   3.027   3.579
 7333SOL    HW122898   0.121   3.082   3.554
 7333SOL    HW222899   0.197   3.005   3.676
 7334SOL     OW22900   3.913   5.908   6.926
 7334SOL    HW122901   3.945   5.829   6.977
 7334SOL    HW222902   3.827   5.885   6.880
 7335SOL     OW22903   1.812   2.866   2.534
 7335SOL    HW122904   1.902   2.894   2.499
 7335SOL    HW222905   1.789   2.921   2.614
 7336SOL     OW22906   1.765   6.139   2.946
 7336SOL    HW122907   1.765   6.198   2.866
 7336SOL    HW222908   1.709   6.058   2.929
 7337SOL     OW22909   0.379   2.890   2.244
 7337SOL    HW122910   0.440   2.813   2.223
 7337SOL    HW222911   0.289   2.872   2.203
 7338SOL     OW22912   6.325   2.761   1.506
 7338SOL    HW122913   6.414   2.722   1.527
 7338SOL    HW222914   6.329   2.861   1.514
 7339SOL     OW22915   4.924   6.209   3.662
 7339SOL    HW122916   4.903   6.300   3.696
 7339SOL    HW222917   4.860   6.143   3.700
 7340SOL     OW22918   1.584   1.214   0.203
 7340SOL    HW122919   1.583   1.290   0.137
 7340SOL    HW222920   1.574   1.127   0.154
 7341SOL     OW22921   0.056   2.510   6.898
 7341SOL    HW122922   0.001   2.437   6.856
 7341SOL    HW222923   7.022   2.577   6.940
 7342SOL     OW22924   6.519   0.911   1.736
 7342SOL    HW122925   6.433   0.962   1.747
 7342SOL    HW222926   6.505   0.833   1.675
 7343SOL     OW22927   4.218   2.896   0.024
 7343SOL    HW122928   4.126   2.925   7.024
 7343SOL    HW222929   4.219   2.875   0.122
 7344SOL     OW22930   1.190   6.805   6.107
 7344SOL    HW122931   1.222   6.743   6.178
 7344SOL    HW222932   1.229   6.780   6.019
 7345SOL     OW22933   3.566   3.372   5.752
 7345SOL    HW122934   3.525   3.436   5.817
 7345SOL    HW222935   3.515   3.375   5.666
 7346SOL     OW22936   3.848   6.588   2.953
 7346SOL    HW122937   3.831   6.553   2.861
 7346SOL    HW222938   3.880   6.514   3.012
 7347SOL     OW22939   0.456   1.843   0.465
 7347SOL    HW122940   0.553   1.866   0.472
 7347SOL    HW222941   0.445   1.744   0.457
 7348SOL     OW22942   1.108   3.370   4.235
 7348SOL    HW122943   1.206   3.359   4.252
 7348SOL    HW222944   1.089   3.464   4.207
 7349SOL     OW22945   4.056   0.049   1.858
 7349SOL    HW122946   4.042   6.991   1.910
 7349SOL    HW222947   4.018   0.126   1.909
 7350SOL     OW22948   2.528   1.640   5.746
 7350SOL    HW122949   2.518   1.683   5.835
 7350SOL    HW222950   2.512   1.708   5.674
 7351SOL     OW22951   5.424   5.472   3.234
 7351SOL    HW122952   5.374   5.557   3.244
 7351SOL    HW222953   5.471   5.470   3.146
 7352SOL     OW22954   1.381   1.908   2.657
 7352SOL    HW122955   1.286   1.911   2.624
 7352SOL    HW222956   1.440   1.959   2.595
 7353SOL     OW22957   0.616   0.552   6.617
 7353SOL    HW122958   0.617   0.470   6.559
 7353SOL    HW222959   0.710   0.584   6.632
 7354SOL     OW22960   2.056   0.841   4.444
 7354SOL    HW122961   2.017   0.889   4.523
 7354SOL    HW222962   2.056   0.902   4.365
 7355SOL     OW22963   0.227   2.229   6.630
 7355SOL    HW122964   0.165   2.261   6.559
 7355SOL    HW222965   0.322   2.240   6.599
 7356SOL     OW22966   3.734   4.431   5.963
 7356SOL    HW122967   3.690   4.514   5.928
 7356SOL    HW222968   3.801   4.398   5.896
 7357SOL     OW22969   3.337   6.142   2.105
 7357SOL    HW122970   3.314   6.154   2.009
 7357SOL    HW222971   3.436   6.135   2.115
 7358SOL     OW22972   6.205   3.200   2.232
 7358SOL    HW122973   6.238   3.172   2.322
 7358SOL    HW222974   6.156   3.124   2.189
 7359SOL     OW22975   4.534   2.477   5.769
 7359SOL    HW122976   4.598   2.443   5.700
 7359SOL    HW222977   4.584   2.528   5.839
 7360SOL     OW22978   2.026   3.637   5.343
 7360SOL    HW122979   2.058   3.609   5.433
 7360SOL    HW222980   2.101   3.681   5.294
 7361SOL     OW22981   5.304   0.590   2.682
 7361SOL    HW122982   5.238   0.581   2.607
 7361SOL    HW222983   5.259   0.568   2.768
 7362SOL     OW22984   3.030   5.839   6.589
 7362SOL    HW122985   3.076   5.911   6.538
 7362SOL    HW222986   3.049   5.849   6.686
 7363SOL     OW22987   4.500   0.773   1.363
 7363SOL    HW122988   4.491   0.674   1.352
 7363SOL    HW222989   4.413   0.818   1.339
 7364SOL     OW22990   4.770   0.099   1.860
 7364SOL    HW122991   4.721   0.115   1.946
 7364SOL    HW222992   4.749   0.172   1.796
 7365SOL     OW22993   0.192   5.931   2.556
 7365SOL    HW122994   0.147   5.842   2.556
 7365SOL    HW222995   0.248   5.940   2.639
 7366SOL     OW22996   1.998   6.974   4.971
 7366SOL    HW122997   2.004   6.880   4.939
 7366SOL    HW222998   2.087   7.019   4.963
 7367SOL     OW22999   4.043   2.276   0.473
 7367SOL    HW123000   4.055   2.209   0.399
 7367SOL    HW223001   4.069   2.235   0.560
 7368SOL     OW23002   3.546   2.880   2.839
 7368SOL    HW123003   3.629   2.873   2.894
 7368SOL    HW223004   3.567   2.858   2.743
 7369SOL     OW23005   3.746   2.564   0.946
 7369SOL    HW123006   3.739   2.631   1.020
 7369SOL    HW223007   3.767   2.474   0.985
 7370SOL     OW23008   2.680   2.066   5.394
 7370SOL    HW123009   2.747   2.003   5.434
 7370SOL    HW223010   2.619   2.099   5.466
 7371SOL     OW23011   3.396   6.774   3.763
 7371SOL    HW123012   3.330   6.844   3.793
 7371SOL    HW223013   3.397   6.699   3.829
 7372SOL     OW23014   4.278   6.516   4.804
 7372SOL    HW123015   4.308   6.449   4.735
 7372SOL    HW223016   4.355   6.577   4.826
 7373SOL     OW23017   5.393   2.148   4.882
 7373SOL    HW123018   5.366   2.059   4.846
 7373SOL    HW223019   5.492   2.150   4.893
 7374SOL     OW23020   1.497   1.795   4.729
 7374SOL    HW123021   1.446   1.738   4.665
 7374SOL    HW223022   1.591   1.760   4.737
 7375SOL     OW23023   2.368   2.685   2.003
 7375SOL    HW123024   2.359   2.586   2.005
 7375SOL    HW223025   2.464   2.710   2.018
 7376SOL     OW23026   1.239   3.082   1.431
 7376SOL    HW123027   1.242   3.180   1.411
 7376SOL    HW223028   1.228   3.031   1.346
 7377SOL     OW23029   3.888   5.304   1.176
 7377SOL    HW123030   3.901   5.385   1.234
 7377SOL    HW223031   3.975   5.258   1.162
 7378SOL     OW23032   1.611   6.764   4.154
 7378SOL    HW123033   1.698   6.724   4.124
 7378SOL    HW223034   1.535   6.710   4.116
 7379SOL     OW23035   2.476   0.313   1.957
 7379SOL    HW123036   2.450   0.314   2.053
 7379SOL    HW223037   2.495   0.219   1.929
 7380SOL     OW23038   6.220   4.154   3.658
 7380SOL    HW123039   6.244   4.241   3.614
 7380SOL    HW223040   6.257   4.154   3.751
 7381SOL     OW23041   4.147   2.865   0.772
 7381SOL    HW123042   4.121   2.803   0.698
 7381SOL    HW223043   4.099   2.840   0.855
 7382SOL     OW23044   6.583   1.933   6.107
 7382SOL    HW123045   6.650   2.004   6.127
 7382SOL    HW223046   6.522   1.921   6.186
 7383SOL     OW23047   2.220   5.820   2.006
 7383SOL    HW123048   2.163   5.845   2.084
 7383SOL    HW223049   2.166   5.765   1.942
 7384SOL     OW23050   6.701   6.886   1.162
 7384SOL    HW123051   6.684   6.979   1.193
 7384SOL    HW223052   6.617   6.849   1.122
 7385SOL     OW23053   3.052   4.992   2.549
 7385SOL    HW123054   3.117   4.985   2.625
 7385SOL    HW223055   3.096   5.034   2.470
 7386SOL     OW23056   6.758   3.025   6.499
 7386SOL    HW123057   6.737   3.091   6.572
 7386SOL    HW223058   6.770   2.934   6.539
 7387SOL     OW23059   6.826   5.393   5.961
 7387SOL    HW123060   6.844   5.488   5.988
 7387SOL    HW223061   6.758   5.391   5.888
 7388SOL     OW23062   1.223   5.337   3.211
 7388SOL    HW123063   1.154   5.342   3.140
 7388SOL    HW223064   1.304   5.389   3.183
 7389SOL     OW23065   0.212   3.374   0.461
 7389SOL    HW123066   0.296   3.420   0.491
 7389SOL    HW223067   0.232   3.315   0.383
 7390SOL     OW23068   2.704   1.987   2.097
 7390SOL    HW123069   2.610   1.976   2.131
 7390SOL    HW223070   2.758   1.908   2.123
 7391SOL     OW23071   4.088   3.674   2.649
 7391SOL    HW123072   4.128   3.680   2.740
 7391SOL    HW223073   4.032   3.755   2.631
 7392SOL     OW23074   3.412   6.426   6.818
 7392SOL    HW123075   3.316   6.405   6.834
 7392SOL    HW223076   3.444   6.378   6.736
 7393SOL     OW23077   6.567   4.616   3.243
 7393SOL    HW123078   6.573   4.533   3.188
 7393SOL    HW223079   6.618   4.602   3.328
 7394SOL     OW23080   1.924   3.036   6.732
 7394SOL    HW123081   1.928   3.133   6.708
 7394SOL    HW223082   1.899   2.982   6.651
 7395SOL     OW23083   2.190   3.293   1.530
 7395SOL    HW123084   2.223   3.260   1.619
 7395SOL    HW223085   2.200   3.392   1.525
 7396SOL     OW23086   2.334   6.087   1.624
 7396SOL    HW123087   2.419   6.036   1.639
 7396SOL    HW223088   2.298   6.117   1.712
 7397SOL     OW23089   4.942   3.576   4.607
 7397SOL    HW123090   5.002   3.607   4.533
 7397SOL    HW223091   4.895   3.655   4.647
 7398SOL     OW23092   1.401   4.951   3.092
 7398SOL    HW123093   1.345   5.032   3.111
 7398SOL    HW223094   1.497   4.972   3.111
 7399SOL     OW23095   6.494   2.957   4.271
 7399SOL    HW123096   6.486   2.918   4.363
 7399SOL    HW223097   6.468   3.053   4.273
 7400SOL     OW23098   4.683   2.247   5.184
 7400SOL    HW123099   4.739   2.263   5.102
 7400SOL    HW223100   4.587   2.258   5.161
 7401SOL     OW23101   1.776   2.867   3.340
 7401SOL    HW123102   1.795   2.960   3.372
 7401SOL    HW223103   1.687   2.837   3.374
 7402SOL     OW23104   2.546   5.190   5.569
 7402SOL    HW123105   2.625   5.172   5.511
 7402SOL    HW223106   2.564   5.156   5.661
 7403SOL     OW23107   1.905   3.183   3.084
 7403SOL    HW123108   2.000   3.212   3.079
 7403SOL    HW223109   1.896   3.093   3.042
 7404SOL     OW23110   3.303   4.115   1.438
 7404SOL    HW123111   3.317   4.170   1.520
 7404SOL    HW223112   3.228   4.050   1.454
 7405SOL     OW23113   3.065   5.210   5.257
 7405SOL    HW123114   3.020   5.217   5.168
 7405SOL    HW223115   3.105   5.119   5.267
 7406SOL     OW23116   0.761   1.570   5.294
 7406SOL    HW123117   0.725   1.662   5.308
 7406SOL    HW223118   0.837   1.574   5.228
 7407SOL     OW23119   1.017   6.391   0.077
 7407SOL    HW123120   1.007   6.292   0.088
 7407SOL    HW223121   0.939   6.438   0.118
 7408SOL     OW23122   3.122   4.311   5.608
 7408SOL    HW123123   3.068   4.304   5.692
 7408SOL    HW223124   3.195   4.243   5.608
 7409SOL     OW23125   5.368   4.023   6.916
 7409SOL    HW123126   5.461   3.989   6.924
 7409SOL    HW223127   5.346   4.040   6.820
 7410SOL     OW23128   0.306   0.486   0.453
 7410SOL    HW123129   0.278   0.546   0.378
 7410SOL    HW223130   0.256   0.399   0.447
 7411SOL     OW23131   1.594   1.396   6.004
 7411SOL    HW123132   1.670   1.450   6.041
 7411SOL    HW223133   1.597   1.398   5.904
 7412SOL     OW23134   4.419   6.827   0.456
 7412SOL    HW123135   4.459   6.897   0.398
 7412SOL    HW223136   4.356   6.870   0.522
 7413SOL     OW23137   5.095   4.586   3.173
 7413SOL    HW123138   5.017   4.564   3.113
 7413SOL    HW223139   5.157   4.648   3.125
 7414SOL     OW23140   2.250   2.178   4.321
 7414SOL    HW123141   2.320   2.124   4.275
 7414SOL    HW223142   2.283   2.271   4.335
 7415SOL     OW23143   3.074   6.440   6.645
 7415SOL    HW123144   3.120   6.526   6.666
 7415SOL    HW223145   2.977   6.446   6.670
 7416SOL     OW23146   1.070   1.008   2.722
 7416SOL    HW123147   1.012   1.085   2.694
 7416SOL    HW223148   1.049   0.983   2.817
 7417SOL     OW23149   1.353   2.358   3.263
 7417SOL    HW123150   1.332   2.333   3.168
 7417SOL    HW223151   1.387   2.452   3.266
 7418SOL     OW23152   1.686   4.745   6.658
 7418SOL    HW123153   1.628   4.669   6.629
 7418SOL    HW223154   1.704   4.805   6.581
 7419SOL     OW23155   6.148   3.434   3.583
 7419SOL    HW123156   6.184   3.346   3.552
 7419SOL    HW223157   6.058   3.449   3.542
 7420SOL     OW23158   6.629   6.025   1.877
 7420SOL    HW123159   6.695   6.089   1.916
 7420SOL    HW223160   6.676   5.943   1.843
 7421SOL     OW23161   4.672   3.672   1.249
 7421SOL    HW123162   4.628   3.655   1.160
 7421SOL    HW223163   4.753   3.614   1.257
 7422SOL     OW23164   6.405   3.329   2.093
 7422SOL    HW123165   6.408   3.429   2.090
 7422SOL    HW223166   6.317   3.300   2.132
 7423SOL     OW23167   5.774   1.978   5.388
 7423SOL    HW123168   5.706   2.051   5.389
 7423SOL    HW223169   5.866   2.018   5.386
 7424SOL     OW23170   6.245   1.241   4.990
 7424SOL    HW123171   6.193   1.194   5.062
 7424SOL    HW223172   6.270   1.175   4.919
 7425SOL     OW23173   5.173   6.938   0.448
 7425SOL    HW123174   5.236   6.920   0.372
 7425SOL    HW223175   5.203   7.018   0.499
 7426SOL     OW23176   3.122   2.228   5.900
 7426SOL    HW123177   3.109   2.146   5.844
 7426SOL    HW223178   3.041   2.244   5.956
 7427SOL     OW23179   3.804   1.539   3.777
 7427SOL    HW123180   3.762   1.482   3.848
 7427SOL    HW223181   3.898   1.507   3.761
 7428SOL     OW23182   4.100   6.152   5.878
 7428SOL    HW123183   4.069   6.151   5.783
 7428SOL    HW223184   4.166   6.078   5.893
 7429SOL     OW23185   1.133   6.234   3.279
 7429SOL    HW123186   1.151   6.140   3.308
 7429SOL    HW223187   1.219   6.286   3.282
 7430SOL     OW23188   6.578   4.301   2.202
 7430SOL    HW123189   6.627   4.374   2.249
 7430SOL    HW223190   6.487   4.332   2.176
 7431SOL     OW23191   2.310   2.746   4.481
 7431SOL    HW123192   2.216   2.711   4.481
 7431SOL    HW223193   2.347   2.740   4.388
 7432SOL     OW23194   2.043   0.729   3.666
 7432SOL    HW123195   2.073   0.635   3.683
 7432SOL    HW223196   2.013   0.771   3.751
 7433SOL     OW23197   2.863   0.044   6.763
 7433SOL    HW123198   2.883   0.031   6.860
 7433SOL    HW223199   2.768   0.073   6.752
 7434SOL     OW23200   5.006   5.998   6.096
 7434SOL    HW123201   5.044   5.933   6.162
 7434SOL    HW223202   5.038   6.091   6.119
 7435SOL     OW23203   4.768   6.218   1.690
 7435SOL    HW123204   4.726   6.298   1.649
 7435SOL    HW223205   4.711   6.137   1.672
 7436SOL     OW23206   4.678   4.503   6.226
 7436SOL    HW123207   4.669   4.416   6.177
 7436SOL    HW223208   4.588   4.533   6.257
 7437SOL     OW23209   2.678   5.354   1.609
 7437SOL    HW123210   2.626   5.288   1.664
 7437SOL    HW223211   2.772   5.322   1.599
 7438SOL     OW23212   1.874   0.889   0.552
 7438SOL    HW123213   1.924   0.887   0.639
 7438SOL    HW223214   1.781   0.923   0.567
 7439SOL     OW23215   1.790   5.130   5.513
 7439SOL    HW123216   1.813   5.202   5.448
 7439SOL    HW223217   1.833   5.044   5.486
 7440SOL     OW23218   5.113   2.994   4.068
 7440SOL    HW123219   5.204   3.036   4.072
 7440SOL    HW223220   5.046   3.063   4.039
 7441SOL     OW23221   5.695   6.693   2.758
 7441SOL    HW123222   5.717   6.638   2.838
 7441SOL    HW223223   5.719   6.642   2.675
 7442SOL     OW23224   5.955   0.823   6.007
 7442SOL    HW123225   5.946   0.845   6.104
 7442SOL    HW223226   6.051   0.803   5.986
 7443SOL     OW23227   6.978   5.528   2.174
 7443SOL    HW123228   6.895   5.477   2.152
 7443SOL    HW223229   7.000   5.516   2.270
 7444SOL     OW23230   6.835   0.507   5.995
 7444SOL    HW123231   6.777   0.426   6.007
 7444SOL    HW223232   6.855   0.547   6.084
 7445SOL     OW23233   3.833   6.810   1.721
 7445SOL    HW123234   3.834   6.901   1.681
 7445SOL    HW223235   3.781   6.748   1.662
 7446SOL     OW23236   5.251   2.695   0.639
 7446SOL    HW123237   5.328   2.706   0.703
 7446SOL    HW223238   5.284   2.706   0.545
 7447SOL     OW23239   0.010   4.648   0.100
 7447SOL    HW123240   6.954   4.599   0.128
 7447SOL    HW223241   0.039   4.615   0.010
 7448SOL     OW23242   5.727   6.095   6.194
 7448SOL    HW123243   5.713   6.003   6.231
 7448SOL    HW223244   5.817   6.101   6.151
 7449SOL     OW23245   0.337   5.146   0.225
 7449SOL    HW123246   0.308   5.095   0.305
 7449SOL    HW223247   0.328   5.244   0.242
 7450SOL     OW23248   5.485   1.708   5.496
 7450SOL    HW123249   5.416   1.780   5.506
 7450SOL    HW223250   5.562   1.743   5.443
 7451SOL     OW23251   5.690   5.758   2.361
 7451SOL    HW123252   5.611   5.714   2.404
 7451SOL    HW223253   5.715   5.840   2.413
 7452SOL     OW23254   6.445   6.345   4.784
 7452SOL    HW123255   6.483   6.308   4.699
 7452SOL    HW223256   6.350   6.316   4.793
 7453SOL     OW23257   5.238   5.641   6.400
 7453SOL    HW123258   5.237   5.629   6.499
 7453SOL    HW223259   5.320   5.693   6.373
 7454SOL     OW23260   3.305   1.892   0.287
 7454SOL    HW123261   3.378   1.959   0.294
 7454SOL    HW223262   3.233   1.913   0.353
 7455SOL     OW23263   6.022   2.820   2.481
 7455SOL    HW123264   5.953   2.833   2.409
 7455SOL    HW223265   6.106   2.868   2.455
 7456SOL     OW23266   2.605   2.317   5.009
 7456SOL    HW123267   2.568   2.410   5.007
 7456SOL    HW223268   2.673   2.310   5.083
 7457SOL     OW23269   2.162   6.932   4.061
 7457SOL    HW123270   2.194   6.957   4.153
 7457SOL    HW223271   2.235   6.886   4.011
 7458SOL     OW23272   1.206   6.908   4.926
 7458SOL    HW123273   1.234   6.904   4.830
 7458SOL    HW223274   1.266   6.971   4.975
 7459SOL     OW23275   6.533   1.295   2.437
 7459SOL    HW123276   6.607   1.255   2.383
 7459SOL    HW223277   6.483   1.222   2.484
 7460SOL     OW23278   1.799   6.834   0.072
 7460SOL    HW123279   1.839   6.921   0.043
 7460SOL    HW223280   1.780   6.777   7.018
 7461SOL     OW23281   0.170   6.098   5.474
 7461SOL    HW123282   0.146   6.001   5.473
 7461SOL    HW223283   0.268   6.108   5.491
 7462SOL     OW23284   0.953   5.652   1.183
 7462SOL    HW123285   0.937   5.553   1.186
 7462SOL    HW223286   1.016   5.677   1.256
 7463SOL     OW23287   3.505   4.497   0.899
 7463SOL    HW123288   3.583   4.507   0.838
 7463SOL    HW223289   3.420   4.508   0.847
 7464SOL     OW23290   0.394   5.655   4.558
 7464SOL    HW123291   0.425   5.654   4.463
 7464SOL    HW223292   0.360   5.746   4.582
 7465SOL     OW23293   2.462   4.976   0.197
 7465SOL    HW123294   2.403   4.924   0.135
 7465SOL    HW223295   2.412   5.056   0.230
 7466SOL     OW23296   0.246   0.565   5.594
 7466SOL    HW123297   0.225   0.468   5.577
 7466SOL    HW223298   0.321   0.594   5.534
 7467SOL     OW23299   0.342   2.669   6.362
 7467SOL    HW123300   0.333   2.678   6.462
 7467SOL    HW223301   0.422   2.613   6.341
 7468SOL     OW23302   5.720   3.144   5.006
 7468SOL    HW123303   5.775   3.225   4.982
 7468SOL    HW223304   5.760   3.100   5.087
 7469SOL     OW23305   6.608   2.351   0.511
 7469SOL    HW123306   6.693   2.359   0.459
 7469SOL    HW223307   6.534   2.393   0.460
 7470SOL     OW23308   5.845   3.787   3.159
 7470SOL    HW123309   5.796   3.713   3.114
 7470SOL    HW223310   5.943   3.776   3.144
 7471SOL     OW23311   5.449   5.878   6.305
 7471SOL    HW123312   5.542   5.850   6.330
 7471SOL    HW223313   5.433   5.860   6.209
 7472SOL     OW23314   6.922   0.476   5.576
 7472SOL    HW123315   6.958   0.494   5.484
 7472SOL    HW223316   6.940   0.555   5.635
 7473SOL     OW23317   4.619   6.767   4.017
 7473SOL    HW123318   4.609   6.832   4.093
 7473SOL    HW223319   4.529   6.730   3.992
 7474SOL     OW23320   5.881   2.100   6.606
 7474SOL    HW123321   5.932   2.184   6.585
 7474SOL    HW223322   5.810   2.120   6.673
 7475SOL     OW23323   4.450   2.163   2.181
 7475SOL    HW123324   4.357   2.125   2.173
 7475SOL    HW223325   4.467   2.225   2.104
 7476SOL     OW23326   2.028   2.181   2.965
 7476SOL    HW123327   1.942   2.176   3.017
 7476SOL    HW223328   2.018   2.246   2.890
 7477SOL     OW23329   0.434   3.529   4.991
 7477SOL    HW123330   0.442   3.539   4.892
 7477SOL    HW223331   0.513   3.571   5.035
 7478SOL     OW23332   5.767   2.444   5.056
 7478SOL    HW123333   5.678   2.467   5.016
 7478SOL    HW223334   5.756   2.364   5.116
 7479SOL     OW23335   5.189   2.871   0.055
 7479SOL    HW123336   5.258   2.921   0.106
 7479SOL    HW223337   5.200   2.773   0.072
 7480SOL     OW23338   2.829   5.582   2.824
 7480SOL    HW123339   2.800   5.646   2.753
 7480SOL    HW223340   2.793   5.611   2.913
 7481SOL     OW23341   5.945   4.485   6.416
 7481SOL    HW123342   6.036   4.518   6.441
 7481SOL    HW223343   5.953   4.404   6.359
 7482SOL     OW23344   4.233   2.150   2.722
 7482SOL    HW123345   4.293   2.126   2.646
 7482SOL    HW223346   4.248   2.245   2.748
 7483SOL     OW23347   5.192   1.607   4.515
 7483SOL    HW123348   5.140   1.626   4.431
 7483SOL    HW223349   5.290   1.610   4.495
 7484SOL     OW23350   2.028   5.972   4.644
 7484SOL    HW123351   2.082   5.953   4.562
 7484SOL    HW223352   1.932   5.951   4.626
 7485SOL     OW23353   2.383   0.206   4.062
 7485SOL    HW123354   2.288   0.197   4.032
 7485SOL    HW223355   2.404   0.303   4.079
 7486SOL     OW23356   0.632   6.142   0.426
 7486SOL    HW123357   0.628   6.045   0.451
 7486SOL    HW223358   0.553   6.166   0.370
 7487SOL     OW23359   4.727   0.639   3.618
 7487SOL    HW123360   4.789   0.690   3.679
 7487SOL    HW223361   4.738   0.541   3.634
 7488SOL     OW23362   1.108   5.940   4.292
 7488SOL    HW123363   1.131   5.847   4.321
 7488SOL    HW223364   1.088   5.996   4.372
 7489SOL     OW23365   6.268   3.811   0.002
 7489SOL    HW123366   6.227   3.764   0.081
 7489SOL    HW223367   6.214   3.792   6.946
 7490SOL     OW23368   1.726   2.178   2.764
 7490SOL    HW123369   1.798   2.113   2.737
 7490SOL    HW223370   1.685   2.217   2.682
 7491SOL     OW23371   4.537   2.971   0.817
 7491SOL    HW123372   4.626   2.997   0.855
 7491SOL    HW223373   4.468   2.975   0.889
 7492SOL     OW23374   1.729   0.788   4.091
 7492SOL    HW123375   1.668   0.711   4.071
 7492SOL    HW223376   1.707   0.865   4.031
 7493SOL     OW23377   6.652   3.878   5.393
 7493SOL    HW123378   6.698   3.800   5.435
 7493SOL    HW223379   6.694   3.898   5.305
 7494SOL     OW23380   5.933   0.811   3.154
 7494SOL    HW123381   5.991   0.813   3.073
 7494SOL    HW223382   5.990   0.814   3.236
 7495SOL     OW23383   2.170   2.917   4.902
 7495SOL    HW123384   2.244   2.949   4.960
 7495SOL    HW223385   2.085   2.913   4.955
 7496SOL     OW23386   6.458   3.405   3.495
 7496SOL    HW123387   6.527   3.473   3.470
 7496SOL    HW223388   6.398   3.389   3.416
 7497SOL     OW23389   1.546   6.760   1.199
 7497SOL    HW123390   1.493   6.743   1.116
 7497SOL    HW223391   1.598   6.678   1.223
 7498SOL     OW23392   2.889   0.515   3.396
 7498SOL    HW123393   2.792   0.536   3.385
 7498SOL    HW223394   2.942   0.566   3.329
 7499SOL     OW23395   4.067   2.121   3.797
 7499SOL    HW123396   3.980   2.079   3.771
 7499SOL    HW223397   4.113   2.064   3.864
 7500SOL     OW23398   3.977   7.018   3.687
 7500SOL    HW123399   3.957   0.022   3.594
 7500SOL    HW223400   3.985   0.072   3.747
 7501SOL     OW23401   5.456   2.933   3.974
 7501SOL    HW123402   5.419   2.922   3.882
 7501SOL    HW223403   5.412   2.869   4.036
 7502SOL     OW23404   3.646   0.658   4.585
 7502SOL    HW123405   3.693   0.616   4.507
 7502SOL    HW223406   3.667   0.756   4.587
 7503SOL     OW23407   1.965   5.787   1.088
 7503SOL    HW123408   1.948   5.709   1.028
 7503SOL    HW223409   2.023   5.854   1.040
 7504SOL     OW23410   0.378   5.988   2.364
 7504SOL    HW123411   0.366   5.918   2.294
 7504SOL    HW223412   0.317   5.969   2.441
 7505SOL     OW23413   0.239   1.374   4.902
 7505SOL    HW123414   0.180   1.416   4.833
 7505SOL    HW223415   0.202   1.284   4.927
 7506SOL     OW23416   3.102   1.906   3.218
 7506SOL    HW123417   3.150   1.984   3.178
 7506SOL    HW223418   3.045   1.862   3.148
 7507SOL     OW23419   6.358   3.479   4.555
 7507SOL    HW123420   6.431   3.524   4.606
 7507SOL    HW223421   6.271   3.523   4.574
 7508SOL     OW23422   1.697   5.663   7.011
 7508SOL    HW123423   1.738   5.572   7.021
 7508SOL    HW223424   1.643   5.667   6.927
 7509SOL     OW23425   5.027   4.197   6.924
 7509SOL    HW123426   5.125   4.214   6.921
 7509SOL    HW223427   5.003   4.128   6.856
 7510SOL     OW23428   3.989   3.165   4.236
 7510SOL    HW123429   3.940   3.248   4.211
 7510SOL    HW223430   4.011   3.112   4.153
 7511SOL     OW23431   3.472   5.547   2.779
 7511SOL    HW123432   3.520   5.619   2.728
 7511SOL    HW223433   3.400   5.508   2.721
 7512SOL     OW23434   2.843   0.583   6.740
 7512SOL    HW123435   2.826   0.487   6.719
 7512SOL    HW223436   2.801   0.607   6.827
 7513SOL     OW23437   2.151   2.589   3.477
 7513SOL    HW123438   2.115   2.669   3.429
 7513SOL    HW223439   2.075   2.537   3.517
 7514SOL     OW23440   2.113   4.331   3.780
 7514SOL    HW123441   2.052   4.271   3.831
 7514SOL    HW223442   2.185   4.276   3.737
 7515SOL     OW23443   6.755   4.149   5.444
 7515SOL    HW123444   6.700   4.078   5.399
 7515SOL    HW223445   6.698   4.229   5.462
 7516SOL     OW23446   1.353   5.353   5.870
 7516SOL    HW123447   1.324   5.384   5.961
 7516SOL    HW223448   1.419   5.417   5.832
 7517SOL     OW23449   1.291   2.586   0.073
 7517SOL    HW123450   1.322   2.501   0.115
 7517SOL    HW223451   1.269   2.569   7.003
 7518SOL     OW23452   4.935   3.160   3.952
 7518SOL    HW123453   4.942   3.250   3.909
 7518SOL    HW223454   4.862   3.108   3.908
 7519SOL     OW23455   4.863   0.270   4.695
 7519SOL    HW123456   4.941   0.322   4.728
 7519SOL    HW223457   4.778   0.317   4.720
 7520SOL     OW23458   1.762   1.680   2.092
 7520SOL    HW123459   1.761   1.581   2.099
 7520SOL    HW223460   1.856   1.712   2.078
 7521SOL     OW23461   5.523   1.427   4.730
 7521SOL    HW123462   5.440   1.482   4.736
 7521SOL    HW223463   5.603   1.487   4.730
 7522SOL     OW23464   0.883   6.497   3.919
 7522SOL    HW123465   0.870   6.435   3.996
 7522SOL    HW223466   0.978   6.496   3.890
 7523SOL     OW23467   5.346   0.600   6.228
 7523SOL    HW123468   5.268   0.622   6.286
 7523SOL    HW223469   5.328   0.514   6.180
 7524SOL     OW23470   6.791   2.643   4.424
 7524SOL    HW123471   6.842   2.558   4.440
 7524SOL    HW223472   6.821   2.684   4.338
 7525SOL     OW23473   4.452   6.579   0.046
 7525SOL    HW123474   4.424   6.522   6.994
 7525SOL    HW223475   4.454   6.523   0.128
 7526SOL     OW23476   2.219   3.201   1.814
 7526SOL    HW123477   2.264   3.284   1.845
 7526SOL    HW223478   2.136   3.185   1.869
 7527SOL     OW23479   4.014   5.933   4.114
 7527SOL    HW123480   4.105   5.928   4.074
 7527SOL    HW223481   4.011   5.880   4.199
 7528SOL     OW23482   5.622   2.161   0.096
 7528SOL    HW123483   5.612   2.080   0.038
 7528SOL    HW223484   5.534   2.207   0.104
 7529SOL     OW23485   5.892   1.757   3.555
 7529SOL    HW123486   5.802   1.785   3.520
 7529SOL    HW223487   5.882   1.680   3.617
 7530SOL     OW23488   6.787   1.622   2.430
 7530SOL    HW123489   6.752   1.712   2.405
 7530SOL    HW223490   6.854   1.631   2.503
 7531SOL     OW23491   4.560   2.512   3.431
 7531SOL    HW123492   4.512   2.445   3.487
 7531SOL    HW223493   4.657   2.514   3.455
 7532SOL     OW23494   4.889   6.163   6.919
 7532SOL    HW123495   4.982   6.191   6.895
 7532SOL    HW223496   4.823   6.209   6.860
 7533SOL     OW23497   4.518   2.810   1.712
 7533SOL    HW123498   4.599   2.752   1.712
 7533SOL    HW223499   4.515   2.864   1.796
 7534SOL     OW23500   4.984   6.418   4.674
 7534SOL    HW123501   4.899   6.425   4.726
 7534SOL    HW223502   5.056   6.469   4.721
 7535SOL     OW23503   1.285   6.928   4.656
 7535SOL    HW123504   1.202   6.901   4.607
 7535SOL    HW223505   1.334   6.996   4.602
 7536SOL     OW23506   5.270   5.738   4.268
 7536SOL    HW123507   5.280   5.639   4.274
 7536SOL    HW223508   5.272   5.777   4.360
 7537SOL     OW23509   2.464   5.376   2.237
 7537SOL    HW123510   2.429   5.470   2.231
 7537SOL    HW223511   2.550   5.376   2.288
 7538SOL     OW23512   0.752   3.445   1.789
 7538SOL    HW123513   0.744   3.347   1.774
 7538SOL    HW223514   0.681   3.493   1.737
 7539SOL     OW23515   1.623   5.338   3.641
 7539SOL    HW123516   1.591   5.244   3.654
 7539SOL    HW223517   1.723   5.339   3.640
 7540SOL     OW23518   4.754   5.986   4.502
 7540SOL    HW123519   4.678   6.050   4.513
 7540SOL    HW223520   4.813   6.016   4.427
 7541SOL     OW23521   0.343   3.998   6.614
 7541SOL    HW123522   0.418   3.996   6.547
 7541SOL    HW223523   0.303   3.906   6.622
 7542SOL     OW23524   6.329   5.966   5.385
 7542SOL    HW123525   6.334   6.029   5.463
 7542SOL    HW223526   6.243   5.916   5.388
 7543SOL     OW23527   2.751   0.307   5.105
 7543SOL    HW123528   2.771   0.314   5.008
 7543SOL    HW223529   2.658   0.271   5.118
 7544SOL     OW23530   0.023   1.987   4.238
 7544SOL    HW123531   7.012   1.912   4.183
 7544SOL    HW223532   7.016   2.074   4.202
 7545SOL     OW23533   0.222   5.593   6.976
 7545SOL    HW123534   0.131   5.606   7.017
 7545SOL    HW223535   0.286   5.660   7.014
 7546SOL     OW23536   3.777   2.768   1.674
 7546SOL    HW123537   3.729   2.782   1.587
 7546SOL    HW223538   3.719   2.717   1.737
 7547SOL     OW23539   4.585   0.642   2.083
 7547SOL    HW123540   4.662   0.665   2.143
 7547SOL    HW223541   4.621   0.609   1.995
 7548SOL     OW23542   4.457   2.246   6.496
 7548SOL    HW123543   4.500   2.180   6.558
 7548SOL    HW223544   4.370   2.275   6.535
 7549SOL     OW23545   4.008   2.770   5.734
 7549SOL    HW123546   3.973   2.787   5.826
 7549SOL    HW223547   4.107   2.785   5.733
 7550SOL     OW23548   1.920   3.901   4.042
 7550SOL    HW123549   2.010   3.899   4.085
 7550SOL    HW223550   1.861   3.832   4.085
 7551SOL     OW23551   4.903   2.052   5.431
 7551SOL    HW123552   4.805   2.070   5.435
 7551SOL    HW223553   4.922   1.985   5.359
 7552SOL     OW23554   1.934   5.822   4.239
 7552SOL    HW123555   2.022   5.834   4.285
 7552SOL    HW223556   1.864   5.877   4.285
 7553SOL     OW23557   5.664   6.097   5.681
 7553SOL    HW123558   5.654   6.104   5.780
 7553SOL    HW223559   5.613   6.017   5.647
 7554SOL     OW23560   5.554   1.362   0.279
 7554SOL    HW123561   5.612   1.286   0.309
 7554SOL    HW223562   5.486   1.328   0.213
 7555SOL     OW23563   2.772   6.473   6.613
 7555SOL    HW123564   2.772   6.424   6.527
 7555SOL    HW223565   2.733   6.416   6.685
 7556SOL     OW23566   1.310   1.521   0.285
 7556SOL    HW123567   1.409   1.513   0.279
 7556SOL    HW223568   1.285   1.615   0.307
 7557SOL     OW23569   5.034   6.962   0.211
 7557SOL    HW123570   4.970   6.916   0.272
 7557SOL    HW223571   5.122   6.914   0.213
 7558SOL     OW23572   1.181   2.609   4.078
 7558SOL    HW123573   1.235   2.618   3.994
 7558SOL    HW223574   1.213   2.676   4.146
 7559SOL     OW23575   3.567   2.202   5.375
 7559SOL    HW123576   3.472   2.225   5.355
 7559SOL    HW223577   3.586   2.108   5.347
 7560SOL     OW23578   6.327   0.189   6.557
 7560SOL    HW123579   6.287   0.167   6.646
 7560SOL    HW223580   6.378   0.275   6.564
 7561SOL     OW23581   5.106   2.087   5.611
 7561SOL    HW123582   5.025   2.058   5.559
 7561SOL    HW223583   5.105   2.186   5.622
 7562SOL     OW23584   0.937   5.046   5.016
 7562SOL    HW123585   1.006   5.109   4.981
 7562SOL    HW223586   0.954   4.954   4.979
 7563SOL     OW23587   3.136   6.628   2.652
 7563SOL    HW123588   3.220   6.650   2.702
 7563SOL    HW223589   3.157   6.563   2.579
 7564SOL     OW23590   4.307   0.160   5.139
 7564SOL    HW123591   4.372   0.116   5.201
 7564SOL    HW223592   4.241   0.092   5.106
 7565SOL     OW23593   5.839   3.930   5.952
 7565SOL    HW123594   5.743   3.956   5.941
 7565SOL    HW223595   5.877   3.975   6.033
 7566SOL     OW23596   5.339   4.923   2.068
 7566SOL    HW123597   5.424   4.943   2.116
 7566SOL    HW223598   5.352   4.843   2.008
 7567SOL     OW23599   0.463   1.332   4.279
 7567SOL    HW123600   0.460   1.247   4.226
 7567SOL    HW223601   0.412   1.403   4.231
 7568SOL     OW23602   5.868   5.316   2.282
 7568SOL    HW123603   5.821   5.236   2.245
 7568SOL    HW223604   5.927   5.356   2.211
 7569SOL     OW23605   3.732   5.026   6.613
 7569SOL    HW123606   3.749   5.111   6.563
 7569SOL    HW223607   3.724   4.950   6.548
 7570SOL     OW23608   6.920   3.038   3.186
 7570SOL    HW123609   6.852   3.094   3.233
 7570SOL    HW223610   7.012   3.070   3.211
 7571SOL     OW23611   5.591   3.296   2.879
 7571SOL    HW123612   5.655   3.327   2.809
 7571SOL    HW223613   5.580   3.196   2.872
 7572SOL     OW23614   4.604   6.433   2.732
 7572SOL    HW123615   4.579   6.344   2.771
 7572SOL    HW223616   4.545   6.453   2.654
 7573SOL     OW23617   6.218   0.353   5.539
 7573SOL    HW123618   6.161   0.363   5.458
 7573SOL    HW223619   6.312   0.383   5.518
 7574SOL     OW23620   6.244   1.025   4.026
 7574SOL    HW123621   6.335   0.983   4.028
 7574SOL    HW223622   6.205   1.015   3.934
 7575SOL     OW23623   6.299   6.583   0.933
 7575SOL    HW123624   6.361   6.627   0.998
 7575SOL    HW223625   6.232   6.528   0.982
 7576SOL     OW23626   5.414   2.904   1.187
 7576SOL    HW123627   5.319   2.872   1.194
 7576SOL    HW223628   5.426   2.952   1.100
 7577SOL     OW23629   0.264   0.307   0.151
 7577SOL    HW123630   0.264   0.235   0.220
 7577SOL    HW223631   0.184   0.365   0.163
 7578SOL     OW23632   0.793   5.155   2.939
 7578SOL    HW123633   0.708   5.187   2.897
 7578SOL    HW223634   0.785   5.158   3.038
 7579SOL     OW23635   6.432   2.107   1.516
 7579SOL    HW123636   6.441   2.076   1.422
 7579SOL    HW223637   6.342   2.148   1.530
 7580SOL     OW23638   1.972   4.360   3.214
 7580SOL    HW123639   2.051   4.302   3.233
 7580SOL    HW223640   1.953   4.357   3.115
 7581SOL     OW23641   0.893   1.763   1.306
 7581SOL    HW123642   0.963   1.696   1.280
 7581SOL    HW223643   0.937   1.848   1.336
 7582SOL     OW23644   4.381   1.728   3.880
 7582SOL    HW123645   4.410   1.750   3.787
 7582SOL    HW223646   4.283   1.743   3.890
 7583SOL     OW23647   5.440   3.434   3.576
 7583SOL    HW123648   5.361   3.482   3.541
 7583SOL    HW223649   5.480   3.378   3.504
 7584SOL     OW23650   1.220   0.314   2.855
 7584SOL    HW123651   1.196   0.224   2.890
 7584SOL    HW223652   1.308   0.310   2.809
 7585SOL     OW23653   1.084   2.186   6.790
 7585SOL    HW123654   1.099   2.092   6.819
 7585SOL    HW223655   1.067   2.244   6.870
 7586SOL     OW23656   1.190   0.826   2.404
 7586SOL    HW123657   1.152   0.833   2.312
 7586SOL    HW223658   1.131   0.875   2.468
 7587SOL     OW23659   3.370   0.765   0.717
 7587SOL    HW123660   3.422   0.838   0.673
 7587SOL    HW223661   3.432   0.709   0.772
 7588SOL     OW23662   0.887   3.070   4.763
 7588SOL    HW123663   0.868   3.015   4.844
 7588SOL    HW223664   0.948   3.145   4.786
 7589SOL     OW23665   0.558   0.745   2.917
 7589SOL    HW123666   0.633   0.796   2.874
 7589SOL    HW223667   0.493   0.810   2.957
 7590SOL     OW23668   0.288   1.756   0.142
 7590SOL    HW123669   0.226   1.679   0.129
 7590SOL    HW223670   0.379   1.723   0.166
 7591SOL     OW23671   4.421   2.889   6.729
 7591SOL    HW123672   4.340   2.850   6.772
 7591SOL    HW223673   4.462   2.821   6.668
 7592SOL     OW23674   6.027   4.771   4.820
 7592SOL    HW123675   5.957   4.778   4.892
 7592SOL    HW223676   6.113   4.809   4.854
 7593SOL     OW23677   7.016   1.684   5.633
 7593SOL    HW123678   6.919   1.705   5.633
 7593SOL    HW223679   0.003   1.585   5.619
 7594SOL     OW23680   0.152   4.535   0.919
 7594SOL    HW123681   0.179   4.609   0.981
 7594SOL    HW223682   0.149   4.448   0.969
 7595SOL     OW23683   6.632   2.819   5.781
 7595SOL    HW123684   6.690   2.900   5.791
 7595SOL    HW223685   6.602   2.788   5.872
 7596SOL     OW23686   3.133   0.137   5.128
 7596SOL    HW123687   3.219   0.088   5.139
 7596SOL    HW223688   3.059   0.084   5.171
 7597SOL     OW23689   2.557   6.299   2.753
 7597SOL    HW123690   2.610   6.384   2.765
 7597SOL    HW223691   2.522   6.269   2.842
 7598SOL     OW23692   5.976   0.688   2.561
 7598SOL    HW123693   5.968   0.729   2.470
 7598SOL    HW223694   6.030   0.748   2.620
 7599SOL     OW23695   4.199   3.265   0.870
 7599SOL    HW123696   4.173   3.313   0.954
 7599SOL    HW223697   4.117   3.228   0.826
 7600SOL     OW23698   1.506   1.144   3.503
 7600SOL    HW123699   1.418   1.190   3.493
 7600SOL    HW223700   1.567   1.171   3.428
 7601SOL     OW23701   3.818   5.341   1.884
 7601SOL    HW123702   3.728   5.383   1.872
 7601SOL    HW223703   3.836   5.326   1.981
 7602SOL     OW23704   0.508   2.214   0.495
 7602SOL    HW123705   0.462   2.162   0.423
 7602SOL    HW223706   0.588   2.163   0.527
 7603SOL     OW23707   2.580   0.151   5.856
 7603SOL    HW123708   2.568   0.071   5.915
 7603SOL    HW223709   2.591   0.233   5.911
 7604SOL     OW23710   1.646   2.104   5.007
 7604SOL    HW123711   1.673   2.130   5.100
 7604SOL    HW223712   1.724   2.113   4.946
 7605SOL     OW23713   1.726   0.581   6.652
 7605SOL    HW123714   1.758   0.602   6.560
 7605SOL    HW223715   1.632   0.613   6.663
 7606SOL     OW23716   6.211   1.750   4.246
 7606SOL    HW123717   6.135   1.808   4.216
 7606SOL    HW223718   6.270   1.801   4.307
 7607SOL     OW23719   3.036   6.852   0.094
 7607SOL    HW123720   2.970   6.919   0.061
 7607SOL    HW223721   3.009   6.822   0.186
 7608SOL     OW23722   5.543   2.420   6.257
 7608SOL    HW123723   5.514   2.510   6.288
 7608SOL    HW223724   5.633   2.427   6.214
 7609SOL     OW23725   0.158   2.978   3.832
 7609SOL    HW123726   0.170   3.039   3.910
 7609SOL    HW223727   0.185   2.885   3.857
 7610SOL     OW23728   3.422   5.554   6.587
 7610SOL    HW123729   3.437   5.457   6.569
 7610SOL    HW223730   3.326   5.577   6.572
 7611SOL     OW23731   4.760   3.017   0.975
 7611SOL    HW123732   4.819   3.080   0.926
 7611SOL    HW223733   4.762   3.039   1.073
 7612SOL     OW23734   3.421   2.089   3.175
 7612SOL    HW123735   3.428   2.016   3.243
 7612SOL    HW223736   3.511   2.110   3.138
 7613SOL     OW23737   1.649   1.950   2.055
 7613SOL    HW123738   1.726   2.011   2.073
 7613SOL    HW223739   1.673   1.856   2.079
 7614SOL     OW23740   4.685   3.198   0.475
 7614SOL    HW123741   4.592   3.174   0.502
 7614SOL    HW223742   4.750   3.137   0.520
 7615SOL     OW23743   5.422   3.777   5.430
 7615SOL    HW123744   5.460   3.838   5.361
 7615SOL    HW223745   5.474   3.691   5.432
 7616SOL     OW23746   5.727   6.790   3.139
 7616SOL    HW123747   5.762   6.748   3.222
 7616SOL    HW223748   5.770   6.879   3.125
 7617SOL     OW23749   4.875   4.817   3.026
 7617SOL    HW123750   4.972   4.840   3.014
 7617SOL    HW223751   4.851   4.827   3.123
 7618SOL     OW23752   2.551   2.091   0.284
 7618SOL    HW123753   2.609   2.099   0.203
 7618SOL    HW223754   2.580   2.157   0.353
 7619SOL     OW23755   0.496   2.504   4.442
 7619SOL    HW123756   0.521   2.599   4.427
 7619SOL    HW223757   0.567   2.444   4.405
 7620SOL     OW23758   3.806   4.199   0.788
 7620SOL    HW123759   3.724   4.194   0.731
 7620SOL    HW223760   3.816   4.292   0.823
 7621SOL     OW23761   0.162   5.566   0.916
 7621SOL    HW123762   0.233   5.600   0.854
 7621SOL    HW223763   0.084   5.629   0.913
 7622SOL     OW23764   4.237   4.491   0.424
 7622SOL    HW123765   4.276   4.457   0.510
 7622SOL    HW223766   4.275   4.439   0.348
 7623SOL     OW23767   4.036   4.616   1.319
 7623SOL    HW123768   4.063   4.542   1.381
 7623SOL    HW223769   4.116   4.666   1.289
 7624SOL     OW23770   0.225   2.084   2.168
 7624SOL    HW123771   0.198   2.073   2.263
 7624SOL    HW223772   0.271   2.173   2.157
 7625SOL     OW23773   5.001   1.937   0.394
 7625SOL    HW123774   4.994   2.033   0.424
 7625SOL    HW223775   4.941   1.881   0.450
 7626SOL     OW23776   6.176   0.725   5.529
 7626SOL    HW123777   6.230   0.732   5.445
 7626SOL    HW223778   6.234   0.692   5.603
 7627SOL     OW23779   3.648   2.042   0.025
 7627SOL    HW123780   3.713   2.116   0.014
 7627SOL    HW223781   3.666   1.994   0.112
 7628SOL     OW23782   3.544   2.567   0.727
 7628SOL    HW123783   3.477   2.495   0.744
 7628SOL    HW223784   3.633   2.540   0.765
 7629SOL     OW23785   5.805   3.199   3.470
 7629SOL    HW123786   5.840   3.288   3.443
 7629SOL    HW223787   5.763   3.205   3.561
 7630SOL     OW23788   1.220   0.408   5.086
 7630SOL    HW123789   1.199   0.446   4.996
 7630SOL    HW223790   1.302   0.453   5.123
 7631SOL     OW23791   1.953   6.449   4.953
 7631SOL    HW123792   1.974   6.387   5.029
 7631SOL    HW223793   1.926   6.396   4.873
 7632SOL     OW23794   4.735   5.276   1.281
 7632SOL    HW123795   4.723   5.364   1.234
 7632SOL    HW223796   4.655   5.219   1.263
 7633SOL     OW23797   5.612   0.148   1.281
 7633SOL    HW123798   5.622   0.058   1.324
 7633SOL    HW223799   5.677   0.155   1.205
 7634SOL     OW23800   1.612   1.818   0.664
 7634SOL    HW123801   1.538   1.872   0.702
 7634SOL    HW223802   1.590   1.792   0.570
 7635SOL     OW23803   2.763   5.090   4.627
 7635SOL    HW123804   2.690   5.044   4.577
 7635SOL    HW223805   2.847   5.038   4.620
 7636SOL     OW23806   0.725   4.464   4.349
 7636SOL    HW123807   0.715   4.447   4.447
 7636SOL    HW223808   0.639   4.501   4.313
 7637SOL     OW23809   0.390   6.265   4.006
 7637SOL    HW123810   0.355   6.176   4.036
 7637SOL    HW223811   0.370   6.277   3.909
 7638SOL     OW23812   0.932   5.359   2.144
 7638SOL    HW123813   0.853   5.298   2.143
 7638SOL    HW223814   1.014   5.308   2.119
 7639SOL     OW23815   0.684   1.463   0.267
 7639SOL    HW123816   0.627   1.538   0.233
 7639SOL    HW223817   0.625   1.387   0.295
 7640SOL     OW23818   3.226   1.272   6.955
 7640SOL    HW123819   3.181   1.268   6.866
 7640SOL    HW223820   3.190   1.349   7.008
 7641SOL     OW23821   6.680   3.772   2.730
 7641SOL    HW123822   6.743   3.755   2.806
 7641SOL    HW223823   6.730   3.765   2.643
 7642SOL     OW23824   5.737   1.441   2.997
 7642SOL    HW123825   5.728   1.358   3.052
 7642SOL    HW223826   5.665   1.443   2.928
 7643SOL     OW23827   5.125   2.151   2.988
 7643SOL    HW123828   5.180   2.129   3.069
 7643SOL    HW223829   5.029   2.130   3.006
 7644SOL     OW23830   4.892   3.310   1.973
 7644SOL    HW123831   4.887   3.348   2.065
 7644SOL    HW223832   4.840   3.224   1.970
 7645SOL     OW23833   3.450   4.131   6.076
 7645SOL    HW123834   3.424   4.136   6.172
 7645SOL    HW223835   3.415   4.047   6.035
 7646SOL     OW23836   1.374   2.779   3.047
 7646SOL    HW123837   1.382   2.875   3.071
 7646SOL    HW223838   1.323   2.770   2.961
 7647SOL     OW23839   7.010   3.065   4.553
 7647SOL    HW123840   6.972   3.157   4.558
 7647SOL    HW223841   6.937   3.000   4.531
 7648SOL     OW23842   2.110   2.171   3.245
 7648SOL    HW123843   2.064   2.174   3.156
 7648SOL    HW223844   2.182   2.240   3.248
 7649SOL     OW23845   6.893   1.175   4.759
 7649SOL    HW123846   6.952   1.172   4.840
 7649SOL    HW223847   6.859   1.268   4.747
 7650SOL     OW23848   4.231   1.063   1.434
 7650SOL    HW123849   4.226   0.963   1.430
 7650SOL    HW223850   4.208   1.094   1.527
 7651SOL     OW23851   2.452   5.113   4.622
 7651SOL    HW123852   2.491   5.170   4.550
 7651SOL    HW223853   2.494   5.022   4.619
 7652SOL     OW23854   5.824   1.999   4.597
 7652SOL    HW123855   5.805   2.097   4.593
 7652SOL    HW223856   5.776   1.953   4.522
 7653SOL     OW23857   0.784   1.832   6.363
 7653SOL    HW123858   0.759   1.868   6.453
 7653SOL    HW223859   0.702   1.797   6.317
 7654SOL     OW23860   5.917   3.513   5.154
 7654SOL    HW123861   5.864   3.592   5.187
 7654SOL    HW223862   5.943   3.456   5.232
 7655SOL     OW23863   2.913   0.859   3.594
 7655SOL    HW123864   2.845   0.799   3.553
 7655SOL    HW223865   3.005   0.823   3.576
 7656SOL     OW23866   6.505   4.169   5.969
 7656SOL    HW123867   6.475   4.082   5.930
 7656SOL    HW223868   6.501   4.240   5.899
 7657SOL     OW23869   1.430   4.102   4.678
 7657SOL    HW123870   1.426   4.015   4.629
 7657SOL    HW223871   1.358   4.104   4.747
 7658SOL     OW23872   2.685   0.710   0.238
 7658SOL    HW123873   2.590   0.739   0.244
 7658SOL    HW223874   2.745   0.790   0.233
 7659SOL     OW23875   4.712   4.315   5.481
 7659SOL    HW123876   4.713   4.333   5.579
 7659SOL    HW223877   4.624   4.344   5.443
 7660SOL     OW23878   6.620   5.194   4.930
 7660SOL    HW123879   6.681   5.147   4.994
 7660SOL    HW223880   6.614   5.142   4.845
 7661SOL     OW23881   4.894   1.884   6.296
 7661SOL    HW123882   4.981   1.843   6.269
 7661SOL    HW223883   4.839   1.901   6.214
 7662SOL     OW23884   1.394   1.973   2.105
 7662SOL    HW123885   1.493   1.960   2.096
 7662SOL    HW223886   1.358   2.014   2.022
 7663SOL     OW23887   5.598   5.900   5.358
 7663SOL    HW123888   5.586   5.940   5.268
 7663SOL    HW223889   5.511   5.865   5.392
 7664SOL     OW23890   4.388   1.106   3.002
 7664SOL    HW123891   4.346   1.062   2.923
 7664SOL    HW223892   4.337   1.190   3.024
 7665SOL     OW23893   4.829   2.547   3.484
 7665SOL    HW123894   4.907   2.570   3.543
 7665SOL    HW223895   4.863   2.512   3.397
 7666SOL     OW23896   5.861   5.780   4.052
 7666SOL    HW123897   5.837   5.729   3.969
 7666SOL    HW223898   5.936   5.843   4.032
 7667SOL     OW23899   4.906   6.548   2.799
 7667SOL    HW123900   4.812   6.578   2.785
 7667SOL    HW223901   4.931   6.483   2.727
 7668SOL     OW23902   2.308   4.893   1.085
 7668SOL    HW123903   2.379   4.943   1.034
 7668SOL    HW223904   2.300   4.931   1.177
 7669SOL     OW23905   3.588   6.820   6.286
 7669SOL    HW123906   3.609   6.722   6.292
 7669SOL    HW223907   3.630   6.859   6.204
 7670SOL     OW23908   0.703   6.599   0.460
 7670SOL    HW123909   0.633   6.562   0.399
 7670SOL    HW223910   0.669   6.600   0.553
 7671SOL     OW23911   5.421   6.918   2.158
 7671SOL    HW123912   5.482   6.957   2.089
 7671SOL    HW223913   5.427   6.818   2.155
 7672SOL     OW23914   6.110   4.650   3.159
 7672SOL    HW123915   6.053   4.730   3.143
 7672SOL    HW223916   6.191   4.676   3.211
 7673SOL     OW23917   1.293   5.652   3.358
 7673SOL    HW123918   1.335   5.593   3.289
 7673SOL    HW223919   1.336   5.635   3.447
 7674SOL     OW23920   4.057   0.621   4.562
 7674SOL    HW123921   4.114   0.539   4.571
 7674SOL    HW223922   4.058   0.673   4.647
 7675SOL     OW23923   3.847   6.775   3.731
 7675SOL    HW123924   3.759   6.766   3.684
 7675SOL    HW223925   3.880   6.868   3.722
 7676SOL     OW23926   3.181   2.990   6.046
 7676SOL    HW123927   3.262   3.038   6.012
 7676SOL    HW223928   3.141   3.041   6.122
 7677SOL     OW23929   6.543   4.864   1.259
 7677SOL    HW123930   6.615   4.908   1.313
 7677SOL    HW223931   6.496   4.797   1.315
 7678SOL     OW23932   1.442   2.249   5.303
 7678SOL    HW123933   1.376   2.260   5.377
 7678SOL    HW223934   1.441   2.154   5.271
 7679SOL     OW23935   1.990   4.955   5.088
 7679SOL    HW123936   1.977   4.975   5.186
 7679SOL    HW223937   2.007   4.857   5.076
 7680SOL     OW23938   1.467   0.523   5.151
 7680SOL    HW123939   1.511   0.530   5.061
 7680SOL    HW223940   1.483   0.607   5.203
 7681SOL     OW23941   3.038   2.528   6.274
 7681SOL    HW123942   3.085   2.508   6.188
 7681SOL    HW223943   3.002   2.621   6.272
 7682SOL     OW23944   3.116   1.837   2.930
 7682SOL    HW123945   3.019   1.861   2.930
 7682SOL    HW223946   3.150   1.837   2.836
 7683SOL     OW23947   6.804   0.941   4.557
 7683SOL    HW123948   6.844   1.021   4.601
 7683SOL    HW223949   6.867   0.864   4.565
 7684SOL     OW23950   4.224   2.392   1.618
 7684SOL    HW123951   4.161   2.318   1.597
 7684SOL    HW223952   4.173   2.474   1.642
 7685SOL     OW23953   3.749   0.845   6.883
 7685SOL    HW123954   3.775   0.885   6.971
 7685SOL    HW223955   3.690   0.909   6.834
 7686SOL     OW23956   4.254   0.446   4.623
 7686SOL    HW123957   4.278   0.367   4.679
 7686SOL    HW223958   4.307   0.525   4.652
 7687SOL     OW23959   5.258   5.275   4.755
 7687SOL    HW123960   5.347   5.290   4.712
 7687SOL    HW223961   5.264   5.195   4.815
 7688SOL     OW23962   0.379   5.267   6.336
 7688SOL    HW123963   0.408   5.173   6.322
 7688SOL    HW223964   0.294   5.268   6.390
 7689SOL     OW23965   4.597   0.576   1.826
 7689SOL    HW123966   4.539   0.520   1.766
 7689SOL    HW223967   4.570   0.672   1.817
 7690SOL     OW23968   5.867   4.833   0.498
 7690SOL    HW123969   5.799   4.895   0.537
 7690SOL    HW223970   5.855   4.742   0.537
 7691SOL     OW23971   4.536   4.987   3.173
 7691SOL    HW123972   4.597   4.907   3.167
 7691SOL    HW223973   4.480   4.993   3.091
 7692SOL     OW23974   1.190   6.569   1.759
 7692SOL    HW123975   1.154   6.608   1.844
 7692SOL    HW223976   1.267   6.626   1.728
 7693SOL     OW23977   3.042   0.798   0.831
 7693SOL    HW123978   3.076   0.761   0.745
 7693SOL    HW223979   3.119   0.831   0.886
 7694SOL     OW23980   5.743   2.615   4.735
 7694SOL    HW123981   5.680   2.566   4.796
 7694SOL    HW223982   5.830   2.567   4.732
 7695SOL     OW23983   6.460   0.075   3.100
 7695SOL    HW123984   6.372   0.098   3.059
 7695SOL    HW223985   6.449   7.026   3.165
 7696SOL     OW23986   0.483   2.225   6.511
 7696SOL    HW123987   0.538   2.308   6.513
 7696SOL    HW223988   0.506   2.172   6.429
 7697SOL     OW23989   3.643   6.972   2.826
 7697SOL    HW123990   3.622   7.022   2.910
 7697SOL    HW223991   3.560   6.965   2.771
 7698SOL     OW23992   6.120   2.581   6.868
 7698SOL    HW123993   6.202   2.553   6.818
 7698SOL    HW223994   6.039   2.557   6.815
 7699SOL     OW23995   2.877   5.742   0.360
 7699SOL    HW123996   2.917   5.690   0.283
 7699SOL    HW223997   2.933   5.728   0.441
 7700SOL     OW23998   4.745   5.783   2.761
 7700SOL    HW123999   4.688   5.797   2.680
 7700SOL    HW224000   4.780   5.871   2.794
 7701SOL     OW24001   0.199   2.319   6.184
 7701SOL    HW124002   0.296   2.332   6.166
 7701SOL    HW224003   0.146   2.391   6.140
 7702SOL     OW24004   4.649   0.087   5.890
 7702SOL    HW124005   4.608   0.044   5.809
 7702SOL    HW224006   4.598   0.169   5.913
 7703SOL     OW24007   6.505   0.040   4.973
 7703SOL    HW124008   6.559   6.982   4.981
 7703SOL    HW224009   6.441   0.032   4.897
 7704SOL     OW24010   6.779   1.460   3.931
 7704SOL    HW124011   6.720   1.512   3.992
 7704SOL    HW224012   6.728   1.433   3.849
 7705SOL     OW24013   2.578   4.739   0.493
 7705SOL    HW124014   2.651   4.675   0.519
 7705SOL    HW224015   2.489   4.697   0.510
 7706SOL     OW24016   3.759   2.897   3.017
 7706SOL    HW124017   3.705   2.889   3.101
 7706SOL    HW224018   3.848   2.937   3.038
 7707SOL     OW24019   6.689   5.981   0.266
 7707SOL    HW124020   6.646   6.052   0.212
 7707SOL    HW224021   6.713   5.904   0.208
 7708SOL     OW24022   2.209   6.964   4.319
 7708SOL    HW124023   2.297   7.012   4.321
 7708SOL    HW224024   2.209   6.893   4.390
 7709SOL     OW24025   6.542   4.904   0.772
 7709SOL    HW124026   6.633   4.909   0.730
 7709SOL    HW224027   6.497   4.820   0.742
 7710SOL     OW24028   1.717   2.970   0.638
 7710SOL    HW124029   1.693   2.882   0.678
 7710SOL    HW224030   1.769   3.024   0.704
 7711SOL     OW24031   6.690   4.847   5.483
 7711SOL    HW124032   6.592   4.856   5.463
 7711SOL    HW224033   6.711   4.892   5.569
 7712SOL     OW24034   6.799   4.447   6.153
 7712SOL    HW124035   6.755   4.357   6.155
 7712SOL    HW224036   6.885   4.441   6.103
 7713SOL     OW24037   1.647   4.631   0.894
 7713SOL    HW124038   1.604   4.707   0.845
 7713SOL    HW224039   1.653   4.552   0.833
 7714SOL     OW24040   6.460   0.237   4.346
 7714SOL    HW124041   6.511   0.170   4.400
 7714SOL    HW224042   6.362   0.218   4.352
 7715SOL     OW24043   1.780   2.779   6.729
 7715SOL    HW124044   1.791   2.830   6.815
 7715SOL    HW224045   1.688   2.794   6.693
 7716SOL     OW24046   0.715   5.816   6.899
 7716SOL    HW124047   0.766   5.808   6.984
 7716SOL    HW224048   0.778   5.819   6.821
 7717SOL     OW24049   1.366   2.374   6.085
 7717SOL    HW124050   1.436   2.305   6.070
 7717SOL    HW224051   1.292   2.336   6.141
 7718SOL     OW24052   1.431   4.269   2.792
 7718SOL    HW124053   1.493   4.205   2.746
 7718SOL    HW224054   1.445   4.361   2.756
 7719SOL     OW24055   1.658   4.211   4.812
 7719SOL    HW124056   1.580   4.193   4.752
 7719SOL    HW224057   1.637   4.182   4.905
 7720SOL     OW24058   6.216   2.027   6.489
 7720SOL    HW124059   6.180   1.959   6.553
 7720SOL    HW224060   6.143   2.092   6.466
 7721SOL     OW24061   1.459   0.347   2.715
 7721SOL    HW124062   1.496   0.290   2.788
 7721SOL    HW224063   1.495   0.439   2.723
 7722SOL     OW24064   2.475   4.977   4.077
 7722SOL    HW124065   2.550   5.043   4.082
 7722SOL    HW224066   2.425   4.991   3.991
 7723SOL     OW24067   4.850   2.960   6.750
 7723SOL    HW124068   4.936   2.952   6.699
 7723SOL    HW224069   4.776   2.980   6.686
 7724SOL     OW24070   3.086   3.935   1.432
 7724SOL    HW124071   3.020   4.008   1.448
 7724SOL    HW224072   3.046   3.866   1.372
 7725SOL     OW24073   5.567   2.133   2.529
 7725SOL    HW124074   5.647   2.193   2.522
 7725SOL    HW224075   5.550   2.111   2.625
 7726SOL     OW24076   0.666   3.151   5.648
 7726SOL    HW124077   0.589   3.157   5.711
 7726SOL    HW224078   0.656   3.222   5.577
 7727SOL     OW24079   4.955   2.603   2.330
 7727SOL    HW124080   4.858   2.626   2.334
 7727SOL    HW224081   4.967   2.505   2.346
 7728SOL     OW24082   2.331   2.977   5.358
 7728SOL    HW124083   2.400   2.966   5.286
 7728SOL    HW224084   2.240   2.972   5.318
 7729SOL     OW24085   5.813   1.781   2.466
 7729SOL    HW124086   5.761   1.696   2.477
 7729SOL    HW224087   5.864   1.778   2.381
 7730SOL     OW24088   5.800   4.554   5.694
 7730SOL    HW124089   5.706   4.580   5.671
 7730SOL    HW224090   5.839   4.498   5.621
 7731SOL     OW24091   5.924   0.271   0.738
 7731SOL    HW124092   6.017   0.251   0.770
 7731SOL    HW224093   5.875   0.322   0.808
 7732SOL     OW24094   4.687   0.268   6.746
 7732SOL    HW124095   4.645   0.269   6.655
 7732SOL    HW224096   4.659   0.350   6.796
 7733SOL     OW24097   6.696   5.835   2.490
 7733SOL    HW124098   6.622   5.836   2.423
 7733SOL    HW224099   6.661   5.809   2.580
 7734SOL     OW24100   2.183   4.702   5.454
 7734SOL    HW124101   2.194   4.798   5.428
 7734SOL    HW224102   2.193   4.644   5.374
 7735SOL     OW24103   6.374   6.257   0.363
 7735SOL    HW124104   6.452   6.201   0.389
 7735SOL    HW224105   6.325   6.213   0.288
 7736SOL     OW24106   2.473   3.265   0.924
 7736SOL    HW124107   2.570   3.286   0.932
 7736SOL    HW224108   2.460   3.166   0.921
 7737SOL     OW24109   4.158   5.280   1.343
 7737SOL    HW124110   4.083   5.341   1.370
 7737SOL    HW224111   4.245   5.329   1.347
 7738SOL     OW24112   2.762   6.152   0.020
 7738SOL    HW124113   2.663   6.139   0.031
 7738SOL    HW224114   2.811   6.084   0.074
 7739SOL     OW24115   1.647   2.951   2.106
 7739SOL    HW124116   1.652   2.862   2.062
 7739SOL    HW224117   1.606   3.017   2.043
 7740SOL     OW24118   1.425   0.662   3.261
 7740SOL    HW124119   1.403   0.595   3.331
 7740SOL    HW224120   1.481   0.735   3.300
 7741SOL     OW24121   2.078   4.771   6.090
 7741SOL    HW124122   2.006   4.840   6.084
 7741SOL    HW224123   2.145   4.788   6.018
 7742SOL     OW24124   3.787   1.836   3.925
 7742SOL    HW124125   3.783   1.908   3.856
 7742SOL    HW224126   3.790   1.746   3.880
 7743SOL     OW24127   5.287   1.197   6.470
 7743SOL    HW124128   5.316   1.281   6.424
 7743SOL    HW224129   5.188   1.197   6.481
 7744SOL     OW24130   0.740   5.895   5.181
 7744SOL    HW124131   0.737   5.884   5.281
 7744SOL    HW224132   0.835   5.901   5.151
 7745SOL     OW24133   2.063   6.015   6.766
 7745SOL    HW124134   2.033   6.099   6.812
 7745SOL    HW224135   1.985   5.955   6.752
 7746SOL     OW24136   0.975   6.219   1.085
 7746SOL    HW124137   0.976   6.177   1.175
 7746SOL    HW224138   0.951   6.150   1.016
 7747SOL     OW24139   6.735   6.424   0.968
 7747SOL    HW124140   6.832   6.449   0.976
 7747SOL    HW224141   6.710   6.415   0.872
 7748SOL     OW24142   3.837   2.793   5.527
 7748SOL    HW124143   3.759   2.844   5.563
 7748SOL    HW224144   3.901   2.774   5.601
 7749SOL     OW24145   3.774   3.674   3.570
 7749SOL    HW124146   3.855   3.690   3.514
 7749SOL    HW224147   3.800   3.635   3.658
 7750SOL     OW24148   5.731   5.226   6.009
 7750SOL    HW124149   5.686   5.274   5.934
 7750SOL    HW224150   5.734   5.285   6.090
 7751SOL     OW24151   7.022   1.430   3.798
 7751SOL    HW124152   6.999   1.441   3.702
 7751SOL    HW224153   6.939   1.437   3.854
 7752SOL     OW24154   5.620   5.352   5.326
 7752SOL    HW124155   5.640   5.438   5.374
 7752SOL    HW224156   5.600   5.372   5.230
 7753SOL     OW24157   2.870   0.043   4.654
 7753SOL    HW124158   2.817   6.984   4.646
 7753SOL    HW224159   2.893   0.059   4.750
 7754SOL     OW24160   5.673   0.746   0.883
 7754SOL    HW124161   5.699   0.730   0.788
 7754SOL    HW224162   5.743   0.802   0.928
 7755SOL     OW24163   0.602   6.320   5.613
 7755SOL    HW124164   0.557   6.392   5.560
 7755SOL    HW224165   0.666   6.362   5.678
 7756SOL     OW24166   3.054   5.552   2.223
 7756SOL    HW124167   3.040   5.461   2.183
 7756SOL    HW224168   2.965   5.593   2.242
 7757SOL     OW24169   5.057   6.081   5.527
 7757SOL    HW124170   4.980   6.018   5.534
 7757SOL    HW224171   5.034   6.156   5.465
 7758SOL     OW24172   2.047   2.744   6.419
 7758SOL    HW124173   2.112   2.716   6.348
 7758SOL    HW224174   1.960   2.698   6.404
 7759SOL     OW24175   2.193   0.617   4.521
 7759SOL    HW124176   2.132   0.695   4.508
 7759SOL    HW224177   2.288   0.647   4.511
 7760SOL     OW24178   5.267   3.309   1.738
 7760SOL    HW124179   5.249   3.211   1.731
 7760SOL    HW224180   5.228   3.344   1.823
 7761SOL     OW24181   3.302   6.658   6.177
 7761SOL    HW124182   3.230   6.715   6.217
 7761SOL    HW224183   3.269   6.564   6.168
 7762SOL     OW24184   4.121   0.892   6.871
 7762SOL    HW124185   4.068   0.808   6.861
 7762SOL    HW224186   4.060   0.970   6.881
 7763SOL     OW24187   1.408   1.960   0.753
 7763SOL    HW124188   1.451   1.996   0.836
 7763SOL    HW224189   1.313   1.991   0.749
 7764SOL     OW24190   3.837   3.365   2.452
 7764SOL    HW124191   3.824   3.419   2.369
 7764SOL    HW224192   3.804   3.416   2.531
 7765SOL     OW24193   6.375   3.316   3.758
 7765SOL    HW124194   6.392   3.368   3.674
 7765SOL    HW224195   6.291   3.263   3.747
 7766SOL     OW24196   5.760   1.830   0.245
 7766SOL    HW124197   5.708   1.746   0.261
 7766SOL    HW224198   5.797   1.829   0.152
 7767SOL     OW24199   3.860   6.315   3.622
 7767SOL    HW124200   3.797   6.311   3.544
 7767SOL    HW224201   3.818   6.367   3.696
 7768SOL     OW24202   3.480   4.962   2.525
 7768SOL    HW124203   3.492   4.935   2.620
 7768SOL    HW224204   3.473   5.061   2.518
 7769SOL     OW24205   4.518   2.320   1.270
 7769SOL    HW124206   4.537   2.386   1.196
 7769SOL    HW224207   4.587   2.248   1.269
 7770SOL     OW24208   2.714   4.830   1.877
 7770SOL    HW124209   2.755   4.740   1.892
 7770SOL    HW224210   2.780   4.901   1.902
 7771SOL     OW24211   2.591   2.090   4.538
 7771SOL    HW124212   2.687   2.079   4.514
 7771SOL    HW224213   2.577   2.180   4.580
 7772SOL     OW24214   5.381   1.268   3.639
 7772SOL    HW124215   5.438   1.307   3.567
 7772SOL    HW224216   5.317   1.202   3.598
 7773SOL     OW24217   4.113   4.410   6.028
 7773SOL    HW124218   4.158   4.333   6.075
 7773SOL    HW224219   4.049   4.374   5.960
 7774SOL     OW24220   5.625   1.289   5.705
 7774SOL    HW124221   5.615   1.337   5.618
 7774SOL    HW224222   5.536   1.253   5.734
 7775SOL     OW24223   3.593   6.621   3.584
 7775SOL    HW124224   3.554   6.704   3.625
 7775SOL    HW224225   3.563   6.541   3.636
 7776SOL     OW24226   3.487   3.545   6.238
 7776SOL    HW124227   3.561   3.546   6.306
 7776SOL    HW224228   3.399   3.552   6.285
 7777SOL     OW24229   2.165   1.661   5.775
 7777SOL    HW124230   2.169   1.695   5.681
 7777SOL    HW224231   2.213   1.573   5.780
 7778SOL     OW24232   5.972   0.571   0.475
 7778SOL    HW124233   6.048   0.561   0.410
 7778SOL    HW224234   5.911   0.493   0.468
 7779SOL     OW24235   3.471   2.719   0.546
 7779SOL    HW124236   3.454   2.807   0.590
 7779SOL    HW224237   3.499   2.652   0.615
 7780SOL     OW24238   0.949   6.491   4.428
 7780SOL    HW124239   0.992   6.512   4.516
 7780SOL    HW224240   0.904   6.402   4.433
 7781SOL     OW24241   1.459   3.902   5.831
 7781SOL    HW124242   1.415   3.812   5.830
 7781SOL    HW224243   1.512   3.914   5.747
 7782SOL     OW24244   1.932   3.992   5.893
 7782SOL    HW124245   1.859   4.046   5.851
 7782SOL    HW224246   1.897   3.903   5.921
 7783SOL     OW24247   2.451   6.796   6.348
 7783SOL    HW124248   2.372   6.848   6.379
 7783SOL    HW224249   2.435   6.699   6.362
 7784SOL     OW24250   1.089   3.207   6.906
 7784SOL    HW124251   1.074   3.306   6.909
 7784SOL    HW224252   1.038   3.163   6.980
 7785SOL     OW24253   2.399   6.610   3.942
 7785SOL    HW124254   2.329   6.607   4.013
 7785SOL    HW224255   2.468   6.678   3.966
 7786SOL     OW24256   3.160   4.673   5.322
 7786SOL    HW124257   3.166   4.652   5.419
 7786SOL    HW224258   3.110   4.601   5.275
 7787SOL     OW24259   2.214   2.628   5.201
 7787SOL    HW124260   2.314   2.626   5.205
 7787SOL    HW224261   2.184   2.592   5.112
 7788SOL     OW24262   1.517   1.941   1.741
 7788SOL    HW124263   1.531   1.842   1.754
 7788SOL    HW224264   1.508   1.985   1.830
 7789SOL     OW24265   2.326   0.013   0.735
 7789SOL    HW124266   2.324   0.112   0.722
 7789SOL    HW224267   2.243   6.998   0.697
 7790SOL     OW24268   6.548   4.252   3.488
 7790SOL    HW124269   6.450   4.271   3.478
 7790SOL    HW224270   6.562   4.153   3.492
 7791SOL     OW24271   2.765   6.018   4.522
 7791SOL    HW124272   2.718   6.078   4.457
 7791SOL    HW224273   2.864   6.022   4.504
 7792SOL     OW24274   1.623   5.500   6.142
 7792SOL    HW124275   1.627   5.581   6.199
 7792SOL    HW224276   1.566   5.431   6.187
 7793SOL     OW24277   1.556   1.090   5.258
 7793SOL    HW124278   1.473   1.052   5.217
 7793SOL    HW224279   1.606   1.142   5.188
 7794SOL     OW24280   5.360   4.778   4.580
 7794SOL    HW124281   5.284   4.830   4.618
 7794SOL    HW224282   5.432   4.768   4.649
 7795SOL     OW24283   1.879   4.265   5.352
 7795SOL    HW124284   1.906   4.177   5.392
 7795SOL    HW224285   1.913   4.271   5.258
 7796SOL     OW24286   4.069   3.859   3.686
 7796SOL    HW124287   4.028   3.874   3.776
 7796SOL    HW224288   4.166   3.834   3.697
 7797SOL     OW24289   0.469   5.624   3.293
 7797SOL    HW124290   0.427   5.666   3.373
 7797SOL    HW224291   0.445   5.676   3.211
 7798SOL     OW24292   2.526   5.484   0.085
 7798SOL    HW124293   2.567   5.421   0.019
 7798SOL    HW224294   2.597   5.514   0.150
 7799SOL     OW24295   6.773   5.766   1.861
 7799SOL    HW124296   6.809   5.756   1.768
 7799SOL    HW224297   6.701   5.699   1.877
 7800SOL     OW24298   0.593   4.443   1.488
 7800SOL    HW124299   0.509   4.429   1.542
 7800SOL    HW224300   0.575   4.508   1.415
 7801SOL     OW24301   2.438   1.195   0.879
 7801SOL    HW124302   2.487   1.159   0.800
 7801SOL    HW224303   2.429   1.295   0.871
 7802SOL     OW24304   5.960   3.017   1.585
 7802SOL    HW124305   5.887   3.086   1.577
 7802SOL    HW224306   5.975   2.975   1.496
 7803SOL     OW24307   4.473   3.263   5.697
 7803SOL    HW124308   4.553   3.208   5.673
 7803SOL    HW224309   4.393   3.204   5.704
 7804SOL     OW24310   6.156   1.112   4.266
 7804SOL    HW124311   6.166   1.048   4.191
 7804SOL    HW224312   6.245   1.152   4.289
 7805SOL     OW24313   5.680   2.124   1.182
 7805SOL    HW124314   5.638   2.127   1.091
 7805SOL    HW224315   5.675   2.214   1.225
 7806SOL     OW24316   5.543   2.677   5.599
 7806SOL    HW124317   5.593   2.596   5.629
 7806SOL    HW224318   5.499   2.721   5.677
 7807SOL     OW24319   0.332   4.760   6.375
 7807SOL    HW124320   0.233   4.750   6.382
 7807SOL    HW224321   0.370   4.682   6.324
 7808SOL     OW24322   0.791   1.809   5.013
 7808SOL    HW124323   0.741   1.792   4.928
 7808SOL    HW224324   0.876   1.756   5.013
 7809SOL     OW24325   2.250   5.490   4.718
 7809SOL    HW124326   2.233   5.427   4.643
 7809SOL    HW224327   2.304   5.568   4.686
 7810SOL     OW24328   3.018   1.001   5.926
 7810SOL    HW124329   3.023   0.907   5.961
 7810SOL    HW224330   2.924   1.021   5.898
 7811SOL     OW24331   6.392   4.400   4.228
 7811SOL    HW124332   6.437   4.323   4.274
 7811SOL    HW224333   6.310   4.426   4.279
 7812SOL     OW24334   1.337   1.940   4.095
 7812SOL    HW124335   1.283   1.870   4.142
 7812SOL    HW224336   1.434   1.916   4.100
 7813SOL     OW24337   5.014   2.788   6.441
 7813SOL    HW124338   5.058   2.756   6.357
 7813SOL    HW224339   5.004   2.712   6.505
 7814SOL     OW24340   0.142   2.559   3.277
 7814SOL    HW124341   0.123   2.654   3.252
 7814SOL    HW224342   0.138   2.502   3.196
 7815SOL     OW24343   5.153   1.440   6.951
 7815SOL    HW124344   5.224   1.504   6.920
 7815SOL    HW224345   5.126   1.464   0.018
 7816SOL     OW24346   0.823   3.320   5.926
 7816SOL    HW124347   0.761   3.310   6.004
 7816SOL    HW224348   0.850   3.229   5.893
 7817SOL     OW24349   5.941   3.580   4.359
 7817SOL    HW124350   5.855   3.605   4.403
 7817SOL    HW224351   5.929   3.577   4.260
 7818SOL     OW24352   6.013   0.193   1.692
 7818SOL    HW124353   5.960   0.111   1.668
 7818SOL    HW224354   5.988   0.268   1.631
 7819SOL     OW24355   0.230   3.121   1.604
 7819SOL    HW124356   0.320   3.083   1.625
 7819SOL    HW224357   0.188   3.069   1.530
 7820SOL     OW24358   1.752   2.372   5.017
 7820SOL    HW124359   1.801   2.341   4.936
 7820SOL    HW224360   1.684   2.304   5.042
 7821SOL     OW24361   4.433   5.840   1.295
 7821SOL    HW124362   4.437   5.796   1.206
 7821SOL    HW224363   4.480   5.928   1.291
 7822SOL     OW24364   0.291   6.941   5.374
 7822SOL    HW124365   0.315   0.003   5.334
 7822SOL    HW224366   0.362   6.913   5.438
 7823SOL     OW24367   2.355   4.332   4.638
 7823SOL    HW124368   2.379   4.361   4.731
 7823SOL    HW224369   2.410   4.383   4.572
 7824SOL     OW24370   0.140   2.611   5.137
 7824SOL    HW124371   0.207   2.669   5.091
 7824SOL    HW224372   0.119   2.649   5.227
 7825SOL     OW24373   2.480   3.434   6.689
 7825SOL    HW124374   2.383   3.411   6.704
 7825SOL    HW224375   2.509   3.399   6.601
 7826SOL     OW24376   0.114   1.975   0.211
 7826SOL    HW124377   0.165   1.894   0.183
 7826SOL    HW224378   0.093   1.969   0.309
 7827SOL     OW24379   0.414   5.664   2.987
 7827SOL    HW124380   0.347   5.596   2.956
 7827SOL    HW224381   0.485   5.675   2.918
 7828SOL     OW24382   6.791   3.867   6.609
 7828SOL    HW124383   6.885   3.872   6.640
 7828SOL    HW224384   6.788   3.878   6.509
 7829SOL     OW24385   3.307   3.051   1.438
 7829SOL    HW124386   3.375   3.026   1.368
 7829SOL    HW224387   3.326   3.000   1.522
 7830SOL     OW24388   3.499   5.340   5.227
 7830SOL    HW124389   3.502   5.240   5.231
 7830SOL    HW224390   3.420   5.372   5.279
 7831SOL     OW24391   1.760   1.584   1.137
 7831SOL    HW124392   1.704   1.661   1.106
 7831SOL    HW224393   1.740   1.503   1.081
 7832SOL     OW24394   5.050   0.513   4.347
 7832SOL    HW124395   5.056   0.466   4.259
 7832SOL    HW224396   5.102   0.598   4.343
 7833SOL     OW24397   1.371   0.471   3.977
 7833SOL    HW124398   1.375   0.569   3.957
 7833SOL    HW224399   1.285   0.451   4.024
 7834SOL     OW24400   6.462   1.863   4.168
 7834SOL    HW124401   6.424   1.834   4.080
 7834SOL    HW224402   6.501   1.783   4.215
 7835SOL     OW24403   4.147   1.513   5.442
 7835SOL    HW124404   4.220   1.449   5.468
 7835SOL    HW224405   4.062   1.485   5.486
 7836SOL     OW24406   3.918   4.164   5.256
 7836SOL    HW124407   4.015   4.181   5.276
 7836SOL    HW224408   3.877   4.112   5.331
 7837SOL     OW24409   5.681   6.254   0.459
 7837SOL    HW124410   5.769   6.254   0.505
 7837SOL    HW224411   5.614   6.302   0.516
 7838SOL     OW24412   5.094   5.108   1.161
 7838SOL    HW124413   5.122   5.144   1.250
 7838SOL    HW224414   5.146   5.025   1.140
 7839SOL     OW24415   6.078   4.414   4.928
 7839SOL    HW124416   6.091   4.326   4.881
 7839SOL    HW224417   6.079   4.398   5.027
 7840SOL     OW24418   1.096   3.800   3.823
 7840SOL    HW124419   0.997   3.803   3.808
 7840SOL    HW224420   1.119   3.717   3.873
 7841SOL     OW24421   5.056   1.676   6.603
 7841SOL    HW124422   4.999   1.597   6.580
 7841SOL    HW224423   5.058   1.687   6.703
 7842SOL     OW24424   2.271   2.092   2.571
 7842SOL    HW124425   2.260   2.191   2.564
 7842SOL    HW224426   2.211   2.057   2.643
 7843SOL     OW24427   6.579   6.669   4.158
 7843SOL    HW124428   6.673   6.694   4.136
 7843SOL    HW224429   6.565   6.572   4.136
 7844SOL     OW24430   3.374   0.873   2.670
 7844SOL    HW124431   3.385   0.960   2.622
 7844SOL    HW224432   3.428   0.874   2.754
 7845SOL     OW24433   5.606   1.850   1.788
 7845SOL    HW124434   5.651   1.931   1.825
 7845SOL    HW224435   5.573   1.793   1.863
 7846SOL     OW24436   1.628   2.887   0.397
 7846SOL    HW124437   1.687   2.821   0.351
 7846SOL    HW224438   1.676   2.927   0.475
 7847SOL     OW24439   5.674   2.026   3.739
 7847SOL    HW124440   5.685   1.990   3.647
 7847SOL    HW224441   5.582   2.005   3.772
 7848SOL     OW24442   3.165   4.527   1.027
 7848SOL    HW124443   3.118   4.615   1.034
 7848SOL    HW224444   3.213   4.522   0.939
 7849SOL     OW24445   5.836   3.422   5.453
 7849SOL    HW124446   5.931   3.410   5.423
 7849SOL    HW224447   5.835   3.469   5.541
 7850SOL     OW24448   6.915   1.504   3.307
 7850SOL    HW124449   6.869   1.466   3.227
 7850SOL    HW224450   6.976   1.578   3.279
 7851SOL     OW24451   0.808   3.897   1.735
 7851SOL    HW124452   0.878   3.839   1.693
 7851SOL    HW224453   0.821   3.991   1.704
 7852SOL     OW24454   3.064   1.507   0.517
 7852SOL    HW124455   3.161   1.488   0.497
 7852SOL    HW224456   3.009   1.427   0.494
 7853SOL     OW24457   4.391   3.116   1.752
 7853SOL    HW124458   4.459   3.132   1.681
 7853SOL    HW224459   4.348   3.027   1.737
 7854SOL     OW24460   4.791   2.263   6.042
 7854SOL    HW124461   4.740   2.201   6.102
 7854SOL    HW224462   4.815   2.214   5.957
 7855SOL     OW24463   4.878   6.325   4.384
 7855SOL    HW124464   4.936   6.350   4.461
 7855SOL    HW224465   4.898   6.231   4.356
 7856SOL     OW24466   1.593   4.556   4.884
 7856SOL    HW124467   1.660   4.491   4.850
 7856SOL    HW224468   1.636   4.645   4.897
 7857SOL     OW24469   5.170   3.915   0.140
 7857SOL    HW124470   5.246   3.940   0.200
 7857SOL    HW224471   5.178   3.966   0.054
 7858SOL     OW24472   0.095   5.570   5.527
 7858SOL    HW124473   0.032   5.558   5.603
 7858SOL    HW224474   0.186   5.541   5.554
 7859SOL     OW24475   5.142   3.360   6.445
 7859SOL    HW124476   5.052   3.320   6.459
 7859SOL    HW224477   5.205   3.289   6.413
 7860SOL     OW24478   3.465   1.181   4.477
 7860SOL    HW124479   3.511   1.092   4.478
 7860SOL    HW224480   3.366   1.168   4.475
 7861SOL     OW24481   2.820   5.660   2.017
 7861SOL    HW124482   2.884   5.684   1.944
 7861SOL    HW224483   2.746   5.727   2.019
 7862SOL     OW24484   3.129   5.472   1.816
 7862SOL    HW124485   3.046   5.424   1.846
 7862SOL    HW224486   3.107   5.567   1.794
 7863SOL     OW24487   0.140   4.187   3.334
 7863SOL    HW124488   0.187   4.118   3.278
 7863SOL    HW224489   0.195   4.206   3.416
 7864SOL     OW24490   2.041   6.098   6.492
 7864SOL    HW124491   1.998   6.016   6.455
 7864SOL    HW224492   2.066   6.083   6.588
 7865SOL     OW24493   5.931   6.155   3.693
 7865SOL    HW124494   5.831   6.154   3.689
 7865SOL    HW224495   5.966   6.222   3.627
 7866SOL     OW24496   1.752   0.555   5.760
 7866SOL    HW124497   1.761   0.652   5.737
 7866SOL    HW224498   1.814   0.502   5.702
 7867SOL     OW24499   5.431   0.081   4.061
 7867SOL    HW124500   5.505   0.129   4.013
 7867SOL    HW224501   5.470   0.011   4.121
 7868SOL     OW24502   4.209   6.050   0.570
 7868SOL    HW124503   4.215   5.953   0.591
 7868SOL    HW224504   4.211   6.102   0.655
 7869SOL     OW24505   5.403   5.101   5.795
 7869SOL    HW124506   5.348   5.076   5.715
 7869SOL    HW224507   5.489   5.142   5.765
 7870SOL     OW24508   4.940   6.713   5.285
 7870SOL    HW124509   5.023   6.748   5.243
 7870SOL    HW224510   4.899   6.644   5.225
 7871SOL     OW24511   5.186   1.230   2.251
 7871SOL    HW124512   5.263   1.167   2.264
 7871SOL    HW224513   5.220   1.316   2.212
 7872SOL     OW24514   1.988   5.119   2.888
 7872SOL    HW124515   2.039   5.047   2.841
 7872SOL    HW224516   1.920   5.079   2.949
 7873SOL     OW24517   0.136   1.120   0.960
 7873SOL    HW124518   0.230   1.115   0.994
 7873SOL    HW224519   0.131   1.076   0.870
 7874SOL     OW24520   5.554   2.645   1.038
 7874SOL    HW124521   5.640   2.668   1.084
 7874SOL    HW224522   5.477   2.678   1.094
 7875SOL     OW24523   3.897   3.712   6.926
 7875SOL    HW124524   3.895   3.807   6.957
 7875SOL    HW224525   3.904   3.709   6.826
 7876SOL     OW24526   1.211   0.345   2.565
 7876SOL    HW124527   1.275   0.408   2.522
 7876SOL    HW224528   1.218   0.353   2.664
 7877SOL     OW24529   5.852   1.379   2.523
 7877SOL    HW124530   5.922   1.432   2.571
 7877SOL    HW224531   5.821   1.304   2.582
 7878SOL     OW24532   4.829   3.785   3.602
 7878SOL    HW124533   4.818   3.883   3.581
 7878SOL    HW224534   4.771   3.732   3.539
 7879SOL     OW24535   3.299   5.424   3.500
 7879SOL    HW124536   3.398   5.421   3.516
 7879SOL    HW224537   3.281   5.410   3.403
 7880SOL     OW24538   2.331   3.818   1.563
 7880SOL    HW124539   2.269   3.760   1.510
 7880SOL    HW224540   2.314   3.803   1.661
 7881SOL     OW24541   5.101   4.259   4.342
 7881SOL    HW124542   5.114   4.257   4.442
 7881SOL    HW224543   5.171   4.317   4.301
 7882SOL     OW24544   2.703   3.827   1.363
 7882SOL    HW124545   2.628   3.767   1.389
 7882SOL    HW224546   2.754   3.853   1.445
 7883SOL     OW24547   0.619   0.893   4.991
 7883SOL    HW124548   0.687   0.957   5.026
 7883SOL    HW224549   0.585   0.926   4.903
 7884SOL     OW24550   0.150   2.886   4.168
 7884SOL    HW124551   0.183   2.840   4.086
 7884SOL    HW224552   0.228   2.920   4.221
 7885SOL     OW24553   6.219   5.644   0.693
 7885SOL    HW124554   6.291   5.707   0.661
 7885SOL    HW224555   6.131   5.672   0.655
 7886SOL     OW24556   4.470   5.535   0.757
 7886SOL    HW124557   4.380   5.498   0.781
 7886SOL    HW224558   4.528   5.536   0.839
 7887SOL     OW24559   4.106   1.794   6.723
 7887SOL    HW124560   4.188   1.751   6.686
 7887SOL    HW224561   4.029   1.732   6.714
 7888SOL     OW24562   5.099   0.379   4.111
 7888SOL    HW124563   5.009   0.335   4.102
 7888SOL    HW224564   5.098   0.466   4.061
 7889SOL     OW24565   0.342   5.790   2.170
 7889SOL    HW124566   0.399   5.735   2.230
 7889SOL    HW224567   0.397   5.823   2.093
 7890SOL     OW24568   2.133   4.035   2.166
 7890SOL    HW124569   2.162   3.953   2.214
 7890SOL    HW224570   2.046   4.068   2.204
 7891SOL     OW24571   2.774   4.663   2.203
 7891SOL    HW124572   2.837   4.649   2.127
 7891SOL    HW224573   2.826   4.674   2.288
 7892SOL     OW24574   1.763   2.605   5.407
 7892SOL    HW124575   1.801   2.525   5.361
 7892SOL    HW224576   1.798   2.611   5.500
 7893SOL     OW24577   5.685   6.961   0.906
 7893SOL    HW124578   5.625   7.012   0.844
 7893SOL    HW224579   5.695   7.011   0.992
 7894SOL     OW24580   2.324   6.386   2.205
 7894SOL    HW124581   2.246   6.328   2.231
 7894SOL    HW224582   2.398   6.373   2.271
 7895SOL     OW24583   6.121   1.192   4.602
 7895SOL    HW124584   6.088   1.229   4.515
 7895SOL    HW224585   6.049   1.138   4.646
 7896SOL     OW24586   5.094   3.684   5.661
 7896SOL    HW124587   5.113   3.781   5.649
 7896SOL    HW224588   5.003   3.671   5.700
 7897SOL     OW24589   2.182   3.876   6.531
 7897SOL    HW124590   2.138   3.959   6.498
 7897SOL    HW224591   2.238   3.897   6.611
 7898SOL     OW24592   4.318   2.115   3.938
 7898SOL    HW124593   4.344   2.211   3.940
 7898SOL    HW224594   4.318   2.079   4.031
 7899SOL     OW24595   5.938   2.374   1.923
 7899SOL    HW124596   6.030   2.397   1.955
 7899SOL    HW224597   5.872   2.438   1.963
 7900SOL     OW24598   1.630   5.449   1.315
 7900SOL    HW124599   1.588   5.411   1.398
 7900SOL    HW224600   1.607   5.546   1.308
 7901SOL     OW24601   6.052   6.931   6.264
 7901SOL    HW124602   5.981   6.898   6.327
 7901SOL    HW224603   6.011   6.951   6.175
 7902SOL     OW24604   4.286   4.717   1.208
 7902SOL    HW124605   4.340   4.677   1.282
 7902SOL    HW224606   4.341   4.785   1.159
 7903SOL     OW24607   6.324   1.871   0.244
 7903SOL    HW124608   6.380   1.838   0.168
 7903SOL    HW224609   6.372   1.853   0.331
 7904SOL     OW24610   0.204   0.666   2.926
 7904SOL    HW124611   0.111   0.697   2.910
 7904SOL    HW224612   0.264   0.698   2.853
 7905SOL     OW24613   3.939   1.436   1.393
 7905SOL    HW124614   4.028   1.473   1.365
 7905SOL    HW224615   3.929   1.343   1.357
 7906SOL     OW24616   6.160   5.893   6.691
 7906SOL    HW124617   6.081   5.924   6.637
 7906SOL    HW224618   6.159   5.938   6.780
 7907SOL     OW24619   6.266   2.381   4.207
 7907SOL    HW124620   6.291   2.285   4.215
 7907SOL    HW224621   6.275   2.410   4.112
 7908SOL     OW24622   0.628   1.138   3.200
 7908SOL    HW124623   0.617   1.172   3.293
 7908SOL    HW224624   0.662   1.044   3.202
 7909SOL     OW24625   4.808   3.948   4.550
 7909SOL    HW124626   4.828   4.037   4.592
 7909SOL    HW224627   4.813   3.876   4.619
 7910SOL     OW24628   4.379   3.255   6.242
 7910SOL    HW124629   4.371   3.264   6.143
 7910SOL    HW224630   4.457   3.309   6.274
 7911SOL     OW24631   6.804   4.918   0.675
 7911SOL    HW124632   6.819   4.902   0.772
 7911SOL    HW224633   6.891   4.909   0.625
 7912SOL     OW24634   6.009   4.807   6.281
 7912SOL    HW124635   6.093   4.796   6.228
 7912SOL    HW224636   5.941   4.740   6.250
 7913SOL     OW24637   0.037   5.055   6.655
 7913SOL    HW124638   0.085   5.105   6.582
 7913SOL    HW224639   6.997   4.993   6.614
 7914SOL     OW24640   6.258   4.847   0.899
 7914SOL    HW124641   6.235   4.838   0.802
 7914SOL    HW224642   6.186   4.898   0.947
 7915SOL     OW24643   4.867   1.995   3.246
 7915SOL    HW124644   4.873   2.021   3.150
 7915SOL    HW224645   4.914   1.908   3.260
 7916SOL     OW24646   5.508   3.108   5.535
 7916SOL    HW124647   5.456   3.131   5.452
 7916SOL    HW224648   5.470   3.158   5.613
 7917SOL     OW24649   3.970   3.997   4.836
 7917SOL    HW124650   4.054   4.019   4.787
 7917SOL    HW224651   3.891   4.009   4.775
 7918SOL     OW24652   6.360   1.300   1.854
 7918SOL    HW124653   6.366   1.271   1.950
 7918SOL    HW224654   6.323   1.225   1.799
 7919SOL     OW24655   5.708   4.487   2.102
 7919SOL    HW124656   5.641   4.561   2.102
 7919SOL    HW224657   5.787   4.513   2.157
 7920SOL     OW24658   0.581   4.820   1.676
 7920SOL    HW124659   0.513   4.891   1.695
 7920SOL    HW224660   0.559   4.738   1.728
 7921SOL     OW24661   2.360   6.432   1.586
 7921SOL    HW124662   2.459   6.438   1.595
 7921SOL    HW224663   2.329   6.490   1.510
 7922SOL     OW24664   6.990   5.288   6.933
 7922SOL    HW124665   6.900   5.244   6.925
 7922SOL    HW224666   7.024   5.310   6.842
 7923SOL     OW24667   1.512   1.453   3.233
 7923SOL    HW124668   1.508   1.485   3.138
 7923SOL    HW224669   1.491   1.529   3.294
 7924SOL     OW24670   3.131   6.964   3.714
 7924SOL    HW124671   3.092   6.925   3.630
 7924SOL    HW224672   3.085   6.926   3.793
 7925SOL     OW24673   6.247   1.456   6.017
 7925SOL    HW124674   6.332   1.436   5.968
 7925SOL    HW224675   6.210   1.371   6.054
 7926SOL     OW24676   3.346   1.322   3.291
 7926SOL    HW124677   3.272   1.390   3.294
 7926SOL    HW224678   3.428   1.365   3.253
 7927SOL     OW24679   4.126   5.500   5.287
 7927SOL    HW124680   4.059   5.447   5.235
 7927SOL    HW224681   4.096   5.506   5.382
 7928SOL     OW24682   2.018   5.047   3.184
 7928SOL    HW124683   2.106   5.092   3.197
 7928SOL    HW224684   2.033   4.949   3.166
 7929SOL     OW24685   3.586   3.787   4.530
 7929SOL    HW124686   3.594   3.694   4.493
 7929SOL    HW224687   3.626   3.852   4.466
 7930SOL     OW24688   4.265   5.044   3.402
 7930SOL    HW124689   4.185   5.045   3.343
 7930SOL    HW224690   4.340   4.994   3.357
 7931SOL     OW24691   2.275   2.584   0.092
 7931SOL    HW124692   2.359   2.619   0.050
 7931SOL    HW224693   2.279   2.484   0.097
 7932SOL     OW24694   2.362   0.273   0.081
 7932SOL    HW124695   2.447   0.220   0.087
 7932SOL    HW224696   2.370   0.341   0.009
 7933SOL     OW24697   0.379   6.805   6.702
 7933SOL    HW124698   0.471   6.778   6.673
 7933SOL    HW224699   0.337   6.730   6.753
 7934SOL     OW24700   2.409   3.769   0.256
 7934SOL    HW124701   2.444   3.760   0.163
 7934SOL    HW224702   2.470   3.829   0.309
 7935SOL     OW24703   4.861   6.067   0.900
 7935SOL    HW124704   4.931   6.007   0.862
 7935SOL    HW224705   4.860   6.154   0.850
 7936SOL     OW24706   3.814   6.336   3.175
 7936SOL    HW124707   3.763   6.351   3.260
 7936SOL    HW224708   3.912   6.332   3.195
 7937SOL     OW24709   6.013   6.568   5.531
 7937SOL    HW124710   5.923   6.605   5.555
 7937SOL    HW224711   6.072   6.643   5.500
 7938SOL     OW24712   4.020   5.277   4.666
 7938SOL    HW124713   4.004   5.338   4.589
 7938SOL    HW224714   4.096   5.312   4.722
 7939SOL     OW24715   1.056   1.394   5.361
 7939SOL    HW124716   1.019   1.484   5.338
 7939SOL    HW224717   0.982   1.335   5.395
 7940SOL     OW24718   2.199   5.355   1.393
 7940SOL    HW124719   2.113   5.305   1.401
 7940SOL    HW224720   2.205   5.423   1.465
 7941SOL     OW24721   0.386   1.279   0.604
 7941SOL    HW124722   0.451   1.256   0.531
 7941SOL    HW224723   0.322   1.204   0.616
 7942SOL     OW24724   0.393   6.654   2.042
 7942SOL    HW124725   0.345   6.715   2.105
 7942SOL    HW224726   0.375   6.683   1.948
 7943SOL     OW24727   5.189   1.969   1.178
 7943SOL    HW124728   5.119   1.921   1.126
 7943SOL    HW224729   5.147   2.040   1.235
 7944SOL     OW24730   0.159   3.140   1.319
 7944SOL    HW124731   0.061   3.159   1.314
 7944SOL    HW224732   0.202   3.169   1.234
 7945SOL     OW24733   5.139   6.819   3.013
 7945SOL    HW124734   5.113   6.722   3.018
 7945SOL    HW224735   5.228   6.832   3.055
 7946SOL     OW24736   1.470   2.629   6.080
 7946SOL    HW124737   1.497   2.643   6.175
 7946SOL    HW224738   1.429   2.538   6.070
 7947SOL     OW24739   3.731   2.835   6.309
 7947SOL    HW124740   3.818   2.873   6.341
 7947SOL    HW224741   3.669   2.910   6.285
 7948SOL     OW24742   7.003   0.383   0.601
 7948SOL    HW124743   7.018   0.334   0.686
 7948SOL    HW224744   0.020   0.473   0.606
 7949SOL     OW24745   5.259   4.951   3.928
 7949SOL    HW124746   5.250   5.022   3.997
 7949SOL    HW224747   5.271   4.862   3.972
 7950SOL     OW24748   3.962   4.805   3.371
 7950SOL    HW124749   3.933   4.811   3.466
 7950SOL    HW224750   4.056   4.772   3.367
 7951SOL     OW24751   2.948   3.645   0.938
 7951SOL    HW124752   2.894   3.724   0.967
 7951SOL    HW224753   2.937   3.571   1.004
 7952SOL     OW24754   6.794   2.790   6.636
 7952SOL    HW124755   6.774   2.773   6.733
 7952SOL    HW224756   6.743   2.725   6.580
 7953SOL     OW24757   2.292   2.956   3.027
 7953SOL    HW124758   2.312   2.858   3.038
 7953SOL    HW224759   2.286   2.998   3.117
 7954SOL     OW24760   4.429   5.151   5.044
 7954SOL    HW124761   4.407   5.223   5.110
 7954SOL    HW224762   4.517   5.110   5.068
 7955SOL     OW24763   7.000   6.579   6.857
 7955SOL    HW124764   0.028   6.573   6.941
 7955SOL    HW224765   6.991   6.675   6.830
 7956SOL     OW24766   0.090   6.174   3.412
 7956SOL    HW124767   0.160   6.112   3.447
 7956SOL    HW224768   0.134   6.253   3.369
 7957SOL     OW24769   1.196   2.005   0.395
 7957SOL    HW124770   1.107   2.036   0.361
 7957SOL    HW224771   1.236   2.076   0.453
 7958SOL     OW24772   3.427   5.526   4.125
 7958SOL    HW124773   3.398   5.520   4.029
 7958SOL    HW224774   3.475   5.443   4.150
 7959SOL     OW24775   5.673   4.607   0.307
 7959SOL    HW124776   5.720   4.560   0.232
 7959SOL    HW224777   5.643   4.697   0.277
 7960SOL     OW24778   3.398   1.250   1.206
 7960SOL    HW124779   3.357   1.231   1.117
 7960SOL    HW224780   3.444   1.339   1.204
 7961SOL     OW24781   1.261   6.185   6.157
 7961SOL    HW124782   1.290   6.240   6.236
 7961SOL    HW224783   1.162   6.170   6.161
 7962SOL     OW24784   2.179   1.252   1.393
 7962SOL    HW124785   2.267   1.293   1.368
 7962SOL    HW224786   2.105   1.296   1.341
 7963SOL     OW24787   0.457   1.031   5.604
 7963SOL    HW124788   0.515   1.111   5.624
 7963SOL    HW224789   0.366   1.046   5.643
 7964SOL     OW24790   5.395   4.614   3.025
 7964SOL    HW124791   5.309   4.614   2.975
 7964SOL    HW224792   5.471   4.632   2.963
 7965SOL     OW24793   4.417   2.221   0.495
 7965SOL    HW124794   4.474   2.226   0.413
 7965SOL    HW224795   4.358   2.301   0.500
 7966SOL     OW24796   1.260   4.576   4.259
 7966SOL    HW124797   1.298   4.660   4.298
 7966SOL    HW224798   1.189   4.541   4.319
 7967SOL     OW24799   3.220   5.668   2.891
 7967SOL    HW124800   3.173   5.583   2.912
 7967SOL    HW224801   3.314   5.649   2.862
 7968SOL     OW24802   2.722   2.056   3.843
 7968SOL    HW124803   2.643   2.070   3.782
 7968SOL    HW224804   2.702   2.094   3.933
 7969SOL     OW24805   4.318   0.486   3.068
 7969SOL    HW124806   4.277   0.395   3.067
 7969SOL    HW224807   4.264   0.548   3.011
 7970SOL     OW24808   6.835   3.752   2.963
 7970SOL    HW124809   6.816   3.850   2.960
 7970SOL    HW224810   6.850   3.724   3.058
 7971SOL     OW24811   2.531   0.755   2.224
 7971SOL    HW124812   2.524   0.715   2.133
 7971SOL    HW224813   2.595   0.701   2.279
 7972SOL     OW24814   0.203   4.510   1.356
 7972SOL    HW124815   0.146   4.444   1.308
 7972SOL    HW224816   0.273   4.546   1.294
 7973SOL     OW24817   5.191   3.372   3.747
 7973SOL    HW124818   5.189   3.454   3.691
 7973SOL    HW224819   5.179   3.397   3.843
 7974SOL     OW24820   5.397   0.524   4.165
 7974SOL    HW124821   5.376   0.593   4.235
 7974SOL    HW224822   5.437   0.443   4.209
 7975SOL     OW24823   3.822   0.144   4.553
 7975SOL    HW124824   3.793   0.227   4.600
 7975SOL    HW224825   3.829   0.163   4.455
 7976SOL     OW24826   0.928   6.799   4.833
 7976SOL    HW124827   0.965   6.851   4.911
 7976SOL    HW224828   0.925   6.858   4.752
 7977SOL     OW24829   5.208   5.810   2.355
 7977SOL    HW124830   5.208   5.733   2.418
 7977SOL    HW224831   5.294   5.813   2.305
 7978SOL     OW24832   4.564   3.473   6.319
 7978SOL    HW124833   4.664   3.477   6.321
 7978SOL    HW224834   4.531   3.501   6.229
 7979SOL     OW24835   3.120   0.526   4.705
 7979SOL    HW124836   3.213   0.504   4.675
 7979SOL    HW224837   3.056   0.512   4.629
 7980SOL     OW24838   3.677   6.307   0.511
 7980SOL    HW124839   3.764   6.301   0.462
 7980SOL    HW224840   3.648   6.216   0.538
 7981SOL     OW24841   0.823   5.080   2.444
 7981SOL    HW124842   0.798   4.984   2.427
 7981SOL    HW224843   0.792   5.136   2.367
 7982SOL     OW24844   6.541   2.717   0.610
 7982SOL    HW124845   6.581   2.804   0.583
 7982SOL    HW224846   6.612   2.647   0.614
 7983SOL     OW24847   5.174   1.605   2.482
 7983SOL    HW124848   5.159   1.542   2.558
 7983SOL    HW224849   5.221   1.687   2.515
 7984SOL     OW24850   1.257   2.123   2.285
 7984SOL    HW124851   1.291   2.061   2.216
 7984SOL    HW224852   1.332   2.151   2.345
 7985SOL     OW24853   0.963   0.645   2.738
 7985SOL    HW124854   1.061   0.629   2.742
 7985SOL    HW224855   0.914   0.561   2.759
 7986SOL     OW24856   4.137   1.527   6.411
 7986SOL    HW124857   4.074   1.514   6.334
 7986SOL    HW224858   4.160   1.624   6.419
 7987SOL     OW24859   0.668   2.833   5.614
 7987SOL    HW124860   0.602   2.794   5.550
 7987SOL    HW224861   0.661   2.933   5.613
 7988SOL     OW24862   2.879   2.245   4.590
 7988SOL    HW124863   2.824   2.307   4.534
 7988SOL    HW224864   2.931   2.183   4.531
 7989SOL     OW24865   3.624   2.505   5.324
 7989SOL    HW124866   3.529   2.536   5.332
 7989SOL    HW224867   3.635   2.421   5.376
 7990SOL     OW24868   0.846   3.019   4.342
 7990SOL    HW124869   0.861   3.104   4.392
 7990SOL    HW224870   0.914   2.951   4.370
 7991SOL     OW24871   0.292   2.631   5.759
 7991SOL    HW124872   0.314   2.724   5.786
 7991SOL    HW224873   0.363   2.569   5.793
 7992SOL     OW24874   1.839   0.234   0.598
 7992SOL    HW124875   1.801   0.143   0.585
 7992SOL    HW224876   1.886   0.239   0.686
 7993SOL     OW24877   1.601   5.633   6.774
 7993SOL    HW124878   1.571   5.539   6.763
 7993SOL    HW224879   1.560   5.690   6.702
 7994SOL     OW24880   4.715   0.907   4.008
 7994SOL    HW124881   4.666   0.835   3.958
 7994SOL    HW224882   4.690   0.903   4.105
 7995SOL     OW24883   3.698   5.098   3.636
 7995SOL    HW124884   3.722   5.149   3.553
 7995SOL    HW224885   3.676   5.163   3.709
 7996SOL     OW24886   3.334   6.793   4.434
 7996SOL    HW124887   3.287   6.813   4.348
 7996SOL    HW224888   3.290   6.716   4.479
 7997SOL     OW24889   6.274   2.000   1.014
 7997SOL    HW124890   6.175   1.990   1.026
 7997SOL    HW224891   6.317   1.910   1.010
 7998SOL     OW24892   5.393   4.585   0.134
 7998SOL    HW124893   5.402   4.602   0.233
 7998SOL    HW224894   5.444   4.503   0.109
 7999SOL     OW24895   1.182   0.046   5.431
 7999SOL    HW124896   1.196   0.066   5.334
 7999SOL    HW224897   1.206   0.127   5.485
 8000SOL     OW24898   6.188   0.357   6.086
 8000SOL    HW124899   6.187   0.264   6.122
 8000SOL    HW224900   6.193   0.355   5.986
 8001SOL     OW24901   1.647   6.486   1.879
 8001SOL    HW124902   1.556   6.445   1.894
 8001SOL    HW224903   1.682   6.455   1.791
 8002SOL     OW24904   6.961   3.585   4.947
 8002SOL    HW124905   6.955   3.621   5.040
 8002SOL    HW224906   7.020   3.643   4.892
 8003SOL     OW24907   3.133   4.932   2.842
 8003SOL    HW124908   3.203   5.003   2.847
 8003SOL    HW224909   3.090   4.920   2.931
 8004SOL     OW24910   2.351   4.265   3.300
 8004SOL    HW124911   2.319   4.202   3.372
 8004SOL    HW224912   2.387   4.348   3.342
 8005SOL     OW24913   3.066   0.807   1.910
 8005SOL    HW124914   2.996   0.877   1.904
 8005SOL    HW224915   3.114   0.815   1.998
 8006SOL     OW24916   2.754   5.926   0.203
 8006SOL    HW124917   2.788   5.867   0.275
 8006SOL    HW224918   2.660   5.899   0.180
 8007SOL     OW24919   0.672   0.093   3.960
 8007SOL    HW124920   0.608   0.132   3.894
 8007SOL    HW224921   0.738   0.162   3.989
 8008SOL     OW24922   5.775   6.324   6.513
 8008SOL    HW124923   5.772   6.255   6.441
 8008SOL    HW224924   5.781   6.415   6.473
 8009SOL     OW24925   6.894   0.467   2.905
 8009SOL    HW124926   6.846   0.455   2.991
 8009SOL    HW224927   6.927   0.561   2.898
 8010SOL     OW24928   2.413   1.911   6.897
 8010SOL    HW124929   2.364   1.826   6.879
 8010SOL    HW224930   2.464   1.902   6.983
 8011SOL     OW24931   2.710   2.012   1.186
 8011SOL    HW124932   2.774   2.075   1.231
 8011SOL    HW224933   2.751   1.976   1.102
 8012SOL     OW24934   1.649   0.006   1.294
 8012SOL    HW124935   1.623   6.936   1.304
 8012SOL    HW224936   1.724   0.015   1.229
 8013SOL     OW24937   6.251   4.849   4.142
 8013SOL    HW124938   6.300   4.817   4.060
 8013SOL    HW224939   6.294   4.810   4.223
 8014SOL     OW24940   1.782   5.963   6.462
 8014SOL    HW124941   1.736   5.974   6.550
 8014SOL    HW224942   1.740   6.023   6.394
 8015SOL     OW24943   2.876   2.731   0.813
 8015SOL    HW124944   2.895   2.828   0.826
 8015SOL    HW224945   2.811   2.719   0.737
 8016SOL     OW24946   4.793   0.260   0.919
 8016SOL    HW124947   4.859   0.285   0.848
 8016SOL    HW224948   4.702   0.293   0.894
 8017SOL     OW24949   0.221   4.345   5.721
 8017SOL    HW124950   0.159   4.291   5.778
 8017SOL    HW224951   0.236   4.298   5.634
 8018SOL     OW24952   4.701   1.671   5.621
 8018SOL    HW124953   4.750   1.727   5.688
 8018SOL    HW224954   4.630   1.618   5.668
 8019SOL     OW24955   1.537   4.971   0.637
 8019SOL    HW124956   1.622   5.016   0.663
 8019SOL    HW224957   1.487   5.030   0.573
 8020SOL     OW24958   6.084   6.060   6.333
 8020SOL    HW124959   6.079   6.160   6.344
 8020SOL    HW224960   6.029   6.017   6.404
 8021SOL     OW24961   0.943   1.848   1.877
 8021SOL    HW124962   1.019   1.912   1.860
 8021SOL    HW224963   0.935   1.785   1.799
 8022SOL     OW24964   4.502   0.201   3.006
 8022SOL    HW124965   4.567   0.262   3.053
 8022SOL    HW224966   4.409   0.233   3.021
 8023SOL     OW24967   6.341   5.973   2.695
 8023SOL    HW124968   6.320   5.909   2.769
 8023SOL    HW224969   6.416   6.033   2.723
 8024SOL     OW24970   4.457   5.594   6.212
 8024SOL    HW124971   4.435   5.533   6.136
 8024SOL    HW224972   4.497   5.678   6.176
 8025SOL     OW24973   3.593   6.219   6.353
 8025SOL    HW124974   3.545   6.204   6.267
 8025SOL    HW224975   3.692   6.206   6.340
 8026SOL     OW24976   0.751   3.379   6.564
 8026SOL    HW124977   0.742   3.402   6.661
 8026SOL    HW224978   0.674   3.322   6.536
 8027SOL     OW24979   4.530   1.808   5.108
 8027SOL    HW124980   4.494   1.738   5.046
 8027SOL    HW224981   4.539   1.770   5.200
 8028SOL     OW24982   4.592   5.132   6.027
 8028SOL    HW124983   4.662   5.202   6.040
 8028SOL    HW224984   4.555   5.105   6.116
 8029SOL     OW24985   4.519   4.283   6.485
 8029SOL    HW124986   4.547   4.250   6.395
 8029SOL    HW224987   4.579   4.359   6.512
 8030SOL     OW24988   5.385   4.827   5.443
 8030SOL    HW124989   5.412   4.861   5.354
 8030SOL    HW224990   5.386   4.727   5.442
 8031SOL     OW24991   4.908   5.282   2.008
 8031SOL    HW124992   4.992   5.260   2.059
 8031SOL    HW224993   4.924   5.266   1.910
 8032SOL     OW24994   6.348   3.973   4.822
 8032SOL    HW124995   6.315   4.045   4.883
 8032SOL    HW224996   6.275   3.908   4.804
 8033SOL     OW24997   5.520   2.542   0.020
 8033SOL    HW124998   5.439   2.495   7.011
 8033SOL    HW224999   5.523   2.534   0.120
 8034SOL     OW25000   5.696   6.845   5.528
 8034SOL    HW125001   5.763   6.858   5.455
 8034SOL    HW225002   5.605   6.868   5.495
 8035SOL     OW25003   5.931   6.110   5.616
 8035SOL    HW125004   5.949   6.034   5.553
 8035SOL    HW225005   5.834   6.110   5.641
 8036SOL     OW25006   2.196   3.701   1.788
 8036SOL    HW125007   2.240   3.622   1.831
 8036SOL    HW225008   2.139   3.747   1.856
 8037SOL     OW25009   2.116   3.001   1.040
 8037SOL    HW125010   2.043   2.936   1.058
 8037SOL    HW225011   2.080   3.077   0.986
 8038SOL     OW25012   6.428   2.035   3.404
 8038SOL    HW125013   6.487   2.034   3.324
 8038SOL    HW225014   6.477   2.079   3.480
 8039SOL     OW25015   2.289   0.365   2.831
 8039SOL    HW125016   2.348   0.293   2.794
 8039SOL    HW225017   2.229   0.398   2.758
 8040SOL     OW25018   0.379   5.549   1.202
 8040SOL    HW125019   0.381   5.514   1.108
 8040SOL    HW225020   0.410   5.478   1.265
 8041SOL     OW25021   3.673   0.852   1.423
 8041SOL    HW125022   3.709   0.944   1.438
 8041SOL    HW225023   3.628   0.846   1.334
 8042SOL     OW25024   3.742   2.895   2.242
 8042SOL    HW125025   3.842   2.890   2.241
 8042SOL    HW225026   3.713   2.970   2.301
 8043SOL     OW25027   2.482   0.642   0.496
 8043SOL    HW125028   2.447   0.557   0.458
 8043SOL    HW225029   2.454   0.718   0.438
 8044SOL     OW25030   2.828   2.629   1.430
 8044SOL    HW125031   2.812   2.727   1.414
 8044SOL    HW225032   2.870   2.616   1.519
 8045SOL     OW25033   6.066   1.484   2.659
 8045SOL    HW125034   6.072   1.582   2.675
 8045SOL    HW225035   6.122   1.460   2.580
 8046SOL     OW25036   5.385   4.591   5.193
 8046SOL    HW125037   5.400   4.497   5.224
 8046SOL    HW225038   5.289   4.604   5.170
 8047SOL     OW25039   3.384   5.901   4.497
 8047SOL    HW125040   3.458   5.967   4.492
 8047SOL    HW225041   3.394   5.833   4.424
 8048SOL     OW25042   6.358   0.599   5.738
 8048SOL    HW125043   6.305   0.516   5.758
 8048SOL    HW225044   6.453   0.574   5.720
 8049SOL     OW25045   0.756   0.164   1.243
 8049SOL    HW125046   0.799   0.250   1.213
 8049SOL    HW225047   0.738   0.169   1.342
 8050SOL     OW25048   1.551   3.456   1.174
 8050SOL    HW125049   1.473   3.419   1.124
 8050SOL    HW225050   1.633   3.403   1.152
 8051SOL     OW25051   4.564   0.752   2.924
 8051SOL    HW125052   4.550   0.657   2.897
 8051SOL    HW225053   4.477   0.792   2.953
 8052SOL     OW25054   3.396   1.853   2.314
 8052SOL    HW125055   3.420   1.945   2.344
 8052SOL    HW225056   3.299   1.837   2.330
 8053SOL     OW25057   3.664   4.130   3.032
 8053SOL    HW125058   3.611   4.045   3.032
 8053SOL    HW225059   3.669   4.166   2.938
 8054SOL     OW25060   4.454   6.542   4.544
 8054SOL    HW125061   4.422   6.450   4.568
 8054SOL    HW225062   4.383   6.588   4.490
 8055SOL     OW25063   0.818   0.046   5.930
 8055SOL    HW125064   0.799   0.128   5.985
 8055SOL    HW225065   0.766   6.995   5.967
 8056SOL     OW25066   4.770   1.463   3.235
 8056SOL    HW125067   4.822   1.390   3.281
 8056SOL    HW225068   4.786   1.550   3.282
 8057SOL     OW25069   2.859   0.727   2.919
 8057SOL    HW125070   2.861   0.663   2.843
 8057SOL    HW225071   2.883   0.819   2.886
 8058SOL     OW25072   2.644   0.518   2.346
 8058SOL    HW125073   2.566   0.496   2.404
 8058SOL    HW225074   2.661   0.442   2.283
 8059SOL     OW25075   3.411   2.104   4.799
 8059SOL    HW125076   3.391   2.007   4.794
 8059SOL    HW225077   3.345   2.155   4.743
 8060SOL     OW25078   6.988   1.066   4.091
 8060SOL    HW125079   6.956   0.982   4.134
 8060SOL    HW225080   7.002   1.136   4.160
 8061SOL     OW25081   6.429   5.585   3.047
 8061SOL    HW125082   6.413   5.671   3.096
 8061SOL    HW225083   6.426   5.603   2.948
 8062SOL     OW25084   1.349   4.305   4.490
 8062SOL    HW125085   1.387   4.293   4.399
 8062SOL    HW225086   1.397   4.244   4.554
 8063SOL     OW25087   2.973   3.496   6.835
 8063SOL    HW125088   2.953   3.406   6.799
 8063SOL    HW225089   2.889   3.537   6.871
 8064SOL     OW25090   0.217   4.098   7.009
 8064SOL    HW125091   0.178   4.007   7.018
 8064SOL    HW225092   0.305   4.092   6.962
 8065SOL     OW25093   4.890   6.741   4.553
 8065SOL    HW125094   4.810   6.708   4.604
 8065SOL    HW225095   4.884   6.841   4.544
 8066SOL     OW25096   1.807   1.316   0.435
 8066SOL    HW125097   1.851   1.396   0.394
 8066SOL    HW225098   1.731   1.287   0.377
 8067SOL     OW25099   4.256   2.879   1.711
 8067SOL    HW125100   4.338   2.823   1.703
 8067SOL    HW225101   4.226   2.907   1.619
 8068SOL     OW25102   0.271   4.836   4.603
 8068SOL    HW125103   0.211   4.913   4.586
 8068SOL    HW225104   0.330   4.856   4.681
 8069SOL     OW25105   1.758   6.217   1.135
 8069SOL    HW125106   1.847   6.224   1.180
 8069SOL    HW225107   1.769   6.234   1.037
 8070SOL     OW25108   3.567   5.927   1.836
 8070SOL    HW125109   3.506   5.883   1.902
 8070SOL    HW225110   3.547   6.025   1.831
 8071SOL     OW25111   4.026   6.451   5.430
 8071SOL    HW125112   3.926   6.456   5.435
 8071SOL    HW225113   4.064   6.543   5.425
 8072SOL     OW25114   4.602   1.341   0.583
 8072SOL    HW125115   4.613   1.440   0.584
 8072SOL    HW225116   4.570   1.312   0.493
 8073SOL     OW25117   4.655   6.841   6.049
 8073SOL    HW125118   4.708   6.761   6.022
 8073SOL    HW225119   4.693   6.922   6.006
 8074SOL     OW25120   3.293   3.515   0.471
 8074SOL    HW125121   3.295   3.614   0.482
 8074SOL    HW225122   3.208   3.479   0.508
 8075SOL     OW25123   6.683   1.036   2.101
 8075SOL    HW125124   6.701   1.070   2.194
 8075SOL    HW225125   6.766   0.995   2.064
 8076SOL     OW25126   5.423   2.402   5.332
 8076SOL    HW125127   5.404   2.493   5.370
 8076SOL    HW225128   5.362   2.385   5.255
 8077SOL     OW25129   1.404   0.119   1.356
 8077SOL    HW125130   1.393   0.195   1.292
 8077SOL    HW225131   1.501   0.092   1.358
 8078SOL     OW25132   6.922   2.423   0.875
 8078SOL    HW125133   6.985   2.364   0.924
 8078SOL    HW225134   6.833   2.378   0.867
 8079SOL     OW25135   6.447   2.371   3.182
 8079SOL    HW125136   6.350   2.379   3.161
 8079SOL    HW225137   6.501   2.384   3.099
 8080SOL     OW25138   2.106   3.795   0.630
 8080SOL    HW125139   2.092   3.752   0.541
 8080SOL    HW225140   2.202   3.786   0.657
 8081SOL     OW25141   5.710   0.728   5.053
 8081SOL    HW125142   5.730   0.802   5.117
 8081SOL    HW225143   5.673   0.650   5.103
 8082SOL     OW25144   6.171   2.413   3.155
 8082SOL    HW125145   6.095   2.477   3.159
 8082SOL    HW225146   6.144   2.334   3.100
 8083SOL     OW25147   4.913   3.089   2.687
 8083SOL    HW125148   4.829   3.113   2.737
 8083SOL    HW225149   4.918   2.990   2.677
 8084SOL     OW25150   6.404   6.128   1.454
 8084SOL    HW125151   6.355   6.090   1.533
 8084SOL    HW225152   6.494   6.160   1.484
 8085SOL     OW25153   5.405   0.560   0.779
 8085SOL    HW125154   5.489   0.614   0.772
 8085SOL    HW225155   5.350   0.596   0.855
 8086SOL     OW25156   4.327   0.283   4.365
 8086SOL    HW125157   4.247   0.262   4.420
 8086SOL    HW225158   4.316   0.372   4.321
 8087SOL     OW25159   3.003   2.218   0.822
 8087SOL    HW125160   3.022   2.292   0.887
 8087SOL    HW225161   2.926   2.243   0.765
 8088SOL     OW25162   5.778   0.678   2.346
 8088SOL    HW125163   5.867   0.671   2.301
 8088SOL    HW225164   5.751   0.588   2.380
 8089SOL     OW25165   5.093   2.836   0.803
 8089SOL    HW125166   5.152   2.772   0.754
 8089SOL    HW225167   5.002   2.835   0.761
 8090SOL     OW25168   5.328   1.640   6.883
 8090SOL    HW125169   5.365   1.677   6.798
 8090SOL    HW225170   5.396   1.647   6.955
 8091SOL     OW25171   2.912   4.359   6.789
 8091SOL    HW125172   2.933   4.335   6.694
 8091SOL    HW225173   2.997   4.386   6.835
 8092SOL     OW25174   0.974   1.553   5.134
 8092SOL    HW125175   0.950   1.524   5.041
 8092SOL    HW225176   1.073   1.568   5.140
 8093SOL     OW25177   5.581   5.627   1.652
 8093SOL    HW125178   5.599   5.697   1.721
 8093SOL    HW225179   5.624   5.542   1.679
 8094SOL     OW25180   1.273   4.269   6.545
 8094SOL    HW125181   1.261   4.354   6.493
 8094SOL    HW225182   1.334   4.285   6.622
 8095SOL     OW25183   5.441   3.287   4.255
 8095SOL    HW125184   5.413   3.253   4.165
 8095SOL    HW225185   5.541   3.291   4.259
 8096SOL     OW25186   3.346   5.387   1.983
 8096SOL    HW125187   3.273   5.413   1.919
 8096SOL    HW225188   3.324   5.422   2.074
 8097SOL     OW25189   5.482   0.421   3.071
 8097SOL    HW125190   5.492   0.389   2.977
 8097SOL    HW225191   5.391   0.397   3.105
 8098SOL     OW25192   2.719   6.118   4.122
 8098SOL    HW125193   2.717   6.022   4.096
 8098SOL    HW225194   2.813   6.145   4.143
 8099SOL     OW25195   5.418   6.687   5.042
 8099SOL    HW125196   5.509   6.684   5.001
 8099SOL    HW225197   5.349   6.690   4.970
 8100SOL     OW25198   0.086   6.771   0.473
 8100SOL    HW125199   0.034   6.686   0.474
 8100SOL    HW225200   0.063   6.825   0.392
 8101SOL     OW25201   1.620   0.308   4.408
 8101SOL    HW125202   1.701   0.279   4.357
 8101SOL    HW225203   1.624   0.271   4.500
 8102SOL     OW25204   0.460   4.926   6.076
 8102SOL    HW125205   0.439   4.952   6.170
 8102SOL    HW225206   0.559   4.933   6.061
 8103SOL     OW25207   3.792   1.254   2.211
 8103SOL    HW125208   3.857   1.250   2.287
 8103SOL    HW225209   3.830   1.312   2.138
 8104SOL     OW25210   3.125   6.604   5.679
 8104SOL    HW125211   3.218   6.635   5.700
 8104SOL    HW225212   3.074   6.678   5.636
 8105SOL     OW25213   2.673   2.419   3.688
 8105SOL    HW125214   2.609   2.344   3.675
 8105SOL    HW225215   2.765   2.390   3.661
 8106SOL     OW25216   1.293   4.118   3.504
 8106SOL    HW125217   1.211   4.166   3.536
 8106SOL    HW225218   1.280   4.019   3.516
 8107SOL     OW25219   1.679   6.502   5.860
 8107SOL    HW125220   1.760   6.560   5.848
 8107SOL    HW225221   1.697   6.412   5.820
 8108SOL     OW25222   0.028   3.869   4.598
 8108SOL    HW125223   6.981   3.921   4.643
 8108SOL    HW225224   7.019   3.826   4.515
 8109SOL     OW25225   1.890   4.628   5.294
 8109SOL    HW125226   1.871   4.540   5.337
 8109SOL    HW225227   1.809   4.685   5.296
 8110SOL     OW25228   2.134   6.790   0.534
 8110SOL    HW125229   2.207   6.738   0.491
 8110SOL    HW225230   2.083   6.840   0.463
 8111SOL     OW25231   2.642   6.195   4.835
 8111SOL    HW125232   2.681   6.224   4.748
 8111SOL    HW225233   2.711   6.147   4.889
 8112SOL     OW25234   2.862   0.491   5.617
 8112SOL    HW125235   2.907   0.447   5.539
 8112SOL    HW225236   2.923   0.489   5.696
 8113SOL     OW25237   3.431   2.352   7.015
 8113SOL    HW125238   3.521   2.371   0.027
 8113SOL    HW225239   3.427   2.257   6.983
 8114SOL     OW25240   2.067   2.918   2.474
 8114SOL    HW125241   2.139   2.868   2.522
 8114SOL    HW225242   2.093   2.930   2.378
 8115SOL     OW25243   3.397   1.106   1.421
 8115SOL    HW125244   3.397   1.161   1.338
 8115SOL    HW225245   3.488   1.067   1.435
 8116SOL     OW25246   5.830   6.947   5.301
 8116SOL    HW125247   5.876   6.889   5.234
 8116SOL    HW225248   5.750   6.990   5.260
 8117SOL     OW25249   1.213   1.904   4.411
 8117SOL    HW125250   1.199   1.841   4.335
 8117SOL    HW225251   1.174   1.993   4.389
 8118SOL     OW25252   1.250   4.394   5.382
 8118SOL    HW125253   1.301   4.311   5.406
 8118SOL    HW225254   1.292   4.473   5.428
 8119SOL     OW25255   0.563   5.574   3.716
 8119SOL    HW125256   0.563   5.482   3.677
 8119SOL    HW225257   0.482   5.586   3.773
 8120SOL     OW25258   4.186   4.593   0.733
 8120SOL    HW125259   4.230   4.522   0.678
 8120SOL    HW225260   4.217   4.587   0.827
 8121SOL     OW25261   0.103   0.049   2.803
 8121SOL    HW125262   0.009   0.018   2.792
 8121SOL    HW225263   0.138   0.020   2.892
 8122SOL     OW25264   0.194   6.025   1.922
 8122SOL    HW125265   0.157   5.979   2.002
 8122SOL    HW225266   0.292   6.042   1.936
 8123SOL     OW25267   0.855   6.577   6.377
 8123SOL    HW125268   0.793   6.530   6.440
 8123SOL    HW225269   0.949   6.546   6.392
 8124SOL     OW25270   1.684   5.560   1.614
 8124SOL    HW125271   1.630   5.476   1.622
 8124SOL    HW225272   1.752   5.563   1.686
 8125SOL     OW25273   6.206   4.568   2.911
 8125SOL    HW125274   6.163   4.486   2.875
 8125SOL    HW225275   6.167   4.590   3.000
 8126SOL     OW25276   6.026   4.327   2.832
 8126SOL    HW125277   5.935   4.346   2.795
 8126SOL    HW225278   6.021   4.247   2.893
 8127SOL     OW25279   2.322   4.926   0.493
 8127SOL    HW125280   2.277   4.845   0.455
 8127SOL    HW225281   2.272   5.008   0.465
 8128SOL     OW25282   3.307   2.773   6.207
 8128SOL    HW125283   3.224   2.824   6.186
 8128SOL    HW225284   3.353   2.815   6.285
 8129SOL     OW25285   5.524   1.015   6.766
 8129SOL    HW125286   5.444   1.004   6.708
 8129SOL    HW225287   5.510   1.093   6.828
 8130SOL     OW25288   0.979   5.339   6.753
 8130SOL    HW125289   0.888   5.373   6.727
 8130SOL    HW225290   1.049   5.395   6.709
 8131SOL     OW25291   3.297   0.455   0.101
 8131SOL    HW125292   3.269   0.550   0.108
 8131SOL    HW225293   3.220   0.396   0.127
 8132SOL     OW25294   6.086   5.158   4.289
 8132SOL    HW125295   6.138   5.242   4.271
 8132SOL    HW225296   6.048   5.124   4.203
 8133SOL     OW25297   2.963   5.367   3.144
 8133SOL    HW125298   3.041   5.371   3.206
 8133SOL    HW225299   2.878   5.371   3.196
 8134SOL     OW25300   2.195   2.556   4.091
 8134SOL    HW125301   2.231   2.483   4.032
 8134SOL    HW225302   2.096   2.559   4.083
 8135SOL     OW25303   3.822   5.326   2.164
 8135SOL    HW125304   3.863   5.242   2.201
 8135SOL    HW225305   3.725   5.312   2.148
 8136SOL     OW25306   3.776   5.717   2.414
 8136SOL    HW125307   3.753   5.635   2.466
 8136SOL    HW225308   3.832   5.777   2.470
 8137SOL     OW25309   1.898   3.714   4.981
 8137SOL    HW125310   1.861   3.651   4.914
 8137SOL    HW225311   1.840   3.796   4.986
 8138SOL     OW25312   5.228   1.908   2.001
 8138SOL    HW125313   5.256   1.876   2.092
 8138SOL    HW225314   5.222   1.830   1.939
 8139SOL     OW25315   1.057   3.131   3.405
 8139SOL    HW125316   1.001   3.139   3.488
 8139SOL    HW225317   1.139   3.187   3.416
 8140SOL     OW25318   5.054   0.189   0.094
 8140SOL    HW125319   5.072   0.098   0.130
 8140SOL    HW225320   4.956   0.209   0.100
 8141SOL     OW25321   5.068   1.226   6.072
 8141SOL    HW125322   5.020   1.257   6.154
 8141SOL    HW225323   5.138   1.293   6.047
 8142SOL     OW25324   1.799   6.008   6.977
 8142SOL    HW125325   1.845   6.059   0.024
 8142SOL    HW225326   1.815   5.910   6.990
 8143SOL     OW25327   5.147   4.203   0.502
 8143SOL    HW125328   5.232   4.242   0.467
 8143SOL    HW225329   5.084   4.187   0.426
 8144SOL     OW25330   0.584   5.399   5.841
 8144SOL    HW125331   0.670   5.448   5.855
 8144SOL    HW225332   0.521   5.422   5.915
 8145SOL     OW25333   5.964   5.714   0.175
 8145SOL    HW125334   6.039   5.779   0.190
 8145SOL    HW225335   6.000   5.621   0.181
 8146SOL     OW25336   6.022   0.189   4.530
 8146SOL    HW125337   6.017   0.249   4.610
 8146SOL    HW225338   6.029   0.244   4.447
 8147SOL     OW25339   0.952   0.740   6.031
 8147SOL    HW125340   1.003   0.728   6.116
 8147SOL    HW225341   0.970   0.831   5.994
 8148SOL     OW25342   4.193   4.529   6.437
 8148SOL    HW125343   4.118   4.464   6.442
 8148SOL    HW225344   4.204   4.576   6.524
 8149SOL     OW25345   1.502   7.001   4.292
 8149SOL    HW125346   1.459   6.942   4.223
 8149SOL    HW225347   1.593   6.964   4.314
 8150SOL     OW25348   1.146   3.488   0.450
 8150SOL    HW125349   1.071   3.513   0.389
 8150SOL    HW225350   1.108   3.451   0.535
 8151SOL     OW25351   6.269   4.446   3.860
 8151SOL    HW125352   6.358   4.401   3.858
 8151SOL    HW225353   6.262   4.510   3.783
 8152SOL     OW25354   4.372   1.967   3.306
 8152SOL    HW125355   4.310   1.944   3.381
 8152SOL    HW225356   4.436   2.038   3.335
 8153SOL     OW25357   0.645   1.491   3.580
 8153SOL    HW125358   0.708   1.486   3.658
 8153SOL    HW225359   0.644   1.403   3.532
 8154SOL     OW25360   2.400   1.919   3.471
 8154SOL    HW125361   2.358   1.984   3.534
 8154SOL    HW225362   2.475   1.871   3.517
 8155SOL     OW25363   1.428   4.334   1.998
 8155SOL    HW125364   1.371   4.404   1.954
 8155SOL    HW225365   1.374   4.251   2.012
 8156SOL     OW25366   6.268   5.087   1.625
 8156SOL    HW125367   6.309   5.058   1.712
 8156SOL    HW225368   6.222   5.009   1.583
 8157SOL     OW25369   6.688   2.839   6.231
 8157SOL    HW125370   6.757   2.822   6.302
 8157SOL    HW225371   6.674   2.938   6.221
 8158SOL     OW25372   5.856   4.922   5.876
 8158SOL    HW125373   5.912   4.955   5.952
 8158SOL    HW225374   5.853   4.991   5.804
 8159SOL     OW25375   3.552   5.896   5.918
 8159SOL    HW125376   3.527   5.865   6.010
 8159SOL    HW225377   3.646   5.867   5.899
 8160SOL     OW25378   5.104   1.543   3.313
 8160SOL    HW125379   5.056   1.456   3.327
 8160SOL    HW225380   5.186   1.527   3.257
 8161SOL     OW25381   5.782   3.410   0.030
 8161SOL    HW125382   5.834   3.435   0.112
 8161SOL    HW225383   5.684   3.410   0.050
 8162SOL     OW25384   0.365   5.024   6.728
 8162SOL    HW125385   0.359   5.103   6.667
 8162SOL    HW225386   0.330   5.048   6.818
 8163SOL     OW25387   4.129   4.608   5.333
 8163SOL    HW125388   4.187   4.535   5.368
 8163SOL    HW225389   4.093   4.662   5.410
 8164SOL     OW25390   5.566   1.058   0.103
 8164SOL    HW125391   5.581   1.032   0.198
 8164SOL    HW225392   5.619   0.997   0.043
 8165SOL     OW25393   6.769   2.143   6.190
 8165SOL    HW125394   6.817   2.149   6.277
 8165SOL    HW225395   6.726   2.231   6.170
 8166SOL     OW25396   1.789   2.162   4.389
 8166SOL    HW125397   1.719   2.222   4.427
 8166SOL    HW225398   1.780   2.070   4.429
 8167SOL     OW25399   6.316   1.837   3.935
 8167SOL    HW125400   6.230   1.785   3.938
 8167SOL    HW225401   6.369   1.810   3.855
 8168SOL     OW25402   2.520   0.433   1.141
 8168SOL    HW125403   2.572   0.498   1.197
 8168SOL    HW225404   2.506   0.470   1.050
 8169SOL     OW25405   5.285   2.182   0.610
 8169SOL    HW125406   5.348   2.210   0.683
 8169SOL    HW225407   5.268   2.084   0.616
 8170SOL     OW25408   6.456   4.125   2.029
 8170SOL    HW125409   6.531   4.179   2.068
 8170SOL    HW225410   6.493   4.058   1.965
 8171SOL     OW25411   1.609   1.406   7.024
 8171SOL    HW125412   1.548   1.345   6.972
 8171SOL    HW225413   1.660   1.464   6.961
 8172SOL     OW25414   1.028   2.579   2.304
 8172SOL    HW125415   1.012   2.481   2.316
 8172SOL    HW225416   1.007   2.604   2.209
 8173SOL     OW25417   5.347   2.134   2.129
 8173SOL    HW125418   5.290   2.059   2.095
 8173SOL    HW225419   5.443   2.109   2.119
 8174SOL     OW25420   1.683   5.899   2.848
 8174SOL    HW125421   1.778   5.876   2.827
 8174SOL    HW225422   1.631   5.904   2.763
 8175SOL     OW25423   0.673   2.751   4.446
 8175SOL    HW125424   0.763   2.767   4.487
 8175SOL    HW225425   0.603   2.793   4.503
 8176SOL     OW25426   1.741   4.693   1.148
 8176SOL    HW125427   1.702   4.649   1.068
 8176SOL    HW225428   1.761   4.625   1.218
 8177SOL     OW25429   3.896   1.324   2.484
 8177SOL    HW125430   3.877   1.269   2.565
 8177SOL    HW225431   3.830   1.400   2.480
 8178SOL     OW25432   2.541   6.767   0.907
 8178SOL    HW125433   2.556   6.674   0.938
 8178SOL    HW225434   2.456   6.802   0.946
 8179SOL     OW25435   5.181   0.879   3.728
 8179SOL    HW125436   5.124   0.892   3.647
 8179SOL    HW225437   5.125   0.893   3.810
 8180SOL     OW25438   5.400   6.509   0.006
 8180SOL    HW125439   5.391   6.609   0.000
 8180SOL    HW225440   5.494   6.482   7.011
 8181SOL     OW25441   1.090   1.139   1.346
 8181SOL    HW125442   1.180   1.178   1.326
 8181SOL    HW225443   1.094   1.039   1.339
 8182SOL     OW25444   3.190   3.623   5.176
 8182SOL    HW125445   3.284   3.630   5.211
 8182SOL    HW225446   3.189   3.645   5.079
 8183SOL     OW25447   6.403   0.457   4.893
 8183SOL    HW125448   6.386   0.418   4.803
 8183SOL    HW225449   6.444   0.388   4.953
 8184SOL     OW25450   0.788   6.846   6.918
 8184SOL    HW125451   0.872   6.800   6.892
 8184SOL    HW225452   0.792   6.942   6.888
 8185SOL     OW25453   0.663   0.065   0.414
 8185SOL    HW125454   0.622   7.007   0.449
 8185SOL    HW225455   0.624   0.144   0.462
 8186SOL     OW25456   1.452   5.054   6.624
 8186SOL    HW125457   1.433   4.958   6.604
 8186SOL    HW225458   1.495   5.061   6.714
 8187SOL     OW25459   1.707   1.237   5.086
 8187SOL    HW125460   1.658   1.217   5.002
 8187SOL    HW225461   1.805   1.238   5.068
 8188SOL     OW25462   3.820   2.032   3.728
 8188SOL    HW125463   3.767   2.043   3.643
 8188SOL    HW225464   3.778   2.086   3.800
 8189SOL     OW25465   4.552   4.468   3.917
 8189SOL    HW125466   4.576   4.565   3.920
 8189SOL    HW225467   4.516   4.446   3.826
 8190SOL     OW25468   5.309   3.294   2.946
 8190SOL    HW125469   5.380   3.315   2.879
 8190SOL    HW225470   5.254   3.217   2.914
 8191SOL     OW25471   4.389   4.947   1.746
 8191SOL    HW125472   4.405   4.870   1.807
 8191SOL    HW225473   4.477   4.986   1.718
 8192SOL     OW25474   1.892   4.983   3.494
 8192SOL    HW125475   1.874   5.075   3.459
 8192SOL    HW225476   1.852   4.916   3.432
 8193SOL     OW25477   0.018   5.310   5.106
 8193SOL    HW125478   6.961   5.255   5.114
 8193SOL    HW225479   0.066   5.286   5.021
 8194SOL     OW25480   4.482   6.886   1.618
 8194SOL    HW125481   4.467   6.971   1.669
 8194SOL    HW225482   4.552   6.831   1.664
 8195SOL     OW25483   6.092   6.768   3.355
 8195SOL    HW125484   6.140   6.715   3.425
 8195SOL    HW225485   6.028   6.709   3.306
 8196SOL     OW25486   5.001   1.113   0.299
 8196SOL    HW125487   5.072   1.181   0.281
 8196SOL    HW225488   4.918   1.160   0.329
 8197SOL     OW25489   4.663   1.601   1.293
 8197SOL    HW125490   4.668   1.638   1.385
 8197SOL    HW225491   4.579   1.548   1.283
 8198SOL     OW25492   2.151   0.400   1.819
 8198SOL    HW125493   2.096   0.358   1.890
 8198SOL    HW225494   2.227   0.451   1.861
 8199SOL     OW25495   5.140   2.739   5.995
 8199SOL    HW125496   5.064   2.804   5.995
 8199SOL    HW225497   5.197   2.755   5.915
 8200SOL     OW25498   5.763   3.878   0.845
 8200SOL    HW125499   5.722   3.966   0.869
 8200SOL    HW225500   5.834   3.892   0.776
 8201SOL     OW25501   0.223   0.608   5.222
 8201SOL    HW125502   0.255   0.671   5.292
 8201SOL    HW225503   0.160   0.655   5.160
 8202SOL     OW25504   0.034   6.238   1.953
 8202SOL    HW125505   0.059   6.306   1.884
 8202SOL    HW225506   0.084   6.153   1.934
 8203SOL     OW25507   2.045   2.930   0.680
 8203SOL    HW125508   2.041   2.832   0.702
 8203SOL    HW225509   2.012   2.983   0.758
 8204SOL     OW25510   4.553   3.655   0.986
 8204SOL    HW125511   4.574   3.738   0.935
 8204SOL    HW225512   4.527   3.582   0.922
 8205SOL     OW25513   0.598   2.740   0.530
 8205SOL    HW125514   0.615   2.839   0.535
 8205SOL    HW225515   0.503   2.722   0.556
 8206SOL     OW25516   4.188   1.234   0.197
 8206SOL    HW125517   4.170   1.323   0.157
 8206SOL    HW225518   4.195   1.243   0.297
 8207SOL     OW25519   3.642   2.903   4.369
 8207SOL    HW125520   3.620   2.975   4.435
 8207SOL    HW225521   3.730   2.862   4.393
 8208SOL     OW25522   1.151   1.074   0.320
 8208SOL    HW125523   1.113   1.012   0.388
 8208SOL    HW225524   1.147   1.168   0.355
 8209SOL     OW25525   6.990   0.763   5.168
 8209SOL    HW125526   6.915   0.775   5.102
 8209SOL    HW225527   7.004   0.848   5.218
 8210SOL     OW25528   2.060   2.933   0.155
 8210SOL    HW125529   2.023   2.956   0.245
 8210SOL    HW225530   2.038   2.838   0.133
 8211SOL     OW25531   3.244   3.759   1.226
 8211SOL    HW125532   3.250   3.828   1.154
 8211SOL    HW225533   3.159   3.770   1.277
 8212SOL     OW25534   1.758   2.496   3.162
 8212SOL    HW125535   1.854   2.525   3.166
 8212SOL    HW225536   1.738   2.461   3.070
 8213SOL     OW25537   0.429   5.297   1.823
 8213SOL    HW125538   0.427   5.395   1.843
 8213SOL    HW225539   0.451   5.247   1.907
 8214SOL     OW25540   5.639   4.817   3.310
 8214SOL    HW125541   5.593   4.906   3.308
 8214SOL    HW225542   5.718   4.822   3.371
 8215SOL     OW25543   3.390   5.130   4.544
 8215SOL    HW125544   3.470   5.077   4.515
 8215SOL    HW225545   3.335   5.075   4.606
 8216SOL     OW25546   4.979   4.881   4.052
 8216SOL    HW125547   4.885   4.915   4.051
 8216SOL    HW225548   5.014   4.878   3.958
 8217SOL     OW25549   1.845   5.055   0.979
 8217SOL    HW125550   1.821   5.131   1.040
 8217SOL    HW225551   1.800   5.068   0.891
 8218SOL     OW25552   0.704   2.105   6.949
 8218SOL    HW125553   0.709   2.184   6.888
 8218SOL    HW225554   0.688   2.137   0.017
 8219SOL     OW25555   4.660   2.591   0.697
 8219SOL    HW125556   4.565   2.564   0.711
 8219SOL    HW225557   4.720   2.513   0.716
 8220SOL     OW25558   3.831   3.376   2.906
 8220SOL    HW125559   3.855   3.388   2.809
 8220SOL    HW225560   3.847   3.281   2.932
 8221SOL     OW25561   4.406   6.177   4.326
 8221SOL    HW125562   4.459   6.228   4.258
 8221SOL    HW225563   4.468   6.137   4.394
 8222SOL     OW25564   5.184   1.645   1.904
 8222SOL    HW125565   5.253   1.635   1.832
 8222SOL    HW225566   5.095   1.619   1.867
 8223SOL     OW25567   0.612   4.492   5.706
 8223SOL    HW125568   0.562   4.418   5.662
 8223SOL    HW225569   0.557   4.576   5.703
 8224SOL     OW25570   1.284   2.706   3.592
 8224SOL    HW125571   1.249   2.619   3.558
 8224SOL    HW225572   1.273   2.777   3.523
 8225SOL     OW25573   4.854   0.921   0.183
 8225SOL    HW125574   4.890   1.007   0.219
 8225SOL    HW225575   4.929   0.858   0.165
 8226SOL     OW25576   5.485   0.372   1.735
 8226SOL    HW125577   5.494   0.272   1.730
 8226SOL    HW225578   5.568   0.414   1.699
 8227SOL     OW25579   6.972   2.428   3.825
 8227SOL    HW125580   6.956   2.470   3.914
 8227SOL    HW225581   6.947   2.492   3.752
 8228SOL     OW25582   0.429   2.729   5.527
 8228SOL    HW125583   0.368   2.690   5.597
 8228SOL    HW225584   0.412   2.683   5.440
 8229SOL     OW25585   3.125   5.342   0.305
 8229SOL    HW125586   3.177   5.423   0.281
 8229SOL    HW225587   3.112   5.338   0.405
 8230SOL     OW25588   5.269   0.361   5.869
 8230SOL    HW125589   5.320   0.414   5.802
 8230SOL    HW225590   5.229   0.280   5.824
 8231SOL     OW25591   4.882   5.847   1.705
 8231SOL    HW125592   4.943   5.925   1.706
 8231SOL    HW225593   4.919   5.774   1.763
 8232SOL     OW25594   4.311   1.430   0.347
 8232SOL    HW125595   4.368   1.511   0.359
 8232SOL    HW225596   4.240   1.428   0.417
 8233SOL     OW25597   0.591   5.754   6.394
 8233SOL    HW125598   0.535   5.680   6.358
 8233SOL    HW225599   0.687   5.727   6.396
 8234SOL     OW25600   2.792   2.872   0.119
 8234SOL    HW125601   2.813   2.776   0.138
 8234SOL    HW225602   2.715   2.901   0.176
 8235SOL     OW25603   2.771   3.210   0.600
 8235SOL    HW125604   2.713   3.265   0.541
 8235SOL    HW225605   2.772   3.248   0.693
 8236SOL     OW25606   0.007   3.603   6.774
 8236SOL    HW125607   6.935   3.618   6.763
 8236SOL    HW225608   0.052   3.612   6.685
 8237SOL     OW25609   4.917   5.795   5.046
 8237SOL    HW125610   4.984   5.806   5.120
 8237SOL    HW225611   4.965   5.773   4.961
 8238SOL     OW25612   1.462   4.197   0.307
 8238SOL    HW125613   1.554   4.213   0.273
 8238SOL    HW225614   1.400   4.181   0.231
 8239SOL     OW25615   6.203   2.052   5.838
 8239SOL    HW125616   6.183   2.062   5.936
 8239SOL    HW225617   6.152   1.975   5.801
 8240SOL     OW25618   3.519   3.888   2.721
 8240SOL    HW125619   3.441   3.846   2.766
 8240SOL    HW225620   3.599   3.828   2.729
 8241SOL     OW25621   2.857   6.743   0.543
 8241SOL    HW125622   2.919   6.705   0.613
 8241SOL    HW225623   2.785   6.796   0.587
 8242SOL     OW25624   0.787   4.404   5.435
 8242SOL    HW125625   0.881   4.431   5.457
 8242SOL    HW225626   0.723   4.469   5.476
 8243SOL     OW25627   0.732   3.012   6.253
 8243SOL    HW125628   0.823   3.006   6.212
 8243SOL    HW225629   0.677   2.934   6.224
 8244SOL     OW25630   0.706   6.832   3.779
 8244SOL    HW125631   0.677   6.926   3.795
 8244SOL    HW225632   0.748   6.825   3.688
 8245SOL     OW25633   4.469   1.818   2.289
 8245SOL    HW125634   4.475   1.787   2.384
 8245SOL    HW225635   4.561   1.816   2.248
 8246SOL     OW25636   6.761   4.497   5.710
 8246SOL    HW125637   6.848   4.542   5.689
 8246SOL    HW225638   6.702   4.559   5.761
 8247SOL     OW25639   1.094   1.614   1.188
 8247SOL    HW125640   1.187   1.645   1.171
 8247SOL    HW225641   1.052   1.582   1.103
 8248SOL     OW25642   6.257   4.881   3.587
 8248SOL    HW125643   6.187   4.952   3.581
 8248SOL    HW225644   6.346   4.919   3.561
 8249SOL     OW25645   2.029   4.175   4.776
 8249SOL    HW125646   2.092   4.143   4.705
 8249SOL    HW225647   2.011   4.101   4.840
 8250SOL     OW25648   3.256   4.095   3.046
 8250SOL    HW125649   3.283   4.047   2.963
 8250SOL    HW225650   3.175   4.151   3.028
 8251SOL     OW25651   5.269   2.242   5.115
 8251SOL    HW125652   5.278   2.163   5.175
 8251SOL    HW225653   5.311   2.222   5.027
 8252SOL     OW25654   3.248   3.608   6.342
 8252SOL    HW125655   3.235   3.650   6.432
 8252SOL    HW225656   3.213   3.669   6.271
 8253SOL     OW25657   3.738   3.074   5.363
 8253SOL    HW125658   3.722   2.998   5.300
 8253SOL    HW225659   3.813   3.131   5.328
 8254SOL     OW25660   4.354   4.787   4.834
 8254SOL    HW125661   4.450   4.805   4.854
 8254SOL    HW225662   4.327   4.699   4.874
 8255SOL     OW25663   3.655   6.083   4.494
 8255SOL    HW125664   3.654   6.171   4.541
 8255SOL    HW225665   3.734   6.030   4.524
 8256SOL     OW25666   6.262   0.266   3.336
 8256SOL    HW125667   6.219   0.178   3.317
 8256SOL    HW225668   6.358   0.251   3.362
 8257SOL     OW25669   6.314   4.709   3.311
 8257SOL    HW125670   6.406   4.691   3.276
 8257SOL    HW225671   6.320   4.758   3.398
 8258SOL     OW25672   4.601   1.603   0.542
 8258SOL    HW125673   4.520   1.600   0.483
 8258SOL    HW225674   4.613   1.696   0.577
 8259SOL     OW25675   4.462   1.461   3.703
 8259SOL    HW125676   4.395   1.536   3.705
 8259SOL    HW225677   4.554   1.499   3.692
 8260SOL     OW25678   2.462   0.347   1.578
 8260SOL    HW125679   2.546   0.310   1.618
 8260SOL    HW225680   2.458   0.446   1.595
 8261SOL     OW25681   5.546   0.987   1.465
 8261SOL    HW125682   5.519   0.910   1.522
 8261SOL    HW225683   5.495   1.068   1.493
 8262SOL     OW25684   0.679   2.374   1.168
 8262SOL    HW125685   0.657   2.461   1.214
 8262SOL    HW225686   0.734   2.392   1.087
 8263SOL     OW25687   0.555   2.399   0.839
 8263SOL    HW125688   0.456   2.400   0.852
 8263SOL    HW225689   0.581   2.318   0.786
 8264SOL     OW25690   1.248   5.614   2.232
 8264SOL    HW125691   1.259   5.692   2.294
 8264SOL    HW225692   1.308   5.625   2.153
 8265SOL     OW25693   1.611   0.134   1.642
 8265SOL    HW125694   1.622   0.040   1.612
 8265SOL    HW225695   1.636   0.141   1.739
 8266SOL     OW25696   2.192   0.074   2.938
 8266SOL    HW125697   2.275   0.032   2.901
 8266SOL    HW225698   2.217   0.153   2.994
 8267SOL     OW25699   2.036   3.523   1.214
 8267SOL    HW125700   2.107   3.494   1.148
 8267SOL    HW225701   2.080   3.553   1.298
 8268SOL     OW25702   2.228   6.274   6.357
 8268SOL    HW125703   2.164   6.204   6.389
 8268SOL    HW225704   2.205   6.300   6.263
 8269SOL     OW25705   5.899   1.493   1.176
 8269SOL    HW125706   5.952   1.518   1.095
 8269SOL    HW225707   5.804   1.524   1.164
 8270SOL     OW25708   2.432   6.831   4.709
 8270SOL    HW125709   2.435   6.743   4.757
 8270SOL    HW225710   2.524   6.856   4.678
 8271SOL     OW25711   6.842   0.531   2.464
 8271SOL    HW125712   6.940   0.536   2.443
 8271SOL    HW225713   6.790   0.517   2.380
 8272SOL     OW25714   5.022   0.899   1.288
 8272SOL    HW125715   4.986   0.944   1.206
 8272SOL    HW225716   4.947   0.864   1.343
 8273SOL     OW25717   1.815   6.070   0.894
 8273SOL    HW125718   1.909   6.037   0.901
 8273SOL    HW225719   1.761   6.034   0.970
 8274SOL     OW25720   4.798   4.824   3.339
 8274SOL    HW125721   4.732   4.753   3.318
 8274SOL    HW225722   4.883   4.783   3.371
 8275SOL     OW25723   4.400   1.648   6.225
 8275SOL    HW125724   4.397   1.724   6.290
 8275SOL    HW225725   4.495   1.621   6.210
 8276SOL     OW25726   1.226   2.168   4.006
 8276SOL    HW125727   1.280   2.084   4.013
 8276SOL    HW225728   1.224   2.214   4.095
 8277SOL     OW25729   0.425   0.840   6.761
 8277SOL    HW125730   0.397   0.932   6.734
 8277SOL    HW225731   0.510   0.816   6.714
 8278SOL     OW25732   2.430   2.185   6.872
 8278SOL    HW125733   2.425   2.192   6.772
 8278SOL    HW225734   2.454   2.091   6.897
 8279SOL     OW25735   1.026   6.922   4.513
 8279SOL    HW125736   0.957   6.851   4.505
 8279SOL    HW225737   0.992   7.006   4.471
 8280SOL     OW25738   2.744   3.548   6.991
 8280SOL    HW125739   2.679   3.473   6.978
 8280SOL    HW225740   2.694   3.630   7.019
 8281SOL     OW25741   1.298   5.574   1.505
 8281SOL    HW125742   1.239   5.587   1.585
 8281SOL    HW225743   1.347   5.659   1.486
 8282SOL     OW25744   5.610   3.255   6.237
 8282SOL    HW125745   5.683   3.295   6.293
 8282SOL    HW225746   5.551   3.199   6.294
 8283SOL     OW25747   1.170   4.519   6.406
 8283SOL    HW125748   1.178   4.615   6.380
 8283SOL    HW225749   1.080   4.485   6.381
 8284SOL     OW25750   0.580   3.800   1.698
 8284SOL    HW125751   0.515   3.870   1.729
 8284SOL    HW225752   0.674   3.831   1.716
 8285SOL     OW25753   3.941   3.217   5.268
 8285SOL    HW125754   4.019   3.278   5.286
 8285SOL    HW225755   3.886   3.255   5.194
 8286SOL     OW25756   5.852   2.889   6.218
 8286SOL    HW125757   5.889   2.939   6.297
 8286SOL    HW225758   5.926   2.859   6.159
 8287SOL     OW25759   1.276   5.419   4.420
 8287SOL    HW125760   1.184   5.396   4.453
 8287SOL    HW225761   1.343   5.368   4.473
 8288SOL     OW25762   2.822   2.329   2.838
 8288SOL    HW125763   2.778   2.332   2.748
 8288SOL    HW225764   2.914   2.291   2.828
 8289SOL     OW25765   0.472   0.024   1.527
 8289SOL    HW125766   0.510   0.020   1.620
 8289SOL    HW225767   0.424   0.111   1.515
 8290SOL     OW25768   6.447   1.242   6.825
 8290SOL    HW125769   6.360   1.195   6.838
 8290SOL    HW225770   6.441   1.302   6.745
 8291SOL     OW25771   5.010   6.872   6.892
 8291SOL    HW125772   4.962   6.953   6.927
 8291SOL    HW225773   5.092   6.856   6.946
 8292SOL     OW25774   2.541   6.560   6.887
 8292SOL    HW125775   2.545   6.492   6.961
 8292SOL    HW225776   2.628   6.608   6.881
 8293SOL     OW25777   3.638   6.980   0.167
 8293SOL    HW125778   3.658   6.934   0.254
 8293SOL    HW225779   3.555   6.942   0.128
 8294SOL     OW25780   5.786   4.048   5.197
 8294SOL    HW125781   5.695   4.009   5.209
 8294SOL    HW225782   5.780   4.133   5.144
 8295SOL     OW25783   5.224   5.341   1.737
 8295SOL    HW125784   5.150   5.308   1.680
 8295SOL    HW225785   5.241   5.276   1.811
 8296SOL     OW25786   1.772   6.865   5.984
 8296SOL    HW125787   1.780   6.940   6.049
 8296SOL    HW225788   1.770   6.778   6.033
 8297SOL     OW25789   6.266   2.500   2.857
 8297SOL    HW125790   6.238   2.440   2.783
 8297SOL    HW225791   6.360   2.477   2.885
 8298SOL     OW25792   6.034   1.325   1.359
 8298SOL    HW125793   6.071   1.369   1.441
 8298SOL    HW225794   5.983   1.391   1.305
 8299SOL     OW25795   6.843   2.652   2.186
 8299SOL    HW125796   6.822   2.658   2.283
 8299SOL    HW225797   6.836   2.743   2.144
 8300SOL     OW25798   0.993   5.538   5.916
 8300SOL    HW125799   1.017   5.522   5.821
 8300SOL    HW225800   1.063   5.497   5.976
 8301SOL     OW25801   4.038   1.182   1.281
 8301SOL    HW125802   4.059   1.137   1.369
 8301SOL    HW225803   4.108   1.157   1.214
 8302SOL     OW25804   6.142   6.000   5.795
 8302SOL    HW125805   6.087   6.060   5.736
 8302SOL    HW225806   6.120   5.904   5.775
 8303SOL     OW25807   6.695   0.305   4.041
 8303SOL    HW125808   6.608   0.352   4.055
 8303SOL    HW225809   6.715   0.247   4.120
 8304SOL     OW25810   1.581   3.703   6.701
 8304SOL    HW125811   1.665   3.704   6.646
 8304SOL    HW225812   1.503   3.724   6.643
 8305SOL     OW25813   3.326   4.900   4.179
 8305SOL    HW125814   3.386   4.924   4.256
 8305SOL    HW225815   3.373   4.921   4.093
 8306SOL     OW25816   0.227   3.154   5.080
 8306SOL    HW125817   0.203   3.065   5.119
 8306SOL    HW225818   0.324   3.154   5.055
 8307SOL     OW25819   4.258   5.260   1.842
 8307SOL    HW125820   4.335   5.275   1.905
 8307SOL    HW225821   4.188   5.329   1.858
 8308SOL     OW25822   4.595   6.403   1.399
 8308SOL    HW125823   4.628   6.433   1.489
 8308SOL    HW225824   4.498   6.426   1.390
 8309SOL     OW25825   5.736   5.359   3.374
 8309SOL    HW125826   5.750   5.391   3.467
 8309SOL    HW225827   5.639   5.355   3.354
 8310SOL     OW25828   1.172   4.542   1.088
 8310SOL    HW125829   1.207   4.451   1.110
 8310SOL    HW225830   1.133   4.540   0.996
 8311SOL     OW25831   0.584   1.271   5.671
 8311SOL    HW125832   0.598   1.357   5.622
 8311SOL    HW225833   0.545   1.290   5.761
 8312SOL     OW25834   4.636   5.962   1.615
 8312SOL    HW125835   4.560   5.898   1.616
 8312SOL    HW225836   4.716   5.921   1.660
 8313SOL     OW25837   4.125   1.214   2.679
 8313SOL    HW125838   4.174   1.278   2.619
 8313SOL    HW225839   4.128   1.123   2.640
 8314SOL     OW25840   5.044   6.453   0.656
 8314SOL    HW125841   5.087   6.543   0.656
 8314SOL    HW225842   5.059   6.409   0.745
 8315SOL     OW25843   3.911   3.301   0.747
 8315SOL    HW125844   3.854   3.222   0.768
 8315SOL    HW225845   3.880   3.379   0.801
 8316SOL     OW25846   0.440   2.954   1.607
 8316SOL    HW125847   0.504   2.922   1.537
 8316SOL    HW225848   0.489   2.967   1.694
 8317SOL     OW25849   2.137   2.984   2.205
 8317SOL    HW125850   2.170   2.929   2.129
 8317SOL    HW225851   2.137   3.081   2.178
 8318SOL     OW25852   4.550   1.645   4.493
 8318SOL    HW125853   4.643   1.610   4.483
 8318SOL    HW225854   4.547   1.742   4.468
 8319SOL     OW25855   2.549   1.848   5.972
 8319SOL    HW125856   2.550   1.919   6.042
 8319SOL    HW225857   2.642   1.813   5.959
 8320SOL     OW25858   3.467   4.720   1.391
 8320SOL    HW125859   3.394   4.654   1.407
 8320SOL    HW225860   3.435   4.792   1.330
 8321SOL     OW25861   0.583   1.130   6.520
 8321SOL    HW125862   0.609   1.179   6.436
 8321SOL    HW225863   0.618   1.036   6.516
 8322SOL     OW25864   0.187   0.195   0.459
 8322SOL    HW125865   0.101   0.235   0.490
 8322SOL    HW225866   0.242   0.170   0.538
 8323SOL     OW25867   0.171   6.951   2.547
 8323SOL    HW125868   0.148   7.008   2.626
 8323SOL    HW225869   0.183   7.008   2.467
 8324SOL     OW25870   6.554   0.326   2.435
 8324SOL    HW125871   6.587   0.396   2.372
 8324SOL    HW225872   6.477   0.363   2.487
 8325SOL     OW25873   3.605   3.154   4.529
 8325SOL    HW125874   3.604   3.213   4.610
 8325SOL    HW225875   3.586   3.208   4.447
 8326SOL     OW25876   4.574   3.218   5.398
 8326SOL    HW125877   4.568   3.302   5.344
 8326SOL    HW225878   4.487   3.169   5.392
 8327SOL     OW25879   5.224   2.010   6.117
 8327SOL    HW125880   5.178   1.977   6.035
 8327SOL    HW225881   5.294   2.076   6.092
 8328SOL     OW25882   2.352   4.148   5.927
 8328SOL    HW125883   2.276   4.089   5.956
 8328SOL    HW225884   2.362   4.142   5.828
 8329SOL     OW25885   0.397   3.350   6.038
 8329SOL    HW125886   0.470   3.345   6.106
 8329SOL    HW225887   0.310   3.365   6.083
 8330SOL     OW25888   1.713   0.323   0.009
 8330SOL    HW125889   1.701   0.340   6.937
 8330SOL    HW225890   1.784   0.384   0.044
 8331SOL     OW25891   3.106   0.016   0.679
 8331SOL    HW125892   3.073   0.107   0.703
 8331SOL    HW225893   3.198   0.024   0.641
 8332SOL     OW25894   4.687   4.825   2.824
 8332SOL    HW125895   4.739   4.838   2.740
 8332SOL    HW225896   4.746   4.843   2.903
 8333SOL     OW25897   0.369   6.201   0.304
 8333SOL    HW125898   0.289   6.142   0.312
 8333SOL    HW225899   0.362   6.275   0.371
 8334SOL     OW25900   5.772   1.575   3.726
 8334SOL    HW125901   5.777   1.660   3.778
 8334SOL    HW225902   5.853   1.520   3.744
 8335SOL     OW25903   6.727   5.405   5.635
 8335SOL    HW125904   6.795   5.466   5.675
 8335SOL    HW225905   6.721   5.421   5.537
 8336SOL     OW25906   0.122   0.768   1.802
 8336SOL    HW125907   0.057   0.740   1.731
 8336SOL    HW225908   0.208   0.719   1.789
 8337SOL     OW25909   1.018   6.686   3.658
 8337SOL    HW125910   1.108   6.675   3.616
 8337SOL    HW225911   0.991   6.601   3.702
 8338SOL     OW25912   1.910   4.329   2.124
 8338SOL    HW125913   1.955   4.268   2.058
 8338SOL    HW225914   1.888   4.416   2.080
 8339SOL     OW25915   5.676   1.279   1.690
 8339SOL    HW125916   5.636   1.234   1.610
 8339SOL    HW225917   5.687   1.377   1.672
 8340SOL     OW25918   5.067   3.979   1.004
 8340SOL    HW125919   5.023   3.993   1.092
 8340SOL    HW225920   5.165   3.966   1.017
 8341SOL     OW25921   2.415   6.097   0.321
 8341SOL    HW125922   2.469   6.039   0.260
 8341SOL    HW225923   2.377   6.041   0.395
 8342SOL     OW25924   3.405   6.814   1.397
 8342SOL    HW125925   3.483   6.778   1.345
 8342SOL    HW225926   3.437   6.883   1.462
 8343SOL     OW25927   1.531   4.753   6.267
 8343SOL    HW125928   1.590   4.815   6.319
 8343SOL    HW225929   1.572   4.662   6.265
 8344SOL     OW25930   4.773   6.806   5.666
 8344SOL    HW125931   4.746   6.776   5.574
 8344SOL    HW225932   4.728   6.748   5.734
 8345SOL     OW25933   5.224   1.988   3.417
 8345SOL    HW125934   5.272   2.031   3.493
 8345SOL    HW225935   5.260   2.024   3.330
 8346SOL     OW25936   2.556   4.570   0.219
 8346SOL    HW125937   2.461   4.543   0.231
 8346SOL    HW225938   2.609   4.492   0.186
 8347SOL     OW25939   3.097   6.508   5.188
 8347SOL    HW125940   3.150   6.591   5.210
 8347SOL    HW225941   3.013   6.533   5.141
 8348SOL     OW25942   1.728   0.332   1.455
 8348SOL    HW125943   1.669   0.404   1.418
 8348SOL    HW225944   1.682   0.287   1.531
 8349SOL     OW25945   5.796   4.883   0.928
 8349SOL    HW125946   5.823   4.840   0.842
 8349SOL    HW225947   5.809   4.817   1.003
 8350SOL     OW25948   5.028   0.996   4.517
 8350SOL    HW125949   5.036   0.931   4.592
 8350SOL    HW225950   5.041   1.089   4.553
 8351SOL     OW25951   3.877   5.226   4.893
 8351SOL    HW125952   3.800   5.162   4.884
 8351SOL    HW225953   3.918   5.241   4.804
 8352SOL     OW25954   6.787   0.077   1.937
 8352SOL    HW125955   6.843   0.153   1.904
 8352SOL    HW225956   6.721   0.110   2.004
 8353SOL     OW25957   5.590   3.999   2.149
 8353SOL    HW125958   5.497   4.029   2.129
 8353SOL    HW225959   5.594   3.899   2.141
 8354SOL     OW25960   3.582   1.027   6.745
 8354SOL    HW125961   3.515   1.101   6.752
 8354SOL    HW225962   3.656   1.054   6.684
 8355SOL     OW25963   3.073   0.667   6.644
 8355SOL    HW125964   2.979   0.650   6.671
 8355SOL    HW225965   3.130   0.589   6.671
 8356SOL     OW25966   1.306   6.537   0.783
 8356SOL    HW125967   1.218   6.492   0.797
 8356SOL    HW225968   1.291   6.635   0.767
 8357SOL     OW25969   3.824   5.801   5.903
 8357SOL    HW125970   3.878   5.835   5.981
 8357SOL    HW225971   3.857   5.710   5.877
 8358SOL     OW25972   2.094   2.899   5.258
 8358SOL    HW125973   2.006   2.902   5.307
 8358SOL    HW225974   2.128   2.806   5.257
 8359SOL     OW25975   3.744   6.237   4.276
 8359SOL    HW125976   3.746   6.179   4.195
 8359SOL    HW225977   3.711   6.185   4.355
 8360SOL     OW25978   3.613   6.961   2.423
 8360SOL    HW125979   3.538   6.979   2.360
 8360SOL    HW225980   3.629   0.014   2.481
 8361SOL     OW25981   1.432   1.172   1.996
 8361SOL    HW125982   1.463   1.122   1.915
 8361SOL    HW225983   1.455   1.269   1.986
 8362SOL     OW25984   2.825   2.314   0.512
 8362SOL    HW125985   2.791   2.368   0.436
 8362SOL    HW225986   2.752   2.301   0.579
 8363SOL     OW25987   0.908   2.556   0.287
 8363SOL    HW125988   0.998   2.530   0.320
 8363SOL    HW225989   0.844   2.562   0.364
 8364SOL     OW25990   0.208   3.397   3.275
 8364SOL    HW125991   0.235   3.467   3.209
 8364SOL    HW225992   0.287   3.339   3.296
 8365SOL     OW25993   1.459   4.085   1.650
 8365SOL    HW125994   1.525   4.103   1.723
 8365SOL    HW225995   1.443   3.987   1.643
 8366SOL     OW25996   4.045   6.028   2.383
 8366SOL    HW125997   4.000   6.110   2.348
 8366SOL    HW225998   3.995   5.992   2.461
 8367SOL     OW25999   4.222   5.822   4.429
 8367SOL    HW126000   4.244   5.755   4.500
 8367SOL    HW226001   4.125   5.816   4.405
 8368SOL     OW26002   3.352   6.244   5.874
 8368SOL    HW126003   3.253   6.237   5.860
 8368SOL    HW226004   3.397   6.171   5.823
 8369SOL     OW26005   1.637   1.436   6.380
 8369SOL    HW126006   1.633   1.370   6.455
 8369SOL    HW226007   1.680   1.520   6.411
 8370SOL     OW26008   2.892   2.224   6.051
 8370SOL    HW126009   2.852   2.274   6.128
 8370SOL    HW226010   2.819   2.185   5.995
 8371SOL     OW26011   1.575   4.040   0.862
 8371SOL    HW126012   1.589   3.959   0.805
 8371SOL    HW226013   1.508   4.100   0.819
 8372SOL     OW26014   1.301   6.112   2.590
 8372SOL    HW126015   1.274   6.161   2.672
 8372SOL    HW226016   1.220   6.091   2.535
 8373SOL     OW26017   0.700   0.284   4.907
 8373SOL    HW126018   0.780   0.249   4.857
 8373SOL    HW226019   0.641   0.208   4.933
 8374SOL     OW26020   0.063   0.834   6.773
 8374SOL    HW126021   0.014   0.836   6.686
 8374SOL    HW226022   0.118   0.917   6.782
 8375SOL     OW26023   3.450   5.737   6.110
 8375SOL    HW126024   3.369   5.780   6.150
 8375SOL    HW226025   3.487   5.669   6.173
 8376SOL     OW26026   2.503   0.344   4.485
 8376SOL    HW126027   2.598   0.315   4.479
 8376SOL    HW226028   2.499   0.439   4.515
 8377SOL     OW26029   5.888   5.576   1.890
 8377SOL    HW126030   5.835   5.627   1.958
 8377SOL    HW226031   5.963   5.634   1.856
 8378SOL     OW26032   4.674   4.391   3.417
 8378SOL    HW126033   4.768   4.395   3.449
 8378SOL    HW226034   4.667   4.324   3.343
 8379SOL     OW26035   6.703   3.030   1.367
 8379SOL    HW126036   6.776   2.980   1.414
 8379SOL    HW226037   6.616   3.012   1.411
 8380SOL     OW26038   6.261   0.803   2.216
 8380SOL    HW126039   6.335   0.738   2.236
 8380SOL    HW226040   6.294   0.872   2.151
 8381SOL     OW26041   0.791   4.819   4.513
 8381SOL    HW126042   0.760   4.734   4.556
 8381SOL    HW226043   0.727   4.843   4.439
 8382SOL     OW26044   1.451   1.463   1.909
 8382SOL    HW126045   1.373   1.503   1.861
 8382SOL    HW226046   1.529   1.526   1.905
 8383SOL     OW26047   2.554   2.025   6.488
 8383SOL    HW126048   2.594   2.011   6.398
 8383SOL    HW226049   2.532   2.122   6.500
 8384SOL     OW26050   0.128   0.027   0.839
 8384SOL    HW126051   0.208   0.015   0.898
 8384SOL    HW226052   0.120   0.123   0.813
 8385SOL     OW26053   6.192   2.722   1.943
 8385SOL    HW126054   6.182   2.666   1.860
 8385SOL    HW226055   6.167   2.667   2.023
 8386SOL     OW26056   0.820   4.114   2.315
 8386SOL    HW126057   0.806   4.175   2.393
 8386SOL    HW226058   0.732   4.081   2.282
 8387SOL     OW26059   1.206   1.557   1.464
 8387SOL    HW126060   1.186   1.628   1.396
 8387SOL    HW226061   1.126   1.499   1.476
 8388SOL     OW26062   2.258   6.236   1.880
 8388SOL    HW126063   2.333   6.268   1.938
 8388SOL    HW226064   2.241   6.303   1.808
 8389SOL     OW26065   5.104   3.642   2.084
 8389SOL    HW126066   5.030   3.709   2.075
 8389SOL    HW226067   5.071   3.553   2.055
 8390SOL     OW26068   3.581   1.626   6.371
 8390SOL    HW126069   3.542   1.651   6.282
 8390SOL    HW226070   3.512   1.577   6.424
 8391SOL     OW26071   5.922   6.506   0.787
 8391SOL    HW126072   5.855   6.565   0.832
 8391SOL    HW226073   5.982   6.466   0.857
 8392SOL     OW26074   6.266   3.660   3.670
 8392SOL    HW126075   6.235   3.571   3.637
 8392SOL    HW226076   6.217   3.733   3.623
 8393SOL     OW26077   5.274   0.345   2.325
 8393SOL    HW126078   5.346   0.278   2.345
 8393SOL    HW226079   5.316   0.428   2.289
 8394SOL     OW26080   6.075   3.553   1.580
 8394SOL    HW126081   6.078   3.638   1.527
 8394SOL    HW226082   6.161   3.503   1.568
 8395SOL     OW26083   2.737   0.153   5.594
 8395SOL    HW126084   2.822   0.202   5.573
 8395SOL    HW226085   2.692   0.198   5.671
 8396SOL     OW26086   4.131   4.707   3.762
 8396SOL    HW126087   4.128   4.727   3.860
 8396SOL    HW226088   4.043   4.733   3.720
 8397SOL     OW26089   0.811   1.510   3.826
 8397SOL    HW126090   0.838   1.604   3.804
 8397SOL    HW226091   0.728   1.512   3.881
 8398SOL     OW26092   5.054   1.758   6.860
 8398SOL    HW126093   5.150   1.738   6.877
 8398SOL    HW226094   5.035   1.853   6.885
 8399SOL     OW26095   6.734   6.500   6.785
 8399SOL    HW126096   6.680   6.502   6.869
 8399SOL    HW226097   6.827   6.532   6.805
 8400SOL     OW26098   1.483   2.547   4.286
 8400SOL    HW126099   1.430   2.582   4.363
 8400SOL    HW226100   1.537   2.622   4.246
 8401SOL     OW26101   1.795   0.824   5.359
 8401SOL    HW126102   1.876   0.765   5.367
 8401SOL    HW226103   1.799   0.896   5.427
 8402SOL     OW26104   4.994   1.258   6.489
 8402SOL    HW126105   4.927   1.246   6.416
 8402SOL    HW226106   4.962   1.327   6.554
 8403SOL     OW26107   0.087   4.148   4.022
 8403SOL    HW126108   0.155   4.081   4.051
 8403SOL    HW226109   0.106   4.235   4.066
 8404SOL     OW26110   3.333   1.085   5.888
 8404SOL    HW126111   3.341   1.121   5.795
 8404SOL    HW226112   3.309   0.988   5.885
 8405SOL     OW26113   4.151   1.653   6.070
 8405SOL    HW126114   4.240   1.633   6.110
 8405SOL    HW226115   4.161   1.664   5.971
 8406SOL     OW26116   4.943   0.374   0.704
 8406SOL    HW126117   4.875   0.444   0.680
 8406SOL    HW226118   5.034   0.415   0.703
 8407SOL     OW26119   4.398   6.091   3.711
 8407SOL    HW126120   4.328   6.163   3.719
 8407SOL    HW226121   4.409   6.067   3.614
 8408SOL     OW26122   5.329   6.489   0.447
 8408SOL    HW126123   5.285   6.451   0.365
 8408SOL    HW226124   5.267   6.554   0.491
 8409SOL     OW26125   4.458   2.396   1.988
 8409SOL    HW126126   4.537   2.394   2.049
 8409SOL    HW226127   4.487   2.423   1.896
 8410SOL     OW26128   6.134   1.711   1.819
 8410SOL    HW126129   6.229   1.686   1.842
 8410SOL    HW226130   6.079   1.628   1.811
 8411SOL     OW26131   0.255   6.568   1.395
 8411SOL    HW126132   0.303   6.653   1.373
 8411SOL    HW226133   0.156   6.582   1.383
 8412SOL     OW26134   3.799   2.787   1.141
 8412SOL    HW126135   3.832   2.772   1.234
 8412SOL    HW226136   3.816   2.882   1.115
 8413SOL     OW26137   4.303   6.031   6.515
 8413SOL    HW126138   4.316   5.933   6.525
 8413SOL    HW226139   4.373   6.069   6.454
 8414SOL     OW26140   2.418   1.685   2.559
 8414SOL    HW126141   2.479   1.611   2.533
 8414SOL    HW226142   2.449   1.727   2.644
 8415SOL     OW26143   3.231   0.033   4.020
 8415SOL    HW126144   3.325   0.058   4.039
 8415SOL    HW226145   3.198   0.085   3.941
 8416SOL     OW26146   5.872   1.710   4.844
 8416SOL    HW126147   5.944   1.671   4.787
 8416SOL    HW226148   5.889   1.808   4.858
 8417SOL     OW26149   2.050   3.248   5.487
 8417SOL    HW126150   2.141   3.252   5.446
 8417SOL    HW226151   2.020   3.153   5.492
 8418SOL     OW26152   0.888   5.638   2.604
 8418SOL    HW126153   0.894   5.538   2.607
 8418SOL    HW226154   0.981   5.676   2.602
 8419SOL     OW26155   6.110   1.253   3.374
 8419SOL    HW126156   6.074   1.321   3.309
 8419SOL    HW226157   6.157   1.181   3.323
 8420SOL     OW26158   3.257   6.834   2.107
 8420SOL    HW126159   3.213   6.791   2.186
 8420SOL    HW226160   3.326   6.772   2.070
 8421SOL     OW26161   2.776   6.262   6.793
 8421SOL    HW126162   2.846   6.221   6.734
 8421SOL    HW226163   2.782   6.221   6.884
 8422SOL     OW26164   4.696   2.336   2.404
 8422SOL    HW126165   4.689   2.429   2.439
 8422SOL    HW226166   4.608   2.289   2.415
 8423SOL     OW26167   4.558   4.524   5.723
 8423SOL    HW126168   4.525   4.552   5.813
 8423SOL    HW226169   4.651   4.488   5.731
 8424SOL     OW26170   2.081   0.994   3.868
 8424SOL    HW126171   2.027   1.075   3.846
 8424SOL    HW226172   2.021   0.922   3.904
 8425SOL     OW26173   3.265   3.798   3.932
 8425SOL    HW126174   3.288   3.843   4.019
 8425SOL    HW226175   3.166   3.798   3.920
 8426SOL     OW26176   3.537   3.262   2.625
 8426SOL    HW126177   3.440   3.259   2.648
 8426SOL    HW226178   3.590   3.215   2.695
 8427SOL     OW26179   2.929   3.367   3.234
 8427SOL    HW126180   2.977   3.304   3.294
 8427SOL    HW226181   2.932   3.333   3.140
 8428SOL     OW26182   0.457   0.463   1.255
 8428SOL    HW126183   0.456   0.406   1.337
 8428SOL    HW226184   0.543   0.452   1.207
 8429SOL     OW26185   2.029   5.910   5.948
 8429SOL    HW126186   2.123   5.881   5.965
 8429SOL    HW226187   1.977   5.907   6.033
 8430SOL     OW26188   3.793   4.991   4.589
 8430SOL    HW126189   3.889   4.979   4.610
 8430SOL    HW226190   3.740   4.992   4.673
 8431SOL     OW26191   3.116   3.946   6.493
 8431SOL    HW126192   3.030   3.994   6.507
 8431SOL    HW226193   3.106   3.851   6.522
 8432SOL     OW26194   0.149   5.258   6.461
 8432SOL    HW126195   0.080   5.250   6.388
 8432SOL    HW226196   0.104   5.283   6.546
 8433SOL     OW26197   4.245   2.482   0.974
 8433SOL    HW126198   4.177   2.554   0.987
 8433SOL    HW226199   4.334   2.515   1.007
 8434SOL     OW26200   2.074   5.273   5.138
 8434SOL    HW126201   2.064   5.310   5.046
 8434SOL    HW226202   1.993   5.295   5.192
 8435SOL     OW26203   5.042   0.885   2.888
 8435SOL    HW126204   5.120   0.896   2.950
 8435SOL    HW226205   5.021   0.788   2.878
 8436SOL     OW26206   2.446   6.412   3.754
 8436SOL    HW126207   2.465   6.329   3.807
 8436SOL    HW226208   2.434   6.489   3.817
 8437SOL     OW26209   1.925   3.247   2.422
 8437SOL    HW126210   1.897   3.190   2.345
 8437SOL    HW226211   1.993   3.198   2.477
 8438SOL     OW26212   2.224   3.983   2.818
 8438SOL    HW126213   2.222   4.016   2.912
 8438SOL    HW226214   2.300   4.026   2.769
 8439SOL     OW26215   6.294   5.579   4.056
 8439SOL    HW126216   6.335   5.557   3.968
 8439SOL    HW226217   6.195   5.583   4.046
 8440SOL     OW26218   2.487   1.644   3.839
 8440SOL    HW126219   2.536   1.630   3.926
 8440SOL    HW226220   2.393   1.673   3.858
 8441SOL     OW26221   5.472   5.697   5.103
 8441SOL    HW126222   5.566   5.704   5.137
 8441SOL    HW226223   5.448   5.782   5.056
 8442SOL     OW26224   3.284   0.744   5.434
 8442SOL    HW126225   3.300   0.801   5.515
 8442SOL    HW226226   3.222   0.792   5.372
 8443SOL     OW26227   2.018   5.038   4.177
 8443SOL    HW126228   2.089   5.097   4.218
 8443SOL    HW226229   1.944   5.095   4.143
 8444SOL     OW26230   4.036   6.632   3.637
 8444SOL    HW126231   4.062   6.562   3.703
 8444SOL    HW226232   3.964   6.690   3.676
 8445SOL     OW26233   2.053   0.399   6.883
 8445SOL    HW126234   2.015   0.489   6.864
 8445SOL    HW226235   2.024   0.369   6.974
 8446SOL     OW26236   0.326   6.142   4.939
 8446SOL    HW126237   0.259   6.094   4.995
 8446SOL    HW226238   0.391   6.189   4.998
 8447SOL     OW26239   4.104   1.525   2.519
 8447SOL    HW126240   4.033   1.456   2.504
 8447SOL    HW226241   4.098   1.595   2.448
 8448SOL     OW26242   4.705   5.782   3.799
 8448SOL    HW126243   4.762   5.736   3.730
 8448SOL    HW226244   4.608   5.775   3.772
 8449SOL     OW26245   1.391   3.423   3.901
 8449SOL    HW126246   1.386   3.325   3.881
 8449SOL    HW226247   1.456   3.467   3.838
 8450SOL     OW26248   0.376   1.028   0.230
 8450SOL    HW126249   0.362   0.980   0.143
 8450SOL    HW226250   0.341   0.972   0.305
 8451SOL     OW26251   3.621   0.795   0.933
 8451SOL    HW126252   3.608   0.696   0.938
 8451SOL    HW226253   3.668   0.818   0.847
 8452SOL     OW26254   5.185   2.032   4.471
 8452SOL    HW126255   5.127   2.070   4.399
 8452SOL    HW226256   5.172   2.084   4.556
 8453SOL     OW26257   0.484   5.522   0.070
 8453SOL    HW126258   0.399   5.470   0.066
 8453SOL    HW226259   0.524   5.528   7.005
 8454SOL     OW26260   0.699   4.523   0.427
 8454SOL    HW126261   0.659   4.610   0.399
 8454SOL    HW226262   0.636   4.476   0.490
 8455SOL     OW26263   0.594   0.580   2.666
 8455SOL    HW126264   0.628   0.670   2.695
 8455SOL    HW226265   0.659   0.509   2.696
 8456SOL     OW26266   5.416   0.727   3.378
 8456SOL    HW126267   5.462   0.752   3.463
 8456SOL    HW226268   5.342   0.792   3.359
 8457SOL     OW26269   6.354   6.787   4.613
 8457SOL    HW126270   6.415   6.733   4.670
 8457SOL    HW226271   6.267   6.738   4.601
 8458SOL     OW26272   0.565   0.302   0.489
 8458SOL    HW126273   0.662   0.325   0.501
 8458SOL    HW226274   0.517   0.382   0.453
 8459SOL     OW26275   1.752   5.769   3.108
 8459SOL    HW126276   1.706   5.838   3.053
 8459SOL    HW226277   1.731   5.785   3.205
 8460SOL     OW26278   4.355   4.076   5.386
 8460SOL    HW126279   4.338   4.001   5.322
 8460SOL    HW226280   4.449   4.107   5.378
 8461SOL     OW26281   0.269   2.806   4.965
 8461SOL    HW126282   0.242   2.861   4.886
 8461SOL    HW226283   0.240   2.851   5.049
 8462SOL     OW26284   3.261   1.744   1.398
 8462SOL    HW126285   3.173   1.762   1.442
 8462SOL    HW226286   3.315   1.681   1.454
 8463SOL     OW26287   6.283   0.028   1.798
 8463SOL    HW126288   6.230   7.015   1.873
 8463SOL    HW226289   6.342   0.101   1.834
 8464SOL     OW26290   5.997   3.299   4.400
 8464SOL    HW126291   6.011   3.398   4.398
 8464SOL    HW226292   5.952   3.275   4.486
 8465SOL     OW26293   1.504   2.006   0.280
 8465SOL    HW126294   1.478   2.090   0.329
 8465SOL    HW226295   1.482   2.016   0.183
 8466SOL     OW26296   1.337   5.394   3.646
 8466SOL    HW126297   1.256   5.422   3.594
 8466SOL    HW226298   1.414   5.454   3.623
 8467SOL     OW26299   2.638   6.162   1.062
 8467SOL    HW126300   2.704   6.233   1.087
 8467SOL    HW226301   2.646   6.085   1.125
 8468SOL     OW26302   3.700   2.246   0.301
 8468SOL    HW126303   3.674   2.289   0.214
 8468SOL    HW226304   3.744   2.314   0.359
 8469SOL     OW26305   3.349   2.907   6.698
 8469SOL    HW126306   3.345   2.888   6.600
 8469SOL    HW226307   3.305   2.832   6.748
 8470SOL     OW26308   2.128   2.552   1.131
 8470SOL    HW126309   2.128   2.476   1.066
 8470SOL    HW226310   2.080   2.525   1.214
 8471SOL     OW26311   2.921   0.579   3.917
 8471SOL    HW126312   2.969   0.504   3.964
 8471SOL    HW226313   2.939   0.573   3.819
 8472SOL     OW26314   0.354   6.730   4.320
 8472SOL    HW126315   0.313   6.722   4.229
 8472SOL    HW226316   0.446   6.766   4.312
 8473SOL     OW26317   0.245   5.895   0.531
 8473SOL    HW126318   0.175   5.863   0.594
 8473SOL    HW226319   0.202   5.950   0.459
 8474SOL     OW26320   3.026   2.956   1.802
 8474SOL    HW126321   3.117   2.917   1.816
 8474SOL    HW226322   2.961   2.883   1.780
 8475SOL     OW26323   5.649   1.549   2.503
 8475SOL    HW126324   5.566   1.534   2.449
 8475SOL    HW226325   5.688   1.461   2.531
 8476SOL     OW26326   6.055   0.015   2.056
 8476SOL    HW126327   6.114   0.096   2.058
 8476SOL    HW226328   5.979   0.028   2.119
 8477SOL     OW26329   2.870   6.664   0.972
 8477SOL    HW126330   2.922   6.697   0.894
 8477SOL    HW226331   2.776   6.643   0.944
 8478SOL     OW26332   1.805   0.834   5.713
 8478SOL    HW126333   1.767   0.918   5.753
 8478SOL    HW226334   1.904   0.846   5.700
 8479SOL     OW26335   6.210   1.253   0.074
 8479SOL    HW126336   6.167   1.212   0.154
 8479SOL    HW226337   6.306   1.270   0.093
 8480SOL     OW26338   3.622   0.564   0.756
 8480SOL    HW126339   3.533   0.520   0.755
 8480SOL    HW226340   3.647   0.590   0.662
 8481SOL     OW26341   4.201   1.470   4.775
 8481SOL    HW126342   4.255   1.537   4.826
 8481SOL    HW226343   4.213   1.485   4.677
 8482SOL     OW26344   1.730   0.548   2.144
 8482SOL    HW126345   1.669   0.628   2.139
 8482SOL    HW226346   1.731   0.501   2.056
 8483SOL     OW26347   3.392   5.787   2.484
 8483SOL    HW126348   3.363   5.849   2.411
 8483SOL    HW226349   3.376   5.831   2.573
 8484SOL     OW26350   0.516   4.602   3.416
 8484SOL    HW126351   0.542   4.636   3.326
 8484SOL    HW226352   0.592   4.551   3.456
 8485SOL     OW26353   1.646   3.873   0.382
 8485SOL    HW126354   1.554   3.907   0.362
 8485SOL    HW226355   1.691   3.935   0.446
 8486SOL     OW26356   5.382   1.058   2.266
 8486SOL    HW126357   5.460   1.107   2.226
 8486SOL    HW226358   5.403   0.960   2.270
 8487SOL     OW26359   5.267   6.815   1.796
 8487SOL    HW126360   5.311   6.898   1.762
 8487SOL    HW226361   5.170   6.815   1.772
 8488SOL     OW26362   5.485   4.566   4.154
 8488SOL    HW126363   5.582   4.586   4.142
 8488SOL    HW226364   5.433   4.609   4.080
 8489SOL     OW26365   5.826   4.936   1.282
 8489SOL    HW126366   5.751   4.895   1.334
 8489SOL    HW226367   5.826   4.900   1.189
 8490SOL     OW26368   4.571   5.407   3.128
 8490SOL    HW126369   4.476   5.397   3.099
 8490SOL    HW226370   4.600   5.502   3.111
 8491SOL     OW26371   2.193   0.515   2.251
 8491SOL    HW126372   2.137   0.565   2.185
 8491SOL    HW226373   2.254   0.579   2.299
 8492SOL     OW26374   5.226   3.435   5.601
 8492SOL    HW126375   5.154   3.368   5.617
 8492SOL    HW226376   5.185   3.527   5.598
 8493SOL     OW26377   4.006   1.875   6.953
 8493SOL    HW126378   4.049   1.864   6.863
 8493SOL    HW226379   4.058   1.825   7.022
 8494SOL     OW26380   2.659   5.663   6.904
 8494SOL    HW126381   2.650   5.589   6.837
 8494SOL    HW226382   2.573   5.671   6.955
 8495SOL     OW26383   6.496   3.360   0.618
 8495SOL    HW126384   6.474   3.331   0.525
 8495SOL    HW226385   6.572   3.425   0.615
 8496SOL     OW26386   0.412   1.952   3.577
 8496SOL    HW126387   0.458   2.038   3.555
 8496SOL    HW226388   0.391   1.949   3.674
 8497SOL     OW26389   5.227   5.505   4.923
 8497SOL    HW126390   5.297   5.573   4.900
 8497SOL    HW226391   5.269   5.415   4.929
 8498SOL     OW26392   0.409   0.299   1.515
 8498SOL    HW126393   0.334   0.357   1.547
 8498SOL    HW226394   0.491   0.317   1.569
 8499SOL     OW26395   3.109   5.006   6.894
 8499SOL    HW126396   3.067   4.974   6.978
 8499SOL    HW226397   3.043   5.002   6.819
 8500SOL     OW26398   2.301   6.880   5.578
 8500SOL    HW126399   2.262   6.850   5.665
 8500SOL    HW226400   2.270   6.819   5.505
 8501SOL     OW26401   1.960   3.330   6.714
 8501SOL    HW126402   1.906   3.323   6.631
 8501SOL    HW226403   1.903   3.364   6.789
 8502SOL     OW26404   0.615   6.118   1.633
 8502SOL    HW126405   0.522   6.153   1.646
 8502SOL    HW226406   0.675   6.192   1.602
 8503SOL     OW26407   1.562   4.852   3.584
 8503SOL    HW126408   1.553   4.947   3.613
 8503SOL    HW226409   1.609   4.847   3.496
 8504SOL     OW26410   2.197   6.279   3.681
 8504SOL    HW126411   2.290   6.313   3.693
 8504SOL    HW226412   2.142   6.301   3.761
 8505SOL     OW26413   5.562   4.068   3.347
 8505SOL    HW126414   5.470   4.078   3.309
 8505SOL    HW226415   5.581   3.971   3.364
 8506SOL     OW26416   1.108   6.338   0.408
 8506SOL    HW126417   1.012   6.347   0.434
 8506SOL    HW226418   1.141   6.425   0.370
 8507SOL     OW26419   2.455   1.053   5.936
 8507SOL    HW126420   2.358   1.053   5.911
 8507SOL    HW226421   2.495   1.142   5.913
 8508SOL     OW26422   6.532   2.588   5.196
 8508SOL    HW126423   6.432   2.585   5.200
 8508SOL    HW226424   6.568   2.496   5.213
 8509SOL     OW26425   6.043   0.927   4.470
 8509SOL    HW126426   6.111   0.870   4.516
 8509SOL    HW226427   6.085   0.975   4.393
 8510SOL     OW26428   6.253   5.798   3.194
 8510SOL    HW126429   6.179   5.845   3.242
 8510SOL    HW226430   6.337   5.804   3.249
 8511SOL     OW26431   6.387   4.296   0.840
 8511SOL    HW126432   6.445   4.247   0.775
 8511SOL    HW226433   6.404   4.394   0.832
 8512SOL     OW26434   4.285   2.295   0.168
 8512SOL    HW126435   4.258   2.386   0.134
 8512SOL    HW226436   4.354   2.305   0.240
 8513SOL     OW26437   5.026   4.121   0.284
 8513SOL    HW126438   5.051   4.026   0.265
 8513SOL    HW226439   4.929   4.127   0.306
 8514SOL     OW26440   2.855   1.542   3.960
 8514SOL    HW126441   2.946   1.541   4.001
 8514SOL    HW226442   2.788   1.514   4.028
 8515SOL     OW26443   0.384   1.527   7.012
 8515SOL    HW126444   0.332   1.560   6.933
 8515SOL    HW226445   0.348   1.438   0.014
 8516SOL     OW26446   5.750   2.561   2.405
 8516SOL    HW126447   5.653   2.581   2.399
 8516SOL    HW226448   5.802   2.646   2.408
 8517SOL     OW26449   2.235   2.939   5.718
 8517SOL    HW126450   2.266   2.875   5.647
 8517SOL    HW226451   2.136   2.932   5.729
 8518SOL     OW26452   5.037   4.101   6.198
 8518SOL    HW126453   5.090   4.067   6.120
 8518SOL    HW226454   5.024   4.200   6.188
 8519SOL     OW26455   1.226   4.600   0.785
 8519SOL    HW126456   1.141   4.650   0.773
 8519SOL    HW226457   1.303   4.664   0.788
 8520SOL     OW26458   3.788   3.773   5.127
 8520SOL    HW126459   3.776   3.782   5.226
 8520SOL    HW226460   3.885   3.787   5.104
 8521SOL     OW26461   2.075   6.372   5.229
 8521SOL    HW126462   2.134   6.450   5.208
 8521SOL    HW226463   2.101   6.333   5.318
 8522SOL     OW26464   1.442   0.734   1.014
 8522SOL    HW126465   1.506   0.712   1.088
 8522SOL    HW226466   1.471   0.817   0.968
 8523SOL     OW26467   2.723   6.811   6.291
 8523SOL    HW126468   2.757   6.769   6.206
 8523SOL    HW226469   2.624   6.816   6.287
 8524SOL     OW26470   1.079   4.881   4.682
 8524SOL    HW126471   0.995   4.843   4.642
 8524SOL    HW226472   1.090   4.846   4.775
 8525SOL     OW26473   6.198   4.874   0.589
 8525SOL    HW126474   6.232   4.968   0.584
 8525SOL    HW226475   6.134   4.857   0.514
 8526SOL     OW26476   3.031   6.734   1.152
 8526SOL    HW126477   2.972   6.698   1.080
 8526SOL    HW226478   3.004   6.828   1.173
 8527SOL     OW26479   3.284   0.397   6.860
 8527SOL    HW126480   3.338   0.407   6.776
 8527SOL    HW226481   3.340   0.423   6.938
 8528SOL     OW26482   4.695   1.689   1.008
 8528SOL    HW126483   4.730   1.662   1.098
 8528SOL    HW226484   4.599   1.718   1.017
 8529SOL     OW26485   1.261   6.274   6.925
 8529SOL    HW126486   1.179   6.327   6.942
 8529SOL    HW226487   1.341   6.334   6.926
 8530SOL     OW26488   2.929   3.459   4.094
 8530SOL    HW126489   2.914   3.499   4.184
 8530SOL    HW226490   2.885   3.516   4.024
 8531SOL     OW26491   6.953   5.369   3.640
 8531SOL    HW126492   6.951   5.271   3.619
 8531SOL    HW226493   0.022   5.400   3.643
 8532SOL     OW26494   3.569   6.668   4.056
 8532SOL    HW126495   3.479   6.659   4.013
 8532SOL    HW226496   3.592   6.583   4.104
 8533SOL     OW26497   0.773   6.163   0.155
 8533SOL    HW126498   0.682   6.158   0.112
 8533SOL    HW226499   0.764   6.194   0.249
 8534SOL     OW26500   4.603   2.527   3.882
 8534SOL    HW126501   4.688   2.529   3.934
 8534SOL    HW226502   4.579   2.620   3.854
 8535SOL     OW26503   5.809   0.988   4.256
 8535SOL    HW126504   5.809   0.934   4.172
 8535SOL    HW226505   5.896   0.975   4.304
 8536SOL     OW26506   1.124   1.946   5.045
 8536SOL    HW126507   1.071   1.880   4.991
 8536SOL    HW226508   1.210   1.966   4.998
 8537SOL     OW26509   6.305   1.537   3.408
 8537SOL    HW126510   6.207   1.522   3.422
 8537SOL    HW226511   6.320   1.632   3.379
 8538SOL     OW26512   1.816   1.626   0.145
 8538SOL    HW126513   1.829   1.601   0.049
 8538SOL    HW226514   1.789   1.721   0.151
 8539SOL     OW26515   6.071   2.116   2.338
 8539SOL    HW126516   6.043   2.132   2.244
 8539SOL    HW226517   6.120   2.029   2.345
 8540SOL     OW26518   5.132   7.009   6.666
 8540SOL    HW126519   5.061   0.041   6.625
 8540SOL    HW226520   5.093   6.961   6.745
 8541SOL     OW26521   2.858   1.890   4.136
 8541SOL    HW126522   2.886   1.870   4.042
 8541SOL    HW226523   2.788   1.961   4.135
 8542SOL     OW26524   3.198   5.179   6.400
 8542SOL    HW126525   3.271   5.242   6.425
 8542SOL    HW226526   3.179   5.118   6.477
 8543SOL     OW26527   1.814   2.102   0.654
 8543SOL    HW126528   1.865   2.029   0.607
 8543SOL    HW226529   1.810   2.082   0.752
 8544SOL     OW26530   5.165   2.933   4.674
 8544SOL    HW126531   5.120   2.910   4.588
 8544SOL    HW226532   5.261   2.957   4.656
 8545SOL     OW26533   4.900   6.464   6.410
 8545SOL    HW126534   4.981   6.430   6.458
 8545SOL    HW226535   4.897   6.564   6.417
 8546SOL     OW26536   6.169   2.096   3.488
 8546SOL    HW126537   6.162   2.034   3.566
 8546SOL    HW226538   6.261   2.090   3.449
 8547SOL     OW26539   1.490   5.667   5.915
 8547SOL    HW126540   1.573   5.698   5.870
 8547SOL    HW226541   1.511   5.586   5.970
 8548SOL     OW26542   5.870   2.018   5.667
 8548SOL    HW126543   5.795   1.978   5.616
 8548SOL    HW226544   5.835   2.089   5.729
 8549SOL     OW26545   6.859   4.293   3.985
 8549SOL    HW126546   6.942   4.252   4.024
 8549SOL    HW226547   6.830   4.369   4.044
 8550SOL     OW26548   1.618   4.610   6.891
 8550SOL    HW126549   1.699   4.552   6.900
 8550SOL    HW226550   1.630   4.670   6.812
 8551SOL     OW26551   3.501   4.149   6.515
 8551SOL    HW126552   3.560   4.210   6.463
 8551SOL    HW226553   3.506   4.057   6.476
 8552SOL     OW26554   3.367   5.652   3.272
 8552SOL    HW126555   3.452   5.686   3.312
 8552SOL    HW226556   3.387   5.596   3.192
 8553SOL     OW26557   5.268   6.132   0.126
 8553SOL    HW126558   5.187   6.078   0.151
 8553SOL    HW226559   5.246   6.229   0.133
 8554SOL     OW26560   0.356   4.113   0.273
 8554SOL    HW126561   0.300   4.111   0.190
 8554SOL    HW226562   0.391   4.205   0.288
 8555SOL     OW26563   1.418   0.315   3.267
 8555SOL    HW126564   1.382   0.231   3.307
 8555SOL    HW226565   1.348   0.356   3.208
 8556SOL     OW26566   0.716   0.364   3.328
 8556SOL    HW126567   0.673   0.295   3.269
 8556SOL    HW226568   0.657   0.445   3.332
 8557SOL     OW26569   6.515   6.786   2.116
 8557SOL    HW126570   6.571   6.854   2.163
 8557SOL    HW226571   6.427   6.776   2.164
 8558SOL     OW26572   2.183   5.621   2.686
 8558SOL    HW126573   2.142   5.627   2.595
 8558SOL    HW226574   2.208   5.713   2.716
 8559SOL     OW26575   1.163   1.067   2.062
 8559SOL    HW126576   1.250   1.109   2.038
 8559SOL    HW226577   1.136   1.097   2.154
 8560SOL     OW26578   0.170   1.125   0.649
 8560SOL    HW126579   0.072   1.110   0.636
 8560SOL    HW226580   0.212   1.042   0.686
 8561SOL     OW26581   4.216   6.379   2.473
 8561SOL    HW126582   4.257   6.440   2.405
 8561SOL    HW226583   4.152   6.316   2.428
 8562SOL     OW26584   4.343   6.291   4.658
 8562SOL    HW126585   4.380   6.236   4.733
 8562SOL    HW226586   4.278   6.236   4.606
 8563SOL     OW26587   2.962   3.224   6.741
 8563SOL    HW126588   2.997   3.160   6.673
 8563SOL    HW226589   2.927   3.174   6.820
 8564SOL     OW26590   1.430   0.500   3.490
 8564SOL    HW126591   1.463   0.500   3.584
 8564SOL    HW226592   1.456   0.415   3.445
 8565SOL     OW26593   4.044   6.968   1.308
 8565SOL    HW126594   4.011   7.016   1.226
 8565SOL    HW226595   4.007   7.012   1.390
 8566SOL     OW26596   1.321   2.043   2.898
 8566SOL    HW126597   1.405   2.006   2.938
 8566SOL    HW226598   1.321   2.028   2.799
 8567SOL     OW26599   6.057   1.073   1.539
 8567SOL    HW126600   6.035   1.143   1.472
 8567SOL    HW226601   5.988   1.001   1.536
 8568SOL     OW26602   4.945   1.775   0.160
 8568SOL    HW126603   4.979   1.820   0.243
 8568SOL    HW226604   4.848   1.796   0.149
 8569SOL     OW26605   4.651   0.766   5.240
 8569SOL    HW126606   4.566   0.717   5.220
 8569SOL    HW226607   4.710   0.764   5.159
 8570SOL     OW26608   1.460   4.244   5.963
 8570SOL    HW126609   1.441   4.156   6.007
 8570SOL    HW226610   1.427   4.319   6.021
 8571SOL     OW26611   0.058   4.583   5.331
 8571SOL    HW126612   0.133   4.596   5.397
 8571SOL    HW226613   6.997   4.601   5.377
 8572SOL     OW26614   1.842   5.391   5.370
 8572SOL    HW126615   1.927   5.388   5.422
 8572SOL    HW226616   1.812   5.486   5.362
 8573SOL     OW26617   4.148   5.825   6.802
 8573SOL    HW126618   4.068   5.862   6.849
 8573SOL    HW226619   4.231   5.862   6.843
 8574SOL     OW26620   1.177   4.555   6.109
 8574SOL    HW126621   1.272   4.575   6.133
 8574SOL    HW226622   1.160   4.457   6.114
 8575SOL     OW26623   3.143   2.562   6.563
 8575SOL    HW126624   3.093   2.514   6.490
 8575SOL    HW226625   3.240   2.565   6.540
 8576SOL     OW26626   0.989   6.897   2.181
 8576SOL    HW126627   1.018   6.804   2.202
 8576SOL    HW226628   0.890   6.903   2.185
 8577SOL     OW26629   6.370   5.476   3.772
 8577SOL    HW126630   6.298   5.536   3.736
 8577SOL    HW226631   6.434   5.452   3.698
 8578SOL     OW26632   4.573   6.965   4.203
 8578SOL    HW126633   4.658   7.016   4.217
 8578SOL    HW226634   4.518   6.967   4.287
 8579SOL     OW26635   1.146   4.858   3.422
 8579SOL    HW126636   1.160   4.871   3.520
 8579SOL    HW226637   1.182   4.937   3.372
 8580SOL     OW26638   1.898   6.582   1.907
 8580SOL    HW126639   1.805   6.550   1.886
 8580SOL    HW226640   1.947   6.511   1.957
 8581SOL     OW26641   3.690   1.794   0.699
 8581SOL    HW126642   3.709   1.747   0.785
 8581SOL    HW226643   3.709   1.891   0.708
 8582SOL     OW26644   4.711   4.556   2.049
 8582SOL    HW126645   4.770   4.596   2.119
 8582SOL    HW226646   4.729   4.458   2.043
 8583SOL     OW26647   6.551   0.500   6.347
 8583SOL    HW126648   6.568   0.590   6.309
 8583SOL    HW226649   6.567   0.430   6.277
 8584SOL     OW26650   6.951   4.473   0.636
 8584SOL    HW126651   6.980   4.558   0.681
 8584SOL    HW226652   7.003   4.396   0.674
 8585SOL     OW26653   0.700   0.634   0.674
 8585SOL    HW126654   0.624   0.608   0.733
 8585SOL    HW226655   0.686   0.728   0.643
 8586SOL     OW26656   3.426   5.950   2.739
 8586SOL    HW126657   3.378   6.034   2.712
 8586SOL    HW226658   3.406   5.930   2.835
 8587SOL     OW26659   0.650   1.902   2.827
 8587SOL    HW126660   0.641   1.882   2.729
 8587SOL    HW226661   0.745   1.923   2.848
 8588SOL     OW26662   3.321   1.920   0.902
 8588SOL    HW126663   3.347   1.851   0.834
 8588SOL    HW226664   3.253   1.881   0.964
 8589SOL     OW26665   3.516   1.141   5.074
 8589SOL    HW126666   3.475   1.064   5.026
 8589SOL    HW226667   3.588   1.181   5.018
 8590SOL     OW26668   6.636   5.440   4.824
 8590SOL    HW126669   6.546   5.475   4.801
 8590SOL    HW226670   6.626   5.352   4.871
 8591SOL     OW26671   0.868   4.067   6.271
 8591SOL    HW126672   0.822   4.110   6.193
 8591SOL    HW226673   0.844   3.970   6.275
 8592SOL     OW26674   0.020   4.318   0.241
 8592SOL    HW126675   0.108   4.316   0.195
 8592SOL    HW226676   0.033   4.314   0.340
 8593SOL     OW26677   1.524   6.945   2.431
 8593SOL    HW126678   1.450   6.994   2.384
 8593SOL    HW226679   1.492   6.854   2.456
 8594SOL     OW26680   2.956   3.609   4.325
 8594SOL    HW126681   2.967   3.700   4.285
 8594SOL    HW226682   2.939   3.618   4.424
 8595SOL     OW26683   1.911   2.062   2.606
 8595SOL    HW126684   1.898   2.073   2.508
 8595SOL    HW226685   2.002   2.094   2.632
 8596SOL     OW26686   5.506   5.189   1.600
 8596SOL    HW126687   5.489   5.284   1.626
 8596SOL    HW226688   5.581   5.152   1.655
 8597SOL     OW26689   3.315   1.629   1.124
 8597SOL    HW126690   3.272   1.659   1.209
 8597SOL    HW226691   3.244   1.594   1.062
 8598SOL     OW26692   6.351   5.016   1.104
 8598SOL    HW126693   6.336   4.976   1.014
 8598SOL    HW226694   6.439   4.984   1.141
 8599SOL     OW26695   0.931   2.705   3.990
 8599SOL    HW126696   0.904   2.614   4.021
 8599SOL    HW226697   1.031   2.709   3.982
 8600SOL     OW26698   6.626   4.817   6.479
 8600SOL    HW126699   6.660   4.724   6.469
 8600SOL    HW226700   6.533   4.824   6.444
 8601SOL     OW26701   0.126   1.567   4.310
 8601SOL    HW126702   0.166   1.579   4.401
 8601SOL    HW226703   0.199   1.568   4.241
 8602SOL     OW26704   2.896   6.193   2.581
 8602SOL    HW126705   2.874   6.133   2.658
 8602SOL    HW226706   2.825   6.264   2.573
 8603SOL     OW26707   3.781   3.804   0.284
 8603SOL    HW126708   3.879   3.811   0.264
 8603SOL    HW226709   3.736   3.755   0.209
 8604SOL     OW26710   5.749   3.139   3.758
 8604SOL    HW126711   5.770   3.041   3.766
 8604SOL    HW226712   5.824   3.192   3.797
 8605SOL     OW26713   3.564   5.558   3.774
 8605SOL    HW126714   3.540   5.546   3.678
 8605SOL    HW226715   3.484   5.590   3.825
 8606SOL     OW26716   2.949   4.237   6.194
 8606SOL    HW126717   2.980   4.154   6.149
 8606SOL    HW226718   2.911   4.300   6.126
 8607SOL     OW26719   3.355   5.537   1.453
 8607SOL    HW126720   3.397   5.615   1.501
 8607SOL    HW226721   3.389   5.452   1.493
 8608SOL     OW26722   4.365   4.900   2.589
 8608SOL    HW126723   4.320   4.986   2.613
 8608SOL    HW226724   4.313   4.854   2.518
 8609SOL     OW26725   3.777   0.379   4.686
 8609SOL    HW126726   3.777   0.472   4.650
 8609SOL    HW226727   3.864   0.361   4.732
 8610SOL     OW26728   1.306   6.744   3.569
 8610SOL    HW126729   1.361   6.662   3.585
 8610SOL    HW226730   1.333   6.815   3.634
 8611SOL     OW26731   1.232   2.046   4.750
 8611SOL    HW126732   1.247   1.950   4.728
 8611SOL    HW226733   1.316   2.098   4.732
 8612SOL     OW26734   2.966   3.422   6.557
 8612SOL    HW126735   2.962   3.391   6.462
 8612SOL    HW226736   2.955   3.344   6.618
 8613SOL     OW26737   1.692   1.762   0.937
 8613SOL    HW126738   1.649   1.785   0.850
 8613SOL    HW226739   1.740   1.843   0.973
 8614SOL     OW26740   0.668   3.903   2.686
 8614SOL    HW126741   0.754   3.861   2.715
 8614SOL    HW226742   0.628   3.849   2.611
 8615SOL     OW26743   4.444   1.814   5.573
 8615SOL    HW126744   4.518   1.791   5.636
 8615SOL    HW226745   4.461   1.772   5.484
 8616SOL     OW26746   0.798   4.858   0.246
 8616SOL    HW126747   0.733   4.932   0.230
 8616SOL    HW226748   0.873   4.864   0.180
 8617SOL     OW26749   6.756   1.944   0.734
 8617SOL    HW126750   6.675   1.980   0.782
 8617SOL    HW226751   6.803   1.878   0.792
 8618SOL     OW26752   4.526   6.485   2.414
 8618SOL    HW126753   4.584   6.566   2.420
 8618SOL    HW226754   4.438   6.510   2.375
 8619SOL     OW26755   4.068   5.230   6.810
 8619SOL    HW126756   4.132   5.307   6.813
 8619SOL    HW226757   3.981   5.257   6.851
 8620SOL     OW26758   6.159   6.820   2.655
 8620SOL    HW126759   6.091   6.882   2.614
 8620SOL    HW226760   6.228   6.874   2.703
 8621SOL     OW26761   6.471   1.391   4.146
 8621SOL    HW126762   6.501   1.315   4.089
 8621SOL    HW226763   6.551   1.436   4.186
 8622SOL     OW26764   4.503   4.632   0.341
 8622SOL    HW126765   4.571   4.654   0.411
 8622SOL    HW226766   4.423   4.590   0.384
 8623SOL     OW26767   0.653   4.172   2.719
 8623SOL    HW126768   0.672   4.208   2.810
 8623SOL    HW226769   0.675   4.074   2.717
 8624SOL     OW26770   1.588   4.161   3.525
 8624SOL    HW126771   1.634   4.158   3.436
 8624SOL    HW226772   1.491   4.140   3.512
 8625SOL     OW26773   4.453   1.007   4.667
 8625SOL    HW126774   4.493   0.983   4.755
 8625SOL    HW226775   4.432   1.105   4.666
 8626SOL     OW26776   3.301   3.520   3.985
 8626SOL    HW126777   3.338   3.528   3.893
 8626SOL    HW226778   3.301   3.609   4.030
 8627SOL     OW26779   1.300   1.295   1.279
 8627SOL    HW126780   1.290   1.393   1.296
 8627SOL    HW226781   1.381   1.261   1.328
 8628SOL     OW26782   6.619   0.505   0.476
 8628SOL    HW126783   6.638   0.563   0.397
 8628SOL    HW226784   6.565   0.557   0.543
 8629SOL     OW26785   0.880   5.257   4.058
 8629SOL    HW126786   0.950   5.212   4.113
 8629SOL    HW226787   0.874   5.212   3.968
 8630SOL     OW26788   5.744   3.731   3.818
 8630SOL    HW126789   5.682   3.653   3.832
 8630SOL    HW226790   5.692   3.816   3.815
 8631SOL     OW26791   3.923   5.555   5.914
 8631SOL    HW126792   4.005   5.578   5.967
 8631SOL    HW226793   3.935   5.466   5.871
 8632SOL     OW26794   3.766   0.287   3.636
 8632SOL    HW126795   3.703   0.364   3.648
 8632SOL    HW226796   3.844   0.299   3.697
 8633SOL     OW26797   5.828   1.066   3.908
 8633SOL    HW126798   5.745   1.103   3.865
 8633SOL    HW226799   5.870   1.137   3.966
 8634SOL     OW26800   6.293   4.082   1.539
 8634SOL    HW126801   6.319   4.042   1.451
 8634SOL    HW226802   6.276   4.009   1.605
 8635SOL     OW26803   6.196   3.894   6.043
 8635SOL    HW126804   6.119   3.902   5.980
 8635SOL    HW226805   6.197   3.974   6.104
 8636SOL     OW26806   5.925   5.371   0.024
 8636SOL    HW126807   5.937   5.315   6.969
 8636SOL    HW226808   6.014   5.403   0.057
 8637SOL     OW26809   1.896   1.053   0.226
 8637SOL    HW126810   1.949   1.103   0.295
 8637SOL    HW226811   1.907   0.955   0.241
 8638SOL     OW26812   1.960   3.868   0.330
 8638SOL    HW126813   1.969   3.773   0.362
 8638SOL    HW226814   1.890   3.872   0.258
 8639SOL     OW26815   5.074   2.855   2.343
 8639SOL    HW126816   4.995   2.903   2.306
 8639SOL    HW226817   5.059   2.756   2.335
 8640SOL     OW26818   4.257   3.892   0.683
 8640SOL    HW126819   4.169   3.852   0.707
 8640SOL    HW226820   4.309   3.911   0.767
 8641SOL     OW26821   6.931   4.078   3.225
 8641SOL    HW126822   6.879   4.046   3.304
 8641SOL    HW226823   0.002   4.056   3.237
 8642SOL     OW26824   4.868   0.350   2.075
 8642SOL    HW126825   4.772   0.342   2.103
 8642SOL    HW226826   4.925   0.297   2.138
 8643SOL     OW26827   4.605   6.923   6.894
 8643SOL    HW126828   4.674   6.995   6.901
 8643SOL    HW226829   4.568   6.903   6.985
 8644SOL     OW26830   5.844   2.212   5.216
 8644SOL    HW126831   5.756   2.171   5.240
 8644SOL    HW226832   5.904   2.212   5.296
 8645SOL     OW26833   6.191   4.448   1.118
 8645SOL    HW126834   6.170   4.523   1.181
 8645SOL    HW226835   6.285   4.458   1.085
 8646SOL     OW26836   4.485   1.012   0.837
 8646SOL    HW126837   4.417   1.014   0.764
 8646SOL    HW226838   4.476   0.927   0.889
 8647SOL     OW26839   3.437   5.047   0.137
 8647SOL    HW126840   3.502   5.039   0.062
 8647SOL    HW226841   3.473   5.110   0.206
 8648SOL     OW26842   6.051   0.685   4.112
 8648SOL    HW126843   6.037   0.590   4.082
 8648SOL    HW226844   5.974   0.741   4.081
 8649SOL     OW26845   6.380   4.335   5.394
 8649SOL    HW126846   6.332   4.248   5.402
 8649SOL    HW226847   6.365   4.374   5.303
 8650SOL     OW26848   1.709   4.991   4.225
 8650SOL    HW126849   1.709   4.891   4.217
 8650SOL    HW226850   1.740   5.031   4.139
 8651SOL     OW26851   3.795   1.010   0.069
 8651SOL    HW126852   3.866   1.033   0.136
 8651SOL    HW226853   3.748   1.093   0.042
 8652SOL     OW26854   1.693   4.071   3.803
 8652SOL    HW126855   1.624   4.110   3.743
 8652SOL    HW226856   1.717   4.137   3.874
 8653SOL     OW26857   0.161   2.048   6.219
 8653SOL    HW126858   0.142   2.145   6.206
 8653SOL    HW226859   0.111   2.015   6.299
 8654SOL     OW26860   0.183   6.199   2.723
 8654SOL    HW126861   0.090   6.166   2.705
 8654SOL    HW226862   0.245   6.121   2.726
 8655SOL     OW26863   5.818   6.761   3.949
 8655SOL    HW126864   5.802   6.843   4.003
 8655SOL    HW226865   5.733   6.708   3.943
 8656SOL     OW26866   6.193   0.942   1.267
 8656SOL    HW126867   6.219   0.885   1.190
 8656SOL    HW226868   6.229   1.035   1.254
 8657SOL     OW26869   4.630   4.874   5.986
 8657SOL    HW126870   4.651   4.834   6.075
 8657SOL    HW226871   4.623   4.974   5.995
 8658SOL     OW26872   5.287   4.827   0.151
 8658SOL    HW126873   5.329   4.739   0.130
 8658SOL    HW226874   5.242   4.823   0.241
 8659SOL     OW26875   4.545   0.664   3.391
 8659SOL    HW126876   4.511   0.750   3.430
 8659SOL    HW226877   4.595   0.614   3.462
 8660SOL     OW26878   5.943   3.997   6.798
 8660SOL    HW126879   5.940   4.026   6.702
 8660SOL    HW226880   6.017   3.931   6.810
 8661SOL     OW26881   5.567   3.740   1.711
 8661SOL    HW126882   5.509   3.659   1.717
 8661SOL    HW226883   5.663   3.713   1.723
 8662SOL     OW26884   5.681   6.478   1.389
 8662SOL    HW126885   5.708   6.400   1.332
 8662SOL    HW226886   5.582   6.476   1.402
 8663SOL     OW26887   2.523   5.345   0.614
 8663SOL    HW126888   2.532   5.432   0.565
 8663SOL    HW226889   2.614   5.312   0.639
 8664SOL     OW26890   4.423   5.329   6.945
 8664SOL    HW126891   4.346   5.293   6.891
 8664SOL    HW226892   4.397   5.334   0.015
 8665SOL     OW26893   4.811   5.839   5.768
 8665SOL    HW126894   4.892   5.893   5.791
 8665SOL    HW226895   4.798   5.840   5.668
 8666SOL     OW26896   4.777   1.591   4.863
 8666SOL    HW126897   4.851   1.554   4.807
 8666SOL    HW226898   4.689   1.573   4.820
 8667SOL     OW26899   5.052   1.816   3.274
 8667SOL    HW126900   5.044   1.716   3.281
 8667SOL    HW226901   5.145   1.844   3.300
 8668SOL     OW26902   5.302   2.276   4.331
 8668SOL    HW126903   5.308   2.190   4.381
 8668SOL    HW226904   5.207   2.308   4.329
 8669SOL     OW26905   3.559   0.267   6.288
 8669SOL    HW126906   3.625   0.291   6.359
 8669SOL    HW226907   3.606   0.222   6.212
 8670SOL     OW26908   3.575   5.524   4.547
 8670SOL    HW126909   3.512   5.581   4.600
 8670SOL    HW226910   3.654   5.500   4.604
 8671SOL     OW26911   5.652   0.213   3.963
 8671SOL    HW126912   5.682   0.302   3.997
 8671SOL    HW226913   5.703   0.191   3.880
 8672SOL     OW26914   2.532   5.540   4.521
 8672SOL    HW126915   2.555   5.509   4.613
 8672SOL    HW226916   2.581   5.624   4.501
 8673SOL     OW26917   0.551   1.750   0.184
 8673SOL    HW126918   0.576   1.697   0.103
 8673SOL    HW226919   0.634   1.781   0.231
 8674SOL     OW26920   7.005   6.480   2.397
 8674SOL    HW126921   0.042   6.469   2.321
 8674SOL    HW226922   6.924   6.422   2.382
 8675SOL     OW26923   3.157   2.123   4.675
 8675SOL    HW126924   3.134   2.165   4.763
 8675SOL    HW226925   3.077   2.074   4.639
 8676SOL     OW26926   2.946   0.982   2.920
 8676SOL    HW126927   2.885   1.037   2.864
 8676SOL    HW226928   2.908   0.972   3.012
 8677SOL     OW26929   2.400   5.794   6.243
 8677SOL    HW126930   2.347   5.834   6.317
 8677SOL    HW226931   2.464   5.726   6.280
 8678SOL     OW26932   0.642   0.506   6.906
 8678SOL    HW126933   0.655   0.544   6.814
 8678SOL    HW226934   0.545   0.483   6.919
 8679SOL     OW26935   5.568   1.857   4.595
 8679SOL    HW126936   5.601   1.770   4.633
 8679SOL    HW226937   5.495   1.893   4.653
 8680SOL     OW26938   1.387   3.925   1.257
 8680SOL    HW126939   1.448   3.874   1.196
 8680SOL    HW226940   1.441   3.991   1.310
 8681SOL     OW26941   4.850   4.687   6.986
 8681SOL    HW126942   4.934   4.642   7.018
 8681SOL    HW226943   4.826   4.761   0.023
 8682SOL     OW26944   3.370   6.716   3.198
 8682SOL    HW126945   3.390   6.812   3.221
 8682SOL    HW226946   3.456   6.666   3.189
 8683SOL     OW26947   1.370   2.945   2.220
 8683SOL    HW126948   1.375   3.008   2.297
 8683SOL    HW226949   1.445   2.962   2.157
 8684SOL     OW26950   7.007   2.802   4.780
 8684SOL    HW126951   0.022   2.760   4.862
 8684SOL    HW226952   0.045   2.870   4.743
 8685SOL     OW26953   1.551   2.459   5.610
 8685SOL    HW126954   1.513   2.530   5.550
 8685SOL    HW226955   1.504   2.373   5.593
 8686SOL     OW26956   6.434   2.151   2.302
 8686SOL    HW126957   6.496   2.200   2.242
 8686SOL    HW226958   6.384   2.081   2.250
 8687SOL     OW26959   3.543   6.427   2.937
 8687SOL    HW126960   3.631   6.474   2.944
 8687SOL    HW226961   3.525   6.404   2.841
 8688SOL     OW26962   2.626   6.545   0.582
 8688SOL    HW126963   2.666   6.464   0.539
 8688SOL    HW226964   2.697   6.614   0.596
 8689SOL     OW26965   3.999   5.679   0.049
 8689SOL    HW126966   3.917   5.622   0.051
 8689SOL    HW226967   4.013   5.721   0.138
 8690SOL     OW26968   1.151   2.338   4.253
 8690SOL    HW126969   1.158   2.363   4.349
 8690SOL    HW226970   1.183   2.415   4.197
 8691SOL     OW26971   4.400   2.702   6.491
 8691SOL    HW126972   4.387   2.780   6.430
 8691SOL    HW226973   4.325   2.699   6.557
 8692SOL     OW26974   3.201   2.152   2.997
 8692SOL    HW126975   3.274   2.161   3.065
 8692SOL    HW226976   3.124   2.209   3.022
 8693SOL     OW26977   5.520   2.165   0.966
 8693SOL    HW126978   5.423   2.186   0.959
 8693SOL    HW226979   5.566   2.192   0.881
 8694SOL     OW26980   4.808   0.601   6.224
 8694SOL    HW126981   4.887   0.550   6.258
 8694SOL    HW226982   4.829   0.640   6.135
 8695SOL     OW26983   4.546   2.756   5.957
 8695SOL    HW126984   4.457   2.753   6.003
 8695SOL    HW226985   4.583   2.848   5.962
 8696SOL     OW26986   3.113   5.718   1.068
 8696SOL    HW126987   3.053   5.647   1.104
 8696SOL    HW226988   3.208   5.699   1.095
 8697SOL     OW26989   6.749   3.533   6.984
 8697SOL    HW126990   6.744   3.435   7.001
 8697SOL    HW226991   6.747   3.550   6.886
 8698SOL     OW26992   5.249   5.754   3.978
 8698SOL    HW126993   5.259   5.792   4.070
 8698SOL    HW226994   5.252   5.828   3.910
 8699SOL     OW26995   1.073   2.426   5.543
 8699SOL    HW126996   1.061   2.500   5.609
 8699SOL    HW226997   1.008   2.437   5.468
 8700SOL     OW26998   2.280   0.598   4.819
 8700SOL    HW126999   2.222   0.539   4.763
 8700SOL    HW227000   2.367   0.614   4.772
 8701SOL     OW27001   0.608   0.845   5.950
 8701SOL    HW127002   0.660   0.916   5.998
 8701SOL    HW227003   0.562   0.786   6.017
 8702SOL     OW27004   5.423   4.480   6.806
 8702SOL    HW127005   5.365   4.411   6.850
 8702SOL    HW227006   5.501   4.501   6.865
 8703SOL     OW27007   3.308   6.004   1.649
 8703SOL    HW127008   3.313   5.913   1.691
 8703SOL    HW227009   3.255   5.998   1.564
 8704SOL     OW27010   6.476   4.064   2.391
 8704SOL    HW127011   6.553   4.000   2.392
 8704SOL    HW227012   6.511   4.158   2.382
 8705SOL     OW27013   4.979   0.962   6.512
 8705SOL    HW127014   4.976   0.960   6.412
 8705SOL    HW227015   4.961   0.870   6.548
 8706SOL     OW27016   5.110   2.251   6.182
 8706SOL    HW127017   5.138   2.160   6.151
 8706SOL    HW227018   5.032   2.243   6.244
 8707SOL     OW27019   4.186   2.989   0.311
 8707SOL    HW127020   4.242   3.060   0.268
 8707SOL    HW227021   4.164   3.017   0.405
 8708SOL     OW27022   3.579   0.714   2.286
 8708SOL    HW127023   3.593   0.641   2.353
 8708SOL    HW227024   3.487   0.753   2.298
 8709SOL     OW27025   6.691   4.831   6.905
 8709SOL    HW127026   6.656   4.770   6.977
 8709SOL    HW227027   6.759   4.782   6.850
 8710SOL     OW27028   1.484   2.606   3.226
 8710SOL    HW127029   1.436   2.662   3.159
 8710SOL    HW227030   1.574   2.581   3.191
 8711SOL     OW27031   0.251   6.765   2.300
 8711SOL    HW127032   0.208   6.774   2.390
 8711SOL    HW227033   0.217   6.838   2.240
 8712SOL     OW27034   3.668   2.061   3.488
 8712SOL    HW127035   3.646   1.998   3.413
 8712SOL    HW227036   3.604   2.137   3.488
 8713SOL     OW27037   6.994   4.157   3.582
 8713SOL    HW127038   6.926   4.085   3.580
 8713SOL    HW227039   0.009   4.167   3.491
 8714SOL     OW27040   0.577   0.796   5.692
 8714SOL    HW127041   0.585   0.835   5.784
 8714SOL    HW227042   0.545   0.866   5.629
 8715SOL     OW27043   5.980   0.728   1.223
 8715SOL    HW127044   5.889   0.768   1.217
 8715SOL    HW227045   6.035   0.778   1.290
 8716SOL     OW27046   1.053   1.950   0.997
 8716SOL    HW127047   1.067   1.959   0.898
 8716SOL    HW227048   0.986   1.879   1.015
 8717SOL     OW27049   4.034   3.598   2.393
 8717SOL    HW127050   3.967   3.669   2.372
 8717SOL    HW227051   4.064   3.606   2.488
 8718SOL     OW27052   0.062   2.331   5.136
 8718SOL    HW127053   0.089   2.428   5.133
 8718SOL    HW227054   0.092   2.286   5.052
 8719SOL     OW27055   1.359   0.917   5.139
 8719SOL    HW127056   1.273   0.957   5.105
 8719SOL    HW227057   1.411   0.882   5.061
 8720SOL     OW27058   6.864   4.908   5.253
 8720SOL    HW127059   6.794   4.866   5.311
 8720SOL    HW227060   6.955   4.882   5.287
 8721SOL     OW27061   6.069   2.565   4.197
 8721SOL    HW127062   6.105   2.613   4.117
 8721SOL    HW227063   6.129   2.488   4.220
 8722SOL     OW27064   3.749   0.842   0.699
 8722SOL    HW127065   3.772   0.938   0.685
 8722SOL    HW227066   3.720   0.801   0.612
 8723SOL     OW27067   5.850   5.897   0.989
 8723SOL    HW127068   5.878   5.833   0.919
 8723SOL    HW227069   5.905   5.981   0.982
 8724SOL     OW27070   5.966   6.732   5.184
 8724SOL    HW127071   6.011   6.682   5.110
 8724SOL    HW227072   6.030   6.746   5.259
 8725SOL     OW27073   1.569   1.111   6.902
 8725SOL    HW127074   1.617   1.043   6.957
 8725SOL    HW227075   1.587   1.095   6.805
 8726SOL     OW27076   5.984   6.940   1.289
 8726SOL    HW127077   5.885   6.945   1.285
 8726SOL    HW227078   6.021   6.926   1.197
 8727SOL     OW27079   6.146   6.303   1.911
 8727SOL    HW127080   6.155   6.289   1.812
 8727SOL    HW227081   6.220   6.254   1.958
 8728SOL     OW27082   3.480   0.215   5.204
 8728SOL    HW127083   3.503   0.245   5.111
 8728SOL    HW227084   3.561   0.221   5.262
 8729SOL     OW27085   4.897   5.419   3.002
 8729SOL    HW127086   4.936   5.510   2.988
 8729SOL    HW227087   4.831   5.422   3.077
 8730SOL     OW27088   0.108   5.188   2.773
 8730SOL    HW127089   0.141   5.200   2.867
 8730SOL    HW227090   0.008   5.182   2.773
 8731SOL     OW27091   1.850   1.944   3.461
 8731SOL    HW127092   1.841   1.846   3.439
 8731SOL    HW227093   1.804   1.963   3.548
 8732SOL     OW27094   5.154   4.579   1.822
 8732SOL    HW127095   5.171   4.522   1.741
 8732SOL    HW227096   5.056   4.595   1.831
 8733SOL     OW27097   1.175   5.812   2.946
 8733SOL    HW127098   1.091   5.828   2.895
 8733SOL    HW227099   1.244   5.773   2.886
 8734SOL     OW27100   1.129   4.931   1.996
 8734SOL    HW127101   1.073   4.994   2.050
 8734SOL    HW227102   1.071   4.861   1.955
 8735SOL     OW27103   0.629   1.842   6.817
 8735SOL    HW127104   0.687   1.824   6.738
 8735SOL    HW227105   0.660   1.926   6.863
 8736SOL     OW27106   0.560   6.508   0.250
 8736SOL    HW127107   0.470   6.552   0.249
 8736SOL    HW227108   0.574   6.460   0.163
 8737SOL     OW27109   4.423   6.618   6.024
 8737SOL    HW127110   4.337   6.568   6.015
 8737SOL    HW227111   4.454   6.613   6.119
 8738SOL     OW27112   1.181   3.982   4.956
 8738SOL    HW127113   1.107   4.011   5.016
 8738SOL    HW227114   1.148   3.913   4.892
 8739SOL     OW27115   6.889   4.143   6.418
 8739SOL    HW127116   6.986   4.169   6.415
 8739SOL    HW227117   6.859   4.114   6.327
 8740SOL     OW27118   4.053   0.590   5.674
 8740SOL    HW127119   4.095   0.533   5.745
 8740SOL    HW227120   4.125   0.641   5.627
 8741SOL     OW27121   2.089   1.852   1.701
 8741SOL    HW127122   2.101   1.887   1.794
 8741SOL    HW227123   2.074   1.928   1.638
 8742SOL     OW27124   5.011   6.078   1.648
 8742SOL    HW127125   4.943   6.151   1.641
 8742SOL    HW227126   5.039   6.067   1.743
 8743SOL     OW27127   1.988   5.966   2.455
 8743SOL    HW127128   1.946   6.057   2.450
 8743SOL    HW227129   2.014   5.936   2.363
 8744SOL     OW27130   4.049   2.533   6.039
 8744SOL    HW127131   4.132   2.485   6.009
 8744SOL    HW227132   4.074   2.623   6.075
 8745SOL     OW27133   6.075   1.827   5.724
 8745SOL    HW127134   6.000   1.888   5.698
 8745SOL    HW227135   6.076   1.748   5.662
 8746SOL     OW27136   4.112   4.249   5.625
 8746SOL    HW127137   4.208   4.275   5.639
 8746SOL    HW227138   4.056   4.331   5.614
 8747SOL     OW27139   0.751   2.651   3.643
 8747SOL    HW127140   0.709   2.674   3.555
 8747SOL    HW227141   0.834   2.598   3.628
 8748SOL     OW27142   0.697   0.631   0.386
 8748SOL    HW127143   0.723   0.589   0.473
 8748SOL    HW227144   0.752   0.592   0.312
 8749SOL     OW27145   2.998   0.505   4.471
 8749SOL    HW127146   2.971   0.434   4.406
 8749SOL    HW227147   2.946   0.588   4.454
 8750SOL     OW27148   2.380   2.437   5.438
 8750SOL    HW127149   2.458   2.499   5.429
 8750SOL    HW227150   2.295   2.490   5.439
 8751SOL     OW27151   7.014   0.253   1.880
 8751SOL    HW127152   7.014   0.353   1.888
 8751SOL    HW227153   7.014   0.228   1.783
 8752SOL     OW27154   2.650   4.349   0.079
 8752SOL    HW127155   2.634   4.325   7.010
 8752SOL    HW227156   2.607   4.281   0.139
 8753SOL     OW27157   5.064   1.356   4.502
 8753SOL    HW127158   5.106   1.447   4.507
 8753SOL    HW227159   4.986   1.358   4.440
 8754SOL     OW27160   0.745   1.902   5.733
 8754SOL    HW127161   0.792   1.919   5.820
 8754SOL    HW227162   0.647   1.912   5.745
 8755SOL     OW27163   2.690   1.523   6.670
 8755SOL    HW127164   2.689   1.609   6.618
 8755SOL    HW227165   2.752   1.458   6.624
 8756SOL     OW27166   2.205   3.045   3.551
 8756SOL    HW127167   2.177   3.018   3.643
 8756SOL    HW227168   2.298   3.081   3.554
 8757SOL     OW27169   5.823   6.670   5.697
 8757SOL    HW127170   5.777   6.586   5.726
 8757SOL    HW227171   5.757   6.733   5.659
 8758SOL     OW27172   5.347   6.201   2.055
 8758SOL    HW127173   5.287   6.252   1.993
 8758SOL    HW227174   5.329   6.103   2.046
 8759SOL     OW27175   4.566   1.297   6.179
 8759SOL    HW127176   4.561   1.205   6.141
 8759SOL    HW227177   4.493   1.309   6.247
 8760SOL     OW27178   1.963   1.821   4.192
 8760SOL    HW127179   1.927   1.731   4.167
 8760SOL    HW227180   1.901   1.892   4.159
 8761SOL     OW27181   5.104   0.657   0.802
 8761SOL    HW127182   5.084   0.752   0.823
 8761SOL    HW227183   5.086   0.600   0.882
 8762SOL     OW27184   1.241   3.497   2.809
 8762SOL    HW127185   1.326   3.550   2.810
 8762SOL    HW227186   1.190   3.515   2.893
 8763SOL     OW27187   6.547   5.986   5.002
 8763SOL    HW127188   6.625   5.930   5.031
 8763SOL    HW227189   6.579   6.079   4.982
 8764SOL     OW27190   5.346   2.136   3.831
 8764SOL    HW127191   5.316   2.076   3.906
 8764SOL    HW227192   5.331   2.231   3.857
 8765SOL     OW27193   5.421   6.461   4.624
 8765SOL    HW127194   5.392   6.475   4.530
 8765SOL    HW227195   5.486   6.533   4.650
 8766SOL     OW27196   3.037   4.881   3.612
 8766SOL    HW127197   3.002   4.974   3.610
 8766SOL    HW227198   2.960   4.817   3.611
 8767SOL     OW27199   4.492   0.645   2.612
 8767SOL    HW127200   4.457   0.726   2.658
 8767SOL    HW227201   4.560   0.600   2.670
 8768SOL     OW27202   1.994   3.021   0.396
 8768SOL    HW127203   1.911   3.076   0.387
 8768SOL    HW227204   1.995   2.977   0.486
 8769SOL     OW27205   0.307   0.209   4.956
 8769SOL    HW127206   0.242   0.256   4.897
 8769SOL    HW227207   0.307   0.253   5.046
 8770SOL     OW27208   4.761   4.252   2.025
 8770SOL    HW127209   4.666   4.276   2.005
 8770SOL    HW227210   4.764   4.185   2.099
 8771SOL     OW27211   1.750   1.714   6.501
 8771SOL    HW127212   1.717   1.646   6.567
 8771SOL    HW227213   1.713   1.804   6.524
 8772SOL     OW27214   6.659   0.840   6.523
 8772SOL    HW127215   6.705   0.929   6.527
 8772SOL    HW227216   6.594   0.834   6.599
 8773SOL     OW27217   3.916   2.106   3.379
 8773SOL    HW127218   3.831   2.094   3.431
 8773SOL    HW227219   3.980   2.034   3.402
 8774SOL     OW27220   1.198   1.772   0.501
 8774SOL    HW127221   1.292   1.741   0.516
 8774SOL    HW227222   1.198   1.871   0.484
 8775SOL     OW27223   5.856   7.000   3.555
 8775SOL    HW127224   5.870   6.901   3.556
 8775SOL    HW227225   5.920   0.015   3.489
 8776SOL     OW27226   3.606   3.364   5.007
 8776SOL    HW127227   3.694   3.318   5.018
 8776SOL    HW227228   3.617   3.462   5.025
 8777SOL     OW27229   6.771   4.928   1.432
 8777SOL    HW127230   6.841   4.968   1.373
 8777SOL    HW227231   6.752   4.991   1.507
 8778SOL     OW27232   6.958   2.082   3.464
 8778SOL    HW127233   6.928   2.028   3.386
 8778SOL    HW227234   0.030   2.101   3.456
 8779SOL     OW27235   1.720   4.582   2.367
 8779SOL    HW127236   1.655   4.564   2.294
 8779SOL    HW227237   1.683   4.655   2.426
 8780SOL     OW27238   1.594   6.000   4.037
 8780SOL    HW127239   1.526   5.940   3.995
 8780SOL    HW227240   1.549   6.082   4.071
 8781SOL     OW27241   0.169   1.027   3.276
 8781SOL    HW127242   0.172   0.929   3.257
 8781SOL    HW227243   0.218   1.046   3.361
 8782SOL     OW27244   5.637   0.872   1.989
 8782SOL    HW127245   5.623   0.803   2.060
 8782SOL    HW227246   5.555   0.929   1.982
 8783SOL     OW27247   6.153   3.894   3.589
 8783SOL    HW127248   6.072   3.904   3.532
 8783SOL    HW227249   6.200   3.981   3.596
 8784SOL     OW27250   5.566   4.970   5.226
 8784SOL    HW127251   5.474   5.008   5.217
 8784SOL    HW227252   5.626   5.037   5.270
 8785SOL     OW27253   5.420   4.062   6.619
 8785SOL    HW127254   5.436   4.160   6.605
 8785SOL    HW227255   5.368   4.026   6.541
 8786SOL     OW27256   1.555   6.386   6.907
 8786SOL    HW127257   1.621   6.406   6.835
 8786SOL    HW227258   1.603   6.355   6.989
 8787SOL     OW27259   1.251   3.405   2.549
 8787SOL    HW127260   1.343   3.383   2.518
 8787SOL    HW227261   1.256   3.450   2.638
 8788SOL     OW27262   6.744   1.819   5.050
 8788SOL    HW127263   6.771   1.846   4.958
 8788SOL    HW227264   6.826   1.799   5.104
 8789SOL     OW27265   6.750   0.585   6.569
 8789SOL    HW127266   6.711   0.676   6.559
 8789SOL    HW227267   6.739   0.534   6.484
 8790SOL     OW27268   6.654   1.692   6.886
 8790SOL    HW127269   6.732   1.742   6.925
 8790SOL    HW227270   6.667   1.594   6.900
 8791SOL     OW27271   5.423   6.876   5.969
 8791SOL    HW127272   5.410   6.885   6.068
 8791SOL    HW227273   5.514   6.837   5.951
 8792SOL     OW27274   3.994   0.037   3.412
 8792SOL    HW127275   4.090   0.019   3.431
 8792SOL    HW227276   3.949   6.979   3.381
 8793SOL     OW27277   2.487   5.734   4.214
 8793SOL    HW127278   2.446   5.648   4.184
 8793SOL    HW227279   2.536   5.718   4.300
 8794SOL     OW27280   3.019   6.520   3.005
 8794SOL    HW127281   2.993   6.583   2.931
 8794SOL    HW227282   3.036   6.429   2.967
 8795SOL     OW27283   1.473   6.665   5.376
 8795SOL    HW127284   1.503   6.572   5.354
 8795SOL    HW227285   1.493   6.725   5.298
 8796SOL     OW27286   4.526   1.501   5.713
 8796SOL    HW127287   4.471   1.485   5.794
 8796SOL    HW227288   4.468   1.500   5.632
 8797SOL     OW27289   1.774   6.637   6.128
 8797SOL    HW127290   1.869   6.615   6.148
 8797SOL    HW227291   1.718   6.555   6.138
 8798SOL     OW27292   5.520   3.978   5.284
 8798SOL    HW127293   5.468   4.015   5.361
 8798SOL    HW227294   5.475   4.003   5.198
 8799SOL     OW27295   2.368   4.205   3.709
 8799SOL    HW127296   2.415   4.288   3.678
 8799SOL    HW227297   2.334   4.155   3.629
 8800SOL     OW27298   4.274   3.715   5.577
 8800SOL    HW127299   4.314   3.807   5.576
 8800SOL    HW227300   4.346   3.647   5.567
 8801SOL     OW27301   2.273   1.191   4.173
 8801SOL    HW127302   2.372   1.194   4.182
 8801SOL    HW227303   2.249   1.159   4.082
 8802SOL     OW27304   1.474   6.686   2.241
 8802SOL    HW127305   1.385   6.720   2.210
 8802SOL    HW227306   1.535   6.677   2.162
 8803SOL     OW27307   2.004   5.378   6.719
 8803SOL    HW127308   2.090   5.366   6.668
 8803SOL    HW227309   1.938   5.310   6.689
 8804SOL     OW27310   3.841   0.480   1.887
 8804SOL    HW127311   3.927   0.518   1.852
 8804SOL    HW227312   3.777   0.554   1.904
 8805SOL     OW27313   1.678   0.671   3.545
 8805SOL    HW127314   1.646   0.640   3.635
 8805SOL    HW227315   1.747   0.607   3.510
 8806SOL     OW27316   1.755   5.328   0.739
 8806SOL    HW127317   1.725   5.387   0.814
 8806SOL    HW227318   1.709   5.356   0.655
 8807SOL     OW27319   6.042   5.741   5.753
 8807SOL    HW127320   6.059   5.652   5.797
 8807SOL    HW227321   5.966   5.732   5.689
 8808SOL     OW27322   5.807   1.281   0.880
 8808SOL    HW127323   5.713   1.300   0.851
 8808SOL    HW227324   5.864   1.360   0.859
 8809SOL     OW27325   5.538   3.445   1.405
 8809SOL    HW127326   5.542   3.348   1.430
 8809SOL    HW227327   5.609   3.465   1.337
 8810SOL     OW27328   5.571   1.746   4.178
 8810SOL    HW127329   5.549   1.749   4.080
 8810SOL    HW227330   5.500   1.795   4.229
 8811SOL     OW27331   2.421   1.787   4.251
 8811SOL    HW127332   2.514   1.760   4.226
 8811SOL    HW227333   2.374   1.710   4.293
 8812SOL     OW27334   1.006   0.871   0.502
 8812SOL    HW127335   0.913   0.876   0.463
 8812SOL    HW227336   1.049   0.786   0.472
 8813SOL     OW27337   0.873   5.697   1.583
 8813SOL    HW127338   0.945   5.629   1.572
 8813SOL    HW227339   0.785   5.650   1.596
 8814SOL     OW27340   0.356   0.557   6.715
 8814SOL    HW127341   0.452   0.559   6.689
 8814SOL    HW227342   0.330   0.645   6.755
 8815SOL     OW27343   6.872   5.675   1.522
 8815SOL    HW127344   6.795   5.670   1.458
 8815SOL    HW227345   6.956   5.697   1.473
 8816SOL     OW27346   1.413   6.434   1.141
 8816SOL    HW127347   1.408   6.397   1.048
 8816SOL    HW227348   1.458   6.367   1.201
 8817SOL     OW27349   0.955   6.356   5.210
 8817SOL    HW127350   0.997   6.445   5.230
 8817SOL    HW227351   1.003   6.284   5.261
 8818SOL     OW27352   0.272   3.917   3.493
 8818SOL    HW127353   0.346   3.976   3.524
 8818SOL    HW227354   0.209   3.900   3.569
 8819SOL     OW27355   4.157   6.126   4.500
 8819SOL    HW127356   4.177   6.156   4.406
 8819SOL    HW227357   4.190   6.032   4.512
 8820SOL     OW27358   1.440   2.817   4.693
 8820SOL    HW127359   1.460   2.909   4.658
 8820SOL    HW227360   1.515   2.786   4.751
 8821SOL     OW27361   1.849   0.070   6.134
 8821SOL    HW127362   1.806   0.124   6.207
 8821SOL    HW227363   1.872   0.131   6.058
 8822SOL     OW27364   0.821   0.416   2.734
 8822SOL    HW127365   0.840   0.385   2.828
 8822SOL    HW227366   0.875   0.362   2.670
 8823SOL     OW27367   2.182   0.417   0.953
 8823SOL    HW127368   2.102   0.447   1.005
 8823SOL    HW227369   2.185   0.318   0.950
 8824SOL     OW27370   2.449   3.977   0.892
 8824SOL    HW127371   2.480   3.995   0.798
 8824SOL    HW227372   2.451   4.062   0.944
 8825SOL     OW27373   1.799   1.422   2.123
 8825SOL    HW127374   1.898   1.427   2.128
 8825SOL    HW227375   1.770   1.328   2.107
 8826SOL     OW27376   6.155   2.010   0.071
 8826SOL    HW127377   6.066   2.030   0.112
 8826SOL    HW227378   6.214   1.966   0.139
 8827SOL     OW27379   2.665   1.111   3.554
 8827SOL    HW127380   2.716   1.188   3.594
 8827SOL    HW227381   2.620   1.141   3.470
 8828SOL     OW27382   3.320   5.626   3.871
 8828SOL    HW127383   3.291   5.642   3.777
 8828SOL    HW227384   3.278   5.695   3.931
 8829SOL     OW27385   0.323   3.155   7.019
 8829SOL    HW127386   0.368   3.085   0.048
 8829SOL    HW227387   0.388   3.193   6.953
 8830SOL     OW27388   0.319   1.280   0.107
 8830SOL    HW127389   0.273   1.345   0.167
 8830SOL    HW227390   0.370   1.214   0.162
 8831SOL     OW27391   5.800   0.919   3.447
 8831SOL    HW127392   5.775   0.890   3.539
 8831SOL    HW227393   5.744   0.871   3.380
 8832SOL     OW27394   0.714   6.860   2.170
 8832SOL    HW127395   0.702   6.810   2.084
 8832SOL    HW227396   0.643   6.832   2.235
 8833SOL     OW27397   1.725   5.901   4.651
 8833SOL    HW127398   1.768   5.872   4.736
 8833SOL    HW227399   1.739   5.830   4.581
 8834SOL     OW27400   5.931   3.254   4.674
 8834SOL    HW127401   5.896   3.317   4.743
 8834SOL    HW227402   5.938   3.162   4.713
 8835SOL     OW27403   6.645   0.482   5.661
 8835SOL    HW127404   6.735   0.483   5.618
 8835SOL    HW227405   6.656   0.475   5.760
 8836SOL     OW27406   4.159   0.339   0.765
 8836SOL    HW127407   4.179   0.285   0.683
 8836SOL    HW227408   4.071   0.385   0.753
 8837SOL     OW27409   0.859   0.743   1.885
 8837SOL    HW127410   0.805   0.819   1.847
 8837SOL    HW227411   0.846   0.740   1.984
 8838SOL     OW27412   2.817   5.130   3.642
 8838SOL    HW127413   2.793   5.076   3.562
 8838SOL    HW227414   2.739   5.187   3.669
 8839SOL     OW27415   6.307   6.150   3.250
 8839SOL    HW127416   6.250   6.186   3.176
 8839SOL    HW227417   6.261   6.165   3.338
 8840SOL     OW27418   5.589   2.016   2.084
 8840SOL    HW127419   5.648   2.037   2.006
 8840SOL    HW227420   5.624   1.936   2.133
 8841SOL     OW27421   1.364   1.384   5.240
 8841SOL    HW127422   1.311   1.469   5.232
 8841SOL    HW227423   1.306   1.314   5.282
 8842SOL     OW27424   2.904   3.171   1.156
 8842SOL    HW127425   2.811   3.161   1.192
 8842SOL    HW227426   2.970   3.151   1.228
 8843SOL     OW27427   1.199   3.108   5.155
 8843SOL    HW127428   1.274   3.173   5.162
 8843SOL    HW227429   1.120   3.152   5.111
 8844SOL     OW27430   5.885   1.208   6.045
 8844SOL    HW127431   5.979   1.225   6.077
 8844SOL    HW227432   5.827   1.182   6.121
 8845SOL     OW27433   4.155   4.457   6.954
 8845SOL    HW127434   4.072   4.463   6.898
 8845SOL    HW227435   4.204   4.373   6.933
 8846SOL     OW27436   2.008   5.258   3.663
 8846SOL    HW127437   2.079   5.239   3.595
 8846SOL    HW227438   2.008   5.356   3.684
 8847SOL     OW27439   2.708   0.543   2.764
 8847SOL    HW127440   2.754   0.597   2.693
 8847SOL    HW227441   2.616   0.580   2.778
 8848SOL     OW27442   2.198   1.122   1.627
 8848SOL    HW127443   2.214   1.168   1.540
 8848SOL    HW227444   2.188   1.191   1.700
 8849SOL     OW27445   1.685   5.902   2.404
 8849SOL    HW127446   1.700   6.000   2.388
 8849SOL    HW227447   1.597   5.874   2.365
 8850SOL     OW27448   2.646   1.947   6.760
 8850SOL    HW127449   2.621   2.006   6.683
 8850SOL    HW227450   2.563   1.917   6.808
 8851SOL     OW27451   1.689   4.893   2.517
 8851SOL    HW127452   1.645   4.856   2.599
 8851SOL    HW227453   1.637   4.973   2.486
 8852SOL     OW27454   1.462   1.951   5.306
 8852SOL    HW127455   1.521   1.961   5.386
 8852SOL    HW227456   1.516   1.916   5.229
 8853SOL     OW27457   2.847   0.401   1.437
 8853SOL    HW127458   2.849   0.456   1.520
 8853SOL    HW227459   2.839   0.461   1.357
 8854SOL     OW27460   1.929   2.570   5.110
 8854SOL    HW127461   2.012   2.568   5.053
 8854SOL    HW227462   1.858   2.515   5.067
 8855SOL     OW27463   6.348   5.275   1.452
 8855SOL    HW127464   6.269   5.307   1.400
 8855SOL    HW227465   6.318   5.206   1.519
 8856SOL     OW27466   6.765   5.661   5.996
 8856SOL    HW127467   6.673   5.696   5.980
 8856SOL    HW227468   6.813   5.721   6.060
 8857SOL     OW27469   6.441   1.563   5.678
 8857SOL    HW127470   6.494   1.487   5.641
 8857SOL    HW227471   6.414   1.542   5.772
 8858SOL     OW27472   7.002   5.095   5.572
 8858SOL    HW127473   6.941   5.120   5.497
 8858SOL    HW227474   0.038   5.023   5.542
 8859SOL     OW27475   1.055   0.798   3.373
 8859SOL    HW127476   0.976   0.840   3.418
 8859SOL    HW227477   1.030   0.707   3.340
 8860SOL     OW27478   6.809   2.408   1.664
 8860SOL    HW127479   6.886   2.444   1.715
 8860SOL    HW227480   6.835   2.393   1.569
 8861SOL     OW27481   4.415   1.421   1.308
 8861SOL    HW127482   4.421   1.378   1.218
 8861SOL    HW227483   4.321   1.450   1.326
 8862SOL     OW27484   4.497   5.819   4.972
 8862SOL    HW127485   4.579   5.796   4.919
 8862SOL    HW227486   4.432   5.867   4.914
 8863SOL     OW27487   2.527   4.502   3.756
 8863SOL    HW127488   2.439   4.506   3.708
 8863SOL    HW227489   2.569   4.593   3.757
 8864SOL     OW27490   5.531   2.508   6.595
 8864SOL    HW127491   5.486   2.419   6.591
 8864SOL    HW227492   5.494   2.567   6.523
 8865SOL     OW27493   3.043   1.830   6.262
 8865SOL    HW127494   3.128   1.807   6.309
 8865SOL    HW227495   3.001   1.747   6.225
 8866SOL     OW27496   5.846   6.257   2.508
 8866SOL    HW127497   5.933   6.228   2.548
 8866SOL    HW227498   5.843   6.357   2.503
 8867SOL     OW27499   6.215   3.616   2.399
 8867SOL    HW127500   6.163   3.568   2.330
 8867SOL    HW227501   6.154   3.648   2.471
 8868SOL     OW27502   6.987   3.537   2.859
 8868SOL    HW127503   6.943   3.623   2.883
 8868SOL    HW227504   0.003   3.545   2.768
 8869SOL     OW27505   3.618   5.837   4.180
 8869SOL    HW127506   3.669   5.778   4.242
 8869SOL    HW227507   3.520   5.826   4.196
 8870SOL     OW27508   1.741   6.902   1.855
 8870SOL    HW127509   1.826   6.851   1.850
 8870SOL    HW227510   1.761   6.998   1.877
 8871SOL     OW27511   1.797   0.564   3.076
 8871SOL    HW127512   1.762   0.518   3.157
 8871SOL    HW227513   1.894   0.541   3.064
 8872SOL     OW27514   0.754   4.395   6.069
 8872SOL    HW127515   0.798   4.371   5.983
 8872SOL    HW227516   0.818   4.383   6.145
 8873SOL     OW27517   1.726   0.477   1.883
 8873SOL    HW127518   1.773   0.503   1.798
 8873SOL    HW227519   1.632   0.511   1.881
 8874SOL     OW27520   1.780   5.071   0.704
 8874SOL    HW127521   1.781   5.168   0.730
 8874SOL    HW227522   1.853   5.053   0.638
 8875SOL     OW27523   0.140   2.723   3.520
 8875SOL    HW127524   0.137   2.644   3.458
 8875SOL    HW227525   0.232   2.732   3.559
 8876SOL     OW27526   3.025   0.498   5.824
 8876SOL    HW127527   3.115   0.464   5.796
 8876SOL    HW227528   2.982   0.432   5.885
 8877SOL     OW27529   1.076   3.826   1.290
 8877SOL    HW127530   1.169   3.862   1.298
 8877SOL    HW227531   1.051   3.820   1.193
 8878SOL     OW27532   3.919   4.627   0.800
 8878SOL    HW127533   3.971   4.634   0.714
 8878SOL    HW227534   3.923   4.715   0.848
 8879SOL     OW27535   6.461   4.884   2.925
 8879SOL    HW127536   6.521   4.875   3.004
 8879SOL    HW227537   6.469   4.802   2.868
 8880SOL     OW27538   4.657   6.578   3.708
 8880SOL    HW127539   4.672   6.650   3.640
 8880SOL    HW227540   4.595   6.612   3.779
 8881SOL     OW27541   4.094   5.472   3.523
 8881SOL    HW127542   4.046   5.414   3.589
 8881SOL    HW227543   4.129   5.553   3.569
 8882SOL     OW27544   4.122   0.602   0.523
 8882SOL    HW127545   4.139   0.599   0.425
 8882SOL    HW227546   4.059   0.529   0.549
 8883SOL     OW27547   6.957   6.521   5.500
 8883SOL    HW127548   0.023   6.487   5.483
 8883SOL    HW227549   6.892   6.445   5.496
 8884SOL     OW27550   5.753   3.854   4.280
 8884SOL    HW127551   5.670   3.904   4.254
 8884SOL    HW227552   5.821   3.862   4.207
 8885SOL     OW27553   5.711   5.450   0.194
 8885SOL    HW127554   5.733   5.465   0.290
 8885SOL    HW227555   5.788   5.405   0.148
 8886SOL     OW27556   3.116   5.299   6.924
 8886SOL    HW127557   3.054   5.300   7.003
 8886SOL    HW227558   3.095   5.221   6.866
 8887SOL     OW27559   4.358   0.602   0.755
 8887SOL    HW127560   4.264   0.581   0.731
 8887SOL    HW227561   4.394   0.674   0.695
 8888SOL     OW27562   2.090   1.714   3.627
 8888SOL    HW127563   2.160   1.694   3.559
 8888SOL    HW227564   2.134   1.734   3.715
 8889SOL     OW27565   6.780   6.596   6.223
 8889SOL    HW127566   6.729   6.632   6.301
 8889SOL    HW227567   6.721   6.539   6.166
 8890SOL     OW27568   0.152   6.943   0.208
 8890SOL    HW127569   0.209   6.981   0.135
 8890SOL    HW227570   0.088   7.013   0.240
 8891SOL     OW27571   5.743   4.517   6.245
 8891SOL    HW127572   5.819   4.511   6.309
 8891SOL    HW227573   5.778   4.536   6.153
 8892SOL     OW27574   3.315   4.905   3.695
 8892SOL    HW127575   3.315   5.005   3.688
 8892SOL    HW227576   3.221   4.872   3.694
 8893SOL     OW27577   1.336   5.296   4.181
 8893SOL    HW127578   1.321   5.369   4.247
 8893SOL    HW227579   1.369   5.335   4.095
 8894SOL     OW27580   4.530   2.659   0.451
 8894SOL    HW127581   4.530   2.750   0.493
 8894SOL    HW227582   4.580   2.596   0.509
 8895SOL     OW27583   0.893   3.251   0.935
 8895SOL    HW127584   0.983   3.275   0.900
 8895SOL    HW227585   0.900   3.170   0.993
 8896SOL     OW27586   0.460   2.315   4.067
 8896SOL    HW127587   0.548   2.305   4.113
 8896SOL    HW227588   0.396   2.364   4.127
 8897SOL     OW27589   1.656   3.806   3.808
 8897SOL    HW127590   1.578   3.778   3.751
 8897SOL    HW227591   1.670   3.904   3.800
 8898SOL     OW27592   4.863   3.539   2.568
 8898SOL    HW127593   4.948   3.493   2.545
 8898SOL    HW227594   4.789   3.472   2.571
 8899SOL     OW27595   0.295   4.103   6.107
 8899SOL    HW127596   0.202   4.065   6.107
 8899SOL    HW227597   0.312   4.147   6.019
 8900SOL     OW27598   5.658   2.284   3.507
 8900SOL    HW127599   5.712   2.356   3.464
 8900SOL    HW227600   5.706   2.250   3.588
 8901SOL     OW27601   0.578   2.410   3.717
 8901SOL    HW127602   0.631   2.495   3.709
 8901SOL    HW227603   0.604   2.363   3.802
 8902SOL     OW27604   1.156   4.339   0.100
 8902SOL    HW127605   1.204   4.424   0.080
 8902SOL    HW227606   1.126   4.340   0.196
 8903SOL     OW27607   1.540   1.301   4.590
 8903SOL    HW127608   1.603   1.240   4.543
 8903SOL    HW227609   1.572   1.396   4.582
 8904SOL     OW27610   0.471   1.222   2.488
 8904SOL    HW127611   0.400   1.289   2.511
 8904SOL    HW227612   0.556   1.271   2.465
 8905SOL     OW27613   1.579   3.607   2.361
 8905SOL    HW127614   1.670   3.579   2.329
 8905SOL    HW227615   1.580   3.705   2.382
 8906SOL     OW27616   0.133   0.327   0.806
 8906SOL    HW127617   0.211   0.345   0.747
 8906SOL    HW227618   0.150   0.365   0.898
 8907SOL     OW27619   3.379   2.540   5.377
 8907SOL    HW127620   3.301   2.505   5.325
 8907SOL    HW227621   3.360   2.532   5.475
 8908SOL     OW27622   1.386   5.377   0.463
 8908SOL    HW127623   1.355   5.466   0.431
 8908SOL    HW227624   1.313   5.334   0.517
 8909SOL     OW27625   2.379   1.426   6.501
 8909SOL    HW127626   2.446   1.495   6.474
 8909SOL    HW227627   2.329   1.394   6.420
 8910SOL     OW27628   0.785   2.931   4.960
 8910SOL    HW127629   0.752   2.968   5.047
 8910SOL    HW227630   0.735   2.847   4.938
 8911SOL     OW27631   5.250   1.948   4.022
 8911SOL    HW127632   5.321   1.953   4.092
 8911SOL    HW227633   5.161   1.963   4.063
 8912SOL     OW27634   4.078   3.939   5.374
 8912SOL    HW127635   4.058   3.930   5.276
 8912SOL    HW227636   4.160   3.996   5.386
 8913SOL     OW27637   5.074   5.184   0.350
 8913SOL    HW127638   5.125   5.223   0.273
 8913SOL    HW227639   4.993   5.241   0.368
 8914SOL     OW27640   5.232   6.405   5.025
 8914SOL    HW127641   5.236   6.316   4.979
 8914SOL    HW227642   5.233   6.478   4.957
 8915SOL     OW27643   0.789   1.083   3.683
 8915SOL    HW127644   0.841   1.133   3.753
 8915SOL    HW227645   0.691   1.096   3.699
 8916SOL     OW27646   5.758   1.464   6.404
 8916SOL    HW127647   5.697   1.456   6.325
 8916SOL    HW227648   5.769   1.373   6.446
 8917SOL     OW27649   6.200   1.770   0.500
 8917SOL    HW127650   6.202   1.869   0.490
 8917SOL    HW227651   6.115   1.741   0.543
 8918SOL     OW27652   1.848   5.287   1.656
 8918SOL    HW127653   1.893   5.229   1.589
 8918SOL    HW227654   1.804   5.230   1.726
 8919SOL     OW27655   5.510   4.321   6.557
 8919SOL    HW127656   5.594   4.291   6.603
 8919SOL    HW227657   5.458   4.380   6.618
 8920SOL     OW27658   0.439   1.126   6.744
 8920SOL    HW127659   0.500   1.128   6.823
 8920SOL    HW227660   0.493   1.128   6.660
 8921SOL     OW27661   1.193   3.002   1.167
 8921SOL    HW127662   1.244   3.010   1.081
 8921SOL    HW227663   1.135   2.922   1.164
 8922SOL     OW27664   3.808   6.873   3.288
 8922SOL    HW127665   3.878   6.813   3.327
 8922SOL    HW227666   3.813   6.870   3.188
 8923SOL     OW27667   1.636   1.912   5.513
 8923SOL    HW127668   1.635   1.928   5.612
 8923SOL    HW227669   1.702   1.839   5.493
 8924SOL     OW27670   5.484   5.252   4.517
 8924SOL    HW127671   5.401   5.197   4.500
 8924SOL    HW227672   5.543   5.249   4.436
 8925SOL     OW27673   1.256   0.605   2.721
 8925SOL    HW127674   1.252   0.627   2.624
 8925SOL    HW227675   1.350   0.581   2.746
 8926SOL     OW27676   6.394   3.576   5.589
 8926SOL    HW127677   6.461   3.565   5.515
 8926SOL    HW227678   6.422   3.520   5.667
 8927SOL     OW27679   6.601   2.112   5.549
 8927SOL    HW127680   6.542   2.177   5.500
 8927SOL    HW227681   6.546   2.063   5.616
 8928SOL     OW27682   2.642   0.184   5.335
 8928SOL    HW127683   2.666   0.281   5.332
 8928SOL    HW227684   2.651   0.150   5.429
 8929SOL     OW27685   6.253   2.526   5.198
 8929SOL    HW127686   6.218   2.528   5.104
 8929SOL    HW227687   6.182   2.557   5.261
 8930SOL     OW27688   1.387   4.190   3.247
 8930SOL    HW127689   1.388   4.110   3.186
 8930SOL    HW227690   1.341   4.166   3.332
 8931SOL     OW27691   3.531   3.051   1.770
 8931SOL    HW127692   3.577   2.992   1.836
 8931SOL    HW227693   3.446   3.085   1.808
 8932SOL     OW27694   0.694   2.366   3.217
 8932SOL    HW127695   0.748   2.352   3.300
 8932SOL    HW227696   0.680   2.464   3.203
 8933SOL     OW27697   3.639   2.576   6.350
 8933SOL    HW127698   3.677   2.668   6.343
 8933SOL    HW227699   3.568   2.564   6.280
 8934SOL     OW27700   3.812   5.745   3.655
 8934SOL    HW127701   3.780   5.827   3.704
 8934SOL    HW227702   3.745   5.671   3.668
 8935SOL     OW27703   6.851   5.495   1.013
 8935SOL    HW127704   6.873   5.410   1.061
 8935SOL    HW227705   6.875   5.573   1.071
 8936SOL     OW27706   1.787   3.661   0.607
 8936SOL    HW127707   1.810   3.590   0.541
 8936SOL    HW227708   1.862   3.727   0.614
 8937SOL     OW27709   0.195   6.560   5.175
 8937SOL    HW127710   0.286   6.586   5.143
 8937SOL    HW227711   0.146   6.513   5.102
 8938SOL     OW27712   6.718   5.133   1.621
 8938SOL    HW127713   6.642   5.119   1.685
 8938SOL    HW227714   6.795   5.175   1.670
 8939SOL     OW27715   4.782   2.121   4.851
 8939SOL    HW127716   4.764   2.031   4.891
 8939SOL    HW227717   4.845   2.171   4.911
 8940SOL     OW27718   6.768   0.594   3.952
 8940SOL    HW127719   6.798   0.511   3.999
 8940SOL    HW227720   6.707   0.646   4.011
 8941SOL     OW27721   5.514   2.066   5.643
 8941SOL    HW127722   5.563   2.067   5.730
 8941SOL    HW227723   5.486   2.160   5.620
 8942SOL     OW27724   0.322   3.021   5.398
 8942SOL    HW127725   0.348   3.118   5.403
 8942SOL    HW227726   0.308   2.985   5.490
 8943SOL     OW27727   5.362   3.948   0.323
 8943SOL    HW127728   5.432   4.000   0.373
 8943SOL    HW227729   5.332   3.871   0.379
 8944SOL     OW27730   5.502   5.434   6.344
 8944SOL    HW127731   5.470   5.340   6.358
 8944SOL    HW227732   5.427   5.489   6.305
 8945SOL     OW27733   2.710   0.246   4.831
 8945SOL    HW127734   2.627   0.291   4.862
 8945SOL    HW227735   2.761   0.307   4.771
 8946SOL     OW27736   3.367   2.112   5.129
 8946SOL    HW127737   3.299   2.185   5.125
 8946SOL    HW227738   3.444   2.134   5.069
 8947SOL     OW27739   2.319   3.791   5.830
 8947SOL    HW127740   2.356   3.858   5.766
 8947SOL    HW227741   2.375   3.709   5.830
 8948SOL     OW27742   5.357   4.815   3.310
 8948SOL    HW127743   5.397   4.907   3.313
 8948SOL    HW227744   5.424   4.751   3.273
 8949SOL     OW27745   1.920   6.885   6.828
 8949SOL    HW127746   1.931   6.953   6.901
 8949SOL    HW227747   1.823   6.876   6.805
 8950SOL     OW27748   4.663   3.089   5.655
 8950SOL    HW127749   4.722   3.012   5.678
 8950SOL    HW227750   4.683   3.120   5.562
 8951SOL     OW27751   1.366   2.700   5.725
 8951SOL    HW127752   1.406   2.701   5.634
 8951SOL    HW227753   1.389   2.786   5.772
 8952SOL     OW27754   0.926   1.245   2.682
 8952SOL    HW127755   0.980   1.279   2.759
 8952SOL    HW227756   0.932   1.310   2.606
 8953SOL     OW27757   1.543   3.590   6.945
 8953SOL    HW127758   1.448   3.608   6.971
 8953SOL    HW227759   1.573   3.660   6.879
 8954SOL     OW27760   0.233   6.076   6.280
 8954SOL    HW127761   0.306   6.062   6.213
 8954SOL    HW227762   0.171   5.997   6.279
 8955SOL     OW27763   6.898   4.388   3.283
 8955SOL    HW127764   6.984   4.338   3.272
 8955SOL    HW227765   6.893   4.426   3.375
 8956SOL     OW27766   0.492   0.739   6.405
 8956SOL    HW127767   0.401   0.744   6.364
 8956SOL    HW227768   0.509   0.645   6.436
 8957SOL     OW27769   2.725   4.534   1.648
 8957SOL    HW127770   2.792   4.524   1.722
 8957SOL    HW227771   2.727   4.627   1.613
 8958SOL     OW27772   0.419   7.009   4.131
 8958SOL    HW127773   0.470   0.066   4.155
 8958SOL    HW227774   0.484   6.937   4.106
 8959SOL     OW27775   1.013   4.750   0.709
 8959SOL    HW127776   1.029   4.840   0.748
 8959SOL    HW227777   0.917   4.724   0.720
 8960SOL     OW27778   4.528   5.447   2.757
 8960SOL    HW127779   4.605   5.455   2.821
 8960SOL    HW227780   4.546   5.373   2.692
 8961SOL     OW27781   1.260   1.711   4.597
 8961SOL    HW127782   1.181   1.658   4.628
 8961SOL    HW227783   1.230   1.798   4.559
 8962SOL     OW27784   5.734   6.943   2.645
 8962SOL    HW127785   5.725   6.855   2.690
 8962SOL    HW227786   5.644   6.985   2.633
 8963SOL     OW27787   4.992   6.494   4.146
 8963SOL    HW127788   4.905   6.514   4.101
 8963SOL    HW227789   5.021   6.402   4.122
 8964SOL     OW27790   5.320   5.163   1.932
 8964SOL    HW127791   5.317   5.067   1.961
 8964SOL    HW227792   5.413   5.198   1.943
 8965SOL     OW27793   1.676   5.527   0.906
 8965SOL    HW127794   1.775   5.536   0.912
 8965SOL    HW227795   1.635   5.618   0.906
 8966SOL     OW27796   1.726   2.909   6.216
 8966SOL    HW127797   1.772   2.820   6.221
 8966SOL    HW227798   1.645   2.908   6.274
 8967SOL     OW27799   3.651   6.635   1.578
 8967SOL    HW127800   3.567   6.660   1.626
 8967SOL    HW227801   3.629   6.573   1.502
 8968SOL     OW27802   5.134   5.683   2.069
 8968SOL    HW127803   5.221   5.729   2.087
 8968SOL    HW227804   5.064   5.715   2.133
 8969SOL     OW27805   6.108   0.607   3.540
 8969SOL    HW127806   6.044   0.660   3.595
 8969SOL    HW227807   6.185   0.578   3.597
 8970SOL     OW27808   3.228   2.455   1.425
 8970SOL    HW127809   3.293   2.528   1.411
 8970SOL    HW227810   3.207   2.446   1.523
 8971SOL     OW27811   3.471   6.367   2.293
 8971SOL    HW127812   3.406   6.439   2.317
 8971SOL    HW227813   3.421   6.287   2.259
 8972SOL     OW27814   4.663   6.070   0.066
 8972SOL    HW127815   4.702   5.979   0.077
 8972SOL    HW227816   4.728   6.128   0.017
 8973SOL     OW27817   1.086   4.303   1.530
 8973SOL    HW127818   1.175   4.315   1.574
 8973SOL    HW227819   1.099   4.282   1.433
 8974SOL     OW27820   0.998   4.164   6.511
 8974SOL    HW127821   1.093   4.196   6.520
 8974SOL    HW227822   0.991   4.104   6.432
 8975SOL     OW27823   2.738   0.700   6.954
 8975SOL    HW127824   2.756   0.797   6.938
 8975SOL    HW227825   2.663   0.691   7.020
 8976SOL     OW27826   1.418   5.684   5.001
 8976SOL    HW127827   1.401   5.653   5.095
 8976SOL    HW227828   1.458   5.609   4.948
 8977SOL     OW27829   6.498   1.211   6.146
 8977SOL    HW127830   6.587   1.206   6.191
 8977SOL    HW227831   6.441   1.135   6.176
 8978SOL     OW27832   5.854   6.336   7.019
 8978SOL    HW127833   5.784   6.377   0.051
 8978SOL    HW227834   5.880   6.247   0.031
 8979SOL     OW27835   1.585   3.788   4.875
 8979SOL    HW127836   1.524   3.783   4.796
 8979SOL    HW227837   1.663   3.846   4.854
 8980SOL     OW27838   2.980   3.670   5.457
 8980SOL    HW127839   2.943   3.659   5.364
 8980SOL    HW227840   2.971   3.765   5.486
 8981SOL     OW27841   4.012   1.544   5.158
 8981SOL    HW127842   3.997   1.466   5.098
 8981SOL    HW227843   4.065   1.516   5.238
 8982SOL     OW27844   1.847   3.503   0.311
 8982SOL    HW127845   1.754   3.540   0.316
 8982SOL    HW227846   1.881   3.513   0.218
 8983SOL     OW27847   3.186   6.295   6.921
 8983SOL    HW127848   3.121   6.279   6.847
 8983SOL    HW227849   3.234   6.210   6.942
 8984SOL     OW27850   2.291   6.525   2.960
 8984SOL    HW127851   2.368   6.582   2.932
 8984SOL    HW227852   2.214   6.541   2.898
 8985SOL     OW27853   3.289   2.374   0.436
 8985SOL    HW127854   3.280   2.469   0.465
 8985SOL    HW227855   3.374   2.336   0.473
 8986SOL     OW27856   3.471   4.895   2.815
 8986SOL    HW127857   3.376   4.873   2.839
 8986SOL    HW227858   3.525   4.906   2.899
 8987SOL     OW27859   4.485   6.467   3.221
 8987SOL    HW127860   4.395   6.510   3.214
 8987SOL    HW227861   4.491   6.417   3.307
 8988SOL     OW27862   0.495   5.997   3.718
 8988SOL    HW127863   0.570   5.992   3.784
 8988SOL    HW227864   0.409   6.015   3.766
 8989SOL     OW27865   4.276   3.382   6.789
 8989SOL    HW127866   4.353   3.331   6.749
 8989SOL    HW227867   4.299   3.479   6.793
 8990SOL     OW27868   0.509   4.597   3.773
 8990SOL    HW127869   0.529   4.694   3.759
 8990SOL    HW227870   0.436   4.569   3.710
 8991SOL     OW27871   1.669   3.262   4.642
 8991SOL    HW127872   1.726   3.307   4.573
 8991SOL    HW227873   1.725   3.235   4.719
 8992SOL     OW27874   4.897   1.565   0.420
 8992SOL    HW127875   4.807   1.607   0.429
 8992SOL    HW227876   4.886   1.468   0.398
 8993SOL     OW27877   3.968   3.063   6.815
 8993SOL    HW127878   3.992   3.096   6.906
 8993SOL    HW227879   3.899   2.991   6.823
 8994SOL     OW27880   1.444   4.687   4.456
 8994SOL    HW127881   1.527   4.742   4.465
 8994SOL    HW227882   1.401   4.677   4.546
 8995SOL     OW27883   6.417   1.444   0.764
 8995SOL    HW127884   6.487   1.501   0.722
 8995SOL    HW227885   6.335   1.445   0.707
 8996SOL     OW27886   5.558   4.173   5.714
 8996SOL    HW127887   5.548   4.082   5.755
 8996SOL    HW227888   5.523   4.242   5.776
 8997SOL     OW27889   4.886   0.970   6.233
 8997SOL    HW127890   4.896   0.951   6.135
 8997SOL    HW227891   4.799   0.932   6.265
 8998SOL     OW27892   5.921   3.360   3.810
 8998SOL    HW127893   6.008   3.313   3.799
 8998SOL    HW227894   5.933   3.457   3.789
 8999SOL     OW27895   4.976   6.848   6.248
 8999SOL    HW127896   4.885   6.810   6.263
 8999SOL    HW227897   5.033   6.830   6.328
 9000SOL     OW27898   1.532   3.327   1.999
 9000SOL    HW127899   1.511   3.424   1.986
 9000SOL    HW227900   1.630   3.315   2.010
 9001SOL     OW27901   0.127   5.529   1.951
 9001SOL    HW127902   0.110   5.616   1.904
 9001SOL    HW227903   0.065   5.520   2.029
 9002SOL     OW27904   1.308   4.720   5.219
 9002SOL    HW127905   1.371   4.643   5.205
 9002SOL    HW227906   1.263   4.742   5.133
 9003SOL     OW27907   4.940   3.288   1.023
 9003SOL    HW127908   4.883   3.355   1.070
 9003SOL    HW227909   5.017   3.263   1.081
 9004SOL     OW27910   4.318   4.981   0.832
 9004SOL    HW127911   4.332   4.913   0.903
 9004SOL    HW227912   4.405   5.026   0.810
 9005SOL     OW27913   5.995   1.630   5.387
 9005SOL    HW127914   5.929   1.596   5.454
 9005SOL    HW227915   6.088   1.624   5.424
 9006SOL     OW27916   2.428   6.454   0.800
 9006SOL    HW127917   2.485   6.506   0.736
 9006SOL    HW227918   2.398   6.369   0.756
 9007SOL     OW27919   2.708   1.658   2.261
 9007SOL    HW127920   2.784   1.722   2.271
 9007SOL    HW227921   2.737   1.580   2.207
 9008SOL     OW27922   0.217   4.846   2.972
 9008SOL    HW127923   0.141   4.853   3.036
 9008SOL    HW227924   0.268   4.933   2.971
 9009SOL     OW27925   3.131   5.393   1.438
 9009SOL    HW127926   3.200   5.466   1.436
 9009SOL    HW227927   3.174   5.308   1.468
 9010SOL     OW27928   2.537   6.139   4.341
 9010SOL    HW127929   2.605   6.143   4.268
 9010SOL    HW227930   2.465   6.075   4.314
 9011SOL     OW27931   4.183   0.799   1.386
 9011SOL    HW127932   4.238   0.753   1.455
 9011SOL    HW227933   4.110   0.738   1.356
 9012SOL     OW27934   2.604   5.604   0.464
 9012SOL    HW127935   2.569   5.688   0.506
 9012SOL    HW227936   2.696   5.621   0.428
 9013SOL     OW27937   0.577   0.537   4.875
 9013SOL    HW127938   0.603   0.535   4.972
 9013SOL    HW227939   0.564   0.444   4.842
 9014SOL     OW27940   6.216   2.724   1.251
 9014SOL    HW127941   6.272   2.762   1.177
 9014SOL    HW227942   6.253   2.755   1.339
 9015SOL     OW27943   4.815   2.222   1.814
 9015SOL    HW127944   4.828   2.212   1.715
 9015SOL    HW227945   4.847   2.312   1.843
 9016SOL     OW27946   5.415   5.205   6.689
 9016SOL    HW127947   5.331   5.257   6.671
 9016SOL    HW227948   5.391   5.112   6.715
 9017SOL     OW27949   4.202   1.079   4.444
 9017SOL    HW127950   4.246   0.992   4.425
 9017SOL    HW227951   4.271   1.146   4.473
 9018SOL     OW27952   3.525   3.841   6.364
 9018SOL    HW127953   3.616   3.845   6.323
 9018SOL    HW227954   3.474   3.765   6.323
 9019SOL     OW27955   0.954   4.246   2.866
 9019SOL    HW127956   0.992   4.259   2.775
 9019SOL    HW227957   0.864   4.291   2.872
 9020SOL     OW27958   6.852   4.584   1.207
 9020SOL    HW127959   6.798   4.612   1.127
 9020SOL    HW227960   6.822   4.493   1.236
 9021SOL     OW27961   7.006   0.841   3.420
 9021SOL    HW127962   0.026   0.863   3.506
 9021SOL    HW227963   7.024   0.913   3.353
 9022SOL     OW27964   3.758   1.243   6.970
 9022SOL    HW127965   3.824   1.306   6.931
 9022SOL    HW227966   3.666   1.282   6.963
 9023SOL     OW27967   4.427   3.428   1.688
 9023SOL    HW127968   4.386   3.380   1.766
 9023SOL    HW227969   4.487   3.501   1.722
 9024SOL     OW27970   1.217   4.483   4.989
 9024SOL    HW127971   1.272   4.401   4.978
 9024SOL    HW227972   1.166   4.478   5.075
 9025SOL     OW27973   6.666   5.962   0.736
 9025SOL    HW127974   6.757   5.947   0.698
 9025SOL    HW227975   6.671   6.036   0.803
 9026SOL     OW27976   3.132   2.017   0.457
 9026SOL    HW127977   3.174   2.003   0.547
 9026SOL    HW227978   3.101   2.111   0.448
 9027SOL     OW27979   0.859   3.654   3.606
 9027SOL    HW127980   0.867   3.555   3.605
 9027SOL    HW227981   0.920   3.693   3.537
 9028SOL     OW27982   4.087   2.999   5.349
 9028SOL    HW127983   4.041   3.077   5.306
 9028SOL    HW227984   4.025   2.958   5.416
 9029SOL     OW27985   4.182   6.903   5.043
 9029SOL    HW127986   4.239   6.823   5.062
 9029SOL    HW227987   4.086   6.874   5.039
 9030SOL     OW27988   1.937   2.586   4.266
 9030SOL    HW127989   1.909   2.671   4.222
 9030SOL    HW227990   1.872   2.513   4.243
 9031SOL     OW27991   4.175   0.041   4.674
 9031SOL    HW127992   4.188   0.129   4.719
 9031SOL    HW227993   4.094   7.022   4.710
 9032SOL     OW27994   4.764   3.912   1.134
 9032SOL    HW127995   4.706   3.849   1.187
 9032SOL    HW227996   4.706   3.976   1.084
 9033SOL     OW27997   0.552   4.555   2.762
 9033SOL    HW127998   0.492   4.618   2.810
 9033SOL    HW227999   0.503   4.513   2.686
 9034SOL     OW28000   3.261   6.079   4.690
 9034SOL    HW128001   3.258   6.048   4.785
 9034SOL    HW228002   3.296   6.005   4.632
 9035SOL     OW28003   1.878   5.752   6.782
 9035SOL    HW128004   1.781   5.730   6.787
 9035SOL    HW228005   1.928   5.700   6.851
 9036SOL     OW28006   1.431   4.168   5.455
 9036SOL    HW128007   1.454   4.073   5.476
 9036SOL    HW228008   1.446   4.224   5.536
 9037SOL     OW28009   1.225   3.082   4.148
 9037SOL    HW128010   1.227   3.089   4.248
 9037SOL    HW228011   1.283   3.153   4.108
 9038SOL     OW28012   4.381   3.419   0.211
 9038SOL    HW128013   4.298   3.414   0.155
 9038SOL    HW228014   4.358   3.458   0.301
 9039SOL     OW28015   3.154   4.496   6.918
 9039SOL    HW128016   3.240   4.536   6.885
 9039SOL    HW228017   3.080   4.562   6.909
 9040SOL     OW28018   2.782   2.232   2.180
 9040SOL    HW128019   2.841   2.279   2.115
 9040SOL    HW228020   2.773   2.136   2.154
 9041SOL     OW28021   1.000   2.392   1.263
 9041SOL    HW128022   0.995   2.312   1.203
 9041SOL    HW228023   1.004   2.475   1.208
 9042SOL     OW28024   3.774   6.662   4.864
 9042SOL    HW128025   3.810   6.710   4.944
 9042SOL    HW228026   3.849   6.638   4.803
 9043SOL     OW28027   2.146   1.526   6.227
 9043SOL    HW128028   2.219   1.466   6.195
 9043SOL    HW228029   2.158   1.617   6.188
 9044SOL     OW28030   0.596   1.135   6.969
 9044SOL    HW128031   0.679   1.166   7.015
 9044SOL    HW228032   0.573   1.043   7.002
 9045SOL     OW28033   3.895   0.368   3.093
 9045SOL    HW128034   3.943   0.303   3.151
 9045SOL    HW228035   3.950   0.451   3.084
 9046SOL     OW28036   3.973   3.947   2.558
 9046SOL    HW128037   3.952   3.924   2.653
 9046SOL    HW228038   4.013   4.039   2.554
 9047SOL     OW28039   1.012   4.270   4.879
 9047SOL    HW128040   1.065   4.225   4.807
 9047SOL    HW228041   1.045   4.363   4.892
 9048SOL     OW28042   6.460   2.694   6.285
 9048SOL    HW128043   6.539   2.749   6.256
 9048SOL    HW228044   6.398   2.750   6.338
 9049SOL     OW28045   3.705   6.270   5.636
 9049SOL    HW128046   3.682   6.227   5.724
 9049SOL    HW228047   3.638   6.243   5.567
 9050SOL     OW28048   0.432   3.482   1.359
 9050SOL    HW128049   0.409   3.387   1.378
 9050SOL    HW228050   0.367   3.519   1.292
 9051SOL     OW28051   2.091   0.602   1.636
 9051SOL    HW128052   2.101   0.520   1.692
 9051SOL    HW228053   1.995   0.631   1.636
 9052SOL     OW28054   2.193   3.229   4.047
 9052SOL    HW128055   2.193   3.137   4.087
 9052SOL    HW228056   2.221   3.295   4.117
 9053SOL     OW28057   1.933   1.211   0.721
 9053SOL    HW128058   1.937   1.192   0.623
 9053SOL    HW228059   1.854   1.269   0.741
 9054SOL     OW28060   2.148   5.859   4.407
 9054SOL    HW128061   2.218   5.924   4.379
 9054SOL    HW228062   2.187   5.767   4.413
 9055SOL     OW28063   6.192   3.763   4.390
 9055SOL    HW128064   6.244   3.746   4.306
 9055SOL    HW228065   6.120   3.694   4.398
 9056SOL     OW28066   6.454   1.781   2.348
 9056SOL    HW128067   6.375   1.832   2.313
 9056SOL    HW228068   6.432   1.683   2.348
 9057SOL     OW28069   4.604   2.233   4.683
 9057SOL    HW128070   4.651   2.186   4.758
 9057SOL    HW228071   4.506   2.235   4.701
 9058SOL     OW28072   1.264   0.730   0.464
 9058SOL    HW128073   1.274   0.705   0.560
 9058SOL    HW228074   1.352   0.717   0.417
 9059SOL     OW28075   1.123   2.441   3.000
 9059SOL    HW128076   1.036   2.392   2.991
 9059SOL    HW228077   1.109   2.538   2.985
 9060SOL     OW28078   5.626   3.085   4.730
 9060SOL    HW128079   5.640   3.163   4.669
 9060SOL    HW228080   5.652   3.110   4.823
 9061SOL     OW28081   3.696   5.437   2.503
 9061SOL    HW128082   3.786   5.411   2.468
 9061SOL    HW228083   3.697   5.433   2.603
 9062SOL     OW28084   1.500   5.372   1.552
 9062SOL    HW128085   1.475   5.276   1.537
 9062SOL    HW228086   1.417   5.428   1.551
 9063SOL     OW28087   2.558   1.202   4.055
 9063SOL    HW128088   2.653   1.174   4.068
 9063SOL    HW228089   2.517   1.146   3.983
 9064SOL     OW28090   6.684   3.557   6.426
 9064SOL    HW128091   6.617   3.487   6.402
 9064SOL    HW228092   6.654   3.645   6.390
 9065SOL     OW28093   4.458   0.067   0.601
 9065SOL    HW128094   4.416   0.057   0.691
 9065SOL    HW228095   4.554   0.037   0.605
 9066SOL     OW28096   5.484   0.253   0.441
 9066SOL    HW128097   5.520   0.301   0.361
 9066SOL    HW228098   5.519   0.159   0.441
 9067SOL     OW28099   1.889   0.315   3.652
 9067SOL    HW128100   1.881   0.366   3.567
 9067SOL    HW228101   1.985   0.297   3.672
 9068SOL     OW28102   1.013   6.559   4.696
 9068SOL    HW128103   0.972   6.480   4.742
 9068SOL    HW228104   0.996   6.641   4.750
 9069SOL     OW28105   1.271   3.419   6.477
 9069SOL    HW128106   1.224   3.356   6.539
 9069SOL    HW228107   1.363   3.437   6.512
 9070SOL     OW28108   2.087   3.927   4.899
 9070SOL    HW128109   2.069   3.829   4.914
 9070SOL    HW228110   2.173   3.952   4.942
 9071SOL     OW28111   6.383   6.202   1.000
 9071SOL    HW128112   6.434   6.116   0.995
 9071SOL    HW228113   6.401   6.246   1.088
 9072SOL     OW28114   0.082   3.549   0.681
 9072SOL    HW128115   0.028   3.625   0.644
 9072SOL    HW228116   0.057   3.464   0.635
 9073SOL     OW28117   2.094   0.743   1.395
 9073SOL    HW128118   2.173   0.717   1.339
 9073SOL    HW228119   2.077   0.671   1.463
 9074SOL     OW28120   1.581   0.269   2.494
 9074SOL    HW128121   1.533   0.309   2.572
 9074SOL    HW228122   1.618   0.180   2.520
 9075SOL     OW28123   6.278   0.492   1.996
 9075SOL    HW128124   6.341   0.560   1.958
 9075SOL    HW228125   6.229   0.447   1.922
 9076SOL     OW28126   0.717   1.036   6.135
 9076SOL    HW128127   0.792   1.031   6.200
 9076SOL    HW228128   0.639   1.081   6.177
 9077SOL     OW28129   4.048   6.810   2.300
 9077SOL    HW128130   4.125   6.792   2.361
 9077SOL    HW228131   3.974   6.853   2.352
 9078SOL     OW28132   3.830   3.539   4.874
 9078SOL    HW128133   3.787   3.629   4.866
 9078SOL    HW228134   3.824   3.491   4.787
 9079SOL     OW28135   3.402   0.050   4.423
 9079SOL    HW128136   3.395   6.976   4.414
 9079SOL    HW228137   3.320   0.085   4.467
 9080SOL     OW28138   5.282   2.419   6.980
 9080SOL    HW128139   5.204   2.447   0.011
 9080SOL    HW228140   5.269   2.454   6.887
 9081SOL     OW28141   5.093   6.244   3.212
 9081SOL    HW128142   5.157   6.210   3.142
 9081SOL    HW228143   5.045   6.324   3.176
 9082SOL     OW28144   2.193   0.484   3.467
 9082SOL    HW128145   2.207   0.582   3.457
 9082SOL    HW228146   2.182   0.461   3.564
 9083SOL     OW28147   4.994   4.788   5.314
 9083SOL    HW128148   5.068   4.730   5.280
 9083SOL    HW228149   4.972   4.763   5.408
 9084SOL     OW28150   3.120   3.735   3.127
 9084SOL    HW128151   3.088   3.709   3.035
 9084SOL    HW228152   3.070   3.815   3.158
 9085SOL     OW28153   2.031   1.426   0.928
 9085SOL    HW128154   1.943   1.422   0.976
 9085SOL    HW228155   2.051   1.337   0.888
 9086SOL     OW28156   0.747   3.440   0.594
 9086SOL    HW128157   0.757   3.509   0.522
 9086SOL    HW228158   0.814   3.458   0.666
 9087SOL     OW28159   4.921   3.173   2.417
 9087SOL    HW128160   4.857   3.112   2.370
 9087SOL    HW228161   4.945   3.135   2.506
 9088SOL     OW28162   6.703   0.491   0.136
 9088SOL    HW128163   6.648   0.412   0.162
 9088SOL    HW228164   6.752   0.471   0.052
 9089SOL     OW28165   5.168   6.733   6.056
 9089SOL    HW128166   5.196   6.818   6.013
 9089SOL    HW228167   5.117   6.752   6.140
 9090SOL     OW28168   5.461   0.446   4.666
 9090SOL    HW128169   5.487   0.543   4.665
 9090SOL    HW228170   5.370   0.436   4.627
 9091SOL     OW28171   3.303   4.044   6.666
 9091SOL    HW128172   3.366   4.108   6.623
 9091SOL    HW228173   3.245   4.002   6.596
 9092SOL     OW28174   6.970   1.893   6.835
 9092SOL    HW128175   6.990   1.991   6.829
 9092SOL    HW228176   6.929   1.872   6.924
 9093SOL     OW28177   1.259   6.845   5.575
 9093SOL    HW128178   1.173   6.800   5.553
 9093SOL    HW228179   1.261   6.936   5.533
 9094SOL     OW28180   0.113   3.286   2.112
 9094SOL    HW128181   0.193   3.249   2.159
 9094SOL    HW228182   0.138   3.311   2.019
 9095SOL     OW28183   5.049   5.059   5.399
 9095SOL    HW128184   5.056   4.962   5.377
 9095SOL    HW228185   5.051   5.113   5.315
 9096SOL     OW28186   6.241   5.182   3.062
 9096SOL    HW128187   6.175   5.245   3.022
 9096SOL    HW228188   6.246   5.099   3.007
 9097SOL     OW28189   0.671   2.765   6.110
 9097SOL    HW128190   0.596   2.783   6.047
 9097SOL    HW228191   0.655   2.677   6.155
 9098SOL     OW28192   2.018   2.267   4.932
 9098SOL    HW128193   2.048   2.351   4.885
 9098SOL    HW228194   1.986   2.201   4.864
 9099SOL     OW28195   2.195   3.477   6.187
 9099SOL    HW128196   2.243   3.562   6.162
 9099SOL    HW228197   2.261   3.402   6.191
 9100SOL     OW28198   1.557   4.458   2.571
 9100SOL    HW128199   1.471   4.489   2.531
 9100SOL    HW228200   1.619   4.430   2.498
 9101SOL     OW28201   2.996   1.046   2.216
 9101SOL    HW128202   2.907   1.068   2.257
 9101SOL    HW228203   3.035   1.129   2.176
 9102SOL     OW28204   4.242   6.589   3.142
 9102SOL    HW128205   4.289   6.677   3.150
 9102SOL    HW228206   4.227   6.568   3.046
 9103SOL     OW28207   6.394   1.908   6.758
 9103SOL    HW128208   6.479   1.923   6.810
 9103SOL    HW228209   6.416   1.889   6.663
 9104SOL     OW28210   0.411   0.714   0.589
 9104SOL    HW128211   0.391   0.637   0.529
 9104SOL    HW228212   0.332   0.732   0.648
 9105SOL     OW28213   1.893   0.163   5.883
 9105SOL    HW128214   1.841   0.165   5.798
 9105SOL    HW228215   1.906   0.257   5.915
 9106SOL     OW28216   0.725   4.490   6.675
 9106SOL    HW128217   0.654   4.529   6.734
 9106SOL    HW228218   0.716   4.527   6.583
 9107SOL     OW28219   2.477   0.756   6.361
 9107SOL    HW128220   2.528   0.698   6.424
 9107SOL    HW228221   2.513   0.849   6.366
 9108SOL     OW28222   5.304   5.570   5.621
 9108SOL    HW128223   5.210   5.590   5.648
 9108SOL    HW228224   5.314   5.472   5.601
 9109SOL     OW28225   5.520   2.577   1.941
 9109SOL    HW128226   5.431   2.584   1.985
 9109SOL    HW228227   5.569   2.664   1.950
 9110SOL     OW28228   1.541   5.742   5.282
 9110SOL    HW128229   1.537   5.822   5.342
 9110SOL    HW228230   1.636   5.724   5.257
 9111SOL     OW28231   4.582   2.646   5.335
 9111SOL    HW128232   4.542   2.631   5.245
 9111SOL    HW228233   4.519   2.702   5.390
 9112SOL     OW28234   2.391   5.293   2.898
 9112SOL    HW128235   2.396   5.281   2.798
 9112SOL    HW228236   2.297   5.279   2.928
 9113SOL     OW28237   4.911   2.280   3.309
 9113SOL    HW128238   4.978   2.295   3.381
 9113SOL    HW228239   4.907   2.182   3.287
 9114SOL     OW28240   1.214   6.343   4.952
 9114SOL    HW128241   1.116   6.361   4.940
 9114SOL    HW228242   1.266   6.426   4.934
 9115SOL     OW28243   5.955   4.551   3.423
 9115SOL    HW128244   5.876   4.505   3.463
 9115SOL    HW228245   6.039   4.517   3.466
 9116SOL     OW28246   0.861   6.838   3.477
 9116SOL    HW128247   0.929   6.787   3.529
 9116SOL    HW228248   0.892   6.932   3.466
 9117SOL     OW28249   4.158   0.432   6.887
 9117SOL    HW128250   4.154   0.383   6.974
 9117SOL    HW228251   4.065   0.454   6.856
 9118SOL     OW28252   5.478   4.143   0.759
 9118SOL    HW128253   5.485   4.075   0.685
 9118SOL    HW228254   5.550   4.211   0.748
 9119SOL     OW28255   3.705   6.615   1.020
 9119SOL    HW128256   3.703   6.613   0.920
 9119SOL    HW228257   3.696   6.522   1.055
 9120SOL     OW28258   5.951   2.784   5.996
 9120SOL    HW128259   5.984   2.705   5.943
 9120SOL    HW228260   5.983   2.868   5.952
 9121SOL     OW28261   3.325   0.245   5.586
 9121SOL    HW128262   3.381   0.169   5.552
 9121SOL    HW228263   3.310   0.310   5.512
 9122SOL     OW28264   2.533   4.486   1.850
 9122SOL    HW128265   2.510   4.389   1.848
 9122SOL    HW228266   2.588   4.509   1.769
 9123SOL     OW28267   1.248   0.846   3.176
 9123SOL    HW128268   1.318   0.780   3.204
 9123SOL    HW228269   1.173   0.846   3.242
 9124SOL     OW28270   3.211   5.130   1.439
 9124SOL    HW128271   3.287   5.085   1.486
 9124SOL    HW228272   3.182   5.074   1.361
 9125SOL     OW28273   4.023   6.327   0.616
 9125SOL    HW128274   4.120   6.348   0.621
 9125SOL    HW228275   3.986   6.358   0.528
 9126SOL     OW28276   3.835   5.180   0.455
 9126SOL    HW128277   3.913   5.200   0.397
 9126SOL    HW228278   3.852   5.096   0.507
 9127SOL     OW28279   6.927   3.714   5.193
 9127SOL    HW128280   6.832   3.686   5.180
 9127SOL    HW228281   6.933   3.813   5.195
 9128SOL     OW28282   5.817   3.373   4.914
 9128SOL    HW128283   5.827   3.408   5.007
 9128SOL    HW228284   5.795   3.448   4.852
 9129SOL     OW28285   2.078   1.878   0.830
 9129SOL    HW128286   2.167   1.900   0.788
 9129SOL    HW228287   2.037   1.801   0.782
 9130SOL     OW28288   2.765   4.081   5.520
 9130SOL    HW128289   2.737   4.070   5.425
 9130SOL    HW228290   2.751   4.177   5.548
 9131SOL     OW28291   5.957   2.480   0.842
 9131SOL    HW128292   6.000   2.530   0.767
 9131SOL    HW228293   5.993   2.515   0.929
 9132SOL     OW28294   0.615   3.796   3.577
 9132SOL    HW128295   0.690   3.735   3.603
 9132SOL    HW228296   0.527   3.750   3.591
 9133SOL     OW28297   4.898   0.704   1.076
 9133SOL    HW128298   4.997   0.693   1.089
 9133SOL    HW228299   4.850   0.642   1.137
 9134SOL     OW28300   4.419   5.272   0.918
 9134SOL    HW128301   4.415   5.334   0.996
 9134SOL    HW228302   4.515   5.258   0.892
 9135SOL     OW28303   0.766   6.020   2.395
 9135SOL    HW128304   0.681   6.051   2.438
 9135SOL    HW228305   0.758   5.923   2.372
 9136SOL     OW28306   6.367   4.744   6.390
 9136SOL    HW128307   6.312   4.720   6.310
 9136SOL    HW228308   6.319   4.716   6.473
 9137SOL     OW28309   4.360   5.911   6.940
 9137SOL    HW128310   4.359   6.006   6.972
 9137SOL    HW228311   4.443   5.895   6.887
 9138SOL     OW28312   2.755   3.258   0.867
 9138SOL    HW128313   2.841   3.310   0.871
 9138SOL    HW228314   2.773   3.162   0.888
 9139SOL     OW28315   0.022   0.533   1.253
 9139SOL    HW128316   0.043   0.569   1.344
 9139SOL    HW228317   0.102   0.484   1.218
 9140SOL     OW28318   0.626   4.542   2.354
 9140SOL    HW128319   0.649   4.639   2.345
 9140SOL    HW228320   0.540   4.533   2.404
 9141SOL     OW28321   6.662   5.615   6.337
 9141SOL    HW128322   6.685   5.686   6.404
 9141SOL    HW228323   6.683   5.525   6.375
 9142SOL     OW28324   1.128   3.729   3.379
 9142SOL    HW128325   1.075   3.791   3.320
 9142SOL    HW228326   1.186   3.783   3.441
 9143SOL     OW28327   0.109   3.281   2.510
 9143SOL    HW128328   0.019   3.259   2.550
 9143SOL    HW228329   0.143   3.203   2.459
 9144SOL     OW28330   2.839   4.489   5.631
 9144SOL    HW128331   2.883   4.413   5.679
 9144SOL    HW228332   2.746   4.463   5.605
 9145SOL     OW28333   1.315   6.440   6.002
 9145SOL    HW128334   1.295   6.410   5.908
 9145SOL    HW228335   1.237   6.418   6.060
 9146SOL     OW28336   5.833   3.549   2.990
 9146SOL    HW128337   5.754   3.515   3.041
 9146SOL    HW228338   5.916   3.531   3.041
 9147SOL     OW28339   4.620   0.451   4.496
 9147SOL    HW128340   4.568   0.438   4.580
 9147SOL    HW228341   4.573   0.405   4.420
 9148SOL     OW28342   6.359   6.771   1.834
 9148SOL    HW128343   6.425   6.756   1.907
 9148SOL    HW228344   6.359   6.867   1.808
 9149SOL     OW28345   6.972   3.939   1.018
 9149SOL    HW128346   0.031   3.918   0.969
 9149SOL    HW228347   6.995   3.969   1.111
 9150SOL     OW28348   2.928   3.024   6.960
 9150SOL    HW128349   3.023   3.033   6.992
 9150SOL    HW228350   2.874   2.981   0.006
 9151SOL     OW28351   1.568   3.510   3.726
 9151SOL    HW128352   1.568   3.476   3.632
 9151SOL    HW228353   1.657   3.491   3.768
 9152SOL     OW28354   1.975   4.172   3.958
 9152SOL    HW128355   1.929   4.085   3.977
 9152SOL    HW228356   1.966   4.233   4.037
 9153SOL     OW28357   6.658   3.220   6.695
 9153SOL    HW128358   6.620   3.245   6.605
 9153SOL    HW228359   6.596   3.251   6.767
 9154SOL     OW28360   6.009   4.996   2.881
 9154SOL    HW128361   5.988   4.912   2.931
 9154SOL    HW228362   5.945   5.008   2.806
 9155SOL     OW28363   0.723   5.892   3.031
 9155SOL    HW128364   0.677   5.897   3.120
 9155SOL    HW228365   0.660   5.924   2.960
 9156SOL     OW28366   6.525   3.939   6.686
 9156SOL    HW128367   6.496   3.961   6.779
 9156SOL    HW228368   6.625   3.934   6.683
 9157SOL     OW28369   2.663   4.954   6.241
 9157SOL    HW128370   2.599   5.029   6.260
 9157SOL    HW228371   2.643   4.878   6.304
 9158SOL     OW28372   6.873   3.263   4.239
 9158SOL    HW128373   6.853   3.168   4.266
 9158SOL    HW228374   6.892   3.317   4.321
 9159SOL     OW28375   3.583   1.036   3.273
 9159SOL    HW128376   3.497   0.991   3.296
 9159SOL    HW228377   3.649   1.024   3.347
 9160SOL     OW28378   0.246   4.403   0.086
 9160SOL    HW128379   0.236   4.502   0.078
 9160SOL    HW228380   0.263   4.363   7.022
 9161SOL     OW28381   5.890   3.905   1.641
 9161SOL    HW128382   5.794   3.906   1.612
 9161SOL    HW228383   5.942   3.845   1.580
 9162SOL     OW28384   4.593   1.849   1.961
 9162SOL    HW128385   4.533   1.820   1.886
 9162SOL    HW228386   4.590   1.949   1.969
 9163SOL     OW28387   1.635   2.584   3.565
 9163SOL    HW128388   1.618   2.558   3.470
 9163SOL    HW228389   1.623   2.683   3.576
 9164SOL     OW28390   2.017   0.731   6.265
 9164SOL    HW128391   1.924   0.698   6.279
 9164SOL    HW228392   2.068   0.723   6.351
 9165SOL     OW28393   5.299   1.900   5.527
 9165SOL    HW128394   5.380   1.940   5.570
 9165SOL    HW228395   5.219   1.955   5.549
 9166SOL     OW28396   5.136   5.186   1.423
 9166SOL    HW128397   5.162   5.282   1.436
 9166SOL    HW228398   5.216   5.128   1.436
 9167SOL     OW28399   1.950   0.981   4.733
 9167SOL    HW128400   1.922   1.076   4.720
 9167SOL    HW228401   1.962   0.963   4.831
 9168SOL     OW28402   6.433   6.190   4.557
 9168SOL    HW128403   6.477   6.246   4.486
 9168SOL    HW228404   6.338   6.175   4.533
 9169SOL     OW28405   6.220   6.229   0.688
 9169SOL    HW128406   6.193   6.324   0.674
 9169SOL    HW228407   6.283   6.223   0.766
 9170SOL     OW28408   1.632   1.417   5.296
 9170SOL    HW128409   1.532   1.429   5.290
 9170SOL    HW228410   1.659   1.339   5.240
 9171SOL     OW28411   3.179   4.696   0.659
 9171SOL    HW128412   3.091   4.745   0.653
 9171SOL    HW228413   3.253   4.761   0.642
 9172SOL     OW28414   5.344   1.481   4.080
 9172SOL    HW128415   5.378   1.450   4.169
 9172SOL    HW228416   5.311   1.403   4.028
 9173SOL     OW28417   5.737   3.084   4.107
 9173SOL    HW128418   5.703   3.033   4.186
 9173SOL    HW228419   5.733   3.025   4.026
 9174SOL     OW28420   6.925   5.072   0.270
 9174SOL    HW128421   6.932   5.147   0.336
 9174SOL    HW228422   6.846   5.087   0.211
 9175SOL     OW28423   1.813   6.591   6.663
 9175SOL    HW128424   1.763   6.661   6.713
 9175SOL    HW228425   1.881   6.634   6.604
 9176SOL     OW28426   1.857   1.378   2.613
 9176SOL    HW128427   1.879   1.312   2.685
 9176SOL    HW228428   1.829   1.465   2.654
 9177SOL     OW28429   0.488   4.057   3.844
 9177SOL    HW128430   0.489   3.959   3.864
 9177SOL    HW228431   0.498   4.071   3.746
 9178SOL     OW28432   1.900   6.582   0.501
 9178SOL    HW128433   1.975   6.638   0.537
 9178SOL    HW228434   1.896   6.591   0.402
 9179SOL     OW28435   4.329   5.676   5.395
 9179SOL    HW128436   4.386   5.700   5.317
 9179SOL    HW228437   4.257   5.613   5.365
 9180SOL     OW28438   0.320   1.066   4.145
 9180SOL    HW128439   0.305   1.039   4.241
 9180SOL    HW228440   0.249   1.130   4.117
 9181SOL     OW28441   3.722   1.683   3.568
 9181SOL    HW128442   3.799   1.721   3.516
 9181SOL    HW228443   3.757   1.622   3.640
 9182SOL     OW28444   1.946   1.154   2.800
 9182SOL    HW128445   1.990   1.083   2.855
 9182SOL    HW228446   1.847   1.149   2.811
 9183SOL     OW28447   6.353   2.990   5.664
 9183SOL    HW128448   6.391   2.921   5.725
 9183SOL    HW228449   6.306   2.945   5.588
 9184SOL     OW28450   3.574   3.029   1.116
 9184SOL    HW128451   3.563   2.939   1.074
 9184SOL    HW228452   3.484   3.067   1.138
 9185SOL     OW28453   0.840   6.869   6.371
 9185SOL    HW128454   0.853   6.770   6.364
 9185SOL    HW228455   0.928   6.915   6.363
 9186SOL     OW28456   5.753   1.112   6.249
 9186SOL    HW128457   5.662   1.081   6.274
 9186SOL    HW228458   5.812   1.112   6.330
 9187SOL     OW28459   4.710   1.885   0.531
 9187SOL    HW128460   4.636   1.891   0.598
 9187SOL    HW228461   4.796   1.866   0.577
 9188SOL     OW28462   1.045   0.535   1.675
 9188SOL    HW128463   1.108   0.462   1.652
 9188SOL    HW228464   0.968   0.497   1.727
 9189SOL     OW28465   3.928   1.364   4.115
 9189SOL    HW128466   3.842   1.405   4.084
 9189SOL    HW228467   3.985   1.341   4.036
 9190SOL     OW28468   6.278   4.080   5.391
 9190SOL    HW128469   6.190   4.034   5.394
 9190SOL    HW228470   6.341   4.030   5.333
 9191SOL     OW28471   5.700   6.385   0.229
 9191SOL    HW128472   5.711   6.325   0.308
 9191SOL    HW228473   5.666   6.474   0.258
 9192SOL     OW28474   6.329   4.419   5.132
 9192SOL    HW128475   6.260   4.492   5.132
 9192SOL    HW228476   6.400   4.439   5.065
 9193SOL     OW28477   3.526   3.292   3.436
 9193SOL    HW128478   3.427   3.308   3.435
 9193SOL    HW228479   3.562   3.313   3.527
 9194SOL     OW28480   3.198   5.397   2.677
 9194SOL    HW128481   3.144   5.402   2.761
 9194SOL    HW228482   3.167   5.466   2.613
 9195SOL     OW28483   6.913   3.111   2.318
 9195SOL    HW128484   6.886   3.021   2.284
 9195SOL    HW228485   7.007   3.108   2.350
 9196SOL     OW28486   4.746   0.369   3.655
 9196SOL    HW128487   4.666   0.309   3.653
 9196SOL    HW228488   4.825   0.318   3.686
 9197SOL     OW28489   3.711   3.525   6.393
 9197SOL    HW128490   3.757   3.440   6.418
 9197SOL    HW228491   3.778   3.597   6.377
 9198SOL     OW28492   6.167   2.784   5.545
 9198SOL    HW128493   6.182   2.789   5.446
 9198SOL    HW228494   6.070   2.773   5.564
 9199SOL     OW28495   1.290   3.796   6.901
 9199SOL    HW128496   1.237   3.870   6.941
 9199SOL    HW228497   1.387   3.819   6.903
 9200SOL     OW28498   6.703   0.699   0.298
 9200SOL    HW128499   6.701   0.783   0.245
 9200SOL    HW228500   6.703   0.620   0.235
 9201SOL     OW28501   0.941   3.827   2.645
 9201SOL    HW128502   1.024   3.883   2.649
 9201SOL    HW228503   0.966   3.733   2.623
 9202SOL     OW28504   3.102   5.418   4.363
 9202SOL    HW128505   3.177   5.415   4.430
 9202SOL    HW228506   3.034   5.485   4.392
 9203SOL     OW28507   5.263   0.837   5.597
 9203SOL    HW128508   5.315   0.834   5.512
 9203SOL    HW228509   5.170   0.871   5.578
 9204SOL     OW28510   4.689   4.343   2.464
 9204SOL    HW128511   4.768   4.392   2.500
 9204SOL    HW228512   4.703   4.322   2.367
 9205SOL     OW28513   5.217   2.545   2.426
 9205SOL    HW128514   5.131   2.596   2.428
 9205SOL    HW228515   5.211   2.466   2.488
 9206SOL     OW28516   0.664   6.975   3.293
 9206SOL    HW128517   0.758   6.952   3.319
 9206SOL    HW228518   0.625   0.012   3.360
 9207SOL     OW28519   4.134   6.638   0.482
 9207SOL    HW128520   4.222   6.657   0.437
 9207SOL    HW228521   4.130   6.686   0.569
 9208SOL     OW28522   5.200   4.264   1.759
 9208SOL    HW128523   5.116   4.232   1.716
 9208SOL    HW228524   5.228   4.201   1.830
 9209SOL     OW28525   4.173   0.961   2.547
 9209SOL    HW128526   4.229   0.897   2.494
 9209SOL    HW228527   4.095   0.912   2.587
 9210SOL     OW28528   1.387   0.318   1.175
 9210SOL    HW128529   1.293   0.350   1.175
 9210SOL    HW228530   1.394   0.234   1.120
 9211SOL     OW28531   5.005   1.370   6.732
 9211SOL    HW128532   5.030   1.273   6.724
 9211SOL    HW228533   5.062   1.413   6.802
 9212SOL     OW28534   5.493   3.729   4.624
 9212SOL    HW128535   5.516   3.779   4.708
 9212SOL    HW228536   5.433   3.652   4.646
 9213SOL     OW28537   5.902   7.008   3.008
 9213SOL    HW128538   5.917   0.080   3.007
 9213SOL    HW228539   5.890   6.975   2.914
 9214SOL     OW28540   2.273   2.153   4.704
 9214SOL    HW128541   2.292   2.096   4.783
 9214SOL    HW228542   2.334   2.233   4.705
 9215SOL     OW28543   0.764   3.431   2.973
 9215SOL    HW128544   0.772   3.437   2.873
 9215SOL    HW228545   0.680   3.476   3.002
 9216SOL     OW28546   1.975   5.519   4.821
 9216SOL    HW128547   2.054   5.512   4.760
 9216SOL    HW228548   1.894   5.484   4.774
 9217SOL     OW28549   4.434   1.015   6.323
 9217SOL    HW128550   4.519   1.043   6.368
 9217SOL    HW228551   4.358   1.069   6.360
 9218SOL     OW28552   5.767   5.617   6.081
 9218SOL    HW128553   5.681   5.605   6.032
 9218SOL    HW228554   5.784   5.538   6.139
 9219SOL     OW28555   3.543   2.706   5.730
 9219SOL    HW128556   3.566   2.780   5.667
 9219SOL    HW228557   3.564   2.735   5.824
 9220SOL     OW28558   1.589   6.192   3.361
 9220SOL    HW128559   1.545   6.173   3.449
 9220SOL    HW228560   1.688   6.201   3.375
 9221SOL     OW28561   2.420   1.044   0.200
 9221SOL    HW128562   2.485   1.010   0.132
 9221SOL    HW228563   2.330   1.053   0.158
 9222SOL     OW28564   1.505   3.761   3.582
 9222SOL    HW128565   1.518   3.817   3.499
 9222SOL    HW228566   1.498   3.664   3.556
 9223SOL     OW28567   0.720   3.571   4.618
 9223SOL    HW128568   0.739   3.655   4.668
 9223SOL    HW228569   0.622   3.557   4.611
 9224SOL     OW28570   2.215   4.124   4.529
 9224SOL    HW128571   2.232   4.123   4.430
 9224SOL    HW228572   2.280   4.187   4.572
 9225SOL     OW28573   4.675   6.485   6.861
 9225SOL    HW128574   4.576   6.485   6.873
 9225SOL    HW228575   4.712   6.575   6.886
 9226SOL     OW28576   0.768   1.002   0.932
 9226SOL    HW128577   0.686   1.054   0.909
 9226SOL    HW228578   0.834   1.009   0.856
 9227SOL     OW28579   2.375   5.601   0.768
 9227SOL    HW128580   2.359   5.600   0.867
 9227SOL    HW228581   2.408   5.512   0.738
 9228SOL     OW28582   2.914   2.653   5.677
 9228SOL    HW128583   2.921   2.564   5.633
 9228SOL    HW228584   2.898   2.641   5.775
 9229SOL     OW28585   0.194   4.619   6.891
 9229SOL    HW128586   0.174   4.712   6.862
 9229SOL    HW228587   0.289   4.596   6.869
 9230SOL     OW28588   4.297   1.517   4.518
 9230SOL    HW128589   4.368   1.587   4.522
 9230SOL    HW228590   4.232   1.538   4.444
 9231SOL     OW28591   6.890   5.825   4.072
 9231SOL    HW128592   6.791   5.835   4.080
 9231SOL    HW228593   6.912   5.780   3.986
 9232SOL     OW28594   1.489   5.154   1.908
 9232SOL    HW128595   1.470   5.080   1.972
 9232SOL    HW228596   1.570   5.131   1.854
 9233SOL     OW28597   0.918   6.785   0.367
 9233SOL    HW128598   0.831   6.754   0.405
 9233SOL    HW228599   0.904   6.813   0.272
 9234SOL     OW28600   2.250   4.391   0.546
 9234SOL    HW128601   2.238   4.292   0.540
 9234SOL    HW228602   2.173   4.431   0.597
 9235SOL     OW28603   2.319   2.348   3.933
 9235SOL    HW128604   2.309   2.392   3.844
 9235SOL    HW228605   2.271   2.260   3.932
 9236SOL     OW28606   2.237   3.965   6.109
 9236SOL    HW128607   2.175   4.043   6.105
 9236SOL    HW228608   2.329   3.997   6.133
 9237SOL     OW28609   6.048   4.989   3.344
 9237SOL    HW128610   6.036   5.070   3.402
 9237SOL    HW228611   6.146   4.972   3.330
 9238SOL     OW28612   1.920   3.003   5.551
 9238SOL    HW128613   1.978   2.950   5.613
 9238SOL    HW228614   1.888   2.943   5.477
 9239SOL     OW28615   0.533   4.631   6.826
 9239SOL    HW128616   0.493   4.690   6.755
 9239SOL    HW228617   0.561   4.687   6.904
 9240SOL     OW28618   4.785   2.312   2.752
 9240SOL    HW128619   4.751   2.406   2.762
 9240SOL    HW228620   4.876   2.313   2.711
 9241SOL     OW28621   5.796   0.127   1.096
 9241SOL    HW128622   5.874   0.068   1.077
 9241SOL    HW228623   5.811   0.217   1.054
 9242SOL     OW28624   1.404   2.874   0.669
 9242SOL    HW128625   1.418   2.827   0.582
 9242SOL    HW228626   1.397   2.806   0.743
 9243SOL     OW28627   1.200   0.789   0.059
 9243SOL    HW128628   1.244   0.858   0.116
 9243SOL    HW228629   1.116   0.758   0.102
 9244SOL     OW28630   4.246   6.320   5.412
 9244SOL    HW128631   4.162   6.374   5.404
 9244SOL    HW228632   4.326   6.380   5.401
 9245SOL     OW28633   0.833   4.054   3.089
 9245SOL    HW128634   0.736   4.071   3.107
 9245SOL    HW228635   0.857   4.094   3.000
 9246SOL     OW28636   6.488   0.943   5.357
 9246SOL    HW128637   6.428   0.864   5.346
 9246SOL    HW228638   6.473   1.007   5.282
 9247SOL     OW28639   3.626   6.037   3.463
 9247SOL    HW128640   3.723   6.033   3.438
 9247SOL    HW228641   3.576   6.089   3.394
 9248SOL     OW28642   2.211   1.409   5.752
 9248SOL    HW128643   2.193   1.368   5.663
 9248SOL    HW228644   2.160   1.359   5.822
 9249SOL     OW28645   3.903   5.442   1.448
 9249SOL    HW128646   3.832   5.398   1.502
 9249SOL    HW228647   3.929   5.528   1.491
 9250SOL     OW28648   0.285   2.740   3.938
 9250SOL    HW128649   0.263   2.647   3.907
 9250SOL    HW228650   0.368   2.737   3.994
 9251SOL     OW28651   3.343   2.761   1.176
 9251SOL    HW128652   3.351   2.688   1.109
 9251SOL    HW228653   3.387   2.733   1.262
 9252SOL     OW28654   5.568   1.066   5.931
 9252SOL    HW128655   5.653   1.050   5.880
 9252SOL    HW228656   5.501   1.110   5.870
 9253SOL     OW28657   0.718   4.943   5.159
 9253SOL    HW128658   0.794   4.971   5.100
 9253SOL    HW228659   0.748   4.871   5.221
 9254SOL     OW28660   6.873   5.142   3.274
 9254SOL    HW128661   6.829   5.158   3.186
 9254SOL    HW228662   6.845   5.213   3.339
 9255SOL     OW28663   6.810   4.324   0.418
 9255SOL    HW128664   6.866   4.387   0.472
 9255SOL    HW228665   6.727   4.370   0.388
 9256SOL     OW28666   1.811   6.653   1.545
 9256SOL    HW128667   1.891   6.668   1.488
 9256SOL    HW228668   1.762   6.739   1.558
 9257SOL     OW28669   6.624   5.928   4.058
 9257SOL    HW128670   6.641   5.903   3.963
 9257SOL    HW228671   6.571   6.013   4.061
 9258SOL     OW28672   3.598   4.636   1.183
 9258SOL    HW128673   3.532   4.674   1.249
 9258SOL    HW228674   3.550   4.611   1.099
 9259SOL     OW28675   1.990   1.553   6.465
 9259SOL    HW128676   1.926   1.630   6.469
 9259SOL    HW228677   2.045   1.559   6.381
 9260SOL     OW28678   5.729   3.569   4.751
 9260SOL    HW128679   5.656   3.617   4.801
 9260SOL    HW228680   5.740   3.611   4.660
 9261SOL     OW28681   3.894   2.375   1.710
 9261SOL    HW128682   3.959   2.357   1.784
 9261SOL    HW228683   3.804   2.394   1.748
 9262SOL     OW28684   6.052   5.938   3.906
 9262SOL    HW128685   6.145   5.970   3.888
 9262SOL    HW228686   5.987   5.991   3.853
 9263SOL     OW28687   2.163   3.765   3.878
 9263SOL    HW128688   2.189   3.765   3.974
 9263SOL    HW228689   2.063   3.765   3.870
 9264SOL     OW28690   4.292   4.205   6.942
 9264SOL    HW128691   4.270   4.134   6.875
 9264SOL    HW228692   4.384   4.241   6.923
 9265SOL     OW28693   5.393   2.180   0.346
 9265SOL    HW128694   5.419   2.083   0.348
 9265SOL    HW228695   5.347   2.203   0.431
 9266SOL     OW28696   0.134   4.310   1.094
 9266SOL    HW128697   0.072   4.294   1.171
 9266SOL    HW228698   0.217   4.255   1.107
 9267SOL     OW28699   0.250   1.046   4.670
 9267SOL    HW128700   0.216   0.977   4.734
 9267SOL    HW228701   0.173   1.104   4.641
 9268SOL     OW28702   0.745   6.496   2.274
 9268SOL    HW128703   0.711   6.513   2.181
 9268SOL    HW228704   0.677   6.524   2.341
 9269SOL     OW28705   4.054   0.574   1.348
 9269SOL    HW128706   4.099   0.496   1.391
 9269SOL    HW228707   4.076   0.576   1.251
 9270SOL     OW28708   1.424   0.672   6.138
 9270SOL    HW128709   1.392   0.761   6.104
 9270SOL    HW228710   1.517   0.680   6.172
 9271SOL     OW28711   1.347   0.109   4.480
 9271SOL    HW128712   1.429   0.147   4.522
 9271SOL    HW228713   1.372   0.056   4.399
 9272SOL     OW28714   6.593   6.516   6.045
 9272SOL    HW128715   6.598   6.509   5.945
 9272SOL    HW228716   6.569   6.610   6.070
 9273SOL     OW28717   4.788   4.845   4.692
 9273SOL    HW128718   4.802   4.748   4.714
 9273SOL    HW228719   4.848   4.871   4.617
 9274SOL     OW28720   1.148   2.907   6.990
 9274SOL    HW128721   1.224   2.948   0.014
 9274SOL    HW228722   1.090   2.855   0.026
 9275SOL     OW28723   0.584   0.201   0.811
 9275SOL    HW128724   0.667   0.256   0.820
 9275SOL    HW228725   0.605   0.117   0.762
 9276SOL     OW28726   3.151   5.053   0.509
 9276SOL    HW128727   3.215   5.123   0.541
 9276SOL    HW228728   3.168   5.033   0.413
 9277SOL     OW28729   5.366   5.433   2.359
 9277SOL    HW128730   5.458   5.454   2.327
 9277SOL    HW228731   5.314   5.519   2.367
 9278SOL     OW28732   0.583   0.719   4.647
 9278SOL    HW128733   0.526   0.654   4.597
 9278SOL    HW228734   0.604   0.681   4.738
 9279SOL     OW28735   4.586   6.078   1.307
 9279SOL    HW128736   4.634   6.031   1.382
 9279SOL    HW228737   4.567   6.172   1.334
 9280SOL     OW28738   1.541   0.607   2.765
 9280SOL    HW128739   1.580   0.621   2.856
 9280SOL    HW228740   1.548   0.692   2.713
 9281SOL     OW28741   2.876   5.081   0.315
 9281SOL    HW128742   2.951   5.083   0.381
 9281SOL    HW228743   2.848   4.986   0.299
 9282SOL     OW28744   3.218   6.746   4.867
 9282SOL    HW128745   3.256   6.676   4.928
 9282SOL    HW228746   3.280   6.824   4.863
 9283SOL     OW28747   4.447   6.196   6.960
 9283SOL    HW128748   4.490   6.211   6.871
 9283SOL    HW228749   4.494   6.121   7.007
 9284SOL     OW28750   3.193   3.675   4.895
 9284SOL    HW128751   3.172   3.598   4.835
 9284SOL    HW228752   3.285   3.710   4.873
 9285SOL     OW28753   6.960   4.150   2.276
 9285SOL    HW128754   6.950   4.063   2.326
 9285SOL    HW228755   0.029   4.178   2.278
 9286SOL     OW28756   4.802   5.704   1.441
 9286SOL    HW128757   4.834   5.798   1.440
 9286SOL    HW228758   4.776   5.678   1.534
 9287SOL     OW28759   3.384   4.970   6.189
 9287SOL    HW128760   3.356   4.905   6.259
 9287SOL    HW228761   3.352   5.062   6.214
 9288SOL     OW28762   4.388   2.032   2.923
 9288SOL    HW128763   4.359   1.937   2.911
 9288SOL    HW228764   4.318   2.093   2.886
 9289SOL     OW28765   4.776   5.828   0.102
 9289SOL    HW128766   4.714   5.788   0.035
 9289SOL    HW228767   4.798   5.761   0.173
 9290SOL     OW28768   5.202   0.431   4.562
 9290SOL    HW128769   5.182   0.342   4.604
 9290SOL    HW228770   5.130   0.454   4.496
 9291SOL     OW28771   1.365   4.560   5.850
 9291SOL    HW128772   1.375   4.635   5.915
 9291SOL    HW228773   1.288   4.502   5.877
 9292SOL     OW28774   1.800   2.082   6.313
 9292SOL    HW128775   1.806   2.093   6.413
 9292SOL    HW228776   1.860   2.149   6.269
 9293SOL     OW28777   5.270   2.641   5.347
 9293SOL    HW128778   5.234   2.686   5.265
 9293SOL    HW228779   5.319   2.709   5.402
 9294SOL     OW28780   4.571   1.296   0.287
 9294SOL    HW128781   4.616   1.326   0.203
 9294SOL    HW228782   4.475   1.320   0.284
 9295SOL     OW28783   0.897   1.478   5.834
 9295SOL    HW128784   0.866   1.476   5.738
 9295SOL    HW228785   0.861   1.398   5.882
 9296SOL     OW28786   1.608   4.511   0.227
 9296SOL    HW128787   1.607   4.521   0.326
 9296SOL    HW228788   1.605   4.601   0.184
 9297SOL     OW28789   5.712   6.351   2.807
 9297SOL    HW128790   5.689   6.386   2.716
 9297SOL    HW228791   5.742   6.427   2.865
 9298SOL     OW28792   1.395   6.132   5.935
 9298SOL    HW128793   1.326   6.154   6.004
 9298SOL    HW228794   1.363   6.057   5.878
 9299SOL     OW28795   2.178   2.580   4.916
 9299SOL    HW128796   2.160   2.679   4.918
 9299SOL    HW228797   2.124   2.538   4.843
 9300SOL     OW28798   1.542   6.004   6.124
 9300SOL    HW128799   1.499   6.077   6.072
 9300SOL    HW228800   1.604   5.953   6.064
 9301SOL     OW28801   0.135   4.188   4.823
 9301SOL    HW128802   0.206   4.241   4.867
 9301SOL    HW228803   0.170   4.151   4.736
 9302SOL     OW28804   1.653   3.322   5.172
 9302SOL    HW128805   1.656   3.369   5.084
 9302SOL    HW228806   1.696   3.379   5.242
 9303SOL     OW28807   2.469   4.648   0.963
 9303SOL    HW128808   2.378   4.683   0.983
 9303SOL    HW228809   2.462   4.567   0.906
 9304SOL     OW28810   4.835   5.138   0.637
 9304SOL    HW128811   4.821   5.110   0.542
 9304SOL    HW228812   4.925   5.180   0.647
 9305SOL     OW28813   2.387   1.567   1.713
 9305SOL    HW128814   2.289   1.572   1.694
 9305SOL    HW228815   2.432   1.648   1.675
 9306SOL     OW28816   0.449   5.600   4.811
 9306SOL    HW128817   0.384   5.650   4.868
 9306SOL    HW228818   0.428   5.614   4.714
 9307SOL     OW28819   2.583   3.185   1.705
 9307SOL    HW128820   2.669   3.135   1.717
 9307SOL    HW228821   2.514   3.123   1.668
 9308SOL     OW28822   1.945   3.566   1.948
 9308SOL    HW128823   1.950   3.659   1.910
 9308SOL    HW228824   2.033   3.544   1.991
 9309SOL     OW28825   5.036   5.964   5.832
 9309SOL    HW128826   5.043   6.063   5.816
 9309SOL    HW228827   5.042   5.946   5.931
 9310SOL     OW28828   5.343   6.112   6.439
 9310SOL    HW128829   5.257   6.084   6.482
 9310SOL    HW228830   5.378   6.037   6.383
 9311SOL     OW28831   4.545   3.428   1.454
 9311SOL    HW128832   4.614   3.497   1.476
 9311SOL    HW228833   4.479   3.422   1.528
 9312SOL     OW28834   0.454   2.443   2.149
 9312SOL    HW128835   0.465   2.354   2.195
 9312SOL    HW228836   0.357   2.465   2.143
 9313SOL     OW28837   0.519   6.184   2.234
 9313SOL    HW128838   0.468   6.112   2.281
 9313SOL    HW228839   0.467   6.268   2.235
 9314SOL     OW28840   4.885   3.241   0.045
 9314SOL    HW128841   4.919   3.150   0.019
 9314SOL    HW228842   4.785   3.239   0.050
 9315SOL     OW28843   5.969   0.903   6.251
 9315SOL    HW128844   5.905   0.889   6.326
 9315SOL    HW228845   5.950   0.991   6.207
 9316SOL     OW28846   4.319   0.760   5.629
 9316SOL    HW128847   4.300   0.718   5.717
 9316SOL    HW228848   4.418   0.757   5.612
 9317SOL     OW28849   4.150   5.968   3.324
 9317SOL    HW128850   4.081   6.027   3.364
 9317SOL    HW228851   4.111   5.919   3.245
 9318SOL     OW28852   4.913   6.211   1.168
 9318SOL    HW128853   5.000   6.222   1.216
 9318SOL    HW228854   4.929   6.183   1.074
 9319SOL     OW28855   2.189   3.982   0.265
 9319SOL    HW128856   2.257   3.910   0.250
 9319SOL    HW228857   2.102   3.941   0.293
 9320SOL     OW28858   6.450   6.528   6.757
 9320SOL    HW128859   6.529   6.479   6.796
 9320SOL    HW228860   6.414   6.476   6.680
 9321SOL     OW28861   0.359   3.693   4.590
 9321SOL    HW128862   0.283   3.678   4.527
 9321SOL    HW228863   0.397   3.604   4.618
 9322SOL     OW28864   5.754   4.033   5.520
 9322SOL    HW128865   5.748   4.039   5.420
 9322SOL    HW228866   5.674   4.077   5.560
 9323SOL     OW28867   1.353   2.632   4.520
 9323SOL    HW128868   1.384   2.690   4.595
 9323SOL    HW228869   1.293   2.683   4.460
 9324SOL     OW28870   0.574   4.280   1.260
 9324SOL    HW128871   0.552   4.335   1.340
 9324SOL    HW228872   0.671   4.256   1.260
 9325SOL     OW28873   1.216   4.855   2.855
 9325SOL    HW128874   1.299   4.908   2.840
 9325SOL    HW228875   1.240   4.763   2.887
 9326SOL     OW28876   4.172   4.149   0.777
 9326SOL    HW128877   4.114   4.122   0.853
 9326SOL    HW228878   4.188   4.070   0.717
 9327SOL     OW28879   4.335   0.052   4.077
 9327SOL    HW128880   4.408   0.100   4.124
 9327SOL    HW228881   4.312   6.994   4.127
 9328SOL     OW28882   2.753   6.348   4.624
 9328SOL    HW128883   2.764   6.406   4.705
 9328SOL    HW228884   2.836   6.352   4.569
 9329SOL     OW28885   7.017   5.379   6.661
 9329SOL    HW128886   6.992   5.471   6.689
 9329SOL    HW228887   6.936   5.331   6.626
 9330SOL     OW28888   6.076   5.471   6.394
 9330SOL    HW128889   6.167   5.429   6.402
 9330SOL    HW228890   6.009   5.414   6.440
 9331SOL     OW28891   1.496   3.066   4.604
 9331SOL    HW128892   1.420   3.090   4.665
 9331SOL    HW228893   1.564   3.140   4.606
 9332SOL     OW28894   4.513   5.511   1.062
 9332SOL    HW128895   4.607   5.500   1.095
 9332SOL    HW228896   4.498   5.606   1.035
 9333SOL     OW28897   3.690   4.495   0.715
 9333SOL    HW128898   3.787   4.513   0.730
 9333SOL    HW228899   3.681   4.417   0.652
 9334SOL     OW28900   5.673   6.239   5.435
 9334SOL    HW128901   5.720   6.198   5.357
 9334SOL    HW228902   5.675   6.175   5.512
 9335SOL     OW28903   2.187   2.863   1.514
 9335SOL    HW128904   2.197   2.924   1.436
 9335SOL    HW228905   2.173   2.769   1.482
 9336SOL     OW28906   6.744   0.271   5.266
 9336SOL    HW128907   6.784   0.360   5.289
 9336SOL    HW228908   6.758   0.208   5.342
 9337SOL     OW28909   2.220   0.755   6.586
 9337SOL    HW128910   2.178   0.744   6.676
 9337SOL    HW228911   2.313   0.791   6.597
 9338SOL     OW28912   6.149   6.240   6.797
 9338SOL    HW128913   6.058   6.278   6.778
 9338SOL    HW228914   6.141   6.166   6.863
 9339SOL     OW28915   6.633   4.418   5.457
 9339SOL    HW128916   6.539   4.383   5.449
 9339SOL    HW228917   6.651   4.442   5.552
 9340SOL     OW28918   4.322   6.132   2.214
 9340SOL    HW128919   4.329   6.232   2.212
 9340SOL    HW228920   4.268   6.101   2.135
 9341SOL     OW28921   5.473   3.661   6.801
 9341SOL    HW128922   5.386   3.676   6.754
 9341SOL    HW228923   5.534   3.737   6.782
 9342SOL     OW28924   2.917   0.298   4.305
 9342SOL    HW128925   2.937   0.344   4.218
 9342SOL    HW228926   2.955   0.206   4.304
 9343SOL     OW28927   4.956   4.336   1.639
 9343SOL    HW128928   4.914   4.425   1.659
 9343SOL    HW228929   4.892   4.278   1.589
 9344SOL     OW28930   5.969   5.519   4.648
 9344SOL    HW128931   6.022   5.504   4.565
 9344SOL    HW228932   5.883   5.469   4.643
 9345SOL     OW28933   0.391   6.800   1.353
 9345SOL    HW128934   0.412   6.837   1.443
 9345SOL    HW228935   0.371   6.875   1.290
 9346SOL     OW28936   5.423   6.366   1.378
 9346SOL    HW128937   5.406   6.270   1.403
 9346SOL    HW228938   5.337   6.416   1.376
 9347SOL     OW28939   3.587   5.485   0.834
 9347SOL    HW128940   3.606   5.408   0.897
 9347SOL    HW228941   3.671   5.537   0.820
 9348SOL     OW28942   1.940   5.917   1.791
 9348SOL    HW128943   1.948   5.967   1.705
 9348SOL    HW228944   1.974   5.823   1.779
 9349SOL     OW28945   6.261   5.467   1.907
 9349SOL    HW128946   6.288   5.431   1.818
 9349SOL    HW228947   6.181   5.416   1.941
 9350SOL     OW28948   0.057   1.094   4.970
 9350SOL    HW128949   0.107   1.027   4.915
 9350SOL    HW228950   0.084   1.084   5.066
 9351SOL     OW28951   3.090   1.357   6.677
 9351SOL    HW128952   2.998   1.322   6.659
 9351SOL    HW228953   3.156   1.307   6.622
 9352SOL     OW28954   3.297   1.818   6.373
 9352SOL    HW128955   3.320   1.848   6.280
 9352SOL    HW228956   3.294   1.897   6.434
 9353SOL     OW28957   1.224   3.598   1.033
 9353SOL    HW128958   1.149   3.663   1.021
 9353SOL    HW228959   1.235   3.577   1.130
 9354SOL     OW28960   5.307   1.803   1.422
 9354SOL    HW128961   5.213   1.770   1.417
 9354SOL    HW228962   5.311   1.897   1.389
 9355SOL     OW28963   6.483   6.901   3.628
 9355SOL    HW128964   6.562   6.944   3.583
 9355SOL    HW228965   6.402   6.958   3.614
 9356SOL     OW28966   4.205   4.950   2.006
 9356SOL    HW128967   4.177   4.883   2.074
 9356SOL    HW228968   4.300   4.977   2.023
 9357SOL     OW28969   2.922   3.027   0.845
 9357SOL    HW128970   2.979   3.044   0.765
 9357SOL    HW228971   2.965   3.066   0.926
 9358SOL     OW28972   6.264   4.488   1.892
 9358SOL    HW128973   6.267   4.390   1.914
 9358SOL    HW228974   6.172   4.512   1.862
 9359SOL     OW28975   0.003   3.983   6.061
 9359SOL    HW128976   6.983   3.901   6.028
 9359SOL    HW228977   0.041   3.966   6.152
 9360SOL     OW28978   2.260   1.043   6.227
 9360SOL    HW128979   2.356   1.020   6.243
 9360SOL    HW228980   2.238   1.025   6.131
 9361SOL     OW28981   3.056   6.460   2.227
 9361SOL    HW128982   3.039   6.395   2.153
 9361SOL    HW228983   2.972   6.508   2.250
 9362SOL     OW28984   2.404   1.381   2.452
 9362SOL    HW128985   2.493   1.411   2.486
 9362SOL    HW228986   2.412   1.357   2.355
 9363SOL     OW28987   3.177   6.094   2.854
 9363SOL    HW128988   3.120   6.024   2.895
 9363SOL    HW228989   3.127   6.181   2.852
 9364SOL     OW28990   4.451   3.175   6.722
 9364SOL    HW128991   4.434   3.164   6.819
 9364SOL    HW228992   4.429   3.090   6.674
 9365SOL     OW28993   2.748   1.809   4.913
 9365SOL    HW128994   2.674   1.849   4.859
 9365SOL    HW228995   2.821   1.778   4.852
 9366SOL     OW28996   3.435   2.128   0.283
 9366SOL    HW128997   3.362   2.192   0.259
 9366SOL    HW228998   3.524   2.174   0.273
 9367SOL     OW28999   6.798   5.555   3.292
 9367SOL    HW129000   6.810   5.510   3.381
 9367SOL    HW229001   6.724   5.511   3.242
 9368SOL     OW29002   3.233   2.159   1.717
 9368SOL    HW129003   3.270   2.106   1.793
 9368SOL    HW229004   3.270   2.125   1.631
 9369SOL     OW29005   0.356   1.996   5.454
 9369SOL    HW129006   0.294   2.072   5.433
 9369SOL    HW229007   0.305   1.910   5.451
 9370SOL     OW29008   6.515   0.693   2.337
 9370SOL    HW129009   6.457   0.649   2.406
 9370SOL    HW229010   6.571   0.763   2.380
 9371SOL     OW29011   1.116   6.139   0.677
 9371SOL    HW129012   1.102   6.210   0.608
 9371SOL    HW229013   1.214   6.125   0.692
 9372SOL     OW29014   5.804   6.670   3.367
 9372SOL    HW129015   5.757   6.723   3.437
 9372SOL    HW229016   5.805   6.573   3.393
 9373SOL     OW29017   4.434   1.539   3.178
 9373SOL    HW129018   4.497   1.535   3.101
 9373SOL    HW229019   4.470   1.600   3.248
 9374SOL     OW29020   5.692   2.677   0.383
 9374SOL    HW129021   5.786   2.681   0.416
 9374SOL    HW229022   5.648   2.593   0.415
 9375SOL     OW29023   6.978   1.152   2.623
 9375SOL    HW129024   0.038   1.145   2.572
 9375SOL    HW229025   6.988   1.217   2.697
 9376SOL     OW29026   2.930   3.625   0.498
 9376SOL    HW129027   2.983   3.544   0.523
 9376SOL    HW229028   2.884   3.609   0.410
 9377SOL     OW29029   6.595   5.515   3.995
 9377SOL    HW129030   6.688   5.480   3.981
 9377SOL    HW229031   6.538   5.492   3.917
 9378SOL     OW29032   2.047   0.297   0.140
 9378SOL    HW129033   1.988   0.247   0.203
 9378SOL    HW229034   2.128   0.243   0.119
 9379SOL     OW29035   4.589   4.804   4.066
 9379SOL    HW129036   4.646   4.756   4.000
 9379SOL    HW229037   4.492   4.787   4.046
 9380SOL     OW29038   6.253   6.951   5.627
 9380SOL    HW129039   6.344   6.937   5.665
 9380SOL    HW229040   6.189   6.975   5.700
 9381SOL     OW29041   2.328   2.161   5.348
 9381SOL    HW129042   2.321   2.260   5.365
 9381SOL    HW229043   2.344   2.145   5.250
 9382SOL     OW29044   3.808   0.941   2.812
 9382SOL    HW129045   3.715   0.943   2.776
 9382SOL    HW229046   3.805   0.943   2.912
 9383SOL     OW29047   3.730   6.590   4.498
 9383SOL    HW129048   3.661   6.631   4.557
 9383SOL    HW229049   3.724   6.631   4.407
 9384SOL     OW29050   4.832   6.313   2.618
 9384SOL    HW129051   4.821   6.301   2.519
 9384SOL    HW229052   4.757   6.369   2.653
 9385SOL     OW29053   4.055   1.120   3.477
 9385SOL    HW129054   4.058   1.021   3.489
 9385SOL    HW229055   4.131   1.162   3.525
 9386SOL     OW29056   3.456   6.235   5.540
 9386SOL    HW129057   3.361   6.247   5.568
 9386SOL    HW229058   3.470   6.280   5.452
 9387SOL     OW29059   3.215   6.603   1.318
 9387SOL    HW129060   3.275   6.670   1.361
 9387SOL    HW229061   3.161   6.646   1.246
 9388SOL     OW29062   0.622   6.698   3.007
 9388SOL    HW129063   0.570   6.684   3.091
 9388SOL    HW229064   0.567   6.671   2.928
 9389SOL     OW29065   2.282   0.408   5.501
 9389SOL    HW129066   2.335   0.450   5.574
 9389SOL    HW229067   2.283   0.309   5.512
 9390SOL     OW29068   3.810   5.432   2.760
 9390SOL    HW129069   3.792   5.530   2.774
 9390SOL    HW229070   3.900   5.409   2.798
 9391SOL     OW29071   1.337   1.619   5.627
 9391SOL    HW129072   1.300   1.684   5.561
 9391SOL    HW229073   1.352   1.531   5.582
 9392SOL     OW29074   1.521   6.866   4.781
 9392SOL    HW129075   1.589   6.907   4.720
 9392SOL    HW229076   1.431   6.871   4.739
 9393SOL     OW29077   4.060   2.086   5.520
 9393SOL    HW129078   3.985   2.146   5.548
 9393SOL    HW229079   4.129   2.081   5.592
 9394SOL     OW29080   6.167   2.723   2.976
 9394SOL    HW129081   6.142   2.766   2.889
 9394SOL    HW229082   6.188   2.627   2.961
 9395SOL     OW29083   2.582   2.976   0.298
 9395SOL    HW129084   2.500   2.920   0.284
 9395SOL    HW229085   2.609   2.971   0.394
 9396SOL     OW29086   6.067   6.550   5.005
 9396SOL    HW129087   6.115   6.611   4.942
 9396SOL    HW229088   6.096   6.456   4.989
 9397SOL     OW29089   1.866   0.618   6.886
 9397SOL    HW129090   1.793   0.646   6.948
 9397SOL    HW229091   1.830   0.609   6.793
 9398SOL     OW29092   2.533   1.654   0.003
 9398SOL    HW129093   2.456   1.594   0.027
 9398SOL    HW229094   2.533   1.734   0.063
 9399SOL     OW29095   6.464   1.818   6.497
 9399SOL    HW129096   6.441   1.892   6.433
 9399SOL    HW229097   6.436   1.730   6.457
 9400SOL     OW29098   5.125   3.442   1.471
 9400SOL    HW129099   5.149   3.431   1.568
 9400SOL    HW229100   5.162   3.365   1.419
 9401SOL     OW29101   3.117   6.382   3.899
 9401SOL    HW129102   3.122   6.370   3.800
 9401SOL    HW229103   3.106   6.292   3.942
 9402SOL     OW29104   2.804   5.424   6.759
 9402SOL    HW129105   2.868   5.483   6.808
 9402SOL    HW229106   2.844   5.396   6.672
 9403SOL     OW29107   5.532   1.354   3.412
 9403SOL    HW129108   5.472   1.374   3.335
 9403SOL    HW229109   5.561   1.440   3.455
 9404SOL     OW29110   0.849   5.036   6.905
 9404SOL    HW129111   0.853   4.936   6.899
 9404SOL    HW229112   0.778   5.070   6.844
 9405SOL     OW29113   5.961   6.419   1.503
 9405SOL    HW129114   5.903   6.485   1.455
 9405SOL    HW229115   6.056   6.430   1.474
 9406SOL     OW29116   0.162   2.158   5.338
 9406SOL    HW129117   0.145   2.228   5.268
 9406SOL    HW229118   0.113   2.074   5.314
 9407SOL     OW29119   3.265   6.608   3.579
 9407SOL    HW129120   3.321   6.659   3.644
 9407SOL    HW229121   3.175   6.650   3.572
 9408SOL     OW29122   3.588   1.437   6.654
 9408SOL    HW129123   3.596   1.364   6.587
 9408SOL    HW229124   3.678   1.452   6.696
 9409SOL     OW29125   5.131   3.858   3.826
 9409SOL    HW129126   5.150   3.812   3.913
 9409SOL    HW229127   5.033   3.878   3.820
 9410SOL     OW29128   4.031   6.280   2.286
 9410SOL    HW129129   4.001   6.374   2.271
 9410SOL    HW229130   4.050   6.237   2.197
 9411SOL     OW29131   4.088   5.621   0.985
 9411SOL    HW129132   4.059   5.713   0.959
 9411SOL    HW229133   4.077   5.609   1.083
 9412SOL     OW29134   0.375   2.926   1.205
 9412SOL    HW129135   0.304   2.895   1.141
 9412SOL    HW229136   0.335   2.937   1.296
 9413SOL     OW29137   4.649   5.473   5.580
 9413SOL    HW129138   4.625   5.558   5.533
 9413SOL    HW229139   4.743   5.480   5.615
 9414SOL     OW29140   3.256   1.709   2.552
 9414SOL    HW129141   3.298   1.643   2.490
 9414SOL    HW229142   3.328   1.764   2.595
 9415SOL     OW29143   1.902   6.781   2.169
 9415SOL    HW129144   1.890   6.723   2.089
 9415SOL    HW229145   1.823   6.841   2.179
 9416SOL     OW29146   1.092   1.850   1.606
 9416SOL    HW129147   1.041   1.926   1.566
 9416SOL    HW229148   1.030   1.772   1.620
 9417SOL     OW29149   2.886   5.808   5.315
 9417SOL    HW129150   2.834   5.878   5.266
 9417SOL    HW229151   2.980   5.807   5.281
 9418SOL     OW29152   2.507   5.551   1.565
 9418SOL    HW129153   2.471   5.557   1.472
 9418SOL    HW229154   2.553   5.463   1.577
 9419SOL     OW29155   2.811   6.558   5.095
 9419SOL    HW129156   2.749   6.479   5.089
 9419SOL    HW229157   2.757   6.640   5.114
 9420SOL     OW29158   6.660   1.368   4.585
 9420SOL    HW129159   6.627   1.342   4.676
 9420SOL    HW229160   6.587   1.357   4.518
 9421SOL     OW29161   1.649   4.836   5.517
 9421SOL    HW129162   1.742   4.846   5.553
 9421SOL    HW229163   1.653   4.804   5.422
 9422SOL     OW29164   5.488   6.985   2.409
 9422SOL    HW129165   5.443   6.956   2.325
 9422SOL    HW229166   5.439   6.948   2.488
 9423SOL     OW29167   4.432   1.092   3.277
 9423SOL    HW129168   4.457   1.186   3.302
 9423SOL    HW229169   4.395   1.092   3.184
 9424SOL     OW29170   4.780   0.270   5.682
 9424SOL    HW129171   4.765   0.192   5.621
 9424SOL    HW229172   4.784   0.238   5.777
 9425SOL     OW29173   0.467   3.656   5.551
 9425SOL    HW129174   0.528   3.584   5.517
 9425SOL    HW229175   0.429   3.628   5.639
 9426SOL     OW29176   2.818   0.936   0.185
 9426SOL    HW129177   2.818   0.977   0.094
 9426SOL    HW229178   2.882   0.985   0.243
 9427SOL     OW29179   2.715   5.112   4.887
 9427SOL    HW129180   2.729   5.117   4.788
 9427SOL    HW229181   2.711   5.016   4.915
 9428SOL     OW29182   5.962   0.240   2.943
 9428SOL    HW129183   5.948   0.217   2.847
 9428SOL    HW229184   5.938   0.336   2.958
 9429SOL     OW29185   1.274   4.142   2.347
 9429SOL    HW129186   1.186   4.186   2.327
 9429SOL    HW229187   1.310   4.102   2.263
 9430SOL     OW29188   6.723   6.935   2.222
 9430SOL    HW129189   6.706   6.920   2.320
 9430SOL    HW229190   6.820   6.957   2.209
 9431SOL     OW29191   6.273   4.150   6.743
 9431SOL    HW129192   6.344   4.104   6.798
 9431SOL    HW229193   6.183   4.130   6.782
 9432SOL     OW29194   6.278   0.083   3.584
 9432SOL    HW129195   6.208   0.069   3.514
 9432SOL    HW229196   6.310   0.178   3.582
 9433SOL     OW29197   3.221   4.994   5.320
 9433SOL    HW129198   3.227   4.980   5.419
 9433SOL    HW229199   3.225   4.906   5.273
 9434SOL     OW29200   5.858   4.450   3.130
 9434SOL    HW129201   5.821   4.459   3.037
 9434SOL    HW229202   5.933   4.515   3.142
 9435SOL     OW29203   1.824   1.610   4.132
 9435SOL    HW129204   1.824   1.540   4.203
 9435SOL    HW229205   1.742   1.599   4.075
 9436SOL     OW29206   1.596   3.813   0.732
 9436SOL    HW129207   1.500   3.814   0.705
 9436SOL    HW229208   1.652   3.780   0.656
 9437SOL     OW29209   1.143   5.462   3.443
 9437SOL    HW129210   1.192   5.548   3.426
 9437SOL    HW229211   1.162   5.397   3.370
 9438SOL     OW29212   0.801   6.222   2.177
 9438SOL    HW129213   0.711   6.181   2.195
 9438SOL    HW229214   0.810   6.307   2.229
 9439SOL     OW29215   6.877   3.314   2.033
 9439SOL    HW129216   6.963   3.287   2.076
 9439SOL    HW229217   6.803   3.254   2.063
 9440SOL     OW29218   4.970   6.457   5.134
 9440SOL    HW129219   5.063   6.462   5.097
 9440SOL    HW229220   4.923   6.378   5.094
 9441SOL     OW29221   1.491   5.200   5.095
 9441SOL    HW129222   1.582   5.241   5.097
 9441SOL    HW229223   1.471   5.155   5.182
 9442SOL     OW29224   6.941   2.094   0.054
 9442SOL    HW129225   6.974   2.096   6.986
 9442SOL    HW229226   7.016   2.066   0.115
 9443SOL     OW29227   1.816   4.844   1.594
 9443SOL    HW129228   1.877   4.845   1.673
 9443SOL    HW229229   1.870   4.835   1.511
 9444SOL     OW29230   0.491   2.977   0.173
 9444SOL    HW129231   0.430   2.997   0.250
 9444SOL    HW229232   0.480   2.882   0.146
 9445SOL     OW29233   4.863   3.799   2.033
 9445SOL    HW129234   4.828   3.883   1.992
 9445SOL    HW229235   4.875   3.730   1.961
 9446SOL     OW29236   6.724   6.444   2.672
 9446SOL    HW129237   6.710   6.497   2.755
 9446SOL    HW229238   6.639   6.399   2.645
 9447SOL     OW29239   5.178   3.623   1.802
 9447SOL    HW129240   5.272   3.602   1.777
 9447SOL    HW229241   5.168   3.619   1.901
 9448SOL     OW29242   5.348   6.278   6.090
 9448SOL    HW129243   5.435   6.286   6.140
 9448SOL    HW229244   5.333   6.361   6.037
 9449SOL     OW29245   6.463   5.501   5.183
 9449SOL    HW129246   6.549   5.470   5.224
 9449SOL    HW229247   6.411   5.555   5.250
 9450SOL     OW29248   2.167   5.016   4.761
 9450SOL    HW129249   2.206   5.029   4.852
 9450SOL    HW229250   2.221   4.949   4.711
 9451SOL     OW29251   5.089   5.753   6.212
 9451SOL    HW129252   5.093   5.695   6.131
 9451SOL    HW229253   5.153   5.719   6.281
 9452SOL     OW29254   2.125   3.846   1.006
 9452SOL    HW129255   2.034   3.847   0.964
 9452SOL    HW229256   2.187   3.789   0.951
 9453SOL     OW29257   1.970   4.800   3.039
 9453SOL    HW129258   2.043   4.824   2.975
 9453SOL    HW229259   2.002   4.731   3.103
 9454SOL     OW29260   1.348   4.043   6.139
 9454SOL    HW129261   1.293   3.967   6.103
 9454SOL    HW229262   1.441   4.011   6.158
 9455SOL     OW29263   3.426   1.863   2.707
 9455SOL    HW129264   3.474   1.826   2.786
 9455SOL    HW229265   3.488   1.868   2.629
 9456SOL     OW29266   0.490   3.949   0.981
 9456SOL    HW129267   0.552   3.931   1.058
 9456SOL    HW229268   0.543   3.958   0.897
 9457SOL     OW29269   2.049   3.766   6.787
 9457SOL    HW129270   2.141   3.733   6.810
 9457SOL    HW229271   1.984   3.732   6.854
 9458SOL     OW29272   0.230   4.955   5.903
 9458SOL    HW129273   0.253   5.024   5.834
 9458SOL    HW229274   0.303   4.951   5.972
 9459SOL     OW29275   6.325   5.527   2.349
 9459SOL    HW129276   6.337   5.436   2.388
 9459SOL    HW229277   6.252   5.575   2.398
 9460SOL     OW29278   0.425   2.548   4.694
 9460SOL    HW129279   0.378   2.468   4.732
 9460SOL    HW229280   0.473   2.522   4.610
 9461SOL     OW29281   0.079   1.304   2.829
 9461SOL    HW129282   0.091   1.225   2.889
 9461SOL    HW229283   0.168   1.329   2.789
 9462SOL     OW29284   1.698   3.347   2.951
 9462SOL    HW129285   1.736   3.381   2.865
 9462SOL    HW229286   1.770   3.297   3.001
 9463SOL     OW29287   0.198   0.688   0.802
 9463SOL    HW129288   0.126   0.686   0.732
 9463SOL    HW229289   0.156   0.700   0.892
 9464SOL     OW29290   5.837   6.822   6.409
 9464SOL    HW129291   5.758   6.819   6.348
 9464SOL    HW229292   5.809   6.796   6.502
 9465SOL     OW29293   6.773   0.437   3.146
 9465SOL    HW129294   6.680   0.456   3.178
 9465SOL    HW229295   6.833   0.512   3.174
 9466SOL     OW29296   2.586   2.975   5.594
 9466SOL    HW129297   2.652   2.941   5.526
 9466SOL    HW229298   2.604   3.071   5.612
 9467SOL     OW29299   1.724   2.538   1.605
 9467SOL    HW129300   1.685   2.534   1.513
 9467SOL    HW229301   1.655   2.573   1.669
 9468SOL     OW29302   6.160   3.177   5.688
 9468SOL    HW129303   6.095   3.176   5.765
 9468SOL    HW229304   6.226   3.103   5.700
 9469SOL     OW29305   6.437   5.537   2.114
 9469SOL    HW129306   6.401   5.538   2.207
 9469SOL    HW229307   6.403   5.457   2.065
 9470SOL     OW29308   5.193   2.830   6.796
 9470SOL    HW129309   5.281   2.784   6.788
 9470SOL    HW229310   5.170   2.843   6.893
 9471SOL     OW29311   6.935   2.558   5.467
 9471SOL    HW129312   6.844   2.530   5.438
 9471SOL    HW229313   6.929   2.645   5.516
 9472SOL     OW29314   6.580   4.449   4.823
 9472SOL    HW129315   6.592   4.367   4.878
 9472SOL    HW229316   6.663   4.467   4.770
 9473SOL     OW29317   3.495   6.465   5.785
 9473SOL    HW129318   3.458   6.391   5.842
 9473SOL    HW229319   3.578   6.433   5.739
 9474SOL     OW29320   5.685   4.247   1.848
 9474SOL    HW129321   5.746   4.213   1.919
 9474SOL    HW229322   5.595   4.204   1.858
 9475SOL     OW29323   3.144   3.224   0.973
 9475SOL    HW129324   3.133   3.315   1.013
 9475SOL    HW229325   3.128   3.155   1.043
 9476SOL     OW29326   3.577   3.339   5.375
 9476SOL    HW129327   3.605   3.244   5.362
 9476SOL    HW229328   3.500   3.343   5.439
 9477SOL     OW29329   1.053   2.899   0.918
 9477SOL    HW129330   0.960   2.925   0.891
 9477SOL    HW229331   1.058   2.800   0.930
 9478SOL     OW29332   5.063   4.124   5.424
 9478SOL    HW129333   5.003   4.132   5.345
 9478SOL    HW229334   5.116   4.039   5.417
 9479SOL     OW29335   6.051   5.459   5.832
 9479SOL    HW129336   5.954   5.470   5.809
 9479SOL    HW229337   6.063   5.470   5.931
 9480SOL     OW29338   4.267   4.254   6.650
 9480SOL    HW129339   4.268   4.164   6.693
 9480SOL    HW229340   4.332   4.254   6.574
 9481SOL     OW29341   6.560   3.799   1.343
 9481SOL    HW129342   6.598   3.873   1.399
 9481SOL    HW229343   6.474   3.831   1.301
 9482SOL     OW29344   5.973   0.516   3.309
 9482SOL    HW129345   6.030   0.537   3.388
 9482SOL    HW229346   5.899   0.583   3.302
 9483SOL     OW29347   1.464   2.055   0.991
 9483SOL    HW129348   1.536   2.105   1.039
 9483SOL    HW229349   1.400   2.017   1.058
 9484SOL     OW29350   6.166   1.277   3.980
 9484SOL    HW129351   6.197   1.183   3.998
 9484SOL    HW229352   6.200   1.337   4.052
 9485SOL     OW29353   1.669   0.813   1.533
 9485SOL    HW129354   1.575   0.793   1.504
 9485SOL    HW229355   1.667   0.876   1.611
 9486SOL     OW29356   2.256   5.304   0.628
 9486SOL    HW129357   2.195   5.384   0.624
 9486SOL    HW229358   2.351   5.335   0.630
 9487SOL     OW29359   3.450   4.066   3.499
 9487SOL    HW129360   3.533   4.025   3.537
 9487SOL    HW229361   3.468   4.095   3.405
 9488SOL     OW29362   1.896   5.988   1.524
 9488SOL    HW129363   1.864   5.895   1.503
 9488SOL    HW229364   1.979   6.007   1.471
 9489SOL     OW29365   4.328   4.138   1.155
 9489SOL    HW129366   4.244   4.147   1.102
 9489SOL    HW229367   4.339   4.217   1.215
 9490SOL     OW29368   5.187   0.682   1.155
 9490SOL    HW129369   5.147   0.590   1.160
 9490SOL    HW229370   5.163   0.733   1.238
 9491SOL     OW29371   6.877   5.091   5.047
 9491SOL    HW129372   6.871   5.020   5.117
 9491SOL    HW229373   6.970   5.097   5.013
 9492SOL     OW29374   3.257   3.779   2.180
 9492SOL    HW129375   3.167   3.735   2.184
 9492SOL    HW229376   3.247   3.871   2.142
 9493SOL     OW29377   4.796   4.919   3.603
 9493SOL    HW129378   4.777   4.902   3.507
 9493SOL    HW229379   4.789   5.017   3.622
 9494SOL     OW29380   5.315   3.492   6.940
 9494SOL    HW129381   5.390   3.550   6.907
 9494SOL    HW229382   5.273   3.535   7.020
 9495SOL     OW29383   6.147   2.345   3.563
 9495SOL    HW129384   6.238   2.376   3.590
 9495SOL    HW229385   6.154   2.257   3.517
 9496SOL     OW29386   5.330   3.926   6.316
 9496SOL    HW129387   5.260   3.864   6.281
 9496SOL    HW229388   5.297   4.021   6.306
 9497SOL     OW29389   5.117   4.403   0.675
 9497SOL    HW129390   5.042   4.455   0.633
 9497SOL    HW229391   5.124   4.313   0.632
 9498SOL     OW29392   4.064   6.721   5.453
 9498SOL    HW129393   4.138   6.772   5.497
 9498SOL    HW229394   3.983   6.723   5.512
 9499SOL     OW29395   2.410   4.140   5.656
 9499SOL    HW129396   2.313   4.117   5.664
 9499SOL    HW229397   2.440   4.128   5.562
 9500SOL     OW29398   4.342   6.598   1.820
 9500SOL    HW129399   4.253   6.634   1.791
 9500SOL    HW229400   4.414   6.658   1.785
 9501SOL     OW29401   3.677   2.037   4.810
 9501SOL    HW129402   3.584   2.073   4.806
 9501SOL    HW229403   3.727   2.082   4.884
 9502SOL     OW29404   6.349   2.026   4.747
 9502SOL    HW129405   6.311   2.020   4.839
 9502SOL    HW229406   6.407   1.947   4.730
 9503SOL     OW29407   0.389   1.082   1.704
 9503SOL    HW129408   0.403   1.092   1.803
 9503SOL    HW229409   0.443   1.152   1.656
 9504SOL     OW29410   6.613   2.624   1.314
 9504SOL    HW129411   6.712   2.613   1.323
 9504SOL    HW229412   6.591   2.654   1.221
 9505SOL     OW29413   6.495   3.584   3.244
 9505SOL    HW129414   6.583   3.540   3.222
 9505SOL    HW229415   6.420   3.521   3.223
 9506SOL     OW29416   6.966   3.306   0.259
 9506SOL    HW129417   0.033   3.327   0.231
 9506SOL    HW229418   6.905   3.315   0.180
 9507SOL     OW29419   2.369   1.254   4.427
 9507SOL    HW129420   2.364   1.349   4.455
 9507SOL    HW229421   2.295   1.234   4.362
 9508SOL     OW29422   5.501   2.426   0.272
 9508SOL    HW129423   5.505   2.326   0.270
 9508SOL    HW229424   5.529   2.458   0.362
 9509SOL     OW29425   1.207   6.545   5.476
 9509SOL    HW129426   1.151   6.543   5.393
 9509SOL    HW229427   1.291   6.597   5.458
 9510SOL     OW29428   6.810   3.774   2.218
 9510SOL    HW129429   6.820   3.835   2.296
 9510SOL    HW229430   6.837   3.821   2.134
 9511SOL     OW29431   0.675   2.200   0.171
 9511SOL    HW129432   0.594   2.159   0.212
 9511SOL    HW229433   0.669   2.300   0.176
 9512SOL     OW29434   6.552   2.135   3.613
 9512SOL    HW129435   6.633   2.191   3.596
 9512SOL    HW229436   6.502   2.173   3.691
 9513SOL     OW29437   1.798   3.980   4.876
 9513SOL    HW129438   1.845   3.923   4.808
 9513SOL    HW229439   1.773   4.067   4.834
 9514SOL     OW29440   1.842   3.675   6.599
 9514SOL    HW129441   1.866   3.613   6.524
 9514SOL    HW229442   1.923   3.691   6.655
 9515SOL     OW29443   1.204   6.157   0.168
 9515SOL    HW129444   1.248   6.215   0.100
 9515SOL    HW229445   1.193   6.208   0.253
 9516SOL     OW29446   5.005   3.441   4.252
 9516SOL    HW129447   5.007   3.367   4.318
 9516SOL    HW229448   5.019   3.528   4.299
 9517SOL     OW29449   1.072   5.148   1.588
 9517SOL    HW129450   1.151   5.136   1.529
 9517SOL    HW229451   1.077   5.085   1.665
 9518SOL     OW29452   1.295   3.061   6.110
 9518SOL    HW129453   1.280   2.974   6.063
 9518SOL    HW229454   1.282   3.137   6.045
 9519SOL     OW29455   2.935   3.405   2.625
 9519SOL    HW129456   2.934   3.341   2.548
 9519SOL    HW229457   3.006   3.473   2.611
 9520SOL     OW29458   6.622   0.810   4.703
 9520SOL    HW129459   6.550   0.863   4.659
 9520SOL    HW229460   6.711   0.843   4.672
 9521SOL     OW29461   2.950   5.304   1.614
 9521SOL    HW129462   3.017   5.348   1.554
 9521SOL    HW229463   2.995   5.234   1.669
 9522SOL     OW29464   4.004   5.108   2.132
 9522SOL    HW129465   4.047   5.057   2.058
 9522SOL    HW229466   3.958   5.045   2.194
 9523SOL     OW29467   2.173   5.280   4.868
 9523SOL    HW129468   2.181   5.195   4.816
 9523SOL    HW229469   2.175   5.358   4.804
 9524SOL     OW29470   1.028   3.770   1.575
 9524SOL    HW129471   1.079   3.829   1.637
 9524SOL    HW229472   1.056   3.787   1.481
 9525SOL     OW29473   1.828   2.500   6.008
 9525SOL    HW129474   1.887   2.572   5.971
 9525SOL    HW229475   1.789   2.448   5.932
 9526SOL     OW29476   5.394   4.677   0.393
 9526SOL    HW129477   5.309   4.704   0.439
 9526SOL    HW229478   5.456   4.755   0.389
 9527SOL     OW29479   2.690   6.957   4.232
 9527SOL    HW129480   2.609   7.012   4.247
 9527SOL    HW229481   2.716   6.911   4.317
 9528SOL     OW29482   5.674   0.880   1.267
 9528SOL    HW129483   5.683   0.942   1.189
 9528SOL    HW229484   5.619   0.923   1.338
 9529SOL     OW29485   6.087   3.318   0.832
 9529SOL    HW129486   6.187   3.322   0.831
 9529SOL    HW229487   6.057   3.231   0.791
 9530SOL     OW29488   1.389   5.670   4.481
 9530SOL    HW129489   1.344   5.582   4.467
 9530SOL    HW229490   1.375   5.701   4.575
 9531SOL     OW29491   4.507   4.580   3.004
 9531SOL    HW129492   4.494   4.606   2.909
 9531SOL    HW229493   4.549   4.490   3.009
 9532SOL     OW29494   6.186   4.681   1.599
 9532SOL    HW129495   6.215   4.771   1.568
 9532SOL    HW229496   6.262   4.636   1.648
 9533SOL     OW29497   1.073   5.859   4.628
 9533SOL    HW129498   1.154   5.825   4.676
 9533SOL    HW229499   1.056   5.802   4.548
 9534SOL     OW29500   5.834   4.838   5.004
 9534SOL    HW129501   5.787   4.770   5.059
 9534SOL    HW229502   5.867   4.912   5.062
 9535SOL     OW29503   2.029   1.862   5.414
 9535SOL    HW129504   1.960   1.803   5.455
 9535SOL    HW229505   2.003   1.958   5.425
 9536SOL     OW29506   3.496   2.951   4.698
 9536SOL    HW129507   3.517   3.015   4.623
 9536SOL    HW229508   3.400   2.961   4.724
 9537SOL     OW29509   2.676   1.691   4.181
 9537SOL    HW129510   2.715   1.605   4.148
 9537SOL    HW229511   2.743   1.764   4.173
 9538SOL     OW29512   3.981   1.149   4.634
 9538SOL    HW129513   4.064   1.137   4.689
 9538SOL    HW229514   3.997   1.115   4.542
 9539SOL     OW29515   3.378   2.973   3.983
 9539SOL    HW129516   3.288   2.975   3.940
 9539SOL    HW229517   3.370   2.936   4.075
 9540SOL     OW29518   4.742   5.058   4.018
 9540SOL    HW129519   4.733   5.092   4.112
 9540SOL    HW229520   4.669   4.993   3.998
 9541SOL     OW29521   0.797   0.710   5.513
 9541SOL    HW129522   0.745   0.707   5.598
 9541SOL    HW229523   0.745   0.761   5.444
 9542SOL     OW29524   5.918   4.774   4.563
 9542SOL    HW129525   5.951   4.776   4.657
 9542SOL    HW229526   5.914   4.867   4.527
 9543SOL     OW29527   2.927   0.320   5.984
 9543SOL    HW129528   2.827   0.318   5.977
 9543SOL    HW229529   2.964   0.234   5.951
 9544SOL     OW29530   5.009   4.112   3.912
 9544SOL    HW129531   4.950   4.192   3.898
 9544SOL    HW229532   4.954   4.029   3.904
 9545SOL     OW29533   0.682   5.175   2.218
 9545SOL    HW129534   0.727   5.114   2.153
 9545SOL    HW229535   0.589   5.194   2.187
 9546SOL     OW29536   3.519   1.871   5.899
 9546SOL    HW129537   3.471   1.958   5.896
 9546SOL    HW229538   3.494   1.816   5.819
 9547SOL     OW29539   3.330   5.719   4.293
 9547SOL    HW129540   3.348   5.634   4.244
 9547SOL    HW229541   3.238   5.752   4.272
 9548SOL     OW29542   0.909   5.517   5.147
 9548SOL    HW129543   0.980   5.449   5.128
 9548SOL    HW229544   0.867   5.497   5.236
 9549SOL     OW29545   3.624   0.611   2.731
 9549SOL    HW129546   3.553   0.677   2.756
 9549SOL    HW229547   3.620   0.533   2.793
 9550SOL     OW29548   6.148   2.576   0.653
 9550SOL    HW129549   6.239   2.549   0.685
 9550SOL    HW229550   6.136   2.546   0.558
 9551SOL     OW29551   6.074   3.050   5.935
 9551SOL    HW129552   6.011   3.128   5.939
 9551SOL    HW229553   6.163   3.077   5.971
 9552SOL     OW29554   2.120   0.418   5.769
 9552SOL    HW129555   2.115   0.409   5.869
 9552SOL    HW229556   2.185   0.351   5.733
 9553SOL     OW29557   5.493   1.936   0.376
 9553SOL    HW129558   5.490   1.956   0.474
 9553SOL    HW229559   5.588   1.923   0.348
 9554SOL     OW29560   2.156   6.666   3.824
 9554SOL    HW129561   2.119   6.654   3.731
 9554SOL    HW229562   2.247   6.627   3.829
 9555SOL     OW29563   0.006   1.464   3.540
 9555SOL    HW129564   6.973   1.472   3.459
 9555SOL    HW229565   0.081   1.530   3.534
 9556SOL     OW29566   1.481   4.947   1.332
 9556SOL    HW129567   1.396   4.900   1.310
 9556SOL    HW229568   1.549   4.929   1.261
 9557SOL     OW29569   4.954   6.867   1.335
 9557SOL    HW129570   4.914   6.816   1.410
 9557SOL    HW229571   4.892   6.867   1.257
 9558SOL     OW29572   5.555   6.489   5.405
 9558SOL    HW129573   5.601   6.405   5.434
 9558SOL    HW229574   5.619   6.547   5.355
 9559SOL     OW29575   1.039   3.690   0.073
 9559SOL    HW129576   1.034   3.786   0.045
 9559SOL    HW229577   1.112   3.679   0.141
 9560SOL     OW29578   2.962   0.846   2.448
 9560SOL    HW129579   3.029   0.893   2.389
 9560SOL    HW229580   2.914   0.914   2.503
 9561SOL     OW29581   0.479   0.810   1.553
 9561SOL    HW129582   0.509   0.899   1.588
 9561SOL    HW229583   0.560   0.756   1.527
 9562SOL     OW29584   2.938   6.629   4.309
 9562SOL    HW129585   2.982   6.610   4.222
 9562SOL    HW229586   2.987   6.582   4.382
 9563SOL     OW29587   0.348   6.414   0.513
 9563SOL    HW129588   0.344   6.512   0.535
 9563SOL    HW229589   0.422   6.371   0.564
 9564SOL     OW29590   1.876   1.612   1.390
 9564SOL    HW129591   1.810   1.593   1.462
 9564SOL    HW229592   1.833   1.601   1.301
 9565SOL     OW29593   3.589   1.287   4.737
 9565SOL    HW129594   3.554   1.218   4.675
 9565SOL    HW229595   3.513   1.324   4.792
 9566SOL     OW29596   2.534   6.347   0.300
 9566SOL    HW129597   2.470   6.273   0.280
 9566SOL    HW229598   2.575   6.333   0.390
 9567SOL     OW29599   5.815   4.167   0.282
 9567SOL    HW129600   5.879   4.130   0.349
 9567SOL    HW229601   5.849   4.149   0.190
 9568SOL     OW29602   4.159   1.151   0.480
 9568SOL    HW129603   4.218   1.072   0.466
 9568SOL    HW229604   4.066   1.128   0.453
 9569SOL     OW29605   0.161   0.893   2.051
 9569SOL    HW129606   0.138   0.853   1.963
 9569SOL    HW229607   0.157   0.822   2.122
 9570SOL     OW29608   0.794   2.906   0.819
 9570SOL    HW129609   0.720   2.905   0.887
 9570SOL    HW229610   0.803   2.816   0.777
 9571SOL     OW29611   2.360   2.593   5.953
 9571SOL    HW129612   2.404   2.528   6.014
 9571SOL    HW229613   2.318   2.543   5.877
 9572SOL     OW29614   2.410   4.879   2.945
 9572SOL    HW129615   2.476   4.952   2.929
 9572SOL    HW229616   2.428   4.803   2.882
 9573SOL     OW29617   0.031   1.434   5.637
 9573SOL    HW129618   0.062   1.360   5.576
 9573SOL    HW229619   0.034   1.402   5.731
 9574SOL     OW29620   3.611   2.859   1.984
 9574SOL    HW129621   3.599   2.766   1.948
 9574SOL    HW229622   3.672   2.857   2.063
 9575SOL     OW29623   6.449   0.665   1.886
 9575SOL    HW129624   6.517   0.612   1.937
 9575SOL    HW229625   6.481   0.759   1.876
 9576SOL     OW29626   1.759   2.181   7.010
 9576SOL    HW129627   1.827   2.109   6.993
 9576SOL    HW229628   1.670   2.140   0.000
 9577SOL     OW29629   6.948   5.847   6.619
 9577SOL    HW129630   6.993   5.765   6.654
 9577SOL    HW229631   6.998   5.928   6.651
 9578SOL     OW29632   1.577   2.638   2.800
 9578SOL    HW129633   1.573   2.723   2.852
 9578SOL    HW229634   1.573   2.560   2.862
 9579SOL     OW29635   6.845   6.070   2.604
 9579SOL    HW129636   6.784   5.998   2.571
 9579SOL    HW229637   6.915   6.089   2.534
 9580SOL     OW29638   5.279   3.474   1.079
 9580SOL    HW129639   5.218   3.528   1.020
 9580SOL    HW229640   5.308   3.531   1.156
 9581SOL     OW29641   0.678   0.171   6.358
 9581SOL    HW129642   0.665   0.076   6.387
 9581SOL    HW229643   0.594   0.222   6.372
 9582SOL     OW29644   3.803   5.598   5.037
 9582SOL    HW129645   3.866   5.619   4.962
 9582SOL    HW229646   3.773   5.503   5.030
 9583SOL     OW29647   2.951   4.163   1.132
 9583SOL    HW129648   3.000   4.181   1.217
 9583SOL    HW229649   3.000   4.205   1.055
 9584SOL     OW29650   1.234   5.079   5.894
 9584SOL    HW129651   1.265   5.174   5.884
 9584SOL    HW229652   1.309   5.023   5.930
 9585SOL     OW29653   5.464   6.383   2.305
 9585SOL    HW129654   5.387   6.442   2.281
 9585SOL    HW229655   5.513   6.422   2.383
 9586SOL     OW29656   4.464   5.114   2.332
 9586SOL    HW129657   4.475   5.212   2.313
 9586SOL    HW229658   4.537   5.083   2.393
 9587SOL     OW29659   0.902   6.580   2.492
 9587SOL    HW129660   0.844   6.563   2.413
 9587SOL    HW229661   0.875   6.520   2.568
 9588SOL     OW29662   6.223   5.993   0.489
 9588SOL    HW129663   6.195   6.060   0.557
 9588SOL    HW229664   6.292   5.932   0.530
 9589SOL     OW29665   1.648   3.904   6.936
 9589SOL    HW129666   1.603   3.994   6.929
 9589SOL    HW229667   1.717   3.896   6.864
 9590SOL     OW29668   6.229   2.344   1.660
 9590SOL    HW129669   6.135   2.310   1.659
 9590SOL    HW229670   6.272   2.320   1.747
 9591SOL     OW29671   4.167   5.611   6.071
 9591SOL    HW129672   4.218   5.688   6.110
 9591SOL    HW229673   4.230   5.554   6.018
 9592SOL     OW29674   3.190   5.242   1.104
 9592SOL    HW129675   3.103   5.282   1.133
 9592SOL    HW229676   3.243   5.311   1.055
 9593SOL     OW29677   1.073   1.714   5.482
 9593SOL    HW129678   1.046   1.789   5.543
 9593SOL    HW229679   1.115   1.752   5.399
 9594SOL     OW29680   2.530   6.391   4.485
 9594SOL    HW129681   2.602   6.362   4.548
 9594SOL    HW229682   2.500   6.312   4.431
 9595SOL     OW29683   0.753   2.879   3.824
 9595SOL    HW129684   0.821   2.873   3.897
 9595SOL    HW229685   0.731   2.787   3.791
 9596SOL     OW29686   0.884   5.189   0.669
 9596SOL    HW129687   0.802   5.211   0.722
 9596SOL    HW229688   0.867   5.108   0.613
 9597SOL     OW29689   0.044   4.265   1.346
 9597SOL    HW129690   0.075   4.271   1.441
 9597SOL    HW229691   0.011   4.172   1.328
 9598SOL     OW29692   2.242   4.102   3.478
 9598SOL    HW129693   2.153   4.142   3.497
 9598SOL    HW229694   2.249   4.013   3.525
 9599SOL     OW29695   3.211   0.209   4.239
 9599SOL    HW129696   3.213   0.159   4.152
 9599SOL    HW229697   3.178   0.148   4.311
 9600SOL     OW29698   2.747   0.299   0.036
 9600SOL    HW129699   2.815   0.337   6.998
 9600SOL    HW229700   2.671   0.364   0.046
 9601SOL     OW29701   5.591   4.351   0.104
 9601SOL    HW129702   5.601   4.265   0.055
 9601SOL    HW229703   5.583   4.333   0.202
 9602SOL     OW29704   4.776   3.832   5.494
 9602SOL    HW129705   4.747   3.925   5.473
 9602SOL    HW229706   4.730   3.801   5.577
 9603SOL     OW29707   5.166   6.812   6.444
 9603SOL    HW129708   5.125   6.730   6.484
 9603SOL    HW229709   5.180   6.881   6.515
 9604SOL     OW29710   5.250   6.699   1.512
 9604SOL    HW129711   5.277   6.746   1.428
 9604SOL    HW229712   5.208   6.764   1.575
 9605SOL     OW29713   1.022   5.373   3.027
 9605SOL    HW129714   0.922   5.367   3.033
 9605SOL    HW229715   1.049   5.469   3.023
 9606SOL     OW29716   1.300   6.645   6.622
 9606SOL    HW129717   1.212   6.606   6.648
 9606SOL    HW229718   1.371   6.615   6.686
 9607SOL     OW29719   2.953   1.175   0.367
 9607SOL    HW129720   2.945   1.248   0.299
 9607SOL    HW229721   3.044   1.133   0.361
 9608SOL     OW29722   0.095   4.702   2.079
 9608SOL    HW129723   0.177   4.700   2.135
 9608SOL    HW229724   0.114   4.660   1.990
 9609SOL     OW29725   3.838   2.985   0.429
 9609SOL    HW129726   3.796   2.962   0.516
 9609SOL    HW229727   3.899   3.064   0.441
 9610SOL     OW29728   1.569   4.567   3.582
 9610SOL    HW129729   1.553   4.664   3.601
 9610SOL    HW229730   1.525   4.542   3.496
 9611SOL     OW29731   1.419   6.120   0.598
 9611SOL    HW129732   1.411   6.219   0.593
 9611SOL    HW229733   1.515   6.094   0.609
 9612SOL     OW29734   0.448   3.172   1.985
 9612SOL    HW129735   0.377   3.224   1.937
 9612SOL    HW229736   0.505   3.124   1.918
 9613SOL     OW29737   5.304   6.593   4.053
 9613SOL    HW129738   5.255   6.562   3.972
 9613SOL    HW229739   5.273   6.684   4.079
 9614SOL     OW29740   3.719   1.899   1.898
 9614SOL    HW129741   3.682   1.983   1.859
 9614SOL    HW229742   3.694   1.892   1.995
 9615SOL     OW29743   1.984   1.386   1.269
 9615SOL    HW129744   1.926   1.451   1.318
 9615SOL    HW229745   2.056   1.436   1.220
 9616SOL     OW29746   3.549   3.996   0.862
 9616SOL    HW129747   3.606   3.983   0.781
 9616SOL    HW229748   3.607   4.012   0.942
 9617SOL     OW29749   1.830   3.142   3.356
 9617SOL    HW129750   1.884   3.175   3.279
 9617SOL    HW229751   1.881   3.155   3.441
 9618SOL     OW29752   2.451   0.256   0.588
 9618SOL    HW129753   2.544   0.293   0.579
 9618SOL    HW229754   2.450   0.161   0.558
 9619SOL     OW29755   1.689   0.156   5.679
 9619SOL    HW129756   1.721   0.181   5.587
 9619SOL    HW229757   1.652   0.236   5.725
 9620SOL     OW29758   4.463   6.921   5.304
 9620SOL    HW129759   4.444   6.864   5.223
 9620SOL    HW229760   4.377   6.950   5.345
 9621SOL     OW29761   1.962   3.091   1.869
 9621SOL    HW129762   1.984   3.018   1.804
 9621SOL    HW229763   1.891   3.150   1.830
 9622SOL     OW29764   6.271   1.535   0.241
 9622SOL    HW129765   6.182   1.488   0.243
 9622SOL    HW229766   6.257   1.633   0.253
 9623SOL     OW29767   2.764   3.581   5.754
 9623SOL    HW129768   2.817   3.527   5.689
 9623SOL    HW229769   2.782   3.678   5.739
 9624SOL     OW29770   6.071   4.037   2.899
 9624SOL    HW129771   6.063   3.971   2.825
 9624SOL    HW229772   6.164   4.034   2.937
 9625SOL     OW29773   5.196   5.297   6.969
 9625SOL    HW129774   5.268   5.365   6.979
 9625SOL    HW229775   5.198   5.235   0.021
 9626SOL     OW29776   4.307   5.261   0.623
 9626SOL    HW129777   4.327   5.255   0.525
 9626SOL    HW229778   4.387   5.234   0.676
 9627SOL     OW29779   0.561   6.015   6.342
 9627SOL    HW129780   0.583   5.921   6.369
 9627SOL    HW229781   0.523   6.016   6.250
 9628SOL     OW29782   5.446   4.750   0.949
 9628SOL    HW129783   5.433   4.737   0.851
 9628SOL    HW229784   5.390   4.684   0.999
 9629SOL     OW29785   1.925   0.480   1.044
 9629SOL    HW129786   1.955   0.563   0.997
 9629SOL    HW229787   1.840   0.499   1.094
 9630SOL     OW29788   6.088   6.705   4.613
 9630SOL    HW129789   5.996   6.742   4.606
 9630SOL    HW229790   6.090   6.633   4.682
 9631SOL     OW29791   0.015   6.539   6.318
 9631SOL    HW129792   6.969   6.563   6.253
 9631SOL    HW229793   0.092   6.499   6.269
 9632SOL     OW29794   1.744   6.726   2.949
 9632SOL    HW129795   1.718   6.807   2.897
 9632SOL    HW229796   1.718   6.737   3.045
 9633SOL     OW29797   5.162   5.083   6.520
 9633SOL    HW129798   5.145   5.000   6.573
 9633SOL    HW229799   5.108   5.079   6.435
 9634SOL     OW29800   1.468   6.346   3.834
 9634SOL    HW129801   1.428   6.254   3.828
 9634SOL    HW229802   1.550   6.343   3.891
 9635SOL     OW29803   1.914   6.162   4.933
 9635SOL    HW129804   2.005   6.167   4.891
 9635SOL    HW229805   1.911   6.085   4.996
 9636SOL     OW29806   3.903   1.409   5.592
 9636SOL    HW129807   3.872   1.336   5.531
 9636SOL    HW229808   3.963   1.370   5.662
 9637SOL     OW29809   2.607   2.409   6.995
 9637SOL    HW129810   2.519   2.392   0.015
 9637SOL    HW229811   2.597   2.488   6.934
 9638SOL     OW29812   0.111   3.353   6.143
 9638SOL    HW129813   0.051   3.329   6.066
 9638SOL    HW229814   0.120   3.274   6.204
 9639SOL     OW29815   4.026   1.716   2.060
 9639SOL    HW129816   4.101   1.768   2.101
 9639SOL    HW229817   4.027   1.727   1.961
 9640SOL     OW29818   2.167   3.049   3.817
 9640SOL    HW129819   2.195   3.128   3.872
 9640SOL    HW229820   2.095   2.999   3.865
 9641SOL     OW29821   4.709   0.001   0.489
 9641SOL    HW129822   4.799   0.039   0.512
 9641SOL    HW229823   4.692   0.014   0.391
 9642SOL     OW29824   2.840   6.947   4.960
 9642SOL    HW129825   2.740   6.947   4.957
 9642SOL    HW229826   2.871   6.990   5.044
 9643SOL     OW29827   5.415   4.250   3.663
 9643SOL    HW129828   5.359   4.170   3.641
 9643SOL    HW229829   5.389   4.327   3.604
 9644SOL     OW29830   0.815   3.786   6.293
 9644SOL    HW129831   0.901   3.793   6.243
 9644SOL    HW229832   0.833   3.796   6.391
 9645SOL     OW29833   2.407   5.039   4.937
 9645SOL    HW129834   2.500   5.014   4.964
 9645SOL    HW229835   2.407   5.066   4.840
 9646SOL     OW29836   3.947   4.917   2.769
 9646SOL    HW129837   3.993   4.830   2.753
 9646SOL    HW229838   3.878   4.906   2.840
 9647SOL     OW29839   6.354   4.234   1.210
 9647SOL    HW129840   6.355   4.213   1.112
 9647SOL    HW229841   6.276   4.293   1.230
 9648SOL     OW29842   4.393   1.260   1.061
 9648SOL    HW129843   4.443   1.292   0.981
 9648SOL    HW229844   4.295   1.267   1.044
 9649SOL     OW29845   2.607   0.057   7.024
 9649SOL    HW129846   2.668   0.135   7.011
 9649SOL    HW229847   2.648   7.019   0.063
 9650SOL     OW29848   6.833   5.266   2.440
 9650SOL    HW129849   6.853   5.168   2.448
 9650SOL    HW229850   6.914   5.318   2.466
 9651SOL     OW29851   0.295   1.984   5.981
 9651SOL    HW129852   0.220   1.940   5.932
 9651SOL    HW229853   0.258   2.043   6.053
 9652SOL     OW29854   1.029   4.842   1.257
 9652SOL    HW129855   1.003   4.923   1.311
 9652SOL    HW229856   0.964   4.830   1.182
 9653SOL     OW29857   4.103   4.853   5.076
 9653SOL    HW129858   4.110   4.922   5.005
 9653SOL    HW229859   4.056   4.892   5.156
 9654SOL     OW29860   2.891   2.090   1.502
 9654SOL    HW129861   2.822   2.021   1.482
 9654SOL    HW229862   2.883   2.118   1.598
 9655SOL     OW29863   6.985   1.584   6.484
 9655SOL    HW129864   0.014   1.640   6.545
 9655SOL    HW229865   6.959   1.637   6.403
 9656SOL     OW29866   2.372   0.787   3.047
 9656SOL    HW129867   2.290   0.748   3.089
 9656SOL    HW229868   2.350   0.877   3.008
 9657SOL     OW29869   5.522   1.044   4.232
 9657SOL    HW129870   5.509   1.008   4.139
 9657SOL    HW229871   5.614   1.022   4.263
 9658SOL     OW29872   7.015   2.031   2.412
 9658SOL    HW129873   7.024   1.932   2.428
 9658SOL    HW229874   7.022   2.079   2.499
 9659SOL     OW29875   6.904   4.136   0.091
 9659SOL    HW129876   6.961   4.210   0.126
 9659SOL    HW229877   6.961   4.070   0.042
 9660SOL     OW29878   0.511   6.170   1.031
 9660SOL    HW129879   0.485   6.161   1.127
 9660SOL    HW229880   0.568   6.251   1.019
 9661SOL     OW29881   4.640   5.978   1.062
 9661SOL    HW129882   4.698   6.027   0.997
 9661SOL    HW229883   4.623   6.035   1.142
 9662SOL     OW29884   6.087   2.918   4.540
 9662SOL    HW129885   6.105   3.015   4.522
 9662SOL    HW229886   6.032   2.909   4.623
 9663SOL     OW29887   1.477   5.364   3.938
 9663SOL    HW129888   1.509   5.270   3.954
 9663SOL    HW229889   1.460   5.377   3.841
 9664SOL     OW29890   4.559   6.608   2.942
 9664SOL    HW129891   4.602   6.564   2.863
 9664SOL    HW229892   4.621   6.603   3.020
 9665SOL     OW29893   5.978   4.745   5.655
 9665SOL    HW129894   5.907   4.695   5.705
 9665SOL    HW229895   5.956   4.746   5.558
 9666SOL     OW29896   5.967   4.149   0.877
 9666SOL    HW129897   6.057   4.105   0.884
 9666SOL    HW229898   5.938   4.150   0.781
 9667SOL     OW29899   4.140   3.438   4.282
 9667SOL    HW129900   4.095   3.351   4.260
 9667SOL    HW229901   4.194   3.467   4.203
 9668SOL     OW29902   6.645   1.511   5.297
 9668SOL    HW129903   6.664   1.416   5.322
 9668SOL    HW229904   6.547   1.523   5.284
 9669SOL     OW29905   0.530   1.122   0.862
 9669SOL    HW129906   0.540   1.219   0.844
 9669SOL    HW229907   0.532   1.071   0.776
 9670SOL     OW29908   4.096   4.704   5.743
 9670SOL    HW129909   4.058   4.796   5.730
 9670SOL    HW229910   4.130   4.695   5.837
 9671SOL     OW29911   6.972   5.289   6.269
 9671SOL    HW129912   6.902   5.228   6.232
 9671SOL    HW229913   6.928   5.361   6.323
 9672SOL     OW29914   1.145   6.588   5.221
 9672SOL    HW129915   1.091   6.665   5.185
 9672SOL    HW229916   1.222   6.571   5.159
 9673SOL     OW29917   3.497   5.082   6.744
 9673SOL    HW129918   3.524   5.156   6.805
 9673SOL    HW229919   3.576   5.053   6.690
 9674SOL     OW29920   2.643   6.278   2.192
 9674SOL    HW129921   2.593   6.289   2.277
 9674SOL    HW229922   2.714   6.208   2.203
 9675SOL     OW29923   6.013   0.735   2.179
 9675SOL    HW129924   5.973   0.740   2.088
 9675SOL    HW229925   6.110   0.761   2.175
 9676SOL     OW29926   1.496   3.540   5.813
 9676SOL    HW129927   1.467   3.450   5.782
 9676SOL    HW229928   1.591   3.536   5.844
 9677SOL     OW29929   2.134   4.092   5.721
 9677SOL    HW129930   2.077   4.173   5.704
 9677SOL    HW229931   2.097   4.041   5.798
 9678SOL     OW29932   3.695   3.714   2.918
 9678SOL    HW129933   3.764   3.657   2.964
 9678SOL    HW229934   3.652   3.774   2.986
 9679SOL     OW29935   0.900   2.845   2.374
 9679SOL    HW129936   0.941   2.906   2.305
 9679SOL    HW229937   0.953   2.760   2.378
 9680SOL     OW29938   5.750   6.730   3.624
 9680SOL    HW129939   5.666   6.730   3.677
 9680SOL    HW229940   5.822   6.682   3.675
 9681SOL     OW29941   2.394   0.951   1.239
 9681SOL    HW129942   2.302   0.990   1.232
 9681SOL    HW229943   2.424   0.952   1.334
 9682SOL     OW29944   4.896   5.116   3.368
 9682SOL    HW129945   4.802   5.141   3.345
 9682SOL    HW229946   4.907   5.017   3.362
 9683SOL     OW29947   4.148   5.477   0.539
 9683SOL    HW129948   4.200   5.524   0.468
 9683SOL    HW229949   4.177   5.382   0.546
 9684SOL     OW29950   0.133   3.726   4.855
 9684SOL    HW129951   0.140   3.753   4.759
 9684SOL    HW229952   0.207   3.770   4.907
 9685SOL     OW29953   2.527   2.790   1.046
 9685SOL    HW129954   2.614   2.740   1.041
 9685SOL    HW229955   2.468   2.746   1.113
 9686SOL     OW29956   6.938   1.308   1.061
 9686SOL    HW129957   7.026   1.261   1.068
 9686SOL    HW229958   6.884   1.268   0.987
 9687SOL     OW29959   1.914   0.970   3.168
 9687SOL    HW129960   1.829   1.014   3.136
 9687SOL    HW229961   1.893   0.903   3.238
 9688SOL     OW29962   6.976   2.441   2.674
 9688SOL    HW129963   7.009   2.516   2.731
 9688SOL    HW229964   6.879   2.453   2.655
 9689SOL     OW29965   1.840   6.922   0.358
 9689SOL    HW129966   1.834   6.865   0.277
 9689SOL    HW229967   1.859   7.017   0.332
 9690SOL     OW29968   5.931   4.672   6.881
 9690SOL    HW129969   5.910   4.758   6.832
 9690SOL    HW229970   5.932   4.597   6.815
 9691SOL     OW29971   2.433   5.079   2.396
 9691SOL    HW129972   2.455   5.165   2.349
 9691SOL    HW229973   2.463   5.002   2.341
 9692SOL     OW29974   2.696   5.385   2.424
 9692SOL    HW129975   2.768   5.359   2.361
 9692SOL    HW229976   2.702   5.482   2.444
 9693SOL     OW29977   6.826   5.749   2.132
 9693SOL    HW129978   6.896   5.679   2.142
 9693SOL    HW229979   6.807   5.763   2.035
 9694SOL     OW29980   2.167   2.020   6.762
 9694SOL    HW129981   2.249   2.014   6.818
 9694SOL    HW229982   2.191   2.046   6.669
 9695SOL     OW29983   5.821   4.503   0.498
 9695SOL    HW129984   5.750   4.529   0.433
 9695SOL    HW229985   5.900   4.469   0.447
 9696SOL     OW29986   3.822   2.484   1.472
 9696SOL    HW129987   3.723   2.481   1.484
 9696SOL    HW229988   3.865   2.420   1.536
 9697SOL     OW29989   0.828   4.700   6.903
 9697SOL    HW129990   0.891   4.702   6.980
 9697SOL    HW229991   0.794   4.607   6.890
 9698SOL     OW29992   5.798   0.512   4.753
 9698SOL    HW129993   5.756   0.599   4.779
 9698SOL    HW229994   5.775   0.490   4.659
 9699SOL     OW29995   0.628   4.076   5.781
 9699SOL    HW129996   0.675   4.135   5.715
 9699SOL    HW229997   0.532   4.065   5.754
 9700SOL     OW29998   3.622   4.877   5.171
 9700SOL    HW129999   3.606   4.941   5.246
 9700SOL    HW230000   3.578   4.790   5.191
 9701SOL     OW30001   3.830   5.759   5.481
 9701SOL    HW130002   3.902   5.803   5.426
 9701SOL    HW230003   3.809   5.816   5.561
 9702SOL     OW30004   5.416   1.250   0.507
 9702SOL    HW130005   5.375   1.159   0.499
 9702SOL    HW230006   5.402   1.300   0.422
 9703SOL     OW30007   3.046   6.021   4.504
 9703SOL    HW130008   3.039   5.933   4.550
 9703SOL    HW230009   3.076   6.091   4.569
 9704SOL     OW30010   3.098   0.052   2.922
 9704SOL    HW130011   3.182   0.028   2.874
 9704SOL    HW230012   3.020   0.035   2.863
 9705SOL     OW30013   4.434   5.003   0.426
 9705SOL    HW130014   4.374   4.935   0.383
 9705SOL    HW230015   4.429   5.089   0.374
 9706SOL     OW30016   6.663   2.322   0.819
 9706SOL    HW130017   6.591   2.304   0.885
 9706SOL    HW230018   6.623   2.330   0.728
 9707SOL     OW30019   1.062   4.232   1.904
 9707SOL    HW130020   1.023   4.150   1.946
 9707SOL    HW230021   1.100   4.207   1.814
 9708SOL     OW30022   2.041   2.773   3.873
 9708SOL    HW130023   1.971   2.710   3.905
 9708SOL    HW230024   2.113   2.722   3.827
 9709SOL     OW30025   0.999   6.119   3.718
 9709SOL    HW130026   1.025   6.198   3.662
 9709SOL    HW230027   0.980   6.041   3.658
 9710SOL     OW30028   0.326   0.737   2.680
 9710SOL    HW130029   0.410   0.691   2.652
 9710SOL    HW230030   0.315   0.822   2.629
 9711SOL     OW30031   1.720   3.114   6.031
 9711SOL    HW130032   1.724   3.034   6.091
 9711SOL    HW230033   1.627   3.149   6.029
 9712SOL     OW30034   5.521   2.475   4.928
 9712SOL    HW130035   5.497   2.411   4.854
 9712SOL    HW230036   5.437   2.517   4.964
 9713SOL     OW30037   0.251   4.403   2.898
 9713SOL    HW130038   0.318   4.476   2.910
 9713SOL    HW230039   0.215   4.375   2.987
 9714SOL     OW30040   2.028   1.371   1.808
 9714SOL    HW130041   2.051   1.383   1.905
 9714SOL    HW230042   2.063   1.449   1.756
 9715SOL     OW30043   6.296   5.480   4.800
 9715SOL    HW130044   6.296   5.400   4.859
 9715SOL    HW230045   6.288   5.452   4.704
 9716SOL     OW30046   3.759   1.965   6.675
 9716SOL    HW130047   3.774   1.897   6.603
 9716SOL    HW230048   3.715   2.046   6.635
 9717SOL     OW30049   4.985   5.823   4.349
 9717SOL    HW130050   5.070   5.848   4.303
 9717SOL    HW230051   5.005   5.760   4.424
 9718SOL     OW30052   4.260   2.611   1.302
 9718SOL    HW130053   4.300   2.685   1.356
 9718SOL    HW230054   4.319   2.531   1.308
 9719SOL     OW30055   0.880   2.301   0.523
 9719SOL    HW130056   0.953   2.297   0.455
 9719SOL    HW230057   0.802   2.352   0.486
 9720SOL     OW30058   0.441   6.144   1.984
 9720SOL    HW130059   0.478   6.148   2.077
 9720SOL    HW230060   0.408   6.235   1.958
 9721SOL     OW30061   0.725   3.246   2.317
 9721SOL    HW130062   0.664   3.175   2.351
 9721SOL    HW230063   0.780   3.283   2.392
 9722SOL     OW30064   0.553   0.696   3.585
 9722SOL    HW130065   0.530   0.758   3.660
 9722SOL    HW230066   0.511   0.729   3.500
 9723SOL     OW30067   1.157   6.271   2.766
 9723SOL    HW130068   1.146   6.345   2.701
 9723SOL    HW230069   1.124   6.300   2.856
 9724SOL     OW30070   2.895   2.718   1.714
 9724SOL    HW130071   2.798   2.703   1.701
 9724SOL    HW230072   2.937   2.635   1.753
 9725SOL     OW30073   4.291   3.613   6.393
 9725SOL    HW130074   4.368   3.645   6.448
 9725SOL    HW230075   4.324   3.546   6.326
 9726SOL     OW30076   5.273   0.182   4.703
 9726SOL    HW130077   5.311   0.145   4.788
 9726SOL    HW230078   5.333   0.157   4.627
 9727SOL     OW30079   1.211   3.884   5.521
 9727SOL    HW130080   1.240   3.788   5.526
 9727SOL    HW230081   1.240   3.923   5.434
 9728SOL     OW30082   1.576   6.557   6.489
 9728SOL    HW130083   1.656   6.617   6.491
 9728SOL    HW230084   1.494   6.609   6.514
 9729SOL     OW30085   1.265   4.708   3.107
 9729SOL    HW130086   1.200   4.697   3.182
 9729SOL    HW230087   1.305   4.799   3.110
 9730SOL     OW30088   6.766   3.342   2.377
 9730SOL    HW130089   6.860   3.373   2.391
 9730SOL    HW230090   6.766   3.244   2.354
 9731SOL     OW30091   4.033   5.109   0.723
 9731SOL    HW130092   4.087   5.032   0.687
 9731SOL    HW230093   3.936   5.093   0.706
 9732SOL     OW30094   6.842   6.227   2.831
 9732SOL    HW130095   6.845   6.314   2.781
 9732SOL    HW230096   6.860   6.151   2.768
 9733SOL     OW30097   6.130   4.976   4.494
 9733SOL    HW130098   6.062   4.992   4.565
 9733SOL    HW230099   6.103   5.026   4.411
 9734SOL     OW30100   5.807   1.734   3.960
 9734SOL    HW130101   5.807   1.830   3.986
 9734SOL    HW230102   5.846   1.680   4.035
 9735SOL     OW30103   2.263   5.177   3.246
 9735SOL    HW130104   2.221   5.226   3.170
 9735SOL    HW230105   2.358   5.156   3.223
 9736SOL     OW30106   5.204   1.168   6.940
 9736SOL    HW130107   5.120   1.117   6.924
 9736SOL    HW230108   5.191   1.264   6.915
 9737SOL     OW30109   4.193   2.166   4.615
 9737SOL    HW130110   4.098   2.192   4.598
 9737SOL    HW230111   4.238   2.236   4.670
 9738SOL     OW30112   1.557   0.696   3.049
 9738SOL    HW130113   1.494   0.680   3.125
 9738SOL    HW230114   1.647   0.660   3.071
 9739SOL     OW30115   0.144   4.908   1.644
 9739SOL    HW130116   0.144   4.815   1.609
 9739SOL    HW230117   0.062   4.923   1.700
 9740SOL     OW30118   5.913   3.783   2.860
 9740SOL    HW130119   6.004   3.777   2.820
 9740SOL    HW230120   5.884   3.693   2.892
 9741SOL     OW30121   4.620   1.409   2.987
 9741SOL    HW130122   4.683   1.432   3.061
 9741SOL    HW230123   4.621   1.310   2.972
 9742SOL     OW30124   5.207   0.136   3.243
 9742SOL    HW130125   5.148   0.059   3.220
 9742SOL    HW230126   5.175   0.218   3.195
 9743SOL     OW30127   1.964   2.928   5.831
 9743SOL    HW130128   1.901   2.862   5.871
 9743SOL    HW230129   1.983   3.000   5.898
 9744SOL     OW30130   1.292   0.592   2.115
 9744SOL    HW130131   1.285   0.539   2.199
 9744SOL    HW230132   1.249   0.681   2.129
 9745SOL     OW30133   0.801   2.282   5.198
 9745SOL    HW130134   0.841   2.237   5.118
 9745SOL    HW230135   0.702   2.288   5.186
 9746SOL     OW30136   5.760   0.929   5.286
 9746SOL    HW130137   5.691   0.972   5.344
 9746SOL    HW230138   5.847   0.976   5.297
 9747SOL     OW30139   1.416   1.459   1.006
 9747SOL    HW130140   1.512   1.433   0.993
 9747SOL    HW230141   1.357   1.379   0.995
 9748SOL     OW30142   1.299   6.198   5.172
 9748SOL    HW130143   1.280   6.253   5.090
 9748SOL    HW230144   1.213   6.181   5.221
 9749SOL     OW30145   1.113   3.012   5.560
 9749SOL    HW130146   1.143   2.932   5.509
 9749SOL    HW230147   1.103   2.989   5.657
 9750SOL     OW30148   5.496   4.834   3.603
 9750SOL    HW130149   5.524   4.754   3.656
 9750SOL    HW230150   5.514   4.817   3.506
 9751SOL     OW30151   1.867   2.001   0.930
 9751SOL    HW130152   1.958   1.976   0.898
 9751SOL    HW230153   1.863   1.994   1.030
 9752SOL     OW30154   4.525   0.581   6.245
 9752SOL    HW130155   4.620   0.575   6.213
 9752SOL    HW230156   4.477   0.652   6.194
 9753SOL     OW30157   6.654   6.246   4.948
 9753SOL    HW130158   6.570   6.285   4.908
 9753SOL    HW230159   6.713   6.214   4.874
 9754SOL     OW30160   1.456   1.781   6.951
 9754SOL    HW130161   1.440   1.692   6.909
 9754SOL    HW230162   1.369   1.820   6.980
 9755SOL     OW30163   4.103   3.578   5.010
 9755SOL    HW130164   4.089   3.555   4.913
 9755SOL    HW230165   4.020   3.558   5.061
 9756SOL     OW30166   5.830   2.892   6.831
 9756SOL    HW130167   5.777   2.969   6.795
 9756SOL    HW230168   5.780   2.807   6.816
 9757SOL     OW30169   5.182   3.069   3.574
 9757SOL    HW130170   5.103   3.009   3.583
 9757SOL    HW230171   5.169   3.150   3.632
 9758SOL     OW30172   1.925   0.111   5.473
 9758SOL    HW130173   1.948   0.027   5.521
 9758SOL    HW230174   1.900   0.090   5.378
 9759SOL     OW30175   1.920   6.841   1.058
 9759SOL    HW130176   1.957   6.878   0.973
 9759SOL    HW230177   1.891   6.747   1.045
 9760SOL     OW30178   5.545   4.673   4.762
 9760SOL    HW130179   5.626   4.615   4.758
 9760SOL    HW230180   5.522   4.693   4.857
 9761SOL     OW30181   5.992   5.105   1.420
 9761SOL    HW130182   5.950   5.170   1.483
 9761SOL    HW230183   5.921   5.057   1.369
 9762SOL     OW30184   2.158   1.975   4.485
 9762SOL    HW130185   2.175   2.025   4.570
 9762SOL    HW230186   2.189   2.030   4.407
 9763SOL     OW30187   4.492   1.274   1.613
 9763SOL    HW130188   4.486   1.337   1.536
 9763SOL    HW230189   4.535   1.189   1.584
 9764SOL     OW30190   1.518   2.814   3.685
 9764SOL    HW130191   1.446   2.755   3.648
 9764SOL    HW230192   1.556   2.772   3.767
 9765SOL     OW30193   6.985   1.962   5.237
 9765SOL    HW130194   0.013   1.879   5.227
 9765SOL    HW230195   6.931   1.957   5.321
 9766SOL     OW30196   2.987   0.669   3.174
 9766SOL    HW130197   3.000   0.768   3.164
 9766SOL    HW230198   2.919   0.637   3.109
 9767SOL     OW30199   5.462   1.597   4.964
 9767SOL    HW130200   5.397   1.625   4.894
 9767SOL    HW230201   5.432   1.632   5.053
 9768SOL     OW30202   4.580   2.128   2.705
 9768SOL    HW130203   4.558   2.076   2.787
 9768SOL    HW230204   4.646   2.200   2.727
 9769SOL     OW30205   1.248   2.689   1.075
 9769SOL    HW130206   1.166   2.640   1.104
 9769SOL    HW230207   1.298   2.720   1.156
 9770SOL     OW30208   6.306   5.315   5.722
 9770SOL    HW130209   6.358   5.377   5.663
 9770SOL    HW230210   6.224   5.362   5.755
 9771SOL     OW30211   4.276   4.502   1.019
 9771SOL    HW130212   4.287   4.575   1.087
 9771SOL    HW230213   4.179   4.485   1.004
 9772SOL     OW30214   0.301   6.718   1.721
 9772SOL    HW130215   0.238   6.647   1.752
 9772SOL    HW230216   0.373   6.677   1.665
 9773SOL     OW30217   5.519   5.545   3.810
 9773SOL    HW130218   5.462   5.598   3.874
 9773SOL    HW230219   5.471   5.536   3.723
 9774SOL     OW30220   6.067   5.150   3.887
 9774SOL    HW130221   6.030   5.242   3.874
 9774SOL    HW230222   6.038   5.091   3.812
 9775SOL     OW30223   2.058   2.480   4.708
 9775SOL    HW130224   2.054   2.384   4.681
 9775SOL    HW230225   2.044   2.538   4.629
 9776SOL     OW30226   6.988   5.585   4.480
 9776SOL    HW130227   6.914   5.527   4.444
 9776SOL    HW230228   7.000   5.566   4.578
 9777SOL     OW30229   6.184   4.709   6.073
 9777SOL    HW130230   6.197   4.610   6.073
 9777SOL    HW230231   6.157   4.739   5.982
 9778SOL     OW30232   4.726   6.785   3.139
 9778SOL    HW130233   4.699   6.736   3.222
 9778SOL    HW230234   4.663   6.860   3.123
 9779SOL     OW30235   2.866   1.482   4.660
 9779SOL    HW130236   2.902   1.485   4.753
 9779SOL    HW230237   2.827   1.571   4.636
 9780SOL     OW30238   2.262   3.075   0.506
 9780SOL    HW130239   2.327   3.020   0.558
 9780SOL    HW230240   2.183   3.096   0.564
 9781SOL     OW30241   1.643   4.485   4.383
 9781SOL    HW130242   1.676   4.428   4.308
 9781SOL    HW230243   1.547   4.510   4.366
 9782SOL     OW30244   6.812   0.111   1.283
 9782SOL    HW130245   6.838   0.022   1.320
 9782SOL    HW230246   6.839   0.183   1.347
 9783SOL     OW30247   5.859   0.866   1.512
 9783SOL    HW130248   5.774   0.901   1.474
 9783SOL    HW230249   5.843   0.831   1.604
 9784SOL     OW30250   4.714   1.101   3.383
 9784SOL    HW130251   4.709   1.192   3.426
 9784SOL    HW230252   4.622   1.061   3.379
 9785SOL     OW30253   0.056   2.824   2.787
 9785SOL    HW130254   0.026   2.755   2.852
 9785SOL    HW230255   0.143   2.864   2.817
 9786SOL     OW30256   2.414   5.277   5.795
 9786SOL    HW130257   2.475   5.287   5.873
 9786SOL    HW230258   2.342   5.212   5.817
 9787SOL     OW30259   5.038   4.027   1.785
 9787SOL    HW130260   5.014   3.959   1.854
 9787SOL    HW230261   4.957   4.047   1.729
 9788SOL     OW30262   0.162   6.940   4.126
 9788SOL    HW130263   0.250   6.985   4.109
 9788SOL    HW230264   0.152   6.861   4.066
 9789SOL     OW30265   2.225   5.676   5.762
 9789SOL    HW130266   2.266   5.703   5.675
 9789SOL    HW230267   2.264   5.732   5.835
 9790SOL     OW30268   5.461   1.633   4.458
 9790SOL    HW130269   5.493   1.710   4.514
 9790SOL    HW230270   5.540   1.582   4.424
 9791SOL     OW30271   1.682   1.353   1.015
 9791SOL    HW130272   1.698   1.294   1.095
 9791SOL    HW230273   1.713   1.306   0.933
 9792SOL     OW30274   4.699   4.819   0.998
 9792SOL    HW130275   4.765   4.743   1.003
 9792SOL    HW230276   4.701   4.870   1.083
 9793SOL     OW30277   5.456   6.267   2.859
 9793SOL    HW130278   5.550   6.302   2.858
 9793SOL    HW230279   5.410   6.294   2.774
 9794SOL     OW30280   5.374   2.907   6.115
 9794SOL    HW130281   5.452   2.891   6.054
 9794SOL    HW230282   5.293   2.862   6.077
 9795SOL     OW30283   1.353   3.400   4.675
 9795SOL    HW130284   1.323   3.453   4.596
 9795SOL    HW230285   1.436   3.349   4.651
 9796SOL     OW30286   2.968   5.206   0.844
 9796SOL    HW130287   3.037   5.159   0.899
 9796SOL    HW230288   2.922   5.140   0.784
 9797SOL     OW30289   4.256   3.655   6.835
 9797SOL    HW130290   4.238   3.670   6.932
 9797SOL    HW230291   4.318   3.726   6.801
 9798SOL     OW30292   2.814   0.577   0.919
 9798SOL    HW130293   2.758   0.598   0.838
 9798SOL    HW230294   2.883   0.648   0.930
 9799SOL     OW30295   3.113   2.988   2.407
 9799SOL    HW130296   3.178   3.017   2.337
 9799SOL    HW230297   3.163   2.957   2.488
 9800SOL     OW30298   4.267   5.725   6.560
 9800SOL    HW130299   4.210   5.765   6.632
 9800SOL    HW230300   4.217   5.651   6.516
 9801SOL     OW30301   4.726   5.802   0.757
 9801SOL    HW130302   4.703   5.897   0.775
 9801SOL    HW230303   4.720   5.785   0.658
 9802SOL     OW30304   0.661   3.368   0.982
 9802SOL    HW130305   0.626   3.292   1.037
 9802SOL    HW230306   0.752   3.345   0.948
 9803SOL     OW30307   6.271   0.068   0.018
 9803SOL    HW130308   6.286   7.000   0.048
 9803SOL    HW230309   6.236   0.122   0.095
 9804SOL     OW30310   0.224   5.430   3.618
 9804SOL    HW130311   0.309   5.379   3.637
 9804SOL    HW230312   0.247   5.525   3.598
 9805SOL     OW30313   1.160   5.398   6.975
 9805SOL    HW130314   1.194   5.443   0.032
 9805SOL    HW230315   1.138   5.468   6.907
 9806SOL     OW30316   0.284   2.615   1.863
 9806SOL    HW130317   0.250   2.582   1.951
 9806SOL    HW230318   0.216   2.676   1.822
 9807SOL     OW30319   4.151   1.692   0.128
 9807SOL    HW130320   4.247   1.667   0.114
 9807SOL    HW230321   4.143   1.749   0.209
 9808SOL     OW30322   6.467   1.813   4.984
 9808SOL    HW130323   6.467   1.733   4.924
 9808SOL    HW230324   6.561   1.841   5.001
 9809SOL     OW30325   0.765   1.635   4.442
 9809SOL    HW130326   0.671   1.639   4.407
 9809SOL    HW230327   0.810   1.723   4.425
 9810SOL     OW30328   2.746   1.692   3.057
 9810SOL    HW130329   2.792   1.709   3.144
 9810SOL    HW230330   2.763   1.768   2.994
 9811SOL     OW30331   6.620   6.253   3.009
 9811SOL    HW130332   6.643   6.299   3.094
 9811SOL    HW230333   6.704   6.237   2.956
 9812SOL     OW30334   4.885   2.481   5.860
 9812SOL    HW130335   4.838   2.424   5.927
 9812SOL    HW230336   4.869   2.445   5.768
 9813SOL     OW30337   6.446   5.405   0.130
 9813SOL    HW130338   6.531   5.416   0.181
 9813SOL    HW230339   6.455   5.450   0.041
 9814SOL     OW30340   6.690   6.691   5.803
 9814SOL    HW130341   6.774   6.686   5.857
 9814SOL    HW230342   6.695   6.624   5.728
 9815SOL     OW30343   6.299   3.386   1.525
 9815SOL    HW130344   6.384   3.403   1.475
 9815SOL    HW230345   6.320   3.351   1.616
 9816SOL     OW30346   6.402   0.417   0.099
 9816SOL    HW130347   6.332   0.402   0.030
 9816SOL    HW230348   6.370   0.484   0.166
 9817SOL     OW30349   2.831   6.019   1.396
 9817SOL    HW130350   2.827   5.974   1.485
 9817SOL    HW230351   2.756   5.987   1.339
 9818SOL     OW30352   1.749   0.940   3.617
 9818SOL    HW130353   1.746   0.843   3.640
 9818SOL    HW230354   1.728   0.994   3.698
 9819SOL     OW30355   6.168   3.787   5.017
 9819SOL    HW130356   6.099   3.716   5.033
 9819SOL    HW230357   6.258   3.753   5.043
 9820SOL     OW30358   2.516   2.557   6.196
 9820SOL    HW130359   2.592   2.500   6.225
 9820SOL    HW230360   2.550   2.640   6.154
 9821SOL     OW30361   4.599   2.117   1.931
 9821SOL    HW130362   4.517   2.138   1.877
 9821SOL    HW230363   4.675   2.172   1.897
 9822SOL     OW30364   4.185   5.610   4.592
 9822SOL    HW130365   4.119   5.566   4.531
 9822SOL    HW230366   4.265   5.550   4.603
 9823SOL     OW30367   1.510   0.913   2.886
 9823SOL    HW130368   1.437   0.915   2.817
 9823SOL    HW230369   1.517   0.821   2.924
 9824SOL     OW30370   1.045   5.900   5.712
 9824SOL    HW130371   1.114   5.936   5.775
 9824SOL    HW230372   1.087   5.881   5.623
 9825SOL     OW30373   5.102   6.242   6.189
 9825SOL    HW130374   5.073   6.331   6.225
 9825SOL    HW230375   5.193   6.251   6.148
 9826SOL     OW30376   2.848   6.487   5.726
 9826SOL    HW130377   2.947   6.494   5.720
 9826SOL    HW230378   2.806   6.575   5.702
 9827SOL     OW30379   1.857   5.671   2.294
 9827SOL    HW130380   1.800   5.590   2.295
 9827SOL    HW230381   1.819   5.740   2.356
 9828SOL     OW30382   4.123   1.797   5.442
 9828SOL    HW130383   4.148   1.835   5.531
 9828SOL    HW230384   4.152   1.701   5.439
 9829SOL     OW30385   4.384   5.450   5.984
 9829SOL    HW130386   4.401   5.419   5.891
 9829SOL    HW230387   4.355   5.373   6.040
 9830SOL     OW30388   5.766   1.798   2.860
 9830SOL    HW130389   5.683   1.744   2.847
 9830SOL    HW230390   5.755   1.887   2.815
 9831SOL     OW30391   0.562   4.124   2.189
 9831SOL    HW130392   0.492   4.072   2.239
 9831SOL    HW230393   0.591   4.072   2.109
 9832SOL     OW30394   4.960   4.181   4.662
 9832SOL    HW130395   5.057   4.158   4.661
 9832SOL    HW230396   4.948   4.277   4.636
 9833SOL     OW30397   3.364   3.838   4.184
 9833SOL    HW130398   3.338   3.888   4.267
 9833SOL    HW230399   3.461   3.814   4.189
 9834SOL     OW30400   2.409   5.465   5.240
 9834SOL    HW130401   2.479   5.434   5.305
 9834SOL    HW230402   2.415   5.564   5.230
 9835SOL     OW30403   3.584   4.182   4.829
 9835SOL    HW130404   3.650   4.180   4.904
 9835SOL    HW230405   3.530   4.266   4.835
 9836SOL     OW30406   0.822   3.456   5.706
 9836SOL    HW130407   0.819   3.402   5.790
 9836SOL    HW230408   0.895   3.524   5.713
 9837SOL     OW30409   5.229   2.282   1.643
 9837SOL    HW130410   5.203   2.210   1.708
 9837SOL    HW230411   5.181   2.367   1.666
 9838SOL     OW30412   0.771   6.349   1.667
 9838SOL    HW130413   0.862   6.387   1.648
 9838SOL    HW230414   0.765   6.323   1.763
 9839SOL     OW30415   4.405   0.810   2.406
 9839SOL    HW130416   4.360   0.726   2.375
 9839SOL    HW230417   4.463   0.789   2.484
 9840SOL     OW30418   6.045   1.864   6.629
 9840SOL    HW130419   5.979   1.938   6.630
 9840SOL    HW230420   6.083   1.852   6.721
 9841SOL     OW30421   0.328   6.238   3.291
 9841SOL    HW130422   0.420   6.209   3.319
 9841SOL    HW230423   0.311   6.207   3.197
 9842SOL     OW30424   2.756   2.317   6.772
 9842SOL    HW130425   2.679   2.343   6.830
 9842SOL    HW230426   2.798   2.233   6.808
 9843SOL     OW30427   6.904   6.734   0.836
 9843SOL    HW130428   6.956   6.652   0.862
 9843SOL    HW230429   6.946   6.777   0.757
 9844SOL     OW30430   4.829   0.065   4.207
 9844SOL    HW130431   4.881   0.093   4.287
 9844SOL    HW230432   4.891   0.053   4.129
 9845SOL     OW30433   1.505   3.063   1.896
 9845SOL    HW130434   1.410   3.034   1.883
 9845SOL    HW230435   1.506   3.156   1.934
 9846SOL     OW30436   5.254   1.053   1.271
 9846SOL    HW130437   5.180   0.991   1.296
 9846SOL    HW230438   5.325   1.002   1.223
 9847SOL     OW30439   4.024   3.575   0.556
 9847SOL    HW130440   4.025   3.483   0.519
 9847SOL    HW230441   4.051   3.572   0.653
 9848SOL     OW30442   3.691   3.724   5.403
 9848SOL    HW130443   3.616   3.689   5.345
 9848SOL    HW230444   3.747   3.647   5.434
 9849SOL     OW30445   0.915   1.681   6.029
 9849SOL    HW130446   0.985   1.631   6.079
 9849SOL    HW230447   0.893   1.633   5.944
 9850SOL     OW30448   0.757   0.503   4.456
 9850SOL    HW130449   0.732   0.412   4.489
 9850SOL    HW230450   0.797   0.556   4.532
 9851SOL     OW30451   3.573   4.982   4.402
 9851SOL    HW130452   3.604   4.950   4.313
 9851SOL    HW230453   3.648   4.974   4.468
 9852SOL     OW30454   2.115   1.455   6.694
 9852SOL    HW130455   2.065   1.476   6.610
 9852SOL    HW230456   2.166   1.536   6.723
 9853SOL     OW30457   6.880   4.403   3.732
 9853SOL    HW130458   6.870   4.368   3.825
 9853SOL    HW230459   6.929   4.336   3.676
 9854SOL     OW30460   1.154   5.431   6.389
 9854SOL    HW130461   1.095   5.471   6.458
 9854SOL    HW230462   1.236   5.392   6.432
 9855SOL     OW30463   1.883   3.549   1.599
 9855SOL    HW130464   1.842   3.594   1.679
 9855SOL    HW230465   1.819   3.553   1.522
 9856SOL     OW30466   5.853   4.065   3.120
 9856SOL    HW130467   5.926   4.073   3.052
 9856SOL    HW230468   5.833   3.969   3.136
 9857SOL     OW30469   4.240   1.676   3.652
 9857SOL    HW130470   4.171   1.626   3.600
 9857SOL    HW230471   4.211   1.771   3.664
 9858SOL     OW30472   6.733   6.402   2.388
 9858SOL    HW130473   6.666   6.460   2.341
 9858SOL    HW230474   6.746   6.436   2.481
 9859SOL     OW30475   6.968   5.842   4.382
 9859SOL    HW130476   6.896   5.852   4.312
 9859SOL    HW230477   6.970   5.747   4.414
 9860SOL     OW30478   1.732   3.002   5.106
 9860SOL    HW130479   1.657   2.964   5.051
 9860SOL    HW230480   1.697   3.078   5.161
 9861SOL     OW30481   3.662   1.373   4.463
 9861SOL    HW130482   3.711   1.370   4.550
 9861SOL    HW230483   3.573   1.327   4.473
 9862SOL     OW30484   1.305   5.310   0.807
 9862SOL    HW130485   1.362   5.308   0.890
 9862SOL    HW230486   1.267   5.401   0.795
 9863SOL     OW30487   4.045   6.253   1.059
 9863SOL    HW130488   4.137   6.291   1.071
 9863SOL    HW230489   4.013   6.216   1.146
 9864SOL     OW30490   2.924   6.055   5.033
 9864SOL    HW130491   2.864   6.020   5.105
 9864SOL    HW230492   2.890   6.025   4.944
 9865SOL     OW30493   0.775   6.297   5.849
 9865SOL    HW130494   0.852   6.334   5.901
 9865SOL    HW230495   0.695   6.291   5.908
 9866SOL     OW30496   6.409   5.122   4.266
 9866SOL    HW130497   6.478   5.065   4.311
 9866SOL    HW230498   6.322   5.072   4.264
 9867SOL     OW30499   4.784   1.846   1.745
 9867SOL    HW130500   4.768   1.934   1.702
 9867SOL    HW230501   4.719   1.832   1.819
 9868SOL     OW30502   1.745   4.380   3.595
 9868SOL    HW130503   1.680   4.306   3.579
 9868SOL    HW230504   1.695   4.464   3.614
 9869SOL     OW30505   6.896   2.575   1.342
 9869SOL    HW130506   6.959   2.510   1.384
 9869SOL    HW230507   6.904   2.568   1.242
 9870SOL     OW30508   3.172   1.338   2.370
 9870SOL    HW130509   3.119   1.332   2.285
 9870SOL    HW230510   3.216   1.427   2.375
 9871SOL     OW30511   6.852   4.030   4.683
 9871SOL    HW130512   6.886   4.121   4.656
 9871SOL    HW230513   6.856   4.022   4.783
 9872SOL     OW30514   1.506   5.036   5.318
 9872SOL    HW130515   1.501   4.969   5.245
 9872SOL    HW230516   1.562   5.000   5.393
 9873SOL     OW30517   2.245   1.708   5.443
 9873SOL    HW130518   2.243   1.636   5.374
 9873SOL    HW230519   2.171   1.773   5.426
 9874SOL     OW30520   0.086   2.528   4.646
 9874SOL    HW130521   0.146   2.498   4.719
 9874SOL    HW230522   0.030   2.605   4.677
 9875SOL     OW30523   6.925   5.939   0.595
 9875SOL    HW130524   6.974   6.025   0.582
 9875SOL    HW230525   6.923   5.888   0.509
 9876SOL     OW30526   2.462   6.813   3.575
 9876SOL    HW130527   2.387   6.782   3.634
 9876SOL    HW230528   2.434   6.807   3.479
 9877SOL     OW30529   0.573   5.128   4.698
 9877SOL    HW130530   0.655   5.151   4.750
 9877SOL    HW230531   0.586   5.152   4.602
 9878SOL     OW30532   2.146   3.249   0.261
 9878SOL    HW130533   2.160   3.319   0.330
 9878SOL    HW230534   2.089   3.176   0.298
 9879SOL     OW30535   0.493   4.972   6.366
 9879SOL    HW130536   0.421   4.902   6.365
 9879SOL    HW230537   0.579   4.930   6.395
 9880SOL     OW30538   2.925   1.917   0.299
 9880SOL    HW130539   3.016   1.933   0.337
 9880SOL    HW230540   2.910   1.979   0.222
 9881SOL     OW30541   5.762   0.091   4.509
 9881SOL    HW130542   5.855   0.129   4.511
 9881SOL    HW230543   5.711   0.126   4.588
 9882SOL     OW30544   3.959   3.767   4.553
 9882SOL    HW130545   3.894   3.765   4.629
 9882SOL    HW230546   4.015   3.684   4.556
 9883SOL     OW30547   2.165   0.138   0.950
 9883SOL    HW130548   2.145   0.113   1.044
 9883SOL    HW230549   2.237   0.079   0.914
 9884SOL     OW30550   1.808   3.785   6.107
 9884SOL    HW130551   1.740   3.722   6.145
 9884SOL    HW230552   1.877   3.806   6.176
 9885SOL     OW30553   6.413   3.519   4.152
 9885SOL    HW130554   6.375   3.611   4.160
 9885SOL    HW230555   6.345   3.452   4.182
 9886SOL     OW30556   4.879   6.004   1.416
 9886SOL    HW130557   4.874   6.101   1.392
 9886SOL    HW230558   4.931   5.994   1.502
 9887SOL     OW30559   3.410   0.243   0.350
 9887SOL    HW130560   3.378   0.150   0.364
 9887SOL    HW230561   3.385   0.274   0.258
 9888SOL     OW30562   6.140   5.105   2.340
 9888SOL    HW130563   6.171   5.126   2.247
 9888SOL    HW230564   6.143   5.188   2.396
 9889SOL     OW30565   0.208   5.168   3.861
 9889SOL    HW130566   0.175   5.082   3.822
 9889SOL    HW230567   0.207   5.239   3.790
 9890SOL     OW30568   6.948   4.305   1.688
 9890SOL    HW130569   6.892   4.352   1.757
 9890SOL    HW230570   0.016   4.300   1.720
 9891SOL     OW30571   5.461   4.645   0.673
 9891SOL    HW130572   5.464   4.650   0.574
 9891SOL    HW230573   5.463   4.549   0.702
 9892SOL     OW30574   1.950   5.313   4.027
 9892SOL    HW130575   2.038   5.277   3.996
 9892SOL    HW230576   1.966   5.383   4.097
 9893SOL     OW30577   5.970   5.157   3.091
 9893SOL    HW130578   6.022   5.112   3.163
 9893SOL    HW230579   5.953   5.092   3.017
 9894SOL     OW30580   3.744   2.800   6.043
 9894SOL    HW130581   3.757   2.783   6.141
 9894SOL    HW230582   3.652   2.837   6.028
 9895SOL     OW30583   5.015   2.601   6.738
 9895SOL    HW130584   5.072   2.682   6.753
 9895SOL    HW230585   4.969   2.576   6.823
 9896SOL     OW30586   3.986   4.115   0.534
 9896SOL    HW130587   3.993   4.163   0.621
 9896SOL    HW230588   3.938   4.172   0.468
 9897SOL     OW30589   5.772   1.984   3.245
 9897SOL    HW130590   5.835   2.058   3.267
 9897SOL    HW230591   5.819   1.915   3.189
 9898SOL     OW30592   1.346   5.359   5.576
 9898SOL    HW130593   1.264   5.375   5.632
 9898SOL    HW230594   1.326   5.288   5.508
 9899SOL     OW30595   5.338   4.918   2.579
 9899SOL    HW130596   5.240   4.904   2.593
 9899SOL    HW230597   5.373   4.846   2.519
 9900SOL     OW30598   1.233   2.405   4.516
 9900SOL    HW130599   1.237   2.356   4.603
 9900SOL    HW230600   1.288   2.488   4.522
 9901SOL     OW30601   2.880   2.598   5.929
 9901SOL    HW130602   2.956   2.544   5.964
 9901SOL    HW230603   2.879   2.687   5.974
 9902SOL     OW30604   3.942   3.345   0.227
 9902SOL    HW130605   3.844   3.334   0.213
 9902SOL    HW230606   3.967   3.309   0.318
 9903SOL     OW30607   4.374   2.217   1.792
 9903SOL    HW130608   4.352   2.272   1.712
 9903SOL    HW230609   4.397   2.277   1.869
 9904SOL     OW30610   6.778   1.813   0.973
 9904SOL    HW130611   6.759   1.909   0.991
 9904SOL    HW230612   6.706   1.756   1.012
 9905SOL     OW30613   1.201   0.136   5.752
 9905SOL    HW130614   1.241   0.055   5.794
 9905SOL    HW230615   1.118   0.161   5.801
 9906SOL     OW30616   2.531   3.802   6.324
 9906SOL    HW130617   2.551   3.826   6.419
 9906SOL    HW230618   2.608   3.750   6.286
 9907SOL     OW30619   2.755   6.431   2.589
 9907SOL    HW130620   2.688   6.495   2.551
 9907SOL    HW230621   2.805   6.477   2.663
 9908SOL     OW30622   1.060   4.006   5.976
 9908SOL    HW130623   1.112   4.037   5.896
 9908SOL    HW230624   0.963   4.025   5.962
 9909SOL     OW30625   3.170   1.147   2.877
 9909SOL    HW130626   3.256   1.102   2.901
 9909SOL    HW230627   3.099   1.079   2.863
 9910SOL     OW30628   6.636   4.039   0.080
 9910SOL    HW130629   6.720   4.090   0.098
 9910SOL    HW230630   6.658   3.943   0.064
 9911SOL     OW30631   3.431   5.134   3.349
 9911SOL    HW130632   3.445   5.051   3.403
 9911SOL    HW230633   3.462   5.117   3.255
 9912SOL     OW30634   5.339   0.551   1.541
 9912SOL    HW130635   5.239   0.558   1.549
 9912SOL    HW230636   5.371   0.471   1.592
 9913SOL     OW30637   5.112   2.494   3.060
 9913SOL    HW130638   5.144   2.399   3.059
 9913SOL    HW230639   5.144   2.541   2.979
 9914SOL     OW30640   0.885   0.626   4.680
 9914SOL    HW130641   0.979   0.618   4.647
 9914SOL    HW230642   0.882   0.613   4.779
 9915SOL     OW30643   4.936   3.296   3.704
 9915SOL    HW130644   4.895   3.385   3.727
 9915SOL    HW230645   5.035   3.303   3.706
 9916SOL     OW30646   2.268   2.830   2.627
 9916SOL    HW130647   2.243   2.753   2.684
 9916SOL    HW230648   2.368   2.836   2.621
 9917SOL     OW30649   3.289   3.920   5.911
 9917SOL    HW130650   3.248   3.898   5.822
 9917SOL    HW230651   3.387   3.901   5.908
 9918SOL     OW30652   2.272   1.893   5.903
 9918SOL    HW130653   2.247   1.808   5.857
 9918SOL    HW230654   2.370   1.908   5.896
 9919SOL     OW30655   0.356   5.192   3.243
 9919SOL    HW130656   0.271   5.228   3.282
 9919SOL    HW230657   0.434   5.237   3.287
 9920SOL     OW30658   4.022   6.433   1.597
 9920SOL    HW130659   3.961   6.458   1.672
 9920SOL    HW230660   4.086   6.363   1.628
 9921SOL     OW30661   6.038   0.817   2.911
 9921SOL    HW130662   6.117   0.784   2.963
 9921SOL    HW230663   6.067   0.844   2.819
 9922SOL     OW30664   4.147   4.857   0.678
 9922SOL    HW130665   4.187   4.767   0.661
 9922SOL    HW230666   4.191   4.898   0.758
 9923SOL     OW30667   6.601   2.290   5.777
 9923SOL    HW130668   6.607   2.213   5.714
 9923SOL    HW230669   6.526   2.275   5.842
 9924SOL     OW30670   6.724   0.783   2.843
 9924SOL    HW130671   6.694   0.699   2.797
 9924SOL    HW230672   6.644   0.840   2.861
 9925SOL     OW30673   2.657   2.595   5.330
 9925SOL    HW130674   2.593   2.620   5.258
 9925SOL    HW230675   2.730   2.537   5.292
 9926SOL     OW30676   1.123   1.332   0.385
 9926SOL    HW130677   1.185   1.406   0.358
 9926SOL    HW230678   1.050   1.369   0.442
 9927SOL     OW30679   0.332   1.859   2.040
 9927SOL    HW130680   0.310   1.953   2.068
 9927SOL    HW230681   0.399   1.861   1.966
 9928SOL     OW30682   0.325   4.102   2.027
 9928SOL    HW130683   0.271   4.018   2.038
 9928SOL    HW230684   0.303   4.165   2.100
 9929SOL     OW30685   2.527   4.174   0.271
 9929SOL    HW130686   2.432   4.150   0.250
 9929SOL    HW230687   2.579   4.091   0.291
 9930SOL     OW30688   0.102   6.474   5.910
 9930SOL    HW130689   0.138   6.567   5.922
 9930SOL    HW230690   0.148   6.412   5.973
 9931SOL     OW30691   1.669   6.265   5.711
 9931SOL    HW130692   1.658   6.166   5.716
 9931SOL    HW230693   1.580   6.308   5.694
 9932SOL     OW30694   1.228   1.821   0.213
 9932SOL    HW130695   1.245   1.873   0.297
 9932SOL    HW230696   1.239   1.882   0.134
 9933SOL     OW30697   2.095   1.398   3.293
 9933SOL    HW130698   2.005   1.402   3.337
 9933SOL    HW230699   2.123   1.490   3.266
 9934SOL     OW30700   5.041   1.370   5.831
 9934SOL    HW130701   5.049   1.291   5.771
 9934SOL    HW230702   5.013   1.339   5.922
 9935SOL     OW30703   3.247   2.149   0.759
 9935SOL    HW130704   3.149   2.163   0.775
 9935SOL    HW230705   3.279   2.070   0.813
 9936SOL     OW30706   5.861   5.932   5.400
 9936SOL    HW130707   5.768   5.898   5.387
 9936SOL    HW230708   5.872   6.019   5.352
 9937SOL     OW30709   0.826   6.925   2.943
 9937SOL    HW130710   0.754   6.866   2.980
 9937SOL    HW230711   0.911   6.908   2.993
 9938SOL     OW30712   6.628   0.707   4.141
 9938SOL    HW130713   6.629   0.777   4.212
 9938SOL    HW230714   6.596   0.621   4.179
 9939SOL     OW30715   2.203   4.416   1.579
 9939SOL    HW130716   2.224   4.321   1.602
 9939SOL    HW230717   2.157   4.460   1.656
 9940SOL     OW30718   0.971   0.135   3.317
 9940SOL    HW130719   1.018   0.222   3.327
 9940SOL    HW230720   0.880   0.141   3.358
 9941SOL     OW30721   4.880   4.981   6.337
 9941SOL    HW130722   4.863   4.914   6.265
 9941SOL    HW230723   4.914   5.066   6.298
 9942SOL     OW30724   4.322   4.695   4.011
 9942SOL    HW130725   4.239   4.653   4.048
 9942SOL    HW230726   4.307   4.720   3.915
 9943SOL     OW30727   2.321   4.098   0.017
 9943SOL    HW130728   2.296   4.178   6.990
 9943SOL    HW230729   2.239   4.054   0.053
 9944SOL     OW30730   1.432   4.685   0.436
 9944SOL    HW130731   1.340   4.652   0.415
 9944SOL    HW230732   1.441   4.780   0.407
 9945SOL     OW30733   5.758   3.793   6.500
 9945SOL    HW130734   5.685   3.803   6.567
 9945SOL    HW230735   5.834   3.741   6.541
 9946SOL     OW30736   5.447   1.239   2.536
 9946SOL    HW130737   5.443   1.141   2.516
 9946SOL    HW230738   5.425   1.290   2.453
 9947SOL     OW30739   1.677   1.943   3.674
 9947SOL    HW130740   1.600   1.994   3.634
 9947SOL    HW230741   1.670   1.847   3.647
 9948SOL     OW30742   6.274   6.997   4.267
 9948SOL    HW130743   6.362   6.954   4.288
 9948SOL    HW230744   6.244   6.967   4.176
 9949SOL     OW30745   6.465   4.605   4.618
 9949SOL    HW130746   6.555   4.610   4.574
 9949SOL    HW230747   6.473   4.554   4.704
 9950SOL     OW30748   6.178   4.860   5.757
 9950SOL    HW130749   6.168   4.958   5.773
 9950SOL    HW230750   6.088   4.819   5.742
 9951SOL     OW30751   0.466   2.203   2.286
 9951SOL    HW130752   0.546   2.155   2.251
 9951SOL    HW230753   0.445   2.170   2.378
 9952SOL     OW30754   0.579   4.326   2.002
 9952SOL    HW130755   0.625   4.279   1.926
 9952SOL    HW230756   0.570   4.262   2.079
 9953SOL     OW30757   5.902   2.414   3.457
 9953SOL    HW130758   5.981   2.431   3.515
 9953SOL    HW230759   5.912   2.325   3.412
 9954SOL     OW30760   2.632   2.040   6.204
 9954SOL    HW130761   2.727   2.054   6.234
 9954SOL    HW230762   2.608   2.108   6.135
 9955SOL     OW30763   5.427   3.138   0.609
 9955SOL    HW130764   5.332   3.106   0.608
 9955SOL    HW230765   5.471   3.110   0.694
 9956SOL     OW30766   2.154   3.862   3.568
 9956SOL    HW130767   2.195   3.792   3.626
 9956SOL    HW230768   2.067   3.891   3.608
 9957SOL     OW30769   5.414   6.510   1.026
 9957SOL    HW130770   5.415   6.430   1.085
 9957SOL    HW230771   5.341   6.572   1.055
 9958SOL     OW30772   4.809   4.926   0.176
 9958SOL    HW130773   4.852   4.973   0.253
 9958SOL    HW230774   4.829   4.975   0.091
 9959SOL     OW30775   4.311   4.370   0.647
 9959SOL    HW130776   4.258   4.318   0.713
 9959SOL    HW230777   4.388   4.314   0.615
 9960SOL     OW30778   6.549   0.003   6.710
 9960SOL    HW130779   6.484   0.077   6.695
 9960SOL    HW230780   6.629   0.015   6.650
 9961SOL     OW30781   2.527   4.863   2.246
 9961SOL    HW130782   2.617   4.855   2.288
 9961SOL    HW230783   2.508   4.781   2.192
 9962SOL     OW30784   2.987   6.288   2.038
 9962SOL    HW130785   2.987   6.201   2.087
 9962SOL    HW230786   2.932   6.279   1.955
 9963SOL     OW30787   1.521   1.718   6.344
 9963SOL    HW130788   1.620   1.724   6.329
 9963SOL    HW230789   1.474   1.708   6.256
 9964SOL     OW30790   4.664   4.071   5.345
 9964SOL    HW130791   4.721   4.079   5.263
 9964SOL    HW230792   4.695   4.136   5.414
 9965SOL     OW30793   2.893   5.548   4.449
 9965SOL    HW130794   2.874   5.470   4.509
 9965SOL    HW230795   2.821   5.555   4.380
 9966SOL     OW30796   3.587   4.952   2.223
 9966SOL    HW130797   3.614   4.890   2.149
 9966SOL    HW230798   3.532   4.902   2.290
 9967SOL     OW30799   6.605   6.941   3.378
 9967SOL    HW130800   6.559   6.862   3.337
 9967SOL    HW230801   6.702   6.936   3.359
 9968SOL     OW30802   3.926   6.543   1.239
 9968SOL    HW130803   3.887   6.473   1.299
 9968SOL    HW230804   3.857   6.612   1.218
 9969SOL     OW30805   1.479   5.102   3.688
 9969SOL    HW130806   1.396   5.155   3.667
 9969SOL    HW230807   1.482   5.082   3.785
 9970SOL     OW30808   6.353   3.966   1.289
 9970SOL    HW130809   6.259   3.941   1.265
 9970SOL    HW230810   6.375   4.056   1.253
 9971SOL     OW30811   1.057   4.298   2.291
 9971SOL    HW130812   1.063   4.351   2.206
 9971SOL    HW230813   0.983   4.231   2.284
 9972SOL     OW30814   3.299   4.015   0.224
 9972SOL    HW130815   3.315   4.002   0.322
 9972SOL    HW230816   3.356   3.952   0.172
 9973SOL     OW30817   3.555   1.643   3.348
 9973SOL    HW130818   3.592   1.583   3.278
 9973SOL    HW230819   3.616   1.642   3.428
 9974SOL     OW30820   0.439   2.452   3.489
 9974SOL    HW130821   0.501   2.431   3.565
 9974SOL    HW230822   0.448   2.549   3.465
 9975SOL     OW30823   1.168   5.045   6.801
 9975SOL    HW130824   1.116   5.018   6.720
 9975SOL    HW230825   1.225   4.969   6.832
 9976SOL     OW30826   2.757   4.494   6.456
 9976SOL    HW130827   2.763   4.395   6.472
 9976SOL    HW230828   2.773   4.512   6.359
 9977SOL     OW30829   5.228   6.036   5.189
 9977SOL    HW130830   5.249   5.989   5.103
 9977SOL    HW230831   5.312   6.077   5.226
 9978SOL     OW30832   0.624   2.589   6.311
 9978SOL    HW130833   0.629   2.491   6.294
 9978SOL    HW230834   0.612   2.605   6.409
 9979SOL     OW30835   4.832   3.199   5.323
 9979SOL    HW130836   4.736   3.225   5.339
 9979SOL    HW230837   4.878   3.273   5.274
 9980SOL     OW30838   0.784   0.495   0.140
 9980SOL    HW130839   0.727   0.513   0.060
 9980SOL    HW230840   0.826   0.405   0.132
 9981SOL     OW30841   0.262   2.600   1.373
 9981SOL    HW130842   0.272   2.533   1.446
 9981SOL    HW230843   0.264   2.692   1.412
 9982SOL     OW30844   2.308   1.799   4.770
 9982SOL    HW130845   2.356   1.711   4.763
 9982SOL    HW230846   2.211   1.786   4.750
 9983SOL     OW30847   0.056   3.005   2.050
 9983SOL    HW130848   0.062   3.027   1.952
 9983SOL    HW230849   0.075   3.087   2.103
 9984SOL     OW30850   0.021   5.882   1.368
 9984SOL    HW130851   0.062   5.971   1.349
 9984SOL    HW230852   0.011   5.830   1.283
 9985SOL     OW30853   4.111   5.422   0.825
 9985SOL    HW130854   4.113   5.492   0.896
 9985SOL    HW230855   4.118   5.465   0.735
 9986SOL     OW30856   4.772   4.421   7.006
 9986SOL    HW130857   4.787   4.517   6.982
 9986SOL    HW230858   4.854   4.368   6.985
 9987SOL     OW30859   5.570   3.183   1.434
 9987SOL    HW130860   5.606   3.200   1.526
 9987SOL    HW230861   5.585   3.087   1.411
 9988SOL     OW30862   5.134   6.177   4.603
 9988SOL    HW130863   5.075   6.256   4.620
 9988SOL    HW230864   5.212   6.205   4.548
 9989SOL     OW30865   6.544   5.309   2.521
 9989SOL    HW130866   6.552   5.372   2.598
 9989SOL    HW230867   6.635   5.283   2.490
 9990SOL     OW30868   0.162   6.794   3.250
 9990SOL    HW130869   0.259   6.815   3.237
 9990SOL    HW230870   0.146   6.766   3.345
 9991SOL     OW30871   1.623   3.948   4.510
 9991SOL    HW130872   1.663   4.038   4.526
 9991SOL    HW230873   1.668   3.881   4.569
 9992SOL     OW30874   3.250   4.401   1.230
 9992SOL    HW130875   3.224   4.463   1.156
 9992SOL    HW230876   3.231   4.443   1.318
 9993SOL     OW30877   3.917   6.998   4.057
 9993SOL    HW130878   3.848   6.955   3.999
 9993SOL    HW230879   3.903   6.971   4.152
 9994SOL     OW30880   0.125   4.353   4.205
 9994SOL    HW130881   0.195   4.413   4.243
 9994SOL    HW230882   0.100   4.284   4.273
 9995SOL     OW30883   2.913   0.523   4.888
 9995SOL    HW130884   2.932   0.475   4.974
 9995SOL    HW230885   2.994   0.521   4.830
 9996SOL     OW30886   2.058   4.159   1.356
 9996SOL    HW130887   1.984   4.096   1.336
 9996SOL    HW230888   2.118   4.168   1.276
 9997SOL     OW30889   6.070   2.001   4.535
 9997SOL    HW130890   5.976   1.982   4.564
 9997SOL    HW230891   6.134   1.944   4.587
 9998SOL     OW30892   4.924   3.801   2.719
 9998SOL    HW130893   4.880   3.719   2.755
 9998SOL    HW230894   4.948   3.786   2.623
 9999SOL     OW30895   6.854   6.748   4.175
 9999SOL    HW130896   6.935   6.693   4.192
 9999SOL    HW230897   6.827   6.740   4.079
10000SOL     OW30898   4.974   1.653   1.724
10000SOL    HW130899   4.971   1.628   1.627
10000SOL    HW230900   4.904   1.722   1.743
10001SOL     OW30901   3.111   6.043   2.506
10001SOL    HW130902   3.115   5.954   2.552
10001SOL    HW230903   3.041   6.099   2.548
10002SOL     OW30904   2.662   0.832   1.038
10002SOL    HW130905   2.648   0.924   1.073
10002SOL    HW230906   2.719   0.837   0.955
10003SOL     OW30907   2.195   1.654   3.245
10003SOL    HW130908   2.250   1.683   3.167
10003SOL    HW230909   2.134   1.729   3.273
10004SOL     OW30910   5.815   4.270   4.615
10004SOL    HW130911   5.821   4.237   4.521
10004SOL    HW230912   5.889   4.230   4.669
10005SOL     OW30913   2.800   5.848   3.594
10005SOL    HW130914   2.733   5.908   3.639
10005SOL    HW230915   2.752   5.785   3.533
10006SOL     OW30916   5.392   0.759   5.351
10006SOL    HW130917   5.489   0.747   5.375
10006SOL    HW230918   5.377   0.851   5.317
10007SOL     OW30919   1.069   4.298   4.473
10007SOL    HW130920   1.034   4.381   4.430
10007SOL    HW230921   1.168   4.304   4.483
10008SOL     OW30922   3.559   1.883   4.423
10008SOL    HW130923   3.601   1.799   4.388
10008SOL    HW230924   3.578   1.958   4.360
10009SOL     OW30925   1.649   4.276   1.837
10009SOL    HW130926   1.675   4.357   1.785
10009SOL    HW230927   1.565   4.294   1.888
10010SOL     OW30928   2.620   5.307   6.913
10010SOL    HW130929   2.644   5.218   6.952
10010SOL    HW230930   2.699   5.345   6.865
10011SOL     OW30931   0.374   3.845   0.094
10011SOL    HW130932   0.445   3.907   0.061
10011SOL    HW230933   0.376   3.842   0.194
10012SOL     OW30934   5.110   0.873   2.513
10012SOL    HW130935   5.073   0.782   2.495
10012SOL    HW230936   5.082   0.904   2.604
10013SOL     OW30937   1.147   5.427   4.767
10013SOL    HW130938   1.093   5.407   4.685
10013SOL    HW230939   1.109   5.508   4.813
10014SOL     OW30940   0.440   6.702   3.209
10014SOL    HW130941   0.365   6.656   3.161
10014SOL    HW230942   0.473   6.643   3.283
10015SOL     OW30943   3.418   5.302   6.550
10015SOL    HW130944   3.434   5.309   6.451
10015SOL    HW230945   3.439   5.208   6.580
10016SOL     OW30946   2.142   0.507   4.247
10016SOL    HW130947   2.143   0.531   4.344
10016SOL    HW230948   2.147   0.590   4.192
10017SOL     OW30949   2.953   1.910   3.535
10017SOL    HW130950   2.920   1.984   3.477
10017SOL    HW230951   3.050   1.894   3.516
10018SOL     OW30952   6.648   3.721   5.822
10018SOL    HW130953   6.678   3.718   5.726
10018SOL    HW230954   6.573   3.786   5.831
10019SOL     OW30955   0.424   1.475   2.915
10019SOL    HW130956   0.489   1.464   2.989
10019SOL    HW230957   0.363   1.553   2.935
10020SOL     OW30958   6.956   0.524   1.938
10020SOL    HW130959   6.958   0.586   2.016
10020SOL    HW230960   7.018   0.557   1.867
10021SOL     OW30961   1.286   3.538   1.302
10021SOL    HW130962   1.373   3.586   1.288
10021SOL    HW230963   1.269   3.528   1.400
10022SOL     OW30964   2.412   6.587   0.226
10022SOL    HW130965   2.492   6.643   0.206
10022SOL    HW230966   2.436   6.490   0.222
10023SOL     OW30967   2.535   6.661   6.015
10023SOL    HW130968   2.612   6.639   6.075
10023SOL    HW230969   2.514   6.581   5.958
10024SOL     OW30970   1.705   5.030   3.087
10024SOL    HW130971   1.789   5.006   3.136
10024SOL    HW230972   1.697   5.130   3.083
10025SOL     OW30973   1.709   3.704   2.077
10025SOL    HW130974   1.789   3.665   2.030
10025SOL    HW230975   1.740   3.754   2.158
10026SOL     OW30976   4.784   1.089   2.361
10026SOL    HW130977   4.842   1.170   2.366
10026SOL    HW230978   4.696   1.108   2.404
10027SOL     OW30979   1.257   2.604   5.333
10027SOL    HW130980   1.309   2.582   5.251
10027SOL    HW230981   1.183   2.538   5.345
10028SOL     OW30982   2.817   0.935   1.436
10028SOL    HW130983   2.916   0.948   1.440
10028SOL    HW230984   2.794   0.843   1.469
10029SOL     OW30985   6.942   2.789   4.223
10029SOL    HW130986   6.926   2.706   4.169
10029SOL    HW230987   0.011   2.817   4.213
10030SOL     OW30988   2.634   6.752   5.173
10030SOL    HW130989   2.602   6.846   5.181
10030SOL    HW230990   2.560   6.689   5.201
10031SOL     OW30991   3.728   5.267   4.640
10031SOL    HW130992   3.823   5.243   4.619
10031SOL    HW230993   3.693   5.206   4.710
10032SOL     OW30994   3.144   6.100   5.597
10032SOL    HW130995   3.217   6.037   5.624
10032SOL    HW230996   3.124   6.161   5.673
10033SOL     OW30997   4.908   1.525   3.949
10033SOL    HW130998   5.008   1.528   3.938
10033SOL    HW230999   4.883   1.439   3.994
10034SOL     OW31000   1.892   0.822   3.381
10034SOL    HW131001   1.869   0.867   3.467
10034SOL    HW231002   1.893   0.723   3.395
10035SOL     OW31003   6.159   3.708   0.214
10035SOL    HW131004   6.103   3.625   0.216
10035SOL    HW231005   6.228   3.703   0.287
10036SOL     OW31006   0.071   0.595   6.902
10036SOL    HW131007   0.070   0.683   6.855
10036SOL    HW231008   0.102   0.524   6.839
10037SOL     OW31009   6.414   0.109   6.068
10037SOL    HW131010   6.359   0.131   6.148
10037SOL    HW231011   6.458   0.020   6.082
10038SOL     OW31012   4.628   0.025   0.227
10038SOL    HW131013   4.574   6.977   0.187
10038SOL    HW231014   4.633   0.101   0.162
10039SOL     OW31015   4.760   5.279   4.688
10039SOL    HW131016   4.702   5.197   4.688
10039SOL    HW231017   4.850   5.257   4.724
10040SOL     OW31018   4.404   0.015   0.845
10040SOL    HW131019   4.384   6.947   0.874
10040SOL    HW231020   4.350   0.078   0.900
10041SOL     OW31021   0.191   4.770   5.708
10041SOL    HW131022   0.116   4.710   5.737
10041SOL    HW231023   0.227   4.819   5.787
10042SOL     OW31024   0.818   1.083   5.640
10042SOL    HW131025   0.789   0.989   5.658
10042SOL    HW231026   0.759   1.147   5.689
10043SOL     OW31027   0.772   0.856   2.785
10043SOL    HW131028   0.762   0.950   2.816
10043SOL    HW231029   0.861   0.844   2.741
10044SOL     OW31030   2.694   1.704   4.646
10044SOL    HW131031   2.656   1.790   4.681
10044SOL    HW231032   2.639   1.672   4.569
10045SOL     OW31033   4.863   0.013   4.559
10045SOL    HW131034   4.959   0.016   4.530
10045SOL    HW231035   4.842   0.095   4.613
10046SOL     OW31036   6.821   1.836   1.893
10046SOL    HW131037   6.762   1.850   1.813
10046SOL    HW231038   6.912   1.873   1.874
10047SOL     OW31039   6.064   2.568   5.390
10047SOL    HW131040   6.151   2.541   5.432
10047SOL    HW231041   5.990   2.561   5.456
10048SOL     OW31042   3.368   1.545   1.555
10048SOL    HW131043   3.294   1.495   1.601
10048SOL    HW231044   3.447   1.484   1.545
10049SOL     OW31045   1.383   0.583   7.002
10049SOL    HW131046   1.313   0.649   0.002
10049SOL    HW231047   1.469   0.606   0.023
10050SOL     OW31048   5.576   3.347   5.181
10050SOL    HW131049   5.485   3.337   5.221
10050SOL    HW231050   5.623   3.259   5.185
10051SOL     OW31051   6.551   3.035   4.722
10051SOL    HW131052   6.633   2.977   4.721
10051SOL    HW231053   6.470   2.979   4.704
10052SOL     OW31054   1.952   3.188   1.422
10052SOL    HW131055   2.022   3.202   1.492
10052SOL    HW231056   1.923   3.093   1.422
10053SOL     OW31057   3.789   4.806   3.014
10053SOL    HW131058   3.747   4.843   3.097
10053SOL    HW231059   3.853   4.733   3.039
10054SOL     OW31060   4.547   5.674   6.462
10054SOL    HW131061   4.478   5.687   6.533
10054SOL    HW231062   4.501   5.653   6.375
10055SOL     OW31063   6.307   2.526   4.630
10055SOL    HW131064   6.237   2.569   4.573
10055SOL    HW231065   6.271   2.441   4.668
10056SOL     OW31066   6.107   5.240   0.819
10056SOL    HW131067   6.135   5.237   0.915
10056SOL    HW231068   6.168   5.183   0.764
10057SOL     OW31069   3.875   1.726   4.167
10057SOL    HW131070   3.837   1.765   4.084
10057SOL    HW231071   3.801   1.700   4.230
10058SOL     OW31072   6.549   4.892   4.310
10058SOL    HW131073   6.546   4.890   4.210
10058SOL    HW231074   6.482   4.828   4.346
10059SOL     OW31075   5.618   6.590   0.394
10059SOL    HW131076   5.545   6.527   0.421
10059SOL    HW231077   5.693   6.584   0.459
10060SOL     OW31078   2.568   2.255   1.900
10060SOL    HW131079   2.612   2.215   1.980
10060SOL    HW231080   2.631   2.321   1.857
10061SOL     OW31081   5.580   1.157   3.839
10061SOL    HW131082   5.564   1.247   3.880
10061SOL    HW231083   5.529   1.151   3.753
10062SOL     OW31084   5.821   6.756   4.695
10062SOL    HW131085   5.786   6.808   4.617
10062SOL    HW231086   5.756   6.684   4.720
10063SOL     OW31087   1.568   1.984   3.247
10063SOL    HW131088   1.577   2.009   3.150
10063SOL    HW231089   1.653   1.942   3.279
10064SOL     OW31090   6.049   5.590   5.205
10064SOL    HW131091   5.960   5.558   5.172
10064SOL    HW231092   6.097   5.635   5.130
10065SOL     OW31093   1.485   0.586   1.689
10065SOL    HW131094   1.433   0.651   1.634
10065SOL    HW231095   1.478   0.610   1.786
10066SOL     OW31096   1.278   0.700   3.840
10066SOL    HW131097   1.252   0.726   3.747
10066SOL    HW231098   1.293   0.783   3.894
10067SOL     OW31099   5.986   4.633   4.309
10067SOL    HW131100   5.971   4.684   4.394
10067SOL    HW231101   6.035   4.548   4.331
10068SOL     OW31102   5.077   2.998   4.383
10068SOL    HW131103   5.134   2.977   4.304
10068SOL    HW231104   4.992   3.043   4.353
10069SOL     OW31105   2.020   6.709   4.054
10069SOL    HW131106   2.047   6.797   4.094
10069SOL    HW231107   2.037   6.711   3.956
10070SOL     OW31108   0.439   6.516   4.773
10070SOL    HW131109   0.401   6.608   4.784
10070SOL    HW231110   0.364   6.449   4.774
10071SOL     OW31111   4.585   4.938   4.448
10071SOL    HW131112   4.582   4.970   4.542
10071SOL    HW231113   4.658   4.871   4.438
10072SOL     OW31114   0.491   6.637   3.702
10072SOL    HW131115   0.458   6.671   3.614
10072SOL    HW231116   0.574   6.687   3.728
10073SOL     OW31117   6.084   4.532   4.697
10073SOL    HW131118   6.089   4.480   4.782
10073SOL    HW231119   6.062   4.628   4.717
10074SOL     OW31120   0.751   0.084   5.673
10074SOL    HW131121   0.803   0.061   5.755
10074SOL    HW231122   0.795   0.044   5.592
10075SOL     OW31123   1.391   2.303   2.975
10075SOL    HW131124   1.318   2.371   2.970
10075SOL    HW231125   1.360   2.216   2.938
10076SOL     OW31126   5.475   0.085   4.488
10076SOL    HW131127   5.571   0.080   4.513
10076SOL    HW231128   5.455   0.020   4.414
10077SOL     OW31129   3.774   2.415   6.659
10077SOL    HW131130   3.687   2.368   6.676
10077SOL    HW231131   3.784   2.432   6.561
10078SOL     OW31132   6.024   6.410   4.462
10078SOL    HW131133   5.985   6.491   4.419
10078SOL    HW231134   6.041   6.428   4.559
10079SOL     OW31135   1.866   3.088   2.220
10079SOL    HW131136   1.784   3.031   2.207
10079SOL    HW231137   1.938   3.057   2.159
10080SOL     OW31138   3.288   2.039   6.516
10080SOL    HW131139   3.282   2.115   6.452
10080SOL    HW231140   3.230   2.058   6.596
10081SOL     OW31141   0.365   7.024   6.346
10081SOL    HW131142   0.448   6.995   6.393
10081SOL    HW231143   0.299   6.948   6.346
10082SOL     OW31144   6.764   2.718   2.446
10082SOL    HW131145   6.717   2.648   2.500
10082SOL    HW231146   6.857   2.729   2.480
10083SOL     OW31147   4.982   1.291   3.372
10083SOL    HW131148   4.966   1.248   3.461
10083SOL    HW231149   4.983   1.221   3.301
10084SOL     OW31150   3.297   0.455   5.732
10084SOL    HW131151   3.267   0.503   5.649
10084SOL    HW231152   3.321   0.360   5.709
10085SOL     OW31153   0.645   4.899   3.031
10085SOL    HW131154   0.700   4.969   3.076
10085SOL    HW231155   0.697   4.860   2.955
10086SOL     OW31156   5.664   5.204   2.577
10086SOL    HW131157   5.700   5.237   2.490
10086SOL    HW231158   5.566   5.188   2.569
10087SOL     OW31159   1.060   0.983   3.826
10087SOL    HW131160   1.124   0.936   3.887
10087SOL    HW231161   1.002   1.043   3.881
10088SOL     OW31162   0.175   6.401   5.438
10088SOL    HW131163   0.157   6.304   5.422
10088SOL    HW231164   0.199   6.445   5.352
10089SOL     OW31165   2.394   1.634   3.418
10089SOL    HW131166   2.338   1.610   3.338
10089SOL    HW231167   2.398   1.734   3.428
10090SOL     OW31168   0.521   4.395   0.963
10090SOL    HW131169   0.546   4.320   1.025
10090SOL    HW231170   0.458   4.360   0.893
10091SOL     OW31171   1.079   3.271   4.821
10091SOL    HW131172   1.028   3.331   4.760
10091SOL    HW231173   1.044   3.280   4.914
10092SOL     OW31174   1.549   4.131   5.083
10092SOL    HW131175   1.538   4.041   5.125
10092SOL    HW231176   1.572   4.199   5.153
10093SOL     OW31177   0.836   5.166   4.787
10093SOL    HW131178   0.876   5.176   4.878
10093SOL    HW231179   0.816   5.069   4.770
10094SOL     OW31180   2.500   6.795   2.103
10094SOL    HW131181   2.508   6.853   2.022
10094SOL    HW231182   2.571   6.725   2.101
10095SOL     OW31183   6.397   1.439   5.097
10095SOL    HW131184   6.342   1.377   5.041
10095SOL    HW231185   6.474   1.473   5.043
10096SOL     OW31186   6.866   5.151   2.773
10096SOL    HW131187   6.787   5.212   2.778
10096SOL    HW231188   6.838   5.063   2.733
10097SOL     OW31189   0.822   1.287   0.080
10097SOL    HW131190   0.782   1.349   0.148
10097SOL    HW231191   0.864   1.341   0.007
10098SOL     OW31192   1.888   6.916   5.754
10098SOL    HW131193   1.878   7.014   5.734
10098SOL    HW231194   1.845   6.896   5.842
10099SOL     OW31195   0.122   3.973   6.335
10099SOL    HW131196   0.221   3.963   6.336
10099SOL    HW231197   0.098   4.070   6.347
10100SOL     OW31198   5.396   6.854   5.480
10100SOL    HW131199   5.404   6.803   5.565
10100SOL    HW231200   5.356   6.795   5.409
10101SOL     OW31201   5.934   4.608   1.753
10101SOL    HW131202   5.922   4.515   1.788
10101SOL    HW231203   6.014   4.610   1.692
10102SOL     OW31204   2.086   0.688   3.205
10102SOL    HW131205   2.005   0.745   3.215
10102SOL    HW231206   2.153   0.712   3.275
10103SOL     OW31207   3.227   1.156   4.665
10103SOL    HW131208   3.156   1.211   4.623
10103SOL    HW231209   3.214   1.060   4.640
10104SOL     OW31210   0.695   3.920   5.263
10104SOL    HW131211   0.742   3.903   5.350
10104SOL    HW231212   0.703   4.017   5.240
10105SOL     OW31213   1.192   1.226   6.300
10105SOL    HW131214   1.249   1.306   6.321
10105SOL    HW231215   1.145   1.241   6.213
10106SOL     OW31216   5.502   4.711   1.421
10106SOL    HW131217   5.422   4.716   1.480
10106SOL    HW231218   5.583   4.690   1.477
10107SOL     OW31219   6.800   1.719   6.287
10107SOL    HW131220   6.723   1.668   6.250
10107SOL    HW231221   6.779   1.750   6.380
10108SOL     OW31222   6.581   6.484   7.002
10108SOL    HW131223   6.619   6.481   0.069
10108SOL    HW231224   6.490   6.526   7.005
10109SOL     OW31225   3.843   6.400   2.711
10109SOL    HW131226   3.810   6.464   2.642
10109SOL    HW231227   3.930   6.360   2.680
10110SOL     OW31228   4.001   6.871   5.705
10110SOL    HW131229   3.982   6.891   5.801
10110SOL    HW231230   3.988   6.955   5.651
10111SOL     OW31231   6.706   3.403   3.208
10111SOL    HW131232   6.780   3.388   3.142
10111SOL    HW231233   6.651   3.320   3.216
10112SOL     OW31234   6.102   3.898   4.622
10112SOL    HW131235   6.151   3.872   4.539
10112SOL    HW231236   6.021   3.840   4.632
10113SOL     OW31237   4.053   1.144   6.946
10113SOL    HW131238   4.087   1.238   6.945
10113SOL    HW231239   3.971   1.139   7.003
10114SOL     OW31240   5.673   0.631   1.166
10114SOL    HW131241   5.674   0.723   1.204
10114SOL    HW231242   5.674   0.636   1.066
10115SOL     OW31243   2.810   1.816   3.314
10115SOL    HW131244   2.761   1.898   3.283
10115SOL    HW231245   2.887   1.843   3.372
10116SOL     OW31246   0.577   6.548   0.687
10116SOL    HW131247   0.568   6.451   0.710
10116SOL    HW231248   0.524   6.602   0.752
10117SOL     OW31249   6.357   0.278   4.680
10117SOL    HW131250   6.453   0.279   4.650
10117SOL    HW231251   6.332   0.187   4.711
10118SOL     OW31252   6.786   4.665   2.636
10118SOL    HW131253   6.797   4.628   2.728
10118SOL    HW231254   6.814   4.596   2.569
10119SOL     OW31255   1.694   6.795   4.420
10119SOL    HW131256   1.673   6.776   4.324
10119SOL    HW231257   1.675   6.714   4.475
10120SOL     OW31258   0.590   3.010   4.197
10120SOL    HW131259   0.681   3.025   4.235
10120SOL    HW231260   0.580   3.063   4.113
10121SOL     OW31261   6.811   5.172   5.368
10121SOL    HW131262   6.724   5.132   5.397
10121SOL    HW231263   6.854   5.113   5.300
10122SOL     OW31264   5.765   3.063   0.268
10122SOL    HW131265   5.688   3.107   0.316
10122SOL    HW231266   5.731   2.982   0.221
10123SOL     OW31267   6.585   6.105   0.485
10123SOL    HW131268   6.611   6.077   0.577
10123SOL    HW231269   6.616   6.036   0.419
10124SOL     OW31270   2.037   3.958   7.005
10124SOL    HW131271   1.971   3.901   0.029
10124SOL    HW231272   2.073   3.906   6.928
10125SOL     OW31273   2.214   0.582   2.649
10125SOL    HW131274   2.135   0.592   2.710
10125SOL    HW231275   2.185   0.596   2.554
10126SOL     OW31276   6.510   6.035   6.259
10126SOL    HW131277   6.458   6.024   6.344
10126SOL    HW231278   6.476   6.114   6.209
10127SOL     OW31279   2.472   5.538   5.947
10127SOL    HW131280   2.424   5.519   5.861
10127SOL    HW231281   2.482   5.453   5.999
10128SOL     OW31282   0.988   2.019   1.383
10128SOL    HW131283   0.919   2.084   1.351
10128SOL    HW231284   1.070   2.069   1.411
10129SOL     OW31285   4.777   2.963   3.896
10129SOL    HW131286   4.789   2.901   3.818
10129SOL    HW231287   4.729   2.916   3.969
10130SOL     OW31288   2.544   4.616   3.032
10130SOL    HW131289   2.491   4.648   2.953
10130SOL    HW231290   2.641   4.616   3.009
10131SOL     OW31291   0.892   1.684   3.081
10131SOL    HW131292   0.806   1.719   3.116
10131SOL    HW231293   0.882   1.659   2.985
10132SOL     OW31294   2.638   6.462   3.173
10132SOL    HW131295   2.725   6.458   3.223
10132SOL    HW231296   2.612   6.370   3.144
10133SOL     OW31297   4.296   6.590   2.310
10133SOL    HW131298   4.243   6.597   2.226
10133SOL    HW231299   4.318   6.682   2.343
10134SOL     OW31300   0.011   0.133   3.872
10134SOL    HW131301   7.026   0.127   3.971
10134SOL    HW231302   6.961   0.184   3.832
10135SOL     OW31303   5.207   3.360   3.214
10135SOL    HW131304   5.236   3.332   3.122
10135SOL    HW231305   5.166   3.451   3.209
10136SOL     OW31306   5.489   6.941   2.771
10136SOL    HW131307   5.461   7.006   2.841
10136SOL    HW231308   5.410   6.917   2.715
10137SOL     OW31309   6.809   5.367   3.951
10137SOL    HW131310   6.792   5.328   4.042
10137SOL    HW231311   6.907   5.372   3.934
10138SOL     OW31312   4.539   2.556   1.065
10138SOL    HW131313   4.609   2.568   1.136
10138SOL    HW231314   4.584   2.538   0.978
10139SOL     OW31315   4.147   3.448   3.047
10139SOL    HW131316   4.084   3.414   3.116
10139SOL    HW231317   4.125   3.407   2.958
10140SOL     OW31318   6.572   5.347   5.837
10140SOL    HW131319   6.473   5.363   5.844
10140SOL    HW231320   6.607   5.388   5.753
10141SOL     OW31321   3.522   1.817   4.700
10141SOL    HW131322   3.547   1.838   4.605
10141SOL    HW231323   3.597   1.842   4.761
10142SOL     OW31324   5.579   6.228   4.984
10142SOL    HW131325   5.549   6.299   5.047
10142SOL    HW231326   5.520   6.228   4.903
10143SOL     OW31327   4.977   0.264   1.425
10143SOL    HW131328   4.914   0.203   1.377
10143SOL    HW231329   4.953   0.359   1.405
10144SOL     OW31330   4.690   6.354   6.535
10144SOL    HW131331   4.649   6.445   6.529
10144SOL    HW231332   4.781   6.356   6.496
10145SOL     OW31333   3.990   5.910   6.126
10145SOL    HW131334   4.086   5.885   6.107
10145SOL    HW231335   3.986   6.003   6.162
10146SOL     OW31336   3.507   5.077   5.292
10146SOL    HW131337   3.428   5.031   5.253
10146SOL    HW231338   3.534   5.032   5.377
10147SOL     OW31339   5.369   4.791   4.305
10147SOL    HW131340   5.432   4.722   4.270
10147SOL    HW231341   5.370   4.789   4.405
10148SOL     OW31342   5.778   4.989   6.786
10148SOL    HW131343   5.726   5.040   6.855
10148SOL    HW231344   5.872   5.022   6.784
10149SOL     OW31345   5.242   1.750   0.846
10149SOL    HW131346   5.304   1.801   0.906
10149SOL    HW231347   5.219   1.662   0.889
10150SOL     OW31348   4.138   4.042   0.123
10150SOL    HW131349   4.180   4.030   0.213
10150SOL    HW231350   4.203   4.088   0.062
10151SOL     OW31351   0.605   6.965   6.475
10151SOL    HW131352   0.672   6.892   6.466
10151SOL    HW231353   0.612   7.006   6.566
10152SOL     OW31354   1.744   5.962   4.363
10152SOL    HW131355   1.705   5.880   4.404
10152SOL    HW231356   1.671   6.019   4.324
10153SOL     OW31357   4.700   5.715   4.468
10153SOL    HW131358   4.767   5.645   4.493
10153SOL    HW231359   4.738   5.806   4.486
10154SOL     OW31360   5.680   6.697   4.957
10154SOL    HW131361   5.726   6.781   4.989
10154SOL    HW231362   5.709   6.620   5.013
10155SOL     OW31363   4.138   1.657   5.787
10155SOL    HW131364   4.051   1.692   5.822
10155SOL    HW231365   4.134   1.557   5.783
10156SOL     OW31366   6.290   0.201   2.071
10156SOL    HW131367   6.316   0.164   2.160
10156SOL    HW231368   6.299   0.300   2.072
10157SOL     OW31369   5.791   2.391   6.137
10157SOL    HW131370   5.829   2.344   6.058
10157SOL    HW231371   5.836   2.480   6.149
10158SOL     OW31372   4.594   3.598   0.077
10158SOL    HW131373   4.634   3.507   0.085
10158SOL    HW231374   4.506   3.600   0.125
10159SOL     OW31375   2.813   3.561   6.021
10159SOL    HW131376   2.782   3.576   5.927
10159SOL    HW231377   2.739   3.519   6.074
10160SOL     OW31378   1.554   3.873   2.368
10160SOL    HW131379   1.647   3.874   2.329
10160SOL    HW231380   1.524   3.966   2.385
10161SOL     OW31381   3.647   4.381   0.087
10161SOL    HW131382   3.633   4.474   0.051
10161SOL    HW231383   3.558   4.336   0.097
10162SOL     OW31384   2.556   4.378   0.457
10162SOL    HW131385   2.570   4.338   0.367
10162SOL    HW231386   2.459   4.395   0.471
10163SOL     OW31387   5.351   4.934   6.711
10163SOL    HW131388   5.422   4.869   6.740
10163SOL    HW231389   5.277   4.883   6.666
10164SOL     OW31390   6.239   3.452   4.829
10164SOL    HW131391   6.309   3.381   4.822
10164SOL    HW231392   6.158   3.423   4.778
10165SOL     OW31393   0.982   2.491   3.646
10165SOL    HW131394   1.059   2.506   3.584
10165SOL    HW231395   0.999   2.409   3.701
10166SOL     OW31396   3.421   1.242   2.125
10166SOL    HW131397   3.450   1.152   2.090
10166SOL    HW231398   3.469   1.261   2.210
10167SOL     OW31399   4.454   2.103   6.262
10167SOL    HW131400   4.411   2.166   6.197
10167SOL    HW231401   4.465   2.149   6.350
10168SOL     OW31402   6.375   3.958   5.182
10168SOL    HW131403   6.318   4.015   5.123
10168SOL    HW231404   6.318   3.890   5.228
10169SOL     OW31405   6.277   4.235   3.020
10169SOL    HW131406   6.298   4.138   3.015
10169SOL    HW231407   6.317   4.282   2.940
10170SOL     OW31408   0.823   4.353   5.784
10170SOL    HW131409   0.741   4.406   5.759
10170SOL    HW231410   0.893   4.365   5.713
10171SOL     OW31411   6.434   3.924   5.875
10171SOL    HW131412   6.373   3.912   5.954
10171SOL    HW231413   6.383   3.908   5.791
10172SOL     OW31414   6.215   6.718   3.838
10172SOL    HW131415   6.148   6.649   3.811
10172SOL    HW231416   6.175   6.781   3.905
10173SOL     OW31417   1.295   3.010   0.896
10173SOL    HW131418   1.330   2.969   0.812
10173SOL    HW231419   1.197   2.991   0.904
10174SOL     OW31420   5.392   5.213   2.548
10174SOL    HW131421   5.361   5.261   2.466
10174SOL    HW231422   5.353   5.121   2.549
10175SOL     OW31423   6.782   2.288   3.539
10175SOL    HW131424   6.751   2.280   3.445
10175SOL    HW231425   6.859   2.226   3.555
10176SOL     OW31426   1.778   3.536   5.834
10176SOL    HW131427   1.838   3.543   5.913
10176SOL    HW231428   1.788   3.446   5.793
10177SOL     OW31429   2.049   1.075   0.489
10177SOL    HW131430   1.965   1.022   0.505
10177SOL    HW231431   2.126   1.013   0.476
10178SOL     OW31432   6.602   2.296   5.218
10178SOL    HW131433   6.511   2.262   5.196
10178SOL    HW231434   6.671   2.232   5.184
10179SOL     OW31435   1.207   1.736   5.863
10179SOL    HW131436   1.258   1.708   5.782
10179SOL    HW231437   1.119   1.775   5.836
10180SOL     OW31438   4.126   6.638   0.085
10180SOL    HW131439   4.148   6.541   0.093
10180SOL    HW231440   4.118   6.662   7.014
10181SOL     OW31441   4.941   3.376   2.244
10181SOL    HW131442   4.972   3.458   2.293
10181SOL    HW231443   4.929   3.301   2.310
10182SOL     OW31444   5.559   1.194   2.106
10182SOL    HW131445   5.515   1.203   2.017
10182SOL    HW231446   5.626   1.268   2.117
10183SOL     OW31447   0.673   1.987   6.569
10183SOL    HW131448   0.582   1.974   6.610
10183SOL    HW231449   0.701   2.082   6.580
10184SOL     OW31450   4.169   0.666   6.087
10184SOL    HW131451   4.103   0.732   6.124
10184SOL    HW231452   4.124   0.578   6.074
10185SOL     OW31453   5.613   5.832   1.840
10185SOL    HW131454   5.523   5.868   1.862
10185SOL    HW231455   5.681   5.871   1.901
10186SOL     OW31456   5.758   3.452   2.739
10186SOL    HW131457   5.765   3.479   2.835
10186SOL    HW231458   5.830   3.498   2.687
10187SOL     OW31459   0.661   2.846   1.468
10187SOL    HW131460   0.710   2.814   1.387
10187SOL    HW231461   0.711   2.921   1.510
10188SOL     OW31462   3.665   6.162   0.926
10188SOL    HW131463   3.591   6.224   0.898
10188SOL    HW231464   3.753   6.202   0.900
10189SOL     OW31465   1.594   0.760   5.213
10189SOL    HW131466   1.537   0.842   5.211
10189SOL    HW231467   1.663   0.768   5.285
10190SOL     OW31468   4.575   3.135   1.552
10190SOL    HW131469   4.554   3.231   1.531
10190SOL    HW231470   4.559   3.078   1.472
10191SOL     OW31471   4.874   4.291   6.559
10191SOL    HW131472   4.812   4.368   6.571
10191SOL    HW231473   4.821   4.207   6.547
10192SOL     OW31474   4.668   0.860   5.988
10192SOL    HW131475   4.662   0.956   5.959
10192SOL    HW231476   4.576   0.827   6.011
10193SOL     OW31477   4.153   3.585   1.863
10193SOL    HW131478   4.197   3.496   1.854
10193SOL    HW231479   4.145   3.609   1.960
10194SOL     OW31480   5.786   4.440   5.050
10194SOL    HW131481   5.717   4.368   5.062
10194SOL    HW231482   5.821   4.438   4.957
10195SOL     OW31483   6.031   5.018   0.949
10195SOL    HW131484   6.024   5.099   0.890
10195SOL    HW231485   5.942   4.973   0.954
10196SOL     OW31486   4.834   1.608   4.470
10196SOL    HW131487   4.913   1.577   4.524
10196SOL    HW231488   4.840   1.707   4.456
10197SOL     OW31489   6.823   1.852   4.682
10197SOL    HW131490   6.783   1.856   4.590
10197SOL    HW231491   6.800   1.936   4.731
10198SOL     OW31492   3.409   0.541   1.835
10198SOL    HW131493   3.458   0.566   1.919
10198SOL    HW231494   3.437   0.603   1.761
10199SOL     OW31495   2.547   2.979   5.864
10199SOL    HW131496   2.548   2.952   5.768
10199SOL    HW231497   2.578   3.074   5.873
10200SOL     OW31498   4.702   2.183   1.110
10200SOL    HW131499   4.764   2.107   1.095
10200SOL    HW231500   4.701   2.242   1.029
10201SOL     OW31501   0.763   4.689   0.796
10201SOL    HW131502   0.738   4.661   0.889
10201SOL    HW231503   0.682   4.727   0.750
10202SOL     OW31504   3.853   2.403   6.365
10202SOL    HW131505   3.784   2.475   6.364
10202SOL    HW231506   3.811   2.316   6.340
10203SOL     OW31507   5.710   2.889   3.896
10203SOL    HW131508   5.719   2.790   3.897
10203SOL    HW231509   5.615   2.914   3.914
10204SOL     OW31510   5.704   7.009   6.722
10204SOL    HW131511   5.798   7.001   6.688
10204SOL    HW231512   5.661   6.919   6.722
10205SOL     OW31513   0.920   1.062   0.715
10205SOL    HW131514   0.947   1.025   0.625
10205SOL    HW231515   0.940   1.159   0.718
10206SOL     OW31516   0.310   0.571   5.892
10206SOL    HW131517   0.265   0.610   5.972
10206SOL    HW231518   0.257   0.593   5.810
10207SOL     OW31519   1.016   2.000   6.349
10207SOL    HW131520   1.060   1.947   6.277
10207SOL    HW231521   0.937   1.950   6.385
10208SOL     OW31522   5.824   4.823   3.926
10208SOL    HW131523   5.857   4.901   3.979
10208SOL    HW231524   5.888   4.747   3.934
10209SOL     OW31525   6.518   0.024   6.398
10209SOL    HW131526   6.443   0.070   6.446
10209SOL    HW231527   6.490   6.957   6.374
10210SOL     OW31528   4.716   6.708   1.297
10210SOL    HW131529   4.636   6.684   1.352
10210SOL    HW231530   4.696   6.696   1.200
10211SOL     OW31531   4.052   6.756   4.390
10211SOL    HW131532   3.983   6.829   4.385
10211SOL    HW231533   4.007   6.667   4.391
10212SOL     OW31534   1.109   0.661   5.203
10212SOL    HW131535   1.182   0.662   5.271
10212SOL    HW231536   1.020   0.661   5.249
10213SOL     OW31537   4.166   2.940   1.460
10213SOL    HW131538   4.072   2.952   1.491
10213SOL    HW231539   4.190   3.014   1.397
10214SOL     OW31540   0.950   2.636   2.045
10214SOL    HW131541   0.862   2.599   2.075
10214SOL    HW231542   0.971   2.602   1.953
10215SOL     OW31543   3.991   3.087   3.164
10215SOL    HW131544   4.025   3.180   3.175
10215SOL    HW231545   3.923   3.068   3.235
10216SOL     OW31546   0.139   1.247   1.276
10216SOL    HW131547   0.154   1.299   1.360
10216SOL    HW231548   0.061   1.187   1.288
10217SOL     OW31549   2.639   1.218   3.259
10217SOL    HW131550   2.566   1.275   3.221
10217SOL    HW231551   2.724   1.236   3.211
10218SOL     OW31552   1.274   3.239   2.126
10218SOL    HW131553   1.195   3.277   2.175
10218SOL    HW231554   1.345   3.308   2.119
10219SOL     OW31555   0.364   1.909   2.875
10219SOL    HW131556   0.463   1.911   2.886
10219SOL    HW231557   0.324   1.991   2.916
10220SOL     OW31558   3.943   2.700   1.356
10220SOL    HW131559   4.021   2.719   1.414
10220SOL    HW231560   3.871   2.654   1.409
10221SOL     OW31561   0.553   5.368   3.325
10221SOL    HW131562   0.506   5.454   3.306
10221SOL    HW231563   0.600   5.374   3.413
10222SOL     OW31564   2.818   3.355   5.256
10222SOL    HW131565   2.838   3.372   5.352
10222SOL    HW231566   2.725   3.319   5.248
10223SOL     OW31567   0.558   4.684   1.372
10223SOL    HW131568   0.617   4.746   1.319
10223SOL    HW231569   0.502   4.738   1.435
10224SOL     OW31570   6.168   3.115   3.740
10224SOL    HW131571   6.106   3.084   3.667
10224SOL    HW231572   6.132   3.086   3.829
10225SOL     OW31573   1.984   4.419   5.886
10225SOL    HW131574   1.998   4.380   5.795
10225SOL    HW231575   1.890   4.452   5.894
10226SOL     OW31576   3.996   0.453   6.599
10226SOL    HW131577   3.968   0.524   6.664
10226SOL    HW231578   4.092   0.465   6.577
10227SOL     OW31579   4.783   4.197   0.385
10227SOL    HW131580   4.807   4.243   0.471
10227SOL    HW231581   4.759   4.265   0.316
10228SOL     OW31582   6.540   6.986   0.907
10228SOL    HW131583   6.624   0.010   0.886
10228SOL    HW231584   6.467   7.017   0.845
10229SOL     OW31585   0.749   3.376   5.050
10229SOL    HW131586   0.684   3.367   4.974
10229SOL    HW231587   0.801   3.461   5.040
10230SOL     OW31588   6.612   5.680   2.709
10230SOL    HW131589   6.523   5.639   2.729
10230SOL    HW231590   6.671   5.671   2.790
10231SOL     OW31591   1.386   6.081   4.803
10231SOL    HW131592   1.457   6.105   4.737
10231SOL    HW231593   1.324   6.159   4.814
10232SOL     OW31594   2.477   0.984   3.269
10232SOL    HW131595   2.430   0.970   3.182
10232SOL    HW231596   2.544   1.058   3.259
10233SOL     OW31597   3.690   3.998   5.396
10233SOL    HW131598   3.741   4.034   5.474
10233SOL    HW231599   3.711   3.900   5.384
10234SOL     OW31600   6.238   6.711   1.561
10234SOL    HW131601   6.281   6.698   1.651
10234SOL    HW231602   6.274   6.794   1.519
10235SOL     OW31603   1.557   1.747   2.334
10235SOL    HW131604   1.490   1.705   2.273
10235SOL    HW231605   1.646   1.751   2.290
10236SOL     OW31606   2.208   6.259   0.210
10236SOL    HW131607   2.223   6.355   0.234
10236SOL    HW231608   2.285   6.204   0.244
10237SOL     OW31609   0.246   3.578   0.092
10237SOL    HW131610   0.295   3.665   0.086
10237SOL    HW231611   0.147   3.594   0.092
10238SOL     OW31612   4.072   4.915   1.147
10238SOL    HW131613   3.980   4.883   1.172
10238SOL    HW231614   4.140   4.862   1.198
10239SOL     OW31615   1.070   2.886   4.939
10239SOL    HW131616   1.102   2.820   4.872
10239SOL    HW231617   0.975   2.865   4.965
10240SOL     OW31618   2.835   6.547   1.689
10240SOL    HW131619   2.875   6.600   1.613
10240SOL    HW231620   2.885   6.568   1.773
10241SOL     OW31621   5.107   2.127   1.861
10241SOL    HW131622   5.017   2.089   1.837
10241SOL    HW231623   5.164   2.055   1.900
10242SOL     OW31624   0.278   1.963   0.629
10242SOL    HW131625   0.280   1.941   0.726
10242SOL    HW231626   0.339   1.902   0.579
10243SOL     OW31627   2.557   4.678   1.401
10243SOL    HW131628   2.580   4.736   1.479
10243SOL    HW231629   2.481   4.617   1.426
10244SOL     OW31630   2.212   4.097   1.113
10244SOL    HW131631   2.184   4.006   1.084
10244SOL    HW231632   2.300   4.091   1.160
10245SOL     OW31633   3.591   4.017   1.390
10245SOL    HW131634   3.607   3.925   1.354
10245SOL    HW231635   3.493   4.034   1.396
10246SOL     OW31636   3.485   3.323   4.288
10246SOL    HW131637   3.534   3.351   4.206
10246SOL    HW231638   3.388   3.344   4.277
10247SOL     OW31639   0.893   4.147   5.570
10247SOL    HW131640   0.890   4.076   5.499
10247SOL    HW231641   0.845   4.229   5.538
10248SOL     OW31642   1.317   0.045   3.427
10248SOL    HW131643   1.237   0.027   3.483
10248SOL    HW231644   1.389   7.004   3.449
10249SOL     OW31645   1.931   4.595   0.157
10249SOL    HW131646   1.861   4.664   0.177
10249SOL    HW231647   1.940   4.534   0.235
10250SOL     OW31648   6.536   3.595   0.260
10250SOL    HW131649   6.451   3.607   0.311
10250SOL    HW231650   6.568   3.501   0.273
10251SOL     OW31651   2.065   0.992   4.234
10251SOL    HW131652   2.136   1.062   4.228
10251SOL    HW231653   1.999   1.005   4.160
10252SOL     OW31654   4.481   3.510   5.584
10252SOL    HW131655   4.482   3.481   5.488
10252SOL    HW231656   4.484   3.430   5.643
10253SOL     OW31657   3.883   6.338   0.862
10253SOL    HW131658   3.943   6.343   0.942
10253SOL    HW231659   3.936   6.307   0.782
10254SOL     OW31660   4.855   1.202   5.463
10254SOL    HW131661   4.874   1.286   5.411
10254SOL    HW231662   4.808   1.137   5.404
10255SOL     OW31663   2.223   6.836   1.063
10255SOL    HW131664   2.154   6.881   1.120
10255SOL    HW231665   2.192   6.744   1.040
10256SOL     OW31666   5.122   0.790   2.116
10256SOL    HW131667   5.217   0.822   2.118
10256SOL    HW231668   5.060   0.868   2.103
10257SOL     OW31669   2.614   4.728   4.080
10257SOL    HW131670   2.577   4.819   4.060
10257SOL    HW231671   2.578   4.662   4.014
10258SOL     OW31672   3.585   1.880   3.269
10258SOL    HW131673   3.589   1.786   3.303
10258SOL    HW231674   3.617   1.883   3.175
10259SOL     OW31675   0.837   3.944   3.773
10259SOL    HW131676   0.901   4.021   3.778
10259SOL    HW231677   0.751   3.975   3.731
10260SOL     OW31678   1.220   1.411   3.511
10260SOL    HW131679   1.245   1.336   3.572
10260SOL    HW231680   1.135   1.389   3.464
10261SOL     OW31681   0.451   4.377   0.277
10261SOL    HW131682   0.394   4.408   0.201
10261SOL    HW231683   0.530   4.437   0.286
10262SOL     OW31684   3.408   0.017   6.391
10262SOL    HW131685   3.475   0.090   6.376
10262SOL    HW231686   3.444   6.957   6.357
10263SOL     OW31687   5.575   0.612   0.223
10263SOL    HW131688   5.483   0.646   0.241
10263SOL    HW231689   5.580   0.514   0.242
10264SOL     OW31690   5.765   5.104   6.504
10264SOL    HW131691   5.744   5.055   6.419
10264SOL    HW231692   5.716   5.060   6.580
10265SOL     OW31693   2.697   2.518   0.371
10265SOL    HW131694   2.751   2.543   0.290
10265SOL    HW231695   2.601   2.537   0.354
10266SOL     OW31696   3.227   2.936   2.880
10266SOL    HW131697   3.185   2.947   2.970
10266SOL    HW231698   3.326   2.920   2.890
10267SOL     OW31699   5.354   1.200   0.920
10267SOL    HW131700   5.453   1.205   0.910
10267SOL    HW231701   5.326   1.104   0.921
10268SOL     OW31702   5.502   6.480   1.996
10268SOL    HW131703   5.421   6.537   1.980
10268SOL    HW231704   5.580   6.519   1.946
10269SOL     OW31705   1.268   2.886   6.740
10269SOL    HW131706   1.213   2.939   6.804
10269SOL    HW231707   1.349   2.852   6.787
10270SOL     OW31708   3.317   5.993   2.318
10270SOL    HW131709   3.299   6.035   2.229
10270SOL    HW231710   3.237   6.004   2.377
10271SOL     OW31711   3.151   3.016   0.078
10271SOL    HW131712   3.122   2.941   0.137
10271SOL    HW231713   3.199   3.084   0.133
10272SOL     OW31714   0.548   1.129   3.814
10272SOL    HW131715   0.540   1.137   3.914
10272SOL    HW231716   0.464   1.163   3.772
10273SOL     OW31717   3.020   4.971   4.586
10273SOL    HW131718   3.000   4.894   4.524
10273SOL    HW231719   3.023   4.937   4.680
10274SOL     OW31720   0.723   4.988   5.992
10274SOL    HW131721   0.698   5.044   5.914
10274SOL    HW231722   0.786   4.916   5.964
10275SOL     OW31723   0.114   0.423   2.412
10275SOL    HW131724   0.056   0.343   2.397
10275SOL    HW231725   0.209   0.393   2.427
10276SOL     OW31726   4.520   5.801   5.757
10276SOL    HW131727   4.445   5.746   5.721
10276SOL    HW231728   4.587   5.741   5.802
10277SOL     OW31729   0.831   6.924   4.104
10277SOL    HW131730   0.751   6.967   4.061
10277SOL    HW231731   0.889   6.884   4.034
10278SOL     OW31732   0.284   0.949   4.417
10278SOL    HW131733   0.314   1.004   4.495
10278SOL    HW231734   0.228   0.873   4.449
10279SOL     OW31735   2.710   5.625   3.901
10279SOL    HW131736   2.765   5.589   3.826
10279SOL    HW231737   2.625   5.664   3.865
10280SOL     OW31738   5.636   3.400   6.715
10280SOL    HW131739   5.565   3.447   6.662
10280SOL    HW231740   5.594   3.359   6.796
10281SOL     OW31741   7.005   2.623   2.940
10281SOL    HW131742   6.955   2.663   3.017
10281SOL    HW231743   0.045   2.556   2.974
10282SOL     OW31744   5.320   2.947   3.375
10282SOL    HW131745   5.272   3.007   3.439
10282SOL    HW231746   5.417   2.946   3.398
10283SOL     OW31747   1.006   2.941   0.556
10283SOL    HW131748   0.922   2.974   0.599
10283SOL    HW231749   1.085   2.984   0.600
10284SOL     OW31750   6.322   2.101   4.158
10284SOL    HW131751   6.232   2.079   4.120
10284SOL    HW231752   6.372   2.016   4.176
10285SOL     OW31753   4.038   6.732   3.387
10285SOL    HW131754   4.031   6.735   3.487
10285SOL    HW231755   4.065   6.641   3.358
10286SOL     OW31756   3.577   0.440   4.214
10286SOL    HW131757   3.549   0.345   4.224
10286SOL    HW231758   3.586   0.482   4.304
10287SOL     OW31759   1.668   5.921   1.833
10287SOL    HW131760   1.768   5.912   1.837
10287SOL    HW231761   1.644   5.997   1.773
10288SOL     OW31762   3.832   6.907   4.334
10288SOL    HW131763   3.816   6.970   4.409
10288SOL    HW231764   3.752   6.847   4.322
10289SOL     OW31765   3.327   6.271   1.088
10289SOL    HW131766   3.245   6.320   1.116
10289SOL    HW231767   3.321   6.248   0.991
10290SOL     OW31768   2.941   3.207   2.444
10290SOL    HW131769   2.884   3.168   2.371
10290SOL    HW231770   3.025   3.153   2.453
10291SOL     OW31771   3.886   1.519   3.245
10291SOL    HW131772   3.882   1.465   3.329
10291SOL    HW231773   3.939   1.471   3.176
10292SOL     OW31774   0.642   1.462   6.108
10292SOL    HW131775   0.566   1.444   6.046
10292SOL    HW231776   0.665   1.559   6.106
10293SOL     OW31777   0.719   3.043   3.483
10293SOL    HW131778   0.800   3.020   3.535
10293SOL    HW231779   0.650   3.082   3.544
10294SOL     OW31780   4.037   1.845   2.986
10294SOL    HW131781   4.037   1.782   2.909
10294SOL    HW231782   4.115   1.825   3.045
10295SOL     OW31783   1.214   2.528   5.879
10295SOL    HW131784   1.270   2.464   5.932
10295SOL    HW231785   1.272   2.578   5.815
10296SOL     OW31786   5.879   1.028   5.847
10296SOL    HW131787   5.867   1.109   5.904
10296SOL    HW231788   5.886   0.947   5.906
10297SOL     OW31789   2.219   1.183   6.608
10297SOL    HW131790   2.175   1.271   6.627
10297SOL    HW231791   2.294   1.198   6.543
10298SOL     OW31792   1.261   4.563   1.916
10298SOL    HW131793   1.259   4.565   1.816
10298SOL    HW231794   1.172   4.534   1.951
10299SOL     OW31795   4.034   6.650   2.581
10299SOL    HW131796   4.058   6.565   2.534
10299SOL    HW231797   3.954   6.691   2.537
10300SOL     OW31798   1.306   4.091   2.053
10300SOL    HW131799   1.209   4.107   2.035
10300SOL    HW231800   1.322   3.993   2.063
10301SOL     OW31801   4.568   1.664   5.322
10301SOL    HW131802   4.563   1.575   5.277
10301SOL    HW231803   4.633   1.660   5.398
10302SOL     OW31804   2.571   6.183   3.890
10302SOL    HW131805   2.602   6.115   3.824
10302SOL    HW231806   2.620   6.171   3.976
10303SOL     OW31807   1.126   5.687   3.822
10303SOL    HW131808   1.095   5.743   3.898
10303SOL    HW231809   1.138   5.592   3.853
10304SOL     OW31810   6.370   0.499   0.996
10304SOL    HW131811   6.319   0.424   0.954
10304SOL    HW231812   6.458   0.510   0.950
10305SOL     OW31813   2.611   4.148   5.957
10305SOL    HW131814   2.512   4.161   5.960
10305SOL    HW231815   2.647   4.186   5.871
10306SOL     OW31816   5.609   5.893   0.352
10306SOL    HW131817   5.570   5.968   0.298
10306SOL    HW231818   5.615   5.921   0.448
10307SOL     OW31819   3.194   1.696   4.616
10307SOL    HW131820   3.255   1.699   4.696
10307SOL    HW231821   3.222   1.765   4.550
10308SOL     OW31822   2.343   4.402   2.199
10308SOL    HW131823   2.435   4.438   2.184
10308SOL    HW231824   2.330   4.319   2.144
10309SOL     OW31825   6.559   1.522   6.262
10309SOL    HW131826   6.527   1.431   6.237
10309SOL    HW231827   6.481   1.578   6.291
10310SOL     OW31828   3.230   3.619   0.114
10310SOL    HW131829   3.280   3.703   0.132
10310SOL    HW231830   3.274   3.543   0.163
10311SOL     OW31831   6.763   5.712   0.149
10311SOL    HW131832   6.710   5.670   0.223
10311SOL    HW231833   6.719   5.694   0.061
10312SOL     OW31834   4.234   6.812   2.726
10312SOL    HW131835   4.226   6.911   2.731
10312SOL    HW231836   4.169   6.775   2.660
10313SOL     OW31837   3.658   5.935   2.277
10313SOL    HW131838   3.722   5.868   2.314
10313SOL    HW231839   3.611   5.982   2.352
10314SOL     OW31840   6.935   0.424   0.357
10314SOL    HW131841   6.876   0.505   0.366
10314SOL    HW231842   7.002   0.423   0.431
10315SOL     OW31843   5.314   6.235   4.062
10315SOL    HW131844   5.412   6.255   4.072
10315SOL    HW231845   5.283   6.179   4.139
10316SOL     OW31846   6.675   2.656   6.023
10316SOL    HW131847   6.674   2.703   6.111
10316SOL    HW231848   6.758   2.681   5.972
10317SOL     OW31849   4.217   6.319   6.251
10317SOL    HW131850   4.152   6.356   6.185
10317SOL    HW231851   4.269   6.245   6.208
10318SOL     OW31852   4.856   1.237   6.257
10318SOL    HW131853   4.852   1.141   6.231
10318SOL    HW231854   4.766   1.279   6.247
10319SOL     OW31855   1.067   4.478   5.223
10319SOL    HW131856   1.060   4.577   5.238
10319SOL    HW231857   1.133   4.439   5.287
10320SOL     OW31858   0.491   6.143   2.996
10320SOL    HW131859   0.519   6.079   2.925
10320SOL    HW231860   0.394   6.130   3.017
10321SOL     OW31861   5.497   1.704   2.011
10321SOL    HW131862   5.424   1.772   2.022
10321SOL    HW231863   5.573   1.727   2.072
10322SOL     OW31864   4.188   5.043   4.892
10322SOL    HW131865   4.180   5.117   4.825
10322SOL    HW231866   4.260   5.065   4.957
10323SOL     OW31867   6.397   4.759   5.432
10323SOL    HW131868   6.338   4.689   5.473
10323SOL    HW231869   6.359   4.849   5.451
10324SOL     OW31870   3.549   3.440   2.928
10324SOL    HW131871   3.603   3.525   2.922
10324SOL    HW231872   3.605   3.363   2.896
10325SOL     OW31873   0.250   4.955   2.516
10325SOL    HW131874   0.244   5.054   2.529
10325SOL    HW231875   0.330   4.920   2.565
10326SOL     OW31876   5.982   3.762   6.197
10326SOL    HW131877   5.957   3.856   6.220
10326SOL    HW231878   6.065   3.762   6.142
10327SOL     OW31879   2.378   2.977   1.697
10327SOL    HW131880   2.333   3.042   1.758
10327SOL    HW231881   2.309   2.920   1.653
10328SOL     OW31882   6.040   2.400   1.239
10328SOL    HW131883   6.011   2.483   1.191
10328SOL    HW231884   5.971   2.376   1.307
10329SOL     OW31885   2.551   1.452   2.754
10329SOL    HW131886   2.467   1.400   2.740
10329SOL    HW231887   2.582   1.489   2.667
10330SOL     OW31888   4.083   0.504   1.781
10330SOL    HW131889   4.091   0.459   1.691
10330SOL    HW231890   4.174   0.520   1.819
10331SOL     OW31891   6.479   6.419   6.417
10331SOL    HW131892   6.528   6.500   6.449
10331SOL    HW231893   6.482   6.348   6.488
10332SOL     OW31894   6.770   0.266   6.549
10332SOL    HW131895   6.791   0.168   6.560
10332SOL    HW231896   6.732   0.282   6.458
10333SOL     OW31897   0.702   5.553   4.943
10333SOL    HW131898   0.748   5.638   4.968
10333SOL    HW231899   0.606   5.571   4.922
10334SOL     OW31900   3.272   0.429   4.435
10334SOL    HW131901   3.180   0.467   4.426
10334SOL    HW231902   3.266   0.332   4.460
10335SOL     OW31903   1.355   4.031   6.722
10335SOL    HW131904   1.388   3.937   6.717
10335SOL    HW231905   1.281   4.044   6.655
10336SOL     OW31906   6.613   0.210   2.101
10336SOL    HW131907   6.560   0.149   2.160
10336SOL    HW231908   6.658   0.280   2.157
10337SOL     OW31909   0.518   5.976   6.805
10337SOL    HW131910   0.477   5.906   6.747
10337SOL    HW231911   0.598   5.939   6.852
10338SOL     OW31912   1.770   6.188   2.350
10338SOL    HW131913   1.728   6.226   2.433
10338SOL    HW231914   1.720   6.220   2.270
10339SOL     OW31915   6.117   3.487   5.947
10339SOL    HW131916   6.020   3.507   5.960
10339SOL    HW231917   6.156   3.453   6.033
10340SOL     OW31918   1.658   3.296   0.098
10340SOL    HW131919   1.601   3.232   0.046
10340SOL    HW231920   1.715   3.348   0.035
10341SOL     OW31921   2.105   3.566   2.295
10341SOL    HW131922   2.125   3.479   2.341
10341SOL    HW231923   2.134   3.560   2.199
10342SOL     OW31924   1.766   0.503   3.906
10342SOL    HW131925   1.814   0.497   3.818
10342SOL    HW231926   1.809   0.440   3.971
10343SOL     OW31927   2.950   5.261   0.099
10343SOL    HW131928   2.886   5.194   0.136
10343SOL    HW231929   3.032   5.264   0.156
10344SOL     OW31930   3.911   3.941   0.026
10344SOL    HW131931   3.858   4.021   7.023
10344SOL    HW231932   3.972   3.966   0.101
10345SOL     OW31933   1.775   2.655   5.672
10345SOL    HW131934   1.755   2.698   5.760
10345SOL    HW231935   1.692   2.611   5.637
10346SOL     OW31936   0.096   5.540   1.174
10346SOL    HW131937   0.192   5.523   1.195
10346SOL    HW231938   0.082   5.537   1.075
10347SOL     OW31939   5.060   1.184   3.093
10347SOL    HW131940   5.026   1.104   3.142
10347SOL    HW231941   4.989   1.218   3.031
10348SOL     OW31942   6.487   2.641   0.267
10348SOL    HW131943   6.445   2.672   0.181
10348SOL    HW231944   6.502   2.719   0.327
10349SOL     OW31945   0.906   0.613   6.755
10349SOL    HW131946   0.926   0.525   6.797
10349SOL    HW231947   0.981   0.677   6.772
10350SOL     OW31948   2.612   5.261   5.090
10350SOL    HW131949   2.642   5.199   5.017
10350SOL    HW231950   2.540   5.321   5.055
10351SOL     OW31951   4.636   5.214   0.093
10351SOL    HW131952   4.714   5.174   0.045
10351SOL    HW231953   4.554   5.161   0.073
10352SOL     OW31954   3.188   0.611   6.329
10352SOL    HW131955   3.168   0.620   6.231
10352SOL    HW231956   3.238   0.526   6.345
10353SOL     OW31957   6.781   2.864   4.611
10353SOL    HW131958   6.850   2.843   4.679
10353SOL    HW231959   6.771   2.787   4.547
10354SOL     OW31960   5.725   1.547   1.638
10354SOL    HW131961   5.666   1.553   1.719
10354SOL    HW231962   5.734   1.638   1.597
10355SOL     OW31963   2.821   6.291   1.795
10355SOL    HW131964   2.737   6.252   1.832
10355SOL    HW231965   2.799   6.371   1.740
10356SOL     OW31966   0.095   4.259   6.327
10356SOL    HW131967   0.083   4.314   6.245
10356SOL    HW231968   0.151   4.310   6.393
10357SOL     OW31969   1.890   2.983   6.433
10357SOL    HW131970   1.849   2.989   6.342
10357SOL    HW231971   1.966   2.917   6.431
10358SOL     OW31972   0.306   2.346   2.810
10358SOL    HW131973   0.367   2.323   2.734
10358SOL    HW231974   0.268   2.437   2.797
10359SOL     OW31975   0.530   1.503   0.911
10359SOL    HW131976   0.566   1.555   0.989
10359SOL    HW231977   0.452   1.448   0.941
10360SOL     OW31978   4.644   5.190   3.306
10360SOL    HW131979   4.602   5.116   3.254
10360SOL    HW231980   4.640   5.275   3.253
10361SOL     OW31981   2.605   6.621   2.452
10361SOL    HW131982   2.639   6.637   2.359
10361SOL    HW231983   2.578   6.708   2.493
10362SOL     OW31984   1.848   4.546   4.586
10362SOL    HW131985   1.762   4.531   4.536
10362SOL    HW231986   1.902   4.615   4.538
10363SOL     OW31987   4.782   0.772   3.127
10363SOL    HW131988   4.790   0.843   3.056
10363SOL    HW231989   4.688   0.739   3.131
10364SOL     OW31990   3.099   3.564   1.604
10364SOL    HW131991   3.174   3.629   1.593
10364SOL    HW231992   3.031   3.600   1.667
10365SOL     OW31993   3.675   5.881   0.454
10365SOL    HW131994   3.619   5.931   0.520
10365SOL    HW231995   3.656   5.916   0.362
10366SOL     OW31996   2.445   0.048   4.303
10366SOL    HW131997   2.421   0.085   4.214
10366SOL    HW231998   2.447   0.122   4.370
10367SOL     OW31999   5.548   1.867   2.467
10367SOL    HW132000   5.541   1.966   2.465
10367SOL    HW232001   5.644   1.840   2.459
10368SOL     OW32002   2.596   0.679   1.284
10368SOL    HW132003   2.549   0.697   1.370
10368SOL    HW232004   2.586   0.759   1.224
10369SOL     OW32005   4.080   0.671   0.023
10369SOL    HW132006   4.160   0.713   7.006
10369SOL    HW232007   4.107   0.627   0.108
10370SOL     OW32008   4.514   0.919   4.936
10370SOL    HW132009   4.461   0.899   5.019
10370SOL    HW232010   4.608   0.886   4.948
10371SOL     OW32011   3.132   5.500   5.811
10371SOL    HW132012   3.126   5.479   5.909
10371SOL    HW232013   3.096   5.592   5.795
10372SOL     OW32014   2.412   0.963   5.394
10372SOL    HW132015   2.419   0.879   5.448
10372SOL    HW232016   2.502   0.989   5.360
10373SOL     OW32017   1.630   6.564   4.558
10373SOL    HW132018   1.530   6.556   4.550
10373SOL    HW232019   1.657   6.555   4.653
10374SOL     OW32020   2.859   1.317   3.633
10374SOL    HW132021   2.790   1.385   3.608
10374SOL    HW232022   2.940   1.364   3.668
10375SOL     OW32023   5.182   2.347   0.277
10375SOL    HW132024   5.279   2.372   0.282
10375SOL    HW232025   5.173   2.248   0.284
10376SOL     OW32026   0.908   0.761   3.867
10376SOL    HW132027   0.845   0.722   3.799
10376SOL    HW232028   0.953   0.841   3.829
10377SOL     OW32029   0.237   0.533   3.676
10377SOL    HW132030   0.238   0.632   3.689
10377SOL    HW232031   0.155   0.495   3.718
10378SOL     OW32032   0.118   1.031   6.082
10378SOL    HW132033   0.119   1.074   6.172
10378SOL    HW232034   0.033   0.979   6.071
10379SOL     OW32035   5.170   0.410   5.229
10379SOL    HW132036   5.258   0.390   5.185
10379SOL    HW232037   5.186   0.443   5.322
10380SOL     OW32038   5.753   0.726   2.769
10380SOL    HW132039   5.664   0.712   2.725
10380SOL    HW232040   5.823   0.738   2.699
10381SOL     OW32041   4.755   5.400   6.047
10381SOL    HW132042   4.785   5.344   5.970
10381SOL    HW232043   4.746   5.495   6.017
10382SOL     OW32044   2.562   5.299   6.030
10382SOL    HW132045   2.657   5.316   6.055
10382SOL    HW232046   2.512   5.267   6.110
10383SOL     OW32047   1.421   3.462   0.542
10383SOL    HW132048   1.458   3.374   0.573
10383SOL    HW232049   1.331   3.447   0.501
10384SOL     OW32050   6.788   0.056   0.815
10384SOL    HW132051   6.806   0.048   0.912
10384SOL    HW232052   6.869   0.029   0.763
10385SOL     OW32053   5.849   0.132   6.279
10385SOL    HW132054   5.795   0.059   6.238
10385SOL    HW232055   5.894   0.098   6.362
10386SOL     OW32056   6.323   3.571   5.067
10386SOL    HW132057   6.343   3.495   5.129
10386SOL    HW232058   6.277   3.537   4.985
10387SOL     OW32059   2.702   2.278   3.196
10387SOL    HW132060   2.795   2.302   3.168
10387SOL    HW232061   2.674   2.194   3.149
10388SOL     OW32062   1.104   5.129   3.558
10388SOL    HW132063   1.139   5.127   3.464
10388SOL    HW232064   1.131   5.215   3.602
10389SOL     OW32065   0.632   4.644   3.136
10389SOL    HW132066   0.635   4.740   3.108
10389SOL    HW232067   0.725   4.608   3.142
10390SOL     OW32068   1.922   4.073   3.081
10390SOL    HW132069   1.870   4.052   3.163
10390SOL    HW232070   2.019   4.060   3.098
10391SOL     OW32071   1.397   6.065   6.427
10391SOL    HW132072   1.376   6.159   6.453
10391SOL    HW232073   1.423   6.061   6.331
10392SOL     OW32074   5.867   4.455   0.171
10392SOL    HW132075   5.873   4.356   0.180
10392SOL    HW232076   5.957   4.496   0.185
10393SOL     OW32077   1.058   1.454   3.981
10393SOL    HW132078   1.002   1.388   3.931
10393SOL    HW232079   1.005   1.493   4.056
10394SOL     OW32080   2.125   6.456   6.713
10394SOL    HW132081   2.125   6.494   6.621
10394SOL    HW232082   2.187   6.510   6.771
10395SOL     OW32083   0.195   0.898   3.949
10395SOL    HW132084   0.274   0.927   4.003
10395SOL    HW232085   0.146   0.978   3.915
10396SOL     OW32086   1.091   0.028   3.608
10396SOL    HW132087   1.125   7.020   3.696
10396SOL    HW232088   1.024   0.100   3.624
10397SOL     OW32089   4.261   0.805   3.005
10397SOL    HW132090   4.275   0.863   2.924
10397SOL    HW232091   4.217   0.858   3.077
10398SOL     OW32092   6.369   3.034   1.553
10398SOL    HW132093   6.301   3.090   1.507
10398SOL    HW232094   6.452   3.089   1.569
10399SOL     OW32095   4.535   2.077   5.480
10399SOL    HW132096   4.457   2.016   5.475
10399SOL    HW232097   4.513   2.163   5.435
10400SOL     OW32098   2.470   5.857   2.857
10400SOL    HW132099   2.374   5.872   2.833
10400SOL    HW232100   2.491   5.759   2.850
10401SOL     OW32101   6.973   5.831   2.409
10401SOL    HW132102   6.873   5.831   2.414
10401SOL    HW232103   7.004   5.914   2.363
10402SOL     OW32104   0.803   3.367   5.324
10402SOL    HW132105   0.740   3.372   5.246
10402SOL    HW232106   0.859   3.450   5.327
10403SOL     OW32107   5.198   1.505   2.170
10403SOL    HW132108   5.197   1.561   2.087
10403SOL    HW232109   5.114   1.521   2.221
10404SOL     OW32110   0.392   6.551   4.075
10404SOL    HW132111   0.332   6.608   4.020
10404SOL    HW232112   0.383   6.456   4.045
10405SOL     OW32113   1.909   6.139   5.536
10405SOL    HW132114   1.962   6.062   5.573
10405SOL    HW232115   1.870   6.192   5.612
10406SOL     OW32116   2.600   4.739   6.420
10406SOL    HW132117   2.521   4.679   6.428
10406SOL    HW232118   2.671   4.695   6.364
10407SOL     OW32119   1.225   1.832   6.210
10407SOL    HW132120   1.189   1.749   6.167
10407SOL    HW232121   1.306   1.862   6.160
10408SOL     OW32122   4.518   4.442   3.636
10408SOL    HW132123   4.476   4.531   3.620
10408SOL    HW232124   4.576   4.418   3.559
10409SOL     OW32125   0.453   4.044   1.786
10409SOL    HW132126   0.434   4.063   1.882
10409SOL    HW232127   0.543   4.080   1.762
10410SOL     OW32128   4.592   0.876   1.108
10410SOL    HW132129   4.575   0.963   1.154
10410SOL    HW232130   4.614   0.806   1.176
10411SOL     OW32131   2.482   4.898   3.238
10411SOL    HW132132   2.566   4.942   3.205
10411SOL    HW232133   2.440   4.848   3.162
10412SOL     OW32134   1.416   2.376   0.197
10412SOL    HW132135   1.510   2.400   0.172
10412SOL    HW232136   1.380   2.311   0.130
10413SOL     OW32137   0.403   2.156   6.850
10413SOL    HW132138   0.329   2.163   6.782
10413SOL    HW232139   0.403   2.064   6.889
10414SOL     OW32140   5.393   6.522   6.678
10414SOL    HW132141   5.406   6.546   6.774
10414SOL    HW232142   5.415   6.426   6.664
10415SOL     OW32143   0.538   6.117   3.421
10415SOL    HW132144   0.633   6.136   3.399
10415SOL    HW232145   0.523   6.127   3.519
10416SOL     OW32146   5.974   2.287   4.883
10416SOL    HW132147   5.917   2.325   4.955
10416SOL    HW232148   5.917   2.236   4.819
10417SOL     OW32149   4.214   4.965   3.043
10417SOL    HW132150   4.148   4.986   3.115
10417SOL    HW232151   4.284   4.904   3.079
10418SOL     OW32152   6.662   4.166   6.173
10418SOL    HW132153   6.587   4.169   6.107
10418SOL    HW232154   6.625   4.179   6.266
10419SOL     OW32155   2.755   0.922   5.631
10419SOL    HW132156   2.739   0.968   5.718
10419SOL    HW232157   2.716   0.977   5.556
10420SOL     OW32158   6.650   3.134   3.288
10420SOL    HW132159   6.578   3.076   3.250
10420SOL    HW232160   6.645   3.131   3.388
10421SOL     OW32161   1.196   4.572   3.814
10421SOL    HW132162   1.261   4.591   3.888
10421SOL    HW232163   1.194   4.474   3.795
10422SOL     OW32164   6.868   3.617   4.502
10422SOL    HW132165   6.830   3.562   4.576
10422SOL    HW232166   6.802   3.625   4.428
10423SOL     OW32167   3.471   4.946   3.922
10423SOL    HW132168   3.466   5.046   3.925
10423SOL    HW232169   3.428   4.912   3.839
10424SOL     OW32170   3.802   1.062   6.573
10424SOL    HW132171   3.880   1.112   6.536
10424SOL    HW232172   3.814   0.964   6.559
10425SOL     OW32173   2.225   0.852   0.556
10425SOL    HW132174   2.314   0.896   0.548
10425SOL    HW232175   2.229   0.762   0.511
10426SOL     OW32176   5.639   2.866   6.017
10426SOL    HW132177   5.637   2.959   5.980
10426SOL    HW232178   5.724   2.853   6.069
10427SOL     OW32179   5.782   6.411   4.771
10427SOL    HW132180   5.762   6.412   4.869
10427SOL    HW232181   5.716   6.353   4.723
10428SOL     OW32182   1.929   1.154   3.615
10428SOL    HW132183   1.856   1.088   3.599
10428SOL    HW232184   1.989   1.157   3.535
10429SOL     OW32185   0.712   3.496   2.679
10429SOL    HW132186   0.789   3.526   2.623
10429SOL    HW232187   0.691   3.401   2.658
10430SOL     OW32188   3.602   0.844   3.832
10430SOL    HW132189   3.659   0.801   3.902
10430SOL    HW232190   3.635   0.818   3.741
10431SOL     OW32191   3.224   1.988   3.923
10431SOL    HW132192   3.135   1.956   3.891
10431SOL    HW232193   3.211   2.057   3.994
10432SOL     OW32194   6.898   6.680   5.990
10432SOL    HW132195   6.829   6.628   6.039
10432SOL    HW232196   6.939   6.748   6.051
10433SOL     OW32197   1.518   0.086   2.003
10433SOL    HW132198   1.578   0.141   1.945
10433SOL    HW232199   1.499   0.137   2.087
10434SOL     OW32200   4.724   6.396   5.732
10434SOL    HW132201   4.785   6.373   5.808
10434SOL    HW232202   4.638   6.432   5.767
10435SOL     OW32203   1.022   2.713   6.709
10435SOL    HW132204   1.054   2.807   6.715
10435SOL    HW232205   0.989   2.695   6.616
10436SOL     OW32206   0.259   4.542   5.079
10436SOL    HW132207   0.337   4.531   5.141
10436SOL    HW232208   0.175   4.552   5.133
10437SOL     OW32209   5.580   5.284   5.026
10437SOL    HW132210   5.568   5.225   4.945
10437SOL    HW232211   5.638   5.237   5.092
10438SOL     OW32212   6.707   6.261   6.138
10438SOL    HW132213   6.756   6.211   6.066
10438SOL    HW232214   6.655   6.335   6.097
10439SOL     OW32215   6.789   0.163   4.289
10439SOL    HW132216   6.731   0.119   4.357
10439SOL    HW232217   6.803   0.259   4.314
10440SOL     OW32218   6.882   2.140   6.475
10440SOL    HW132219   6.822   2.113   6.551
10440SOL    HW232220   6.965   2.085   6.477
10441SOL     OW32221   3.791   2.070   0.640
10441SOL    HW132222   3.734   2.100   0.564
10441SOL    HW232223   3.864   2.137   0.656
10442SOL     OW32224   2.472   1.800   5.550
10442SOL    HW132225   2.471   1.898   5.570
10442SOL    HW232226   2.385   1.775   5.507
10443SOL     OW32227   0.184   1.120   3.027
10443SOL    HW132228   0.178   1.112   3.127
10443SOL    HW232229   0.274   1.090   2.996
10444SOL     OW32230   4.021   5.458   4.445
10444SOL    HW132231   3.971   5.511   4.376
10444SOL    HW232232   4.059   5.376   4.402
10445SOL     OW32233   1.943   4.347   2.923
10445SOL    HW132234   1.909   4.325   2.832
10445SOL    HW232235   1.880   4.411   2.968
10446SOL     OW32236   1.878   4.101   5.122
10446SOL    HW132237   1.934   4.177   5.089
10446SOL    HW232238   1.884   4.026   5.057
10447SOL     OW32239   0.089   1.649   3.203
10447SOL    HW132240   0.164   1.640   3.268
10447SOL    HW232241   0.125   1.653   3.110
10448SOL     OW32242   2.506   6.673   3.010
10448SOL    HW132243   2.544   6.765   3.020
10448SOL    HW232244   2.529   6.619   3.091
10449SOL     OW32245   3.597   5.779   6.562
10449SOL    HW132246   3.664   5.784   6.636
10449SOL    HW232247   3.542   5.696   6.572
10450SOL     OW32248   6.908   0.078   6.321
10450SOL    HW132249   6.985   0.099   6.381
10450SOL    HW232250   6.919   7.012   6.284
10451SOL     OW32251   2.380   0.640   3.800
10451SOL    HW132252   2.473   0.668   3.820
10451SOL    HW232253   2.341   0.700   3.730
10452SOL     OW32254   6.802   3.508   4.074
10452SOL    HW132255   6.760   3.515   4.164
10452SOL    HW232256   6.869   3.434   4.074
10453SOL     OW32257   4.317   5.465   3.351
10453SOL    HW132258   4.359   5.534   3.409
10453SOL    HW232259   4.233   5.431   3.394
10454SOL     OW32260   6.568   0.930   5.964
10454SOL    HW132261   6.537   0.939   5.869
10454SOL    HW232262   6.592   1.020   5.999
10455SOL     OW32263   5.796   6.580   4.394
10455SOL    HW132264   5.760   6.669   4.424
10455SOL    HW232265   5.861   6.593   4.319
10456SOL     OW32266   0.297   5.019   7.010
10456SOL    HW132267   0.331   5.071   0.062
10456SOL    HW232268   0.204   4.987   0.003
10457SOL     OW32269   4.017   2.614   6.928
10457SOL    HW132270   3.925   2.625   6.966
10457SOL    HW232271   4.024   2.524   6.885
10458SOL     OW32272   6.863   6.270   6.670
10458SOL    HW132273   6.816   6.358   6.671
10458SOL    HW232274   6.888   6.246   6.577
10459SOL     OW32275   6.922   5.603   0.618
10459SOL    HW132276   6.949   5.521   0.667
10459SOL    HW232277   6.924   5.682   0.679
10460SOL     OW32278   0.466   3.379   0.246
10460SOL    HW132279   0.532   3.312   0.212
10460SOL    HW232280   0.373   3.342   0.237
10461SOL     OW32281   0.405   5.645   5.233
10461SOL    HW132282   0.309   5.628   5.254
10461SOL    HW232283   0.451   5.682   5.314
10462SOL     OW32284   4.317   1.607   0.801
10462SOL    HW132285   4.294   1.576   0.709
10462SOL    HW232286   4.395   1.555   0.836
10463SOL     OW32287   4.962   2.957   5.984
10463SOL    HW132288   5.012   3.034   5.945
10463SOL    HW232289   4.930   2.981   6.076
10464SOL     OW32290   6.023   5.484   2.860
10464SOL    HW132291   6.032   5.530   2.948
10464SOL    HW232292   5.929   5.493   2.828
10465SOL     OW32293   5.630   3.555   1.957
10465SOL    HW132294   5.559   3.625   1.967
10465SOL    HW232295   5.684   3.573   1.875
10466SOL     OW32296   5.681   4.960   6.273
10466SOL    HW132297   5.657   4.897   6.347
10466SOL    HW232298   5.624   4.939   6.193
10467SOL     OW32299   1.478   2.795   6.873
10467SOL    HW132300   1.574   2.812   6.897
10467SOL    HW232301   1.439   2.730   6.939
10468SOL     OW32302   2.886   4.754   3.982
10468SOL    HW132303   2.960   4.759   4.049
10468SOL    HW232304   2.800   4.733   4.028
10469SOL     OW32305   6.147   1.576   5.017
10469SOL    HW132306   6.231   1.547   5.062
10469SOL    HW232307   6.094   1.496   4.990
10470SOL     OW32308   2.541   2.548   3.925
10470SOL    HW132309   2.443   2.539   3.908
10470SOL    HW232310   2.591   2.503   3.851
10471SOL     OW32311   2.990   0.490   0.569
10471SOL    HW132312   2.961   0.482   0.474
10471SOL    HW232313   3.019   0.584   0.588
10472SOL     OW32314   3.549   5.082   0.588
10472SOL    HW132315   3.553   5.140   0.507
10472SOL    HW232316   3.641   5.070   0.626
10473SOL     OW32317   5.318   4.578   6.544
10473SOL    HW132318   5.343   4.562   6.640
10473SOL    HW232319   5.230   4.535   6.525
10474SOL     OW32320   5.473   0.955   3.943
10474SOL    HW132321   5.523   1.031   3.901
10474SOL    HW232322   5.398   0.927   3.883
10475SOL     OW32323   1.388   6.383   1.850
10475SOL    HW132324   1.305   6.434   1.825
10475SOL    HW232325   1.394   6.301   1.793
10476SOL     OW32326   3.899   6.098   0.430
10476SOL    HW132327   3.912   5.998   0.433
10476SOL    HW232328   3.965   6.142   0.491
10477SOL     OW32329   6.258   6.434   4.027
10477SOL    HW132330   6.175   6.385   4.000
10477SOL    HW232331   6.263   6.521   3.978
10478SOL     OW32332   6.341   6.949   0.408
10478SOL    HW132333   6.257   6.967   0.357
10478SOL    HW232334   6.408   7.020   0.387
10479SOL     OW32335   0.119   1.801   2.469
10479SOL    HW132336   0.056   1.752   2.529
10479SOL    HW232337   0.136   1.747   2.387
10480SOL     OW32338   1.194   0.362   1.979
10480SOL    HW132339   1.229   0.449   2.015
10480SOL    HW232340   1.250   0.334   1.901
10481SOL     OW32341   0.593   0.183   3.152
10481SOL    HW132342   0.625   0.090   3.170
10481SOL    HW232343   0.500   0.193   3.187
10482SOL     OW32344   5.464   3.306   3.325
10482SOL    HW132345   5.499   3.371   3.257
10482SOL    HW232346   5.368   3.287   3.306
10483SOL     OW32347   5.994   5.200   0.429
10483SOL    HW132348   5.978   5.167   0.522
10483SOL    HW232349   6.036   5.291   0.432
10484SOL     OW32350   6.425   1.102   1.511
10484SOL    HW132351   6.472   1.014   1.519
10484SOL    HW232352   6.334   1.088   1.473
10485SOL     OW32353   4.900   3.820   5.981
10485SOL    HW132354   4.820   3.869   5.947
10485SOL    HW232355   4.910   3.734   5.931
10486SOL     OW32356   6.211   2.876   0.767
10486SOL    HW132357   6.306   2.862   0.797
10486SOL    HW232358   6.182   2.799   0.710
10487SOL     OW32359   5.817   6.326   1.182
10487SOL    HW132360   5.816   6.299   1.086
10487SOL    HW232361   5.904   6.299   1.224
10488SOL     OW32362   2.482   2.896   6.553
10488SOL    HW132363   2.396   2.943   6.568
10488SOL    HW232364   2.555   2.941   6.605
10489SOL     OW32365   6.689   5.829   6.563
10489SOL    HW132366   6.784   5.850   6.587
10489SOL    HW232367   6.630   5.902   6.599
10490SOL     OW32368   6.835   1.020   3.300
10490SOL    HW132369   6.744   0.980   3.297
10490SOL    HW232370   6.841   1.086   3.375
10491SOL     OW32371   2.361   4.320   6.227
10491SOL    HW132372   2.294   4.327   6.153
10491SOL    HW232373   2.394   4.225   6.233
10492SOL     OW32374   4.910   3.463   5.256
10492SOL    HW132375   4.826   3.499   5.218
10492SOL    HW232376   4.988   3.496   5.204
10493SOL     OW32377   3.560   0.757   1.674
10493SOL    HW132378   3.477   0.812   1.687
10493SOL    HW232379   3.610   0.791   1.595
10494SOL     OW32380   5.386   1.933   4.265
10494SOL    HW132381   5.468   1.973   4.306
10494SOL    HW232382   5.309   1.941   4.329
10495SOL     OW32383   2.389   6.642   0.499
10495SOL    HW132384   2.465   6.588   0.534
10495SOL    HW232385   2.388   6.638   0.399
10496SOL     OW32386   6.939   6.831   6.809
10496SOL    HW132387   7.007   6.902   6.828
10496SOL    HW232388   6.877   6.862   6.738
10497SOL     OW32389   1.479   0.485   0.630
10497SOL    HW132390   1.433   0.567   0.663
10497SOL    HW232391   1.525   0.440   0.707
10498SOL     OW32392   1.917   6.961   6.553
10498SOL    HW132393   1.906   6.955   6.652
10498SOL    HW232394   2.008   6.926   6.527
10499SOL     OW32395   2.942   6.084   3.283
10499SOL    HW132396   2.999   6.140   3.343
10499SOL    HW232397   2.884   6.025   3.338
10500SOL     OW32398   0.988   2.394   5.886
10500SOL    HW132399   1.074   2.445   5.879
10500SOL    HW232400   0.925   2.444   5.946
10501SOL     OW32401   2.181   4.467   2.911
10501SOL    HW132402   2.195   4.493   2.815
10501SOL    HW232403   2.095   4.416   2.919
10502SOL     OW32404   3.358   6.828   0.319
10502SOL    HW132405   3.359   6.741   0.368
10502SOL    HW232406   3.375   6.812   0.222
10503SOL     OW32407   3.845   2.731   0.353
10503SOL    HW132408   3.811   2.741   0.259
10503SOL    HW232409   3.854   2.821   0.395
10504SOL     OW32410   2.565   3.044   6.980
10504SOL    HW132411   2.498   3.106   7.022
10504SOL    HW232412   2.609   2.989   0.026
10505SOL     OW32413   5.992   6.121   0.969
10505SOL    HW132414   5.910   6.156   0.924
10505SOL    HW232415   6.036   6.195   1.020
10506SOL     OW32416   0.410   4.304   6.282
10506SOL    HW132417   0.471   4.258   6.347
10506SOL    HW232418   0.411   4.255   6.195
10507SOL     OW32419   1.439   0.430   6.439
10507SOL    HW132420   1.527   0.415   6.394
10507SOL    HW232421   1.366   0.396   6.380
10508SOL     OW32422   5.532   5.195   3.503
10508SOL    HW132423   5.471   5.181   3.581
10508SOL    HW232424   5.625   5.213   3.535
10509SOL     OW32425   1.193   6.885   0.391
10509SOL    HW132426   1.105   6.843   0.369
10509SOL    HW232427   1.234   6.922   0.307
10510SOL     OW32428   5.744   5.389   6.239
10510SOL    HW132429   5.653   5.386   6.280
10510SOL    HW232430   5.814   5.378   6.310
10511SOL     OW32431   3.994   3.242   0.474
10511SOL    HW132432   3.951   3.275   0.557
10511SOL    HW232433   4.078   3.192   0.497
10512SOL     OW32434   4.774   0.549   6.553
10512SOL    HW132435   4.848   0.495   6.513
10512SOL    HW232436   4.811   0.612   6.621
10513SOL     OW32437   0.768   2.081   6.177
10513SOL    HW132438   0.814   2.021   6.242
10513SOL    HW232439   0.801   2.062   6.084
10514SOL     OW32440   6.169   4.270   0.072
10514SOL    HW132441   6.195   4.364   0.049
10514SOL    HW232442   6.245   4.225   0.118
10515SOL     OW32443   6.724   1.647   2.814
10515SOL    HW132444   6.787   1.695   2.753
10515SOL    HW232445   6.698   1.559   2.774
10516SOL     OW32446   4.496   0.624   6.507
10516SOL    HW132447   4.497   0.614   6.408
10516SOL    HW232448   4.588   0.607   6.543
10517SOL     OW32449   6.327   1.642   2.634
10517SOL    HW132450   6.364   1.595   2.554
10517SOL    HW232451   6.353   1.592   2.717
10518SOL     OW32452   0.774   5.840   0.169
10518SOL    HW132453   0.843   5.767   0.163
10518SOL    HW232454   0.815   5.927   0.144
10519SOL     OW32455   3.489   2.818   5.969
10519SOL    HW132456   3.432   2.768   6.034
10519SOL    HW232457   3.450   2.909   5.954
10520SOL     OW32458   2.934   2.776   6.387
10520SOL    HW132459   2.973   2.803   6.475
10520SOL    HW232460   2.834   2.784   6.390
10521SOL     OW32461   6.402   6.331   1.257
10521SOL    HW132462   6.425   6.251   1.313
10521SOL    HW232463   6.450   6.411   1.292
10522SOL     OW32464   6.760   1.317   0.581
10522SOL    HW132465   6.856   1.293   0.569
10522SOL    HW232466   6.727   1.365   0.500
10523SOL     OW32467   0.340   5.400   6.084
10523SOL    HW132468   0.280   5.338   6.034
10523SOL    HW232469   0.337   5.376   6.182
10524SOL     OW32470   1.966   6.671   4.447
10524SOL    HW132471   2.042   6.723   4.485
10524SOL    HW232472   1.880   6.707   4.482
10525SOL     OW32473   1.683   6.931   5.217
10525SOL    HW132474   1.690   6.880   5.131
10525SOL    HW232475   1.760   6.993   5.225
10526SOL     OW32476   0.750   0.901   2.409
10526SOL    HW132477   0.695   0.869   2.332
10526SOL    HW232478   0.689   0.931   2.483
10527SOL     OW32479   0.926   2.851   4.592
10527SOL    HW132480   1.017   2.811   4.593
10527SOL    HW232481   0.921   2.924   4.660
10528SOL     OW32482   0.768   4.884   4.800
10528SOL    HW132483   0.694   4.909   4.863
10528SOL    HW232484   0.729   4.864   4.710
10529SOL     OW32485   0.725   6.419   3.523
10529SOL    HW132486   0.683   6.503   3.490
10529SOL    HW232487   0.737   6.355   3.448
10530SOL     OW32488   2.188   2.021   6.295
10530SOL    HW132489   2.213   2.097   6.235
10530SOL    HW232490   2.153   1.945   6.240
10531SOL     OW32491   1.865   3.534   4.779
10531SOL    HW132492   1.957   3.521   4.743
10531SOL    HW232493   1.845   3.461   4.845
10532SOL     OW32494   2.828   2.746   6.844
10532SOL    HW132495   2.739   2.702   6.851
10532SOL    HW232496   2.831   2.827   6.902
10533SOL     OW32497   3.316   1.444   5.342
10533SOL    HW132498   3.272   1.516   5.397
10533SOL    HW232499   3.415   1.450   5.352
10534SOL     OW32500   7.006   6.087   1.113
10534SOL    HW132501   6.924   6.137   1.142
10534SOL    HW232502   0.057   6.114   1.170
10535SOL     OW32503   0.144   1.346   2.451
10535SOL    HW132504   0.143   1.246   2.451
10535SOL    HW232505   0.194   1.378   2.531
10536SOL     OW32506   4.879   0.274   3.301
10536SOL    HW132507   4.915   0.327   3.378
10536SOL    HW232508   4.865   0.179   3.329
10537SOL     OW32509   3.052   5.430   2.897
10537SOL    HW132510   2.970   5.480   2.870
10537SOL    HW232511   3.037   5.388   2.987
10538SOL     OW32512   4.206   4.005   6.740
10538SOL    HW132513   4.142   3.969   6.808
10538SOL    HW232514   4.287   3.948   6.738
10539SOL     OW32515   0.587   3.799   6.143
10539SOL    HW132516   0.659   3.819   6.210
10539SOL    HW232517   0.540   3.714   6.169
10540SOL     OW32518   1.455   1.036   5.649
10540SOL    HW132519   1.360   1.048   5.678
10540SOL    HW232520   1.464   0.947   5.604
10541SOL     OW32521   3.806   3.522   1.156
10541SOL    HW132522   3.765   3.543   1.067
10541SOL    HW232523   3.735   3.491   1.220
10542SOL     OW32524   0.437   2.063   0.284
10542SOL    HW132525   0.383   2.052   0.201
10542SOL    HW232526   0.430   1.981   0.340
10543SOL     OW32527   0.478   1.967   5.764
10543SOL    HW132528   0.429   1.992   5.680
10543SOL    HW232529   0.423   1.994   5.843
10544SOL     OW32530   2.570   2.315   2.933
10544SOL    HW132531   2.668   2.332   2.920
10544SOL    HW232532   2.537   2.365   3.013
10545SOL     OW32533   6.983   0.184   2.384
10545SOL    HW132534   6.897   0.196   2.434
10545SOL    HW232535   6.986   0.091   2.346
10546SOL     OW32536   1.976   7.006   4.711
10546SOL    HW132537   2.047   0.050   4.698
10546SOL    HW232538   1.955   6.999   4.809
10547SOL     OW32539   4.536   0.861   1.746
10547SOL    HW132540   4.559   0.903   1.834
10547SOL    HW232541   4.438   0.872   1.728
10548SOL     OW32542   5.347   3.943   4.489
10548SOL    HW132543   5.264   3.895   4.461
10548SOL    HW232544   5.415   3.876   4.519
10549SOL     OW32545   0.681   0.484   2.396
10549SOL    HW132546   0.732   0.564   2.427
10549SOL    HW232547   0.655   0.429   2.475
10550SOL     OW32548   5.058   6.696   4.323
10550SOL    HW132549   4.986   6.707   4.392
10550SOL    HW232550   5.036   6.618   4.264
10551SOL     OW32551   1.193   2.435   5.091
10551SOL    HW132552   1.259   2.365   5.115
10551SOL    HW232553   1.110   2.423   5.147
10552SOL     OW32554   4.245   1.915   5.725
10552SOL    HW132555   4.339   1.899   5.695
10552SOL    HW232556   4.199   1.827   5.737
10553SOL     OW32557   0.751   5.294   1.084
10553SOL    HW132558   0.704   5.271   1.169
10553SOL    HW232559   0.797   5.212   1.049
10554SOL     OW32560   6.290   4.832   0.041
10554SOL    HW132561   6.241   4.890   0.105
10554SOL    HW232562   6.377   4.875   0.016
10555SOL     OW32563   3.312   1.716   1.924
10555SOL    HW132564   3.363   1.631   1.938
10555SOL    HW232565   3.339   1.756   1.835
10556SOL     OW32566   1.963   3.394   5.016
10556SOL    HW132567   2.038   3.327   5.019
10556SOL    HW232568   1.997   3.483   5.046
10557SOL     OW32569   0.200   2.497   3.023
10557SOL    HW132570   0.272   2.564   3.043
10557SOL    HW232571   0.234   2.433   2.954
10558SOL     OW32572   4.741   6.443   5.468
10558SOL    HW132573   4.733   6.542   5.458
10558SOL    HW232574   4.745   6.420   5.565
10559SOL     OW32575   4.063   1.579   0.962
10559SOL    HW132576   4.134   1.625   0.909
10559SOL    HW232577   4.022   1.644   1.025
10560SOL     OW32578   1.622   4.772   5.219
10560SOL    HW132579   1.569   4.693   5.250
10560SOL    HW232580   1.637   4.765   5.120
10561SOL     OW32581   1.803   4.913   0.032
10561SOL    HW132582   1.776   4.862   0.114
10561SOL    HW232583   1.850   4.851   6.995
10562SOL     OW32584   4.779   6.969   0.810
10562SOL    HW132585   4.821   7.024   0.738
10562SOL    HW232586   4.685   6.946   0.784
10563SOL     OW32587   1.948   1.637   4.634
10563SOL    HW132588   1.884   1.564   4.610
10563SOL    HW232589   2.003   1.660   4.554
10564SOL     OW32590   6.154   0.492   1.429
10564SOL    HW132591   6.165   0.589   1.452
10564SOL    HW232592   6.214   0.469   1.353
10565SOL     OW32593   6.808   1.236   5.660
10565SOL    HW132594   6.726   1.249   5.604
10565SOL    HW232595   6.874   1.308   5.639
10566SOL     OW32596   3.925   4.077   6.220
10566SOL    HW132597   3.976   4.011   6.166
10566SOL    HW232598   3.857   4.122   6.162
10567SOL     OW32599   1.865   3.175   4.318
10567SOL    HW132600   1.844   3.263   4.360
10567SOL    HW232601   1.963   3.155   4.328
10568SOL     OW32602   5.847   1.062   2.071
10568SOL    HW132603   5.933   1.066   2.020
10568SOL    HW232604   5.780   1.008   2.020
10569SOL     OW32605   6.351   3.465   2.604
10569SOL    HW132606   6.286   3.484   2.531
10569SOL    HW232607   6.441   3.503   2.580
10570SOL     OW32608   1.921   4.494   2.524
10570SOL    HW132609   1.841   4.523   2.472
10570SOL    HW232610   1.992   4.463   2.461
10571SOL     OW32611   6.523   5.506   3.546
10571SOL    HW132612   6.445   5.568   3.541
10571SOL    HW232613   6.603   5.556   3.581
10572SOL     OW32614   5.931   3.608   2.586
10572SOL    HW132615   5.923   3.547   2.507
10572SOL    HW232616   5.896   3.699   2.562
10573SOL     OW32617   5.662   5.963   3.769
10573SOL    HW132618   5.579   5.963   3.713
10573SOL    HW232619   5.639   5.987   3.863
10574SOL     OW32620   1.454   2.296   3.848
10574SOL    HW132621   1.381   2.271   3.912
10574SOL    HW232622   1.466   2.222   3.781
10575SOL     OW32623   0.650   0.550   4.222
10575SOL    HW132624   0.618   0.641   4.248
10575SOL    HW232625   0.715   0.517   4.289
10576SOL     OW32626   1.489   6.029   5.307
10576SOL    HW132627   1.563   6.056   5.246
10576SOL    HW232628   1.405   6.076   5.280
10577SOL     OW32629   2.107   3.216   6.333
10577SOL    HW132630   2.159   3.286   6.283
10577SOL    HW232631   2.036   3.260   6.387
10578SOL     OW32632   5.670   0.492   5.205
10578SOL    HW132633   5.753   0.458   5.248
10578SOL    HW232634   5.627   0.559   5.265
10579SOL     OW32635   4.111   1.195   0.743
10579SOL    HW132636   4.156   1.194   0.654
10579SOL    HW232637   4.128   1.109   0.790
10580SOL     OW32638   6.649   6.660   6.469
10580SOL    HW132639   6.570   6.713   6.501
10580SOL    HW232640   6.733   6.702   6.503
10581SOL     OW32641   6.161   0.415   3.129
10581SOL    HW132642   6.209   0.359   3.197
10581SOL    HW232643   6.080   0.454   3.171
10582SOL     OW32644   3.220   4.949   0.254
10582SOL    HW132645   3.304   4.976   0.207
10582SOL    HW232646   3.160   4.900   0.191
10583SOL     OW32647   3.828   0.787   6.520
10583SOL    HW132648   3.919   0.770   6.559
10583SOL    HW232649   3.759   0.743   6.577
10584SOL     OW32650   5.521   6.026   1.127
10584SOL    HW132651   5.511   5.941   1.075
10584SOL    HW232652   5.604   6.074   1.100
10585SOL     OW32653   1.475   3.221   5.933
10585SOL    HW132654   1.390   3.273   5.933
10585SOL    HW232655   1.531   3.248   5.854
10586SOL     OW32656   2.428   6.014   5.781
10586SOL    HW132657   2.527   6.006   5.774
10586SOL    HW232658   2.388   6.025   5.690
10587SOL     OW32659   6.090   3.434   0.177
10587SOL    HW132660   6.170   3.419   0.119
10587SOL    HW232661   6.091   3.369   0.254
10588SOL     OW32662   0.970   4.636   2.395
10588SOL    HW132663   0.958   4.539   2.375
10588SOL    HW232664   0.882   4.683   2.388
10589SOL     OW32665   5.657   2.877   4.300
10589SOL    HW132666   5.703   2.901   4.385
10589SOL    HW232667   5.705   2.800   4.257
10590SOL     OW32668   1.356   6.578   2.781
10590SOL    HW132669   1.319   6.550   2.692
10590SOL    HW232670   1.390   6.672   2.775
10591SOL     OW32671   1.831   1.721   5.565
10591SOL    HW132672   1.760   1.651   5.573
10591SOL    HW232673   1.901   1.705   5.635
10592SOL     OW32674   6.448   1.360   0.160
10592SOL    HW132675   6.539   1.370   0.201
10592SOL    HW232676   6.390   1.435   0.191
10593SOL     OW32677   2.509   5.877   1.664
10593SOL    HW132678   2.607   5.885   1.680
10593SOL    HW232679   2.489   5.790   1.618
10594SOL     OW32680   6.105   1.879   3.655
10594SOL    HW132681   6.023   1.852   3.605
10594SOL    HW232682   6.149   1.797   3.693
10595SOL     OW32683   3.299   6.854   5.971
10595SOL    HW132684   3.297   6.782   6.040
10595SOL    HW232685   3.342   6.818   5.888
10596SOL     OW32686   3.978   6.899   2.069
10596SOL    HW132687   4.016   6.867   2.156
10596SOL    HW232688   3.884   6.865   2.059
10597SOL     OW32689   2.696   1.215   4.857
10597SOL    HW132690   2.784   1.263   4.852
10597SOL    HW232691   2.694   1.158   4.939
10598SOL     OW32692   2.024   2.683   0.080
10598SOL    HW132693   2.116   2.646   0.069
10598SOL    HW232694   1.969   2.661   0.000
10599SOL     OW32695   6.162   1.461   6.929
10599SOL    HW132696   6.225   1.530   6.891
10599SOL    HW232697   6.215   1.392   6.979
10600SOL     OW32698   2.826   3.142   6.354
10600SOL    HW132699   2.775   3.202   6.293
10600SOL    HW232700   2.767   3.069   6.387
10601SOL     OW32701   2.771   6.258   6.372
10601SOL    HW132702   2.672   6.269   6.368
10601SOL    HW232703   2.814   6.314   6.301
10602SOL     OW32704   4.816   1.150   1.346
10602SOL    HW132705   4.766   1.182   1.266
10602SOL    HW232706   4.756   1.094   1.403
10603SOL     OW32707   1.310   6.084   3.779
10603SOL    HW132708   1.220   6.106   3.815
10603SOL    HW232709   1.300   6.031   3.695
10604SOL     OW32710   6.515   4.131   4.700
10604SOL    HW132711   6.454   4.055   4.725
10604SOL    HW232712   6.578   4.150   4.775
10605SOL     OW32713   1.160   5.233   0.595
10605SOL    HW132714   1.062   5.244   0.609
10605SOL    HW232715   1.209   5.253   0.679
10606SOL     OW32716   0.058   0.834   1.458
10606SOL    HW132717   6.992   0.874   1.465
10606SOL    HW232718   0.096   0.855   1.368
10607SOL     OW32719   4.445   4.599   6.317
10607SOL    HW132720   4.370   4.571   6.377
10607SOL    HW232721   4.413   4.667   6.252
10608SOL     OW32722   6.031   1.598   4.401
10608SOL    HW132723   6.109   1.635   4.350
10608SOL    HW232724   5.948   1.606   4.346
10609SOL     OW32725   4.051   5.967   1.556
10609SOL    HW132726   3.964   5.946   1.600
10609SOL    HW232727   4.124   5.915   1.602
10610SOL     OW32728   1.314   3.640   6.001
10610SOL    HW132729   1.400   3.619   5.954
10610SOL    HW232730   1.253   3.561   5.995
10611SOL     OW32731   5.572   2.856   6.332
10611SOL    HW132732   5.502   2.874   6.263
10611SOL    HW232733   5.662   2.855   6.289
10612SOL     OW32734   2.343   0.349   6.089
10612SOL    HW132735   2.324   0.251   6.086
10612SOL    HW232736   2.429   0.364   6.139
10613SOL     OW32737   0.055   6.776   5.286
10613SOL    HW132738   0.110   6.846   5.331
10613SOL    HW232739   0.113   6.696   5.266
10614SOL     OW32740   6.461   0.782   4.418
10614SOL    HW132741   6.548   0.829   4.402
10614SOL    HW232742   6.434   0.734   4.334
10615SOL     OW32743   4.795   5.662   5.240
10615SOL    HW132744   4.765   5.698   5.328
10615SOL    HW232745   4.829   5.737   5.183
10616SOL     OW32746   3.008   5.948   0.644
10616SOL    HW132747   2.957   5.975   0.725
10616SOL    HW232748   3.010   5.848   0.637
10617SOL     OW32749   2.438   2.586   0.357
10617SOL    HW132750   2.419   2.684   0.368
10617SOL    HW232751   2.362   2.543   0.307
10618SOL     OW32752   6.246   2.070   0.459
10618SOL    HW132753   6.340   2.037   0.453
10618SOL    HW232754   6.222   2.115   0.373
10619SOL     OW32755   0.700   3.804   3.053
10619SOL    HW132756   0.723   3.793   3.149
10619SOL    HW232757   0.771   3.859   3.008
10620SOL     OW32758   1.218   6.291   5.573
10620SOL    HW132759   1.214   6.218   5.504
10620SOL    HW232760   1.171   6.372   5.538
10621SOL     OW32761   1.320   5.817   6.840
10621SOL    HW132762   1.328   5.764   6.756
10621SOL    HW232763   1.270   5.901   6.821
10622SOL     OW32764   3.920   0.492   2.218
10622SOL    HW132765   3.849   0.475   2.286
10622SOL    HW232766   3.918   0.589   2.192
10623SOL     OW32767   5.511   2.462   3.852
10623SOL    HW132768   5.456   2.496   3.928
10623SOL    HW232769   5.592   2.415   3.887
10624SOL     OW32770   1.875   1.238   4.641
10624SOL    HW132771   1.947   1.305   4.653
10624SOL    HW232772   1.871   1.209   4.545
10625SOL     OW32773   0.604   3.823   6.784
10625SOL    HW132774   0.658   3.902   6.752
10625SOL    HW232775   0.530   3.806   6.721
10626SOL     OW32776   0.995   2.532   1.794
10626SOL    HW132777   0.900   2.537   1.761
10626SOL    HW232778   1.040   2.452   1.754
10627SOL     OW32779   6.557   6.613   2.331
10627SOL    HW132780   6.473   6.637   2.381
10627SOL    HW232781   6.590   6.693   2.281
10628SOL     OW32782   6.294   5.276   5.239
10628SOL    HW132783   6.333   5.356   5.193
10628SOL    HW232784   6.276   5.297   5.335
10629SOL     OW32785   2.252   4.816   5.889
10629SOL    HW132786   2.351   4.807   5.889
10629SOL    HW232787   2.212   4.752   5.823
10630SOL     OW32788   6.305   0.697   3.092
10630SOL    HW132789   6.247   0.616   3.075
10630SOL    HW232790   6.331   0.699   3.188
10631SOL     OW32791   0.389   6.920   3.730
10631SOL    HW132792   0.418   6.898   3.637
10631SOL    HW232793   0.451   6.879   3.796
10632SOL     OW32794   6.466   2.473   4.374
10632SOL    HW132795   6.390   2.427   4.329
10632SOL    HW232796   6.443   2.488   4.470
10633SOL     OW32797   2.512   5.081   1.544
10633SOL    HW132798   2.484   5.134   1.624
10633SOL    HW232799   2.451   5.102   1.467
10634SOL     OW32800   3.111   5.966   0.927
10634SOL    HW132801   3.011   5.975   0.918
10634SOL    HW232802   3.134   5.870   0.940
10635SOL     OW32803   3.261   0.837   0.999
10635SOL    HW132804   3.248   0.743   1.031
10635SOL    HW232805   3.336   0.840   0.933
10636SOL     OW32806   0.669   2.063   1.615
10636SOL    HW132807   0.652   2.144   1.560
10636SOL    HW232808   0.689   1.985   1.556
10637SOL     OW32809   3.312   4.083   5.144
10637SOL    HW132810   3.270   4.102   5.056
10637SOL    HW232811   3.393   4.141   5.155
10638SOL     OW32812   6.905   6.560   4.424
10638SOL    HW132813   6.982   6.562   4.360
10638SOL    HW232814   6.862   6.470   4.422
10639SOL     OW32815   0.634   1.240   4.737
10639SOL    HW132816   0.622   1.297   4.655
10639SOL    HW232817   0.590   1.152   4.722
10640SOL     OW32818   4.870   0.446   0.133
10640SOL    HW132819   4.866   0.463   0.231
10640SOL    HW232820   4.964   0.459   0.100
10641SOL     OW32821   5.141   2.019   0.162
10641SOL    HW132822   5.077   2.018   0.085
10641SOL    HW232823   5.089   2.020   0.247
10642SOL     OW32824   0.433   2.238   1.728
10642SOL    HW132825   0.420   2.142   1.754
10642SOL    HW232826   0.497   2.281   1.791
10643SOL     OW32827   2.283   3.729   5.213
10643SOL    HW132828   2.322   3.820   5.206
10643SOL    HW232829   2.347   3.668   5.259
10644SOL     OW32830   4.520   1.567   4.049
10644SOL    HW132831   4.448   1.512   4.092
10644SOL    HW232832   4.484   1.610   3.966
10645SOL     OW32833   1.437   0.571   4.655
10645SOL    HW132834   1.512   0.546   4.595
10645SOL    HW232835   1.401   0.660   4.628
10646SOL     OW32836   0.746   2.394   5.680
10646SOL    HW132837   0.762   2.492   5.668
10646SOL    HW232838   0.806   2.360   5.752
10647SOL     OW32839   6.364   4.659   0.578
10647SOL    HW132840   6.326   4.585   0.634
10647SOL    HW232841   6.302   4.737   0.578
10648SOL     OW32842   4.905   3.196   6.489
10648SOL    HW132843   4.960   3.117   6.516
10648SOL    HW232844   4.851   3.228   6.568
10649SOL     OW32845   0.298   5.166   5.696
10649SOL    HW132846   0.298   5.128   5.604
10649SOL    HW232847   0.231   5.241   5.702
10650SOL     OW32848   2.281   6.068   3.975
10650SOL    HW132849   2.256   5.997   3.910
10650SOL    HW232850   2.377   6.092   3.962
10651SOL     OW32851   4.587   6.668   5.777
10651SOL    HW132852   4.580   6.687   5.875
10651SOL    HW232853   4.514   6.606   5.750
10652SOL     OW32854   3.109   0.279   6.234
10652SOL    HW132855   3.073   0.301   6.144
10652SOL    HW232856   3.138   0.183   6.236
10653SOL     OW32857   5.057   4.656   4.105
10653SOL    HW132858   5.022   4.749   4.093
10653SOL    HW232859   4.981   4.594   4.123
10654SOL     OW32860   2.830   0.543   1.205
10654SOL    HW132861   2.814   0.514   1.110
10654SOL    HW232862   2.763   0.613   1.230
10655SOL     OW32863   3.261   6.203   1.838
10655SOL    HW132864   3.168   6.237   1.829
10655SOL    HW232865   3.278   6.133   1.769
10656SOL     OW32866   6.153   2.273   0.245
10656SOL    HW132867   6.179   2.338   0.174
10656SOL    HW232868   6.071   2.223   0.216
10657SOL     OW32869   5.479   0.092   0.771
10657SOL    HW132870   5.459   0.041   0.687
10657SOL    HW232871   5.417   0.170   0.778
10658SOL     OW32872   1.178   5.150   3.910
10658SOL    HW132873   1.251   5.110   3.965
10658SOL    HW232874   1.119   5.077   3.875
10659SOL     OW32875   5.786   0.017   0.602
10659SOL    HW132876   5.762   0.086   0.670
10659SOL    HW232877   5.880   7.014   0.616
10660SOL     OW32878   3.973   3.740   5.564
10660SOL    HW132879   4.006   3.803   5.494
10660SOL    HW232880   4.043   3.670   5.581
10661SOL     OW32881   0.392   6.419   1.929
10661SOL    HW132882   0.452   6.443   1.853
10661SOL    HW232883   0.389   6.495   1.994
10662SOL     OW32884   6.600   1.617   0.674
10662SOL    HW132885   6.584   1.583   0.581
10662SOL    HW232886   6.697   1.610   0.696
10663SOL     OW32887   0.684   0.503   1.066
10663SOL    HW132888   0.671   0.480   0.970
10663SOL    HW232889   0.713   0.599   1.073
10664SOL     OW32890   2.146   4.706   0.322
10664SOL    HW132891   2.074   4.695   0.253
10664SOL    HW232892   2.217   4.637   0.308
10665SOL     OW32893   0.040   2.276   0.553
10665SOL    HW132894   0.055   2.282   0.455
10665SOL    HW232895   6.980   2.229   0.571
10666SOL     OW32896   2.503   5.902   0.116
10666SOL    HW132897   2.479   5.975   0.052
10666SOL    HW232898   2.452   5.819   0.091
10667SOL     OW32899   3.905   1.748   5.893
10667SOL    HW132900   3.860   1.834   5.871
10667SOL    HW232901   3.844   1.692   5.949
10668SOL     OW32902   1.516   2.084   6.576
10668SOL    HW132903   1.460   2.001   6.574
10668SOL    HW232904   1.605   2.063   6.617
10669SOL     OW32905   1.486   0.166   0.085
10669SOL    HW132906   1.574   0.196   0.048
10669SOL    HW232907   1.419   0.241   0.078
10670SOL     OW32908   5.460   4.583   5.663
10670SOL    HW132909   5.453   4.505   5.725
10670SOL    HW232910   5.457   4.668   5.716
10671SOL     OW32911   2.353   2.674   3.076
10671SOL    HW132912   2.430   2.621   3.110
10671SOL    HW232913   2.310   2.625   3.000
10672SOL     OW32914   0.445   2.652   0.949
10672SOL    HW132915   0.512   2.725   0.962
10672SOL    HW232916   0.475   2.594   0.873
10673SOL     OW32917   2.709   2.886   5.353
10673SOL    HW132918   2.718   2.793   5.317
10673SOL    HW232919   2.630   2.931   5.311
10674SOL     OW32920   4.011   3.426   1.667
10674SOL    HW132921   3.964   3.338   1.668
10674SOL    HW232922   4.045   3.447   1.759
10675SOL     OW32923   0.236   6.831   5.675
10675SOL    HW132924   0.159   6.778   5.709
10675SOL    HW232925   0.321   6.779   5.688
10676SOL     OW32926   5.978   0.056   6.541
10676SOL    HW132927   6.014   0.002   6.617
10676SOL    HW232928   6.005   0.151   6.551
10677SOL     OW32929   0.439   0.749   1.247
10677SOL    HW132930   0.434   0.649   1.247
10677SOL    HW232931   0.422   0.783   1.340
10678SOL     OW32932   2.298   5.928   2.407
10678SOL    HW132933   2.217   5.872   2.391
10678SOL    HW232934   2.275   6.004   2.468
10679SOL     OW32935   5.605   5.432   4.094
10679SOL    HW132936   5.523   5.460   4.145
10679SOL    HW232937   5.587   5.438   3.996
10680SOL     OW32938   0.968   3.546   2.555
10680SOL    HW132939   0.928   3.518   2.467
10680SOL    HW232940   1.055   3.500   2.568
10681SOL     OW32941   6.685   2.624   5.597
10681SOL    HW132942   6.669   2.710   5.646
10681SOL    HW232943   6.607   2.563   5.611
10682SOL     OW32944   0.020   1.433   2.011
10682SOL    HW132945   6.975   1.476   2.066
10682SOL    HW232946   7.004   1.374   1.941
10683SOL     OW32947   1.758   1.918   4.493
10683SOL    HW132948   1.743   1.880   4.584
10683SOL    HW232949   1.812   1.855   4.439
10684SOL     OW32950   6.189   4.577   6.976
10684SOL    HW132951   6.095   4.555   6.951
10684SOL    HW232952   6.200   4.676   6.983
10685SOL     OW32953   0.370   3.118   3.397
10685SOL    HW132954   0.317   3.069   3.466
10685SOL    HW232955   0.443   3.169   3.441
10686SOL     OW32956   3.085   5.684   0.543
10686SOL    HW132957   3.127   5.663   0.631
10686SOL    HW232958   3.070   5.599   0.492
10687SOL     OW32959   0.106   4.795   2.728
10687SOL    HW132960   0.105   4.883   2.681
10687SOL    HW232961   0.120   4.810   2.826
10688SOL     OW32962   6.824   4.700   1.809
10688SOL    HW132963   6.756   4.739   1.870
10688SOL    HW232964   6.789   4.700   1.715
10689SOL     OW32965   0.381   0.452   2.560
10689SOL    HW132966   0.337   0.404   2.636
10689SOL    HW232967   0.460   0.503   2.595
10690SOL     OW32968   4.477   4.996   2.086
10690SOL    HW132969   4.568   5.035   2.073
10690SOL    HW232970   4.446   5.014   2.180
10691SOL     OW32971   6.889   1.233   1.497
10691SOL    HW132972   6.978   1.278   1.500
10691SOL    HW232973   6.832   1.267   1.572
10692SOL     OW32974   3.515   5.743   3.507
10692SOL    HW132975   3.425   5.724   3.546
10692SOL    HW232976   3.553   5.825   3.551
10693SOL     OW32977   6.582   1.550   1.579
10693SOL    HW132978   6.569   1.595   1.667
10693SOL    HW232979   6.602   1.453   1.594
10694SOL     OW32980   4.422   6.228   0.902
10694SOL    HW132981   4.382   6.241   0.993
10694SOL    HW232982   4.496   6.293   0.889
10695SOL     OW32983   6.924   2.208   4.113
10695SOL    HW132984   6.944   2.305   4.096
10695SOL    HW232985   6.860   2.175   4.044
10696SOL     OW32986   6.874   5.964   1.561
10696SOL    HW132987   6.925   5.930   1.482
10696SOL    HW232988   6.882   5.898   1.637
10697SOL     OW32989   1.228   6.313   4.433
10697SOL    HW132990   1.179   6.364   4.363
10697SOL    HW232991   1.191   6.221   4.440
10698SOL     OW32992   2.910   6.977   4.055
10698SOL    HW132993   2.835   6.975   4.121
10698SOL    HW232994   2.971   0.028   4.075
10699SOL     OW32995   3.351   2.155   2.750
10699SOL    HW132996   3.431   2.096   2.760
10699SOL    HW232997   3.301   2.159   2.837
10700SOL     OW32998   6.913   6.701   1.175
10700SOL    HW132999   6.839   6.766   1.160
10700SOL    HW233000   6.956   6.678   1.087
10701SOL     OW33001   3.089   6.431   0.363
10701SOL    HW133002   3.090   6.415   0.264
10701SOL    HW233003   3.101   6.345   0.411
10702SOL     OW33004   5.954   2.704   0.436
10702SOL    HW133005   5.955   2.604   0.431
10702SOL    HW233006   6.022   2.741   0.372
10703SOL     OW33007   3.943   3.842   3.939
10703SOL    HW133008   3.976   3.853   4.033
10703SOL    HW233009   3.884   3.920   3.916
10704SOL     OW33010   4.978   0.052   2.546
10704SOL    HW133011   4.972   7.006   2.476
10704SOL    HW233012   5.074   0.079   2.557
10705SOL     OW33013   0.002   2.923   6.218
10705SOL    HW133014   7.020   2.960   6.126
10705SOL    HW233015   7.006   2.994   6.285
10706SOL     OW33016   3.334   0.795   2.390
10706SOL    HW133017   3.332   0.697   2.413
10706SOL    HW233018   3.307   0.848   2.470
10707SOL     OW33019   6.130   7.018   5.868
10707SOL    HW133020   6.051   0.052   5.879
10707SOL    HW233021   6.151   6.975   5.956
10708SOL     OW33022   4.374   0.989   0.451
10708SOL    HW133023   4.410   1.030   0.368
10708SOL    HW233024   4.433   0.915   0.481
10709SOL     OW33025   6.148   6.776   5.416
10709SOL    HW133026   6.152   6.856   5.476
10709SOL    HW233027   6.242   6.747   5.393
10710SOL     OW33028   6.024   5.352   3.691
10710SOL    HW133029   6.082   5.400   3.625
10710SOL    HW233030   5.928   5.367   3.667
10711SOL     OW33031   1.463   0.147   3.784
10711SOL    HW133032   1.440   0.158   3.881
10711SOL    HW233033   1.389   0.184   3.728
10712SOL     OW33034   3.696   1.054   5.283
10712SOL    HW133035   3.744   0.977   5.240
10712SOL    HW233036   3.622   1.085   5.224
10713SOL     OW33037   1.381   5.959   1.230
10713SOL    HW133038   1.327   5.887   1.187
10713SOL    HW233039   1.326   6.007   1.298
10714SOL     OW33040   0.363   5.555   5.618
10714SOL    HW133041   0.416   5.507   5.548
10714SOL    HW233042   0.374   5.507   5.706
10715SOL     OW33043   4.850   1.849   4.368
10715SOL    HW133044   4.893   1.886   4.450
10715SOL    HW233045   4.751   1.857   4.376
10716SOL     OW33046   6.441   0.434   4.073
10716SOL    HW133047   6.389   0.500   4.128
10716SOL    HW233048   6.392   0.347   4.072
10717SOL     OW33049   0.152   0.446   1.595
10717SOL    HW133050   0.094   0.527   1.599
10717SOL    HW233051   0.095   0.364   1.589
10718SOL     OW33052   6.259   5.089   6.567
10718SOL    HW133053   6.217   5.001   6.544
10718SOL    HW233054   6.296   5.130   6.483
10719SOL     OW33055   5.793   0.798   1.779
10719SOL    HW133056   5.719   0.820   1.841
10719SOL    HW233057   5.867   0.752   1.829
10720SOL     OW33058   0.423   3.591   6.195
10720SOL    HW133059   0.408   3.538   6.279
10720SOL    HW233060   0.340   3.588   6.139
10721SOL     OW33061   4.950   2.925   4.847
10721SOL    HW133062   5.040   2.902   4.811
10721SOL    HW233063   4.955   2.933   4.947
10722SOL     OW33064   7.001   3.595   0.022
10722SOL    HW133065   6.902   3.582   0.032
10722SOL    HW233066   7.024   3.599   6.951
10723SOL     OW33067   5.600   3.881   6.738
10723SOL    HW133068   5.529   3.926   6.683
10723SOL    HW233069   5.661   3.950   6.777
10724SOL     OW33070   4.155   6.379   6.510
10724SOL    HW133071   4.206   6.359   6.427
10724SOL    HW233072   4.202   6.338   6.588
10725SOL     OW33073   0.141   6.025   5.121
10725SOL    HW133074   0.087   5.941   5.112
10725SOL    HW233075   0.157   6.045   5.218
10726SOL     OW33076   5.106   0.834   4.263
10726SOL    HW133077   5.176   0.900   4.291
10726SOL    HW233078   5.026   0.843   4.322
10727SOL     OW33079   2.483   6.415   5.907
10727SOL    HW133080   2.449   6.323   5.921
10727SOL    HW233081   2.480   6.438   5.810
10728SOL     OW33082   4.830   6.163   3.120
10728SOL    HW133083   4.780   6.241   3.081
10728SOL    HW233084   4.916   6.195   3.159
10729SOL     OW33085   5.913   2.502   2.920
10729SOL    HW133086   5.856   2.582   2.902
10729SOL    HW233087   5.955   2.511   3.010
10730SOL     OW33088   2.038   6.580   2.806
10730SOL    HW133089   2.032   6.667   2.855
10730SOL    HW233090   1.974   6.581   2.729
10731SOL     OW33091   3.286   6.785   6.586
10731SOL    HW133092   3.211   6.746   6.640
10731SOL    HW233093   3.336   6.851   6.642
10732SOL     OW33094   5.760   5.873   3.437
10732SOL    HW133095   5.717   5.942   3.496
10732SOL    HW233096   5.699   5.852   3.361
10733SOL     OW33097   0.022   0.284   5.929
10733SOL    HW133098   7.004   0.374   5.925
10733SOL    HW233099   0.106   0.290   5.983
10734SOL     OW33100   1.493   1.358   5.695
10734SOL    HW133101   1.458   1.350   5.788
10734SOL    HW233102   1.457   1.283   5.639
10735SOL     OW33103   1.289   5.293   1.798
10735SOL    HW133104   1.290   5.290   1.698
10735SOL    HW233105   1.367   5.241   1.833
10736SOL     OW33106   6.058   0.083   3.820
10736SOL    HW133107   6.125   0.149   3.853
10736SOL    HW233108   6.070   0.068   3.722
10737SOL     OW33109   6.615   1.294   1.681
10737SOL    HW133110   6.539   1.233   1.663
10737SOL    HW233111   6.639   1.291   1.779
10738SOL     OW33112   2.856   0.414   1.712
10738SOL    HW133113   2.823   0.322   1.737
10738SOL    HW233114   2.938   0.435   1.766
10739SOL     OW33115   5.905   2.236   2.831
10739SOL    HW133116   5.962   2.215   2.751
10739SOL    HW233117   5.917   2.332   2.856
10740SOL     OW33118   1.306   6.666   6.342
10740SOL    HW133119   1.310   6.673   6.442
10740SOL    HW233120   1.273   6.575   6.316
10741SOL     OW33121   2.498   2.539   3.469
10741SOL    HW133122   2.410   2.526   3.515
10741SOL    HW233123   2.572   2.522   3.535
10742SOL     OW33124   6.115   6.193   3.043
10742SOL    HW133125   6.111   6.290   3.022
10742SOL    HW233126   6.024   6.153   3.036
10743SOL     OW33127   3.762   0.879   6.036
10743SOL    HW133128   3.668   0.860   6.008
10743SOL    HW233129   3.786   0.973   6.013
10744SOL     OW33130   1.852   0.566   0.270
10744SOL    HW133131   1.848   0.550   0.369
10744SOL    HW233132   1.918   0.503   0.229
10745SOL     OW33133   2.253   4.821   1.446
10745SOL    HW133134   2.278   4.734   1.402
10745SOL    HW233135   2.298   4.827   1.535
10746SOL     OW33136   1.686   6.376   6.309
10746SOL    HW133137   1.646   6.398   6.220
10746SOL    HW233138   1.651   6.440   6.378
10747SOL     OW33139   6.375   1.657   4.628
10747SOL    HW133140   6.301   1.715   4.663
10747SOL    HW233141   6.357   1.562   4.653
10748SOL     OW33142   4.000   6.155   1.327
10748SOL    HW133143   3.948   6.235   1.358
10748SOL    HW233144   4.034   6.104   1.406
10749SOL     OW33145   5.481   5.434   2.933
10749SOL    HW133146   5.411   5.404   2.869
10749SOL    HW233147   5.551   5.363   2.941
10750SOL     OW33148   4.639   2.428   4.337
10750SOL    HW133149   4.692   2.513   4.334
10750SOL    HW233150   4.641   2.384   4.247
10751SOL     OW33151   0.746   4.680   5.214
10751SOL    HW133152   0.673   4.681   5.281
10751SOL    HW233153   0.770   4.585   5.192
10752SOL     OW33154   6.161   6.363   1.023
10752SOL    HW133155   6.138   6.343   1.118
10752SOL    HW233156   6.239   6.307   0.995
10753SOL     OW33157   4.680   6.052   4.141
10753SOL    HW133158   4.672   6.132   4.082
10753SOL    HW233159   4.604   5.989   4.122
10754SOL     OW33160   1.590   3.522   1.726
10754SOL    HW133161   1.509   3.477   1.690
10754SOL    HW233162   1.565   3.583   1.801
10755SOL     OW33163   6.185   3.032   1.154
10755SOL    HW133164   6.263   3.074   1.107
10755SOL    HW233165   6.173   3.075   1.243
10756SOL     OW33166   0.200   2.569   0.779
10756SOL    HW133167   0.112   2.613   0.766
10756SOL    HW233168   0.221   2.511   0.700
10757SOL     OW33169   6.788   4.294   1.462
10757SOL    HW133170   6.851   4.311   1.538
10757SOL    HW233171   6.807   4.358   1.388
10758SOL     OW33172   0.601   0.112   6.687
10758SOL    HW133173   0.558   0.135   6.774
10758SOL    HW233174   0.662   0.185   6.659
10759SOL     OW33175   2.375   2.245   6.180
10759SOL    HW133176   2.428   2.280   6.257
10759SOL    HW233177   2.280   2.276   6.188
10760SOL     OW33178   0.230   5.405   0.239
10760SOL    HW133179   0.253   5.497   0.270
10760SOL    HW233180   0.139   5.405   0.198
10761SOL     OW33181   0.540   1.809   6.241
10761SOL    HW133182   0.511   1.904   6.243
10761SOL    HW233183   0.555   1.781   6.147
10762SOL     OW33184   3.787   6.488   6.038
10762SOL    HW133185   3.691   6.511   6.023
10762SOL    HW233186   3.799   6.389   6.030
10763SOL     OW33187   5.547   0.693   3.031
10763SOL    HW133188   5.597   0.724   2.950
10763SOL    HW233189   5.531   0.595   3.025
10764SOL     OW33190   4.029   0.797   4.772
10764SOL    HW133191   4.069   0.733   4.838
10764SOL    HW233192   4.067   0.888   4.788
10765SOL     OW33193   6.947   1.688   2.641
10765SOL    HW133194   6.943   1.784   2.667
10765SOL    HW233195   6.996   1.636   2.711
10766SOL     OW33196   1.903   4.986   6.127
10766SOL    HW133197   1.932   5.061   6.186
10766SOL    HW233198   1.873   5.023   6.039
10767SOL     OW33199   1.646   5.794   0.871
10767SOL    HW133200   1.745   5.776   0.869
10767SOL    HW233201   1.629   5.874   0.929
10768SOL     OW33202   5.989   5.697   0.560
10768SOL    HW133203   5.944   5.611   0.538
10768SOL    HW233204   6.029   5.736   0.477
10769SOL     OW33205   3.178   3.313   4.983
10769SOL    HW133206   3.100   3.264   5.022
10769SOL    HW233207   3.153   3.352   4.895
10770SOL     OW33208   5.080   6.863   3.834
10770SOL    HW133209   5.146   6.790   3.816
10770SOL    HW233210   5.072   6.921   3.753
10771SOL     OW33211   4.730   6.064   6.095
10771SOL    HW133212   4.723   6.159   6.124
10771SOL    HW233213   4.826   6.040   6.082
10772SOL     OW33214   5.850   4.656   2.727
10772SOL    HW133215   5.796   4.659   2.644
10772SOL    HW233216   5.937   4.704   2.713
10773SOL     OW33217   6.640   4.763   1.015
10773SOL    HW133218   6.605   4.791   1.104
10773SOL    HW233219   6.599   4.820   0.943
10774SOL     OW33220   1.591   3.206   0.561
10774SOL    HW133221   1.611   3.123   0.614
10774SOL    HW233222   1.676   3.240   0.519
10775SOL     OW33223   0.860   4.236   1.210
10775SOL    HW133224   0.929   4.212   1.143
10775SOL    HW233225   0.870   4.332   1.237
10776SOL     OW33226   0.982   1.739   3.368
10776SOL    HW133227   0.964   1.799   3.290
10776SOL    HW233228   0.994   1.645   3.335
10777SOL     OW33229   3.385   1.518   2.363
10777SOL    HW133230   3.441   1.435   2.361
10777SOL    HW233231   3.396   1.568   2.278
10778SOL     OW33232   6.033   6.373   3.534
10778SOL    HW133233   6.010   6.412   3.445
10778SOL    HW233234   6.112   6.421   3.572
10779SOL     OW33235   5.564   4.040   4.283
10779SOL    HW133236   5.630   4.099   4.330
10779SOL    HW233237   5.482   4.029   4.340
10780SOL     OW33238   1.303   5.758   4.743
10780SOL    HW133239   1.360   5.832   4.707
10780SOL    HW233240   1.352   5.711   4.817
10781SOL     OW33241   6.015   2.132   5.435
10781SOL    HW133242   6.004   2.132   5.534
10781SOL    HW233243   6.107   2.099   5.412
10782SOL     OW33244   1.341   2.867   5.020
10782SOL    HW133245   1.242   2.859   5.018
10782SOL    HW233246   1.367   2.961   5.044
10783SOL     OW33247   1.013   2.728   3.047
10783SOL    HW133248   1.110   2.744   3.063
10783SOL    HW233249   0.965   2.816   3.044
10784SOL     OW33250   3.759   6.403   2.031
10784SOL    HW133251   3.742   6.408   1.933
10784SOL    HW233252   3.857   6.414   2.049
10785SOL     OW33253   2.045   6.289   2.329
10785SOL    HW133254   1.947   6.279   2.344
10785SOL    HW233255   2.061   6.353   2.254
10786SOL     OW33256   4.287   0.928   1.802
10786SOL    HW133257   4.261   0.929   1.898
10786SOL    HW233258   4.273   1.019   1.763
10787SOL     OW33259   3.773   1.070   3.457
10787SOL    HW133260   3.749   1.095   3.551
10787SOL    HW233261   3.872   1.070   3.447
10788SOL     OW33262   0.526   4.812   0.734
10788SOL    HW133263   0.450   4.808   0.798
10788SOL    HW233264   0.523   4.899   0.685
10789SOL     OW33265   6.527   1.522   0.427
10789SOL    HW133266   6.598   1.496   0.362
10789SOL    HW233267   6.453   1.569   0.380
10790SOL     OW33268   0.255   2.341   4.814
10790SOL    HW133269   0.158   2.321   4.828
10790SOL    HW233270   0.299   2.263   4.770
10791SOL     OW33271   1.630   1.698   3.603
10791SOL    HW133272   1.547   1.662   3.561
10791SOL    HW233273   1.709   1.673   3.547
10792SOL     OW33274   3.651   2.285   1.195
10792SOL    HW133275   3.623   2.302   1.289
10792SOL    HW233276   3.603   2.205   1.159
10793SOL     OW33277   4.783   1.412   5.071
10793SOL    HW133278   4.779   1.490   5.008
10793SOL    HW233279   4.819   1.443   5.159
10794SOL     OW33280   4.491   3.428   0.683
10794SOL    HW133281   4.563   3.494   0.662
10794SOL    HW233282   4.434   3.463   0.757
10795SOL     OW33283   6.987   3.344   3.307
10795SOL    HW133284   0.057   3.370   3.292
10795SOL    HW233285   6.945   3.319   3.220
10796SOL     OW33286   6.934   6.763   0.088
10796SOL    HW133287   6.895   6.788   7.026
10796SOL    HW233288   7.011   6.823   0.109
10797SOL     OW33289   4.067   3.721   0.342
10797SOL    HW133290   4.039   3.682   0.430
10797SOL    HW233291   4.056   3.652   0.271
10798SOL     OW33292   2.333   0.074   6.096
10798SOL    HW133293   2.261   0.030   6.043
10798SOL    HW233294   2.419   0.026   6.082
10799SOL     OW33295   2.918   1.928   2.656
10799SOL    HW133296   2.983   2.004   2.651
10799SOL    HW233297   2.857   1.931   2.577
10800SOL     OW33298   1.480   0.214   5.417
10800SOL    HW133299   1.417   0.211   5.494
10800SOL    HW233300   1.444   0.160   5.342
10801SOL     OW33301   2.875   6.423   6.178
10801SOL    HW133302   2.846   6.359   6.108
10801SOL    HW233303   2.951   6.479   6.144
10802SOL     OW33304   0.405   4.177   4.940
10802SOL    HW133305   0.413   4.189   5.039
10802SOL    HW233306   0.414   4.266   4.895
10803SOL     OW33307   6.827   4.620   5.443
10803SOL    HW133308   6.762   4.544   5.434
10803SOL    HW233309   6.776   4.705   5.453
10804SOL     OW33310   5.169   4.851   1.669
10804SOL    HW133311   5.216   4.847   1.757
10804SOL    HW233312   5.157   4.759   1.633
10805SOL     OW33313   4.432   6.752   0.778
10805SOL    HW133314   4.415   6.656   0.798
10805SOL    HW233315   4.479   6.760   0.690
10806SOL     OW33316   4.896   3.854   0.282
10806SOL    HW133317   4.800   3.880   0.280
10806SOL    HW233318   4.922   3.814   0.194
10807SOL     OW33319   4.104   6.261   3.476
10807SOL    HW133320   4.007   6.268   3.498
10807SOL    HW233321   4.157   6.252   3.560
10808SOL     OW33322   0.044   2.676   6.291
10808SOL    HW133323   0.142   2.669   6.312
10808SOL    HW233324   0.024   2.765   6.251
10809SOL     OW33325   2.193   0.789   3.427
10809SOL    HW133326   2.153   0.767   3.516
10809SOL    HW233327   2.203   0.888   3.418
10810SOL     OW33328   6.676   1.203   5.057
10810SOL    HW133329   6.653   1.299   5.070
10810SOL    HW233330   6.776   1.193   5.049
10811SOL     OW33331   4.551   4.696   5.390
10811SOL    HW133332   4.612   4.721   5.466
10811SOL    HW233333   4.567   4.601   5.365
10812SOL     OW33334   6.617   2.394   2.952
10812SOL    HW133335   6.640   2.490   2.936
10812SOL    HW233336   6.591   2.351   2.866
10813SOL     OW33337   3.066   6.347   1.679
10813SOL    HW133338   2.984   6.377   1.726
10813SOL    HW233339   3.059   6.369   1.581
10814SOL     OW33340   1.573   0.151   4.651
10814SOL    HW133341   1.624   0.065   4.646
10814SOL    HW233342   1.568   0.181   4.746
10815SOL     OW33343   5.185   3.019   3.108
10815SOL    HW133344   5.210   2.998   3.203
10815SOL    HW233345   5.085   3.025   3.101
10816SOL     OW33346   2.241   1.591   2.365
10816SOL    HW133347   2.247   1.690   2.353
10816SOL    HW233348   2.284   1.566   2.452
10817SOL     OW33349   4.575   0.150   2.049
10817SOL    HW133350   4.573   0.067   2.104
10817SOL    HW233351   4.579   0.230   2.109
10818SOL     OW33352   4.705   3.354   6.654
10818SOL    HW133353   4.626   3.294   6.667
10818SOL    HW233354   4.687   3.442   6.698
10819SOL     OW33355   0.034   3.901   6.708
10819SOL    HW133356   0.074   3.993   6.699
10819SOL    HW233357   0.072   3.842   6.637
10820SOL     OW33358   0.249   6.322   4.738
10820SOL    HW133359   0.171   6.379   4.767
10820SOL    HW233360   0.268   6.254   4.809
10821SOL     OW33361   6.887   0.633   0.767
10821SOL    HW133362   6.879   0.666   0.861
10821SOL    HW233363   6.887   0.533   0.767
10822SOL     OW33364   0.986   4.000   2.030
10822SOL    HW133365   0.997   3.944   1.949
10822SOL    HW233366   1.002   3.945   2.112
10823SOL     OW33367   1.523   0.183   0.802
10823SOL    HW133368   1.605   0.150   0.754
10823SOL    HW233369   1.523   0.147   0.895
10824SOL     OW33370   5.489   0.235   2.403
10824SOL    HW133371   5.571   0.280   2.437
10824SOL    HW233372   5.502   0.136   2.405
10825SOL     OW33373   3.615   1.277   0.937
10825SOL    HW133374   3.710   1.256   0.961
10825SOL    HW233375   3.583   1.355   0.991
10826SOL     OW33376   6.593   3.026   2.476
10826SOL    HW133377   6.562   3.102   2.533
10826SOL    HW233378   6.583   3.051   2.379
10827SOL     OW33379   6.673   2.509   4.132
10827SOL    HW133380   6.650   2.562   4.050
10827SOL    HW233381   6.590   2.475   4.175
10828SOL     OW33382   0.856   5.885   0.512
10828SOL    HW133383   0.844   5.842   0.423
10828SOL    HW233384   0.805   5.971   0.515
10829SOL     OW33385   2.937   3.442   1.417
10829SOL    HW133386   2.936   3.342   1.419
10829SOL    HW233387   3.008   3.476   1.479
10830SOL     OW33388   4.822   2.790   4.284
10830SOL    HW133389   4.830   2.889   4.289
10830SOL    HW233390   4.758   2.757   4.353
10831SOL     OW33391   5.311   1.813   2.603
10831SOL    HW133392   5.408   1.798   2.584
10831SOL    HW233393   5.294   1.802   2.701
10832SOL     OW33394   0.144   1.868   0.883
10832SOL    HW133395   0.239   1.840   0.868
10832SOL    HW233396   0.093   1.791   0.922
10833SOL     OW33397   3.369   6.991   4.918
10833SOL    HW133398   3.465   7.020   4.920
10833SOL    HW233399   3.312   0.043   4.891
10834SOL     OW33400   0.689   1.660   4.793
10834SOL    HW133401   0.707   1.729   4.723
10834SOL    HW233402   0.592   1.662   4.818
10835SOL     OW33403   6.481   1.333   2.142
10835SOL    HW133404   6.500   1.375   2.231
10835SOL    HW233405   6.390   1.291   2.144
10836SOL     OW33406   1.918   2.575   6.868
10836SOL    HW133407   1.858   2.639   6.820
10836SOL    HW233408   1.900   2.482   6.837
10837SOL     OW33409   0.497   5.008   1.101
10837SOL    HW133410   0.504   4.972   1.008
10837SOL    HW233411   0.403   5.038   1.117
10838SOL     OW33412   5.661   6.594   6.959
10838SOL    HW133413   5.752   6.551   6.961
10838SOL    HW233414   5.660   6.673   7.020
10839SOL     OW33415   2.140   1.937   0.421
10839SOL    HW133416   2.189   2.017   0.456
10839SOL    HW233417   2.061   1.919   0.480
10840SOL     OW33418   4.051   5.459   1.821
10840SOL    HW133419   4.046   5.549   1.864
10840SOL    HW233420   3.966   5.410   1.836
10841SOL     OW33421   3.800   4.661   6.468
10841SOL    HW133422   3.876   4.634   6.409
10841SOL    HW233423   3.714   4.635   6.425
10842SOL     OW33424   6.177   2.630   1.694
10842SOL    HW133425   6.165   2.534   1.672
10842SOL    HW233426   6.235   2.673   1.625
10843SOL     OW33427   0.320   1.594   1.921
10843SOL    HW133428   0.305   1.555   2.012
10843SOL    HW233429   0.297   1.691   1.922
10844SOL     OW33430   4.673   6.879   3.756
10844SOL    HW133431   4.733   6.952   3.787
10844SOL    HW233432   4.657   6.814   3.830
10845SOL     OW33433   1.561   2.411   0.729
10845SOL    HW133434   1.463   2.400   0.715
10845SOL    HW233435   1.580   2.426   0.826
10846SOL     OW33436   3.810   1.628   1.524
10846SOL    HW133437   3.857   1.564   1.463
10846SOL    HW233438   3.876   1.666   1.590
10847SOL     OW33439   4.006   2.957   6.392
10847SOL    HW133440   3.981   2.906   6.474
10847SOL    HW233441   4.084   3.016   6.411
10848SOL     OW33442   1.262   0.682   6.373
10848SOL    HW133443   1.230   0.588   6.379
10848SOL    HW233444   1.340   0.687   6.310
10849SOL     OW33445   2.919   4.799   4.408
10849SOL    HW133446   2.999   4.782   4.350
10849SOL    HW233447   2.840   4.749   4.372
10850SOL     OW33448   5.214   6.685   0.622
10850SOL    HW133449   5.202   6.772   0.574
10850SOL    HW233450   5.287   6.695   0.690
10851SOL     OW33451   4.035   2.048   6.377
10851SOL    HW133452   3.972   2.058   6.454
10851SOL    HW233453   4.094   2.128   6.372
10852SOL     OW33454   0.265   0.339   6.064
10852SOL    HW133455   0.350   0.297   6.095
10852SOL    HW233456   0.285   0.409   5.995
10853SOL     OW33457   2.341   1.519   4.591
10853SOL    HW133458   2.411   1.559   4.533
10853SOL    HW233459   2.383   1.453   4.654
10854SOL     OW33460   6.959   6.282   0.094
10854SOL    HW133461   6.931   6.370   0.131
10854SOL    HW233462   6.970   6.216   0.169
10855SOL     OW33463   1.501   6.265   0.925
10855SOL    HW133464   1.521   6.185   0.869
10855SOL    HW233465   1.494   6.346   0.867
10856SOL     OW33466   6.466   6.771   6.627
10856SOL    HW133467   6.507   6.851   6.671
10856SOL    HW233468   6.476   6.691   6.688
10857SOL     OW33469   5.958   1.567   4.100
10857SOL    HW133470   5.909   1.503   4.041
10857SOL    HW233471   6.048   1.528   4.122
10858SOL     OW33472   2.268   2.075   0.195
10858SOL    HW133473   2.197   2.039   0.256
10858SOL    HW233474   2.355   2.080   0.244
10859SOL     OW33475   0.794   4.434   2.185
10859SOL    HW133476   0.719   4.465   2.244
10859SOL    HW233477   0.782   4.338   2.163
10860SOL     OW33478   6.531   2.180   0.178
10860SOL    HW133479   6.456   2.162   0.116
10860SOL    HW233480   6.554   2.277   0.175
10861SOL     OW33481   3.293   2.843   1.952
10861SOL    HW133482   3.241   2.901   2.015
10861SOL    HW233483   3.389   2.840   1.980
10862SOL     OW33484   3.728   3.130   5.744
10862SOL    HW133485   3.659   3.201   5.761
10862SOL    HW233486   3.683   3.044   5.721
10863SOL     OW33487   2.171   1.747   2.893
10863SOL    HW133488   2.152   1.666   2.837
10863SOL    HW233489   2.263   1.740   2.932
10864SOL     OW33490   3.098   4.754   1.860
10864SOL    HW133491   3.106   4.722   1.766
10864SOL    HW233492   3.021   4.709   1.904
10865SOL     OW33493   4.216   1.461   3.414
10865SOL    HW133494   4.126   1.422   3.433
10865SOL    HW233495   4.285   1.388   3.411
10866SOL     OW33496   0.095   3.776   3.176
10866SOL    HW133497   0.015   3.723   3.205
10866SOL    HW233498   0.171   3.756   3.238
10867SOL     OW33499   4.302   3.440   0.470
10867SOL    HW133500   4.381   3.423   0.529
10867SOL    HW233501   4.257   3.525   0.497
10868SOL     OW33502   1.304   1.318   4.455
10868SOL    HW133503   1.377   1.287   4.516
10868SOL    HW233504   1.238   1.373   4.506
10869NA      NA33505   7.025   2.388   5.574
10870NA      NA33506   4.258   4.690   5.124
10871NA      NA33507   1.005   4.811   2.769
10872NA      NA33508   5.690   4.221   3.203
10873NA      NA33509   4.140   2.127   5.276
10874NA      NA33510   2.555   4.964   0.430
10875NA      NA33511   1.017   5.203   6.953
10876NA      NA33512   3.395   4.231   1.247
10877NA      NA33513   4.203   5.212   0.859
10878NA      NA33514   3.230   0.774   6.498
10879NA      NA33515   5.556   6.290   2.127
10880NA      NA33516   1.525   6.787   5.575
10881NA      NA33517   4.141   5.053   1.806
10882NA      NA33518   3.471   3.380   6.696
   7.02612   7.02612   7.02612
